 *******************************************************************************
 **                                                                           **
 **                              MOPAC v23.1.2                                **
 **                                                                           **
 *******************************************************************************
 **          Digital Object Identifier (DOI): 10.5281/zenodo.6511958          **
 **    Visit the DOI location for information on how to cite this program.    **
 *******************************************************************************

                              PM3 CALCULATION RESULTS

 *******************************************************************************
 *  CALCULATION DONE: (MAX THREADS = 1)              Tue Jun  3 16:29:39 2025  *
 *  PM3        - The PM3 Hamiltonian to be used
 *  PRECISE    - TIGHTER CRITERIA TO BE USED
 *  NOSYM      - POINT-GROUP SYMMETRY SET TO C1
 *  THREADS=1  - MULTI-THREADING NOT USED
 *  T=         - A TIME OF 172800.0 SECONDS REQUESTED
 *  DUMP=N     - RESTART FILE WRITTEN EVERY 7200.0 SECONDS REQUESTED
 *******************************************************************************
pm3  precise nosym THREADS=1
 InChI=1S/C10H12/c1-8-6-7-9-4-2-3-5-10(8)9/h2-10H,1H3

   ATOM   CHEMICAL          X               Y               Z
  NUMBER   SYMBOL      (ANGSTROMS)     (ANGSTROMS)     (ANGSTROMS)

     1       C         -0.15370000  *   0.32890000  *  -0.63370000  *
     2       C         -1.20270000  *   0.10470000  *   0.47690000  *
     3       C          0.70230000  *  -0.96510000  *  -0.65420000  *
     4       C         -2.60620000  *   0.55330000  *   0.06190000  *
     5       C         -1.15410000  *  -1.36550000  *   0.71610000  *
     6       C          0.62430000  *   1.60370000  *  -0.41560000  *
     7       C         -0.12610000  *  -1.93910000  *   0.11140000  *
     8       C          2.05510000  *  -0.83580000  *   0.00180000  *
     9       C          1.87860000  *   1.60200000  *   0.03510000  *
    10       C          2.59760000  *   0.34780000  *   0.28910000  *
    11       H         -0.91040000  *   0.62070000  *   1.41910000  *
    12       H         -0.65920000  *   0.41080000  *  -1.62280000  *
    13       H          0.83730000  *  -1.32580000  *  -1.69700000  *
    14       H         -2.94830000  *   0.00080000  *  -0.83990000  *
    15       H         -3.32350000  *   0.36700000  *   0.88940000  *
    16       H         -2.60250000  *   1.64130000  *  -0.16120000  *
    17       H          0.12160000  *   2.55060000  *  -0.56890000  *
    18       H         -1.83970000  *  -1.90340000  *   1.36340000  *
    19       H          2.63420000  *  -1.73340000  *   0.18390000  *
    20       H          0.10370000  *  -2.99610000  *   0.20200000  *
    21       H          3.59180000  *   0.38980000  *   0.71550000  *
    22       H          2.38000000  *   2.54290000  *   0.22260000  *



          CARTESIAN COORDINATES 

    NO.       ATOM           X           Y           Z

     1         C         -0.1537      0.3289     -0.6337
     2         C         -1.2027      0.1047      0.4769
     3         C          0.7023     -0.9651     -0.6542
     4         C         -2.6062      0.5533      0.0619
     5         C         -1.1541     -1.3655      0.7161
     6         C          0.6243      1.6037     -0.4156
     7         C         -0.1261     -1.9391      0.1114
     8         C          2.0551     -0.8358      0.0018
     9         C          1.8786      1.6020      0.0351
    10         C          2.5976      0.3478      0.2891
    11         H         -0.9104      0.6207      1.4191
    12         H         -0.6592      0.4108     -1.6228
    13         H          0.8373     -1.3258     -1.6970
    14         H         -2.9483      0.0008     -0.8399
    15         H         -3.3235      0.3670      0.8894
    16         H         -2.6025      1.6413     -0.1612
    17         H          0.1216      2.5506     -0.5689
    18         H         -1.8397     -1.9034      1.3634
    19         H          2.6342     -1.7334      0.1839
    20         H          0.1037     -2.9961      0.2020
    21         H          3.5918      0.3898      0.7155
    22         H          2.3800      2.5429      0.2226

  H: (PM3): J. J. P. STEWART, J. COMP. CHEM. 10, 209 (1989).
  C: (PM3): J. J. P. STEWART, J. COMP. CHEM. 10, 209 (1989).

           Empirical Formula: C10 H12  =    22 atoms



      MOLECULAR POINT GROUP   :   C1  


      RHF CALCULATION, NO. OF DOUBLY OCCUPIED LEVELS = 26


          Geometry optimization using EF

          DIAGONAL MATRIX USED AS START HESSIAN

 CYCLE:     1 TIME:   0.008 TIME LEFT:  2.00D  GRAD.:    74.095 HEAT:  38.30480
 CYCLE:     2 TIME:   0.016 TIME LEFT:  2.00D  GRAD.:    44.884 HEAT:  36.93017
 CYCLE:     3 TIME:   0.008 TIME LEFT:  2.00D  GRAD.:    62.932 HEAT:  36.79863
 CYCLE:     4 TIME:   0.008 TIME LEFT:  2.00D  GRAD.:    39.811 HEAT:  36.31188
 CYCLE:     5 TIME:   0.004 TIME LEFT:  2.00D  GRAD.:    40.275 HEAT:  36.01802
 CYCLE:     6 TIME:   0.012 TIME LEFT:  2.00D  GRAD.:    24.429 HEAT:  35.73953
 CYCLE:     7 TIME:   0.008 TIME LEFT:  2.00D  GRAD.:    28.831 HEAT:  35.67331
 CYCLE:     8 TIME:   0.008 TIME LEFT:  2.00D  GRAD.:    35.921 HEAT:  35.66663
 CYCLE:     9 TIME:   0.004 TIME LEFT:  2.00D  GRAD.:    33.220 HEAT:  35.62999
 CYCLE:    10 TIME:   0.008 TIME LEFT:  2.00D  GRAD.:    29.912 HEAT:  35.59415
 CYCLE:    11 TIME:   0.008 TIME LEFT:  2.00D  GRAD.:    28.762 HEAT:  35.56092
 CYCLE:    12 TIME:   0.008 TIME LEFT:  2.00D  GRAD.:    10.698 HEAT:  35.36605
 CYCLE:    13 TIME:   0.012 TIME LEFT:  2.00D  GRAD.:    10.976 HEAT:  35.35199
 CYCLE:    14 TIME:   0.008 TIME LEFT:  2.00D  GRAD.:    12.162 HEAT:  35.34973
 CYCLE:    15 TIME:   0.008 TIME LEFT:  2.00D  GRAD.:    10.623 HEAT:  35.33058
 CYCLE:    16 TIME:   0.012 TIME LEFT:  2.00D  GRAD.:     4.593 HEAT:  35.30537
 CYCLE:    17 TIME:   0.012 TIME LEFT:  2.00D  GRAD.:     3.303 HEAT:  35.29822
 CYCLE:    18 TIME:   0.008 TIME LEFT:  2.00D  GRAD.:     3.534 HEAT:  35.29045
 CYCLE:    19 TIME:   0.008 TIME LEFT:  2.00D  GRAD.:     9.757 HEAT:  35.28127
 CYCLE:    20 TIME:   0.008 TIME LEFT:  2.00D  GRAD.:    10.800 HEAT:  35.27021
 CYCLE:    21 TIME:   0.008 TIME LEFT:  2.00D  GRAD.:     9.937 HEAT:  35.25930
 CYCLE:    22 TIME:   0.008 TIME LEFT:  2.00D  GRAD.:     7.804 HEAT:  35.24382
 CYCLE:    23 TIME:   0.008 TIME LEFT:  2.00D  GRAD.:     8.633 HEAT:  35.24217
 CYCLE:    24 TIME:   0.008 TIME LEFT:  2.00D  GRAD.:     6.045 HEAT:  35.22473
 CYCLE:    25 TIME:   0.004 TIME LEFT:  2.00D  GRAD.:     5.998 HEAT:  35.21780
 CYCLE:    26 TIME:   0.008 TIME LEFT:  2.00D  GRAD.:     5.173 HEAT:  35.20794
 CYCLE:    27 TIME:   0.004 TIME LEFT:  2.00D  GRAD.:     3.681 HEAT:  35.19402
 CYCLE:    28 TIME:   0.008 TIME LEFT:  2.00D  GRAD.:     4.262 HEAT:  35.17816
 CYCLE:    29 TIME:   0.008 TIME LEFT:  2.00D  GRAD.:     6.353 HEAT:  35.15440
 CYCLE:    30 TIME:   0.008 TIME LEFT:  2.00D  GRAD.:     5.519 HEAT:  35.13630
 CYCLE:    31 TIME:   0.008 TIME LEFT:  2.00D  GRAD.:     4.162 HEAT:  35.12085
 CYCLE:    32 TIME:   0.004 TIME LEFT:  2.00D  GRAD.:     4.170 HEAT:  35.10564
 CYCLE:    33 TIME:   0.008 TIME LEFT:  2.00D  GRAD.:     3.282 HEAT:  35.08744
 CYCLE:    34 TIME:   0.004 TIME LEFT:  2.00D  GRAD.:     2.855 HEAT:  35.06663
 CYCLE:    35 TIME:   0.008 TIME LEFT:  2.00D  GRAD.:     2.393 HEAT:  35.05922
 CYCLE:    36 TIME:   0.008 TIME LEFT:  2.00D  GRAD.:     3.029 HEAT:  35.04865
 CYCLE:    37 TIME:   0.008 TIME LEFT:  2.00D  GRAD.:     2.553 HEAT:  35.03447
 CYCLE:    38 TIME:   0.008 TIME LEFT:  2.00D  GRAD.:     2.030 HEAT:  35.02766
 CYCLE:    39 TIME:   0.004 TIME LEFT:  2.00D  GRAD.:     2.674 HEAT:  35.01683
 CYCLE:    40 TIME:   0.008 TIME LEFT:  2.00D  GRAD.:     3.104 HEAT:  35.00534
 CYCLE:    41 TIME:   0.008 TIME LEFT:  2.00D  GRAD.:     2.866 HEAT:  34.99277
 CYCLE:    42 TIME:   0.004 TIME LEFT:  2.00D  GRAD.:     2.451 HEAT:  34.97797
 CYCLE:    43 TIME:   0.008 TIME LEFT:  2.00D  GRAD.:     2.912 HEAT:  34.96239
 CYCLE:    44 TIME:   0.008 TIME LEFT:  2.00D  GRAD.:     3.395 HEAT:  34.94424
 CYCLE:    45 TIME:   0.004 TIME LEFT:  2.00D  GRAD.:     3.132 HEAT:  34.92586
 CYCLE:    46 TIME:   0.008 TIME LEFT:  2.00D  GRAD.:     2.686 HEAT:  34.90725
 CYCLE:    47 TIME:   0.008 TIME LEFT:  2.00D  GRAD.:     2.913 HEAT:  34.88924
 CYCLE:    48 TIME:   0.008 TIME LEFT:  2.00D  GRAD.:     2.627 HEAT:  34.87533
 CYCLE:    49 TIME:   0.004 TIME LEFT:  2.00D  GRAD.:     2.738 HEAT:  34.86665
 CYCLE:    50 TIME:   0.008 TIME LEFT:  2.00D  GRAD.:     1.984 HEAT:  34.85912
 CYCLE:    51 TIME:   0.004 TIME LEFT:  2.00D  GRAD.:     1.888 HEAT:  34.85198
 CYCLE:    52 TIME:   0.008 TIME LEFT:  2.00D  GRAD.:     1.744 HEAT:  34.84295
 CYCLE:    53 TIME:   0.008 TIME LEFT:  2.00D  GRAD.:     1.406 HEAT:  34.83817
 CYCLE:    54 TIME:   0.004 TIME LEFT:  2.00D  GRAD.:     0.965 HEAT:  34.83479
 CYCLE:    55 TIME:   0.008 TIME LEFT:  2.00D  GRAD.:     0.763 HEAT:  34.83315
 CYCLE:    56 TIME:   0.008 TIME LEFT:  2.00D  GRAD.:     0.590 HEAT:  34.83206
 CYCLE:    57 TIME:   0.008 TIME LEFT:  2.00D  GRAD.:     0.400 HEAT:  34.83155
 CYCLE:    58 TIME:   0.004 TIME LEFT:  2.00D  GRAD.:     0.309 HEAT:  34.83129
 CYCLE:    59 TIME:   0.008 TIME LEFT:  2.00D  GRAD.:     0.278 HEAT:  34.83113
 CYCLE:    60 TIME:   0.008 TIME LEFT:  2.00D  GRAD.:     0.216 HEAT:  34.83101
 CYCLE:    61 TIME:   0.004 TIME LEFT:  2.00D  GRAD.:     0.135 HEAT:  34.83092
 CYCLE:    62 TIME:   0.008 TIME LEFT:  2.00D  GRAD.:     0.105 HEAT:  34.83089
 CYCLE:    63 TIME:   0.004 TIME LEFT:  2.00D  GRAD.:     0.199 HEAT:  34.83088
 CYCLE:    64 TIME:   0.008 TIME LEFT:  2.00D  GRAD.:     0.114 HEAT:  34.83085
 CYCLE:    65 TIME:   0.004 TIME LEFT:  2.00D  GRAD.:     0.128 HEAT:  34.83080
 CYCLE:    66 TIME:   0.004 TIME LEFT:  2.00D  GRAD.:     0.101 HEAT:  34.83078
 CYCLE:    67 TIME:   0.012 TIME LEFT:  2.00D  GRAD.:     0.107 HEAT:  34.83072
 CYCLE:    68 TIME:   0.008 TIME LEFT:  2.00D  GRAD.:     0.133 HEAT:  34.83068
 CYCLE:    69 TIME:   0.008 TIME LEFT:  2.00D  GRAD.:     0.149 HEAT:  34.83061
 CYCLE:    70 TIME:   0.008 TIME LEFT:  2.00D  GRAD.:     0.108 HEAT:  34.83048
 CYCLE:    71 TIME:   0.004 TIME LEFT:  2.00D  GRAD.:     0.073 HEAT:  34.83042
 CYCLE:    72 TIME:   0.008 TIME LEFT:  2.00D  GRAD.:     0.049 HEAT:  34.83041

     GRADIENT =  0.04864 IS LESS THAN CUTOFF =  0.05000



 -------------------------------------------------------------------------------
 pm3  precise nosym THREADS=1
 InChI=1S/C10H12/c1-8-6-7-9-4-2-3-5-10(8)9/h2-10H,1H3



     GEOMETRY OPTIMISED USING EIGENVECTOR FOLLOWING (EF).     
     SCF FIELD WAS ACHIEVED                                   


                              PM3 CALCULATION
                                                       MOPAC v23.1.2 MacOS
                                                       Tue Jun  3 16:29:40 2025




          FINAL HEAT OF FORMATION =         34.83041 KCAL/MOL =     145.73043 KJ/MOL


          COSMO AREA              =        175.24 SQUARE ANGSTROMS
          COSMO VOLUME            =        180.99 CUBIC ANGSTROMS

          GRADIENT NORM           =          0.04864          =       0.01037 PER ATOM
          IONIZATION POTENTIAL    =          8.998096 EV
          HOMO LUMO ENERGIES (EV) =         -8.998  0.267
          NO. OF FILLED LEVELS    =         26
          MOLECULAR WEIGHT        =        132.2048         POINT GROUP:  C1  

          MOLECULAR DIMENSIONS (Angstroms)

            Atom       Atom       Distance
            H    21    H    15     7.19287
            H    20    H    17     5.48010
            H    11    H    13     3.19064


          SCF CALCULATIONS        =         80

          WALL-CLOCK TIME         =      0.531 SECONDS
          COMPUTATION TIME        =      0.366 SECONDS




   ATOM   CHEMICAL          X               Y               Z
  NUMBER   SYMBOL      (ANGSTROMS)     (ANGSTROMS)     (ANGSTROMS)

     1       C         -0.14300907  *   0.38600515  *  -0.56269533  *
     2       C         -1.29334983  *   0.14326589  *   0.45542012  *
     3       C          0.66269160  *  -0.93849663  *  -0.61685959  *
     4       C         -2.65783770  *   0.44402479  *  -0.13091607  *
     5       C         -1.15733834  *  -1.30058921  *   0.84079318  *
     6       C          0.64226835  *   1.59305059  *  -0.18816754  *
     7       C         -0.09642471  *  -1.88201250  *   0.27493163  *
     8       C          2.08831223  *  -0.84683261  *  -0.19701389  *
     9       C          1.94442865  *   1.55715070  *   0.11692406  *
    10       C          2.68034369  *   0.30847133  *   0.12594677  *
    11       H         -1.14194252  *   0.77046672  *   1.36672127  *
    12       H         -0.57139326  *   0.58344357  *  -1.57522607  *
    13       H          0.65634598  *  -1.33884820  *  -1.65982146  *
    14       H         -2.86647050  *  -0.16776962  *  -1.01863091  *
    15       H         -3.45391676  *   0.24575855  *   0.59827338  *
    16       H         -2.73460604  *   1.49734320  *  -0.43056789  *
    17       H          0.08248255  *   2.53557601  *  -0.17130403  *
    18       H         -1.87516675  *  -1.76904795  *   1.51417018  *
    19       H          2.63761111  *  -1.79470071  *  -0.16698392  *
    20       H          0.23388483  *  -2.91178405  *   0.41053513  *
    21       H          3.73591204  *   0.34554276  *   0.41438086  *
    22       H          2.49244715  *   2.46863474  *   0.37729039  *

                             CARTESIAN COORDINATES

   1    C       -0.143009068     0.386005148    -0.562695330
   2    C       -1.293349835     0.143265887     0.455420117
   3    C        0.662691600    -0.938496626    -0.616859592
   4    C       -2.657837705     0.444024786    -0.130916072
   5    C       -1.157338345    -1.300589206     0.840793183
   6    C        0.642268351     1.593050593    -0.188167537
   7    C       -0.096424710    -1.882012501     0.274931634
   8    C        2.088312234    -0.846832610    -0.197013886
   9    C        1.944428647     1.557150701     0.116924064
  10    C        2.680343695     0.308471328     0.125946769
  11    H       -1.141942523     0.770466721     1.366721269
  12    H       -0.571393261     0.583443566    -1.575226068
  13    H        0.656345979    -1.338848202    -1.659821459
  14    H       -2.866470495    -0.167769624    -1.018630908
  15    H       -3.453916756     0.245758548     0.598273379
  16    H       -2.734606038     1.497343205    -0.430567891
  17    H        0.082482552     2.535576008    -0.171304028
  18    H       -1.875166753    -1.769047948     1.514170183
  19    H        2.637611111    -1.794700709    -0.166983916
  20    H        0.233884831    -2.911784055     0.410535130
  21    H        3.735912044     0.345542761     0.414380858
  22    H        2.492447152     2.468634743     0.377290392


           Empirical Formula: C10 H12  =    22 atoms



      MOLECULAR POINT GROUP   :   C1  


                  EIGENVALUES  
 -41.95876 -35.25336 -32.04010 -28.76171 -27.30080 -23.61635 -21.16546 -20.37225
 -18.99277 -17.53472 -17.16231 -15.94286 -15.64998 -14.85056 -14.65121 -14.07934
 -13.78085 -13.33548 -13.16219 -12.63503 -12.19128 -12.00083 -11.66929 -11.35615
  -9.78017  -8.99810   0.26663   1.09675   2.10366   3.27658   3.29995   3.43857
   3.46010   3.59934   3.71147   3.79909   3.86904   3.92310   4.09526   4.20191
   4.38244   4.47955   4.56971   4.59676   4.92665   5.08883   5.12046   5.39304
   5.56149   5.93048   6.01391   6.27694


              NET ATOMIC CHARGES AND DIPOLE CONTRIBUTIONS

  ATOM NO.   TYPE          CHARGE      No. of ELECS.   s-Pop       p-Pop       
    1          C          -0.042980        4.0430     1.17462     2.86836
    2          C          -0.045933        4.0459     1.17352     2.87241
    3          C          -0.007731        4.0077     1.15890     2.84883
    4          C          -0.104159        4.1042     1.13942     2.96474
    5          C          -0.147137        4.1471     1.20306     2.94408
    6          C          -0.131004        4.1310     1.19592     2.93508
    7          C          -0.147117        4.1471     1.20346     2.94366
    8          C          -0.123780        4.1238     1.19469     2.92909
    9          C          -0.108151        4.1082     1.17751     2.93064
   10          C          -0.111060        4.1111     1.17747     2.93359
   11          H           0.075496        0.9245     0.92450
   12          H           0.073018        0.9270     0.92698
   13          H           0.072804        0.9272     0.92720
   14          H           0.042313        0.9577     0.95769
   15          H           0.040065        0.9599     0.95993
   16          H           0.039044        0.9610     0.96096
   17          H           0.099474        0.9005     0.90053
   18          H           0.113289        0.8867     0.88671
   19          H           0.099497        0.9005     0.90050
   20          H           0.112573        0.8874     0.88743
   21          H           0.100952        0.8990     0.89905
   22          H           0.100527        0.8995     0.89947
 DIPOLE           X         Y         Z       TOTAL
 POINT-CHG.    -0.304    -0.036    -0.119     0.328
 HYBRID        -0.011    -0.022     0.032     0.041
 SUM           -0.315    -0.058    -0.087     0.331


          ATOMIC ORBITAL ELECTRON POPULATIONS

     Atom    s        px        py        pz   
    1  C   1.17462   0.95106   0.93142   0.98589
    2  C   1.17352   0.94351   0.95229   0.97661
    3  C   1.15890   0.92774   0.94012   0.98098
    4  C   1.13942   0.95673   1.00533   1.00267
    5  C   1.20306   0.98500   0.96329   0.99578
    6  C   1.19592   0.96096   0.97591   0.99821
    7  C   1.20346   0.97159   0.98184   0.99023
    8  C   1.19469   0.95746   0.97645   0.99518
    9  C   1.17751   0.95424   0.96725   1.00916
   10  C   1.17747   0.98228   0.94013   1.01119
   11  H   0.92450
   12  H   0.92698
   13  H   0.92720
   14  H   0.95769
   15  H   0.95993
   16  H   0.96096
   17  H   0.90053
   18  H   0.88671
   19  H   0.90050
   20  H   0.88743
   21  H   0.89905
   22  H   0.89947
 *******************************************************************************
 **                                                                           **
 **                              MOPAC v23.1.2                                **
 **                                                                           **
 *******************************************************************************
 **          Digital Object Identifier (DOI): 10.5281/zenodo.6511958          **
 **    Visit the DOI location for information on how to cite this program.    **
 *******************************************************************************

                              PM3 CALCULATION RESULTS

 *******************************************************************************
 *  CALCULATION DONE: (MAX THREADS = 1)              Tue Jun  3 16:29:40 2025  *
 *  PM3        - The PM3 Hamiltonian to be used
 *  OLDGEO     - PREVIOUS GEOMETRY TO BE USED
 *  PRECISE    - TIGHTER CRITERIA TO BE USED
 *  NOSYM      - POINT-GROUP SYMMETRY SET TO C1
 *  THREADS=1  - MULTI-THREADING NOT USED
 *  T=         - A TIME OF 172800.0 SECONDS REQUESTED
 *  DUMP=N     - RESTART FILE WRITTEN EVERY 7200.0 SECONDS REQUESTED
 *  THERMO     - THERMODYNAMIC QUANTITIES TO BE CALCULATED
 *******************************************************************************
oldgeo thermo nosym precise THREADS=1  pm3
 InChI=1S/C10H12/c1-8-6-7-9-4-2-3-5-10(8)9/h2-10H,1H3

   ATOM   CHEMICAL          X               Y               Z
  NUMBER   SYMBOL      (ANGSTROMS)     (ANGSTROMS)     (ANGSTROMS)

     1       C         -0.14300907  *   0.38600515  *  -0.56269533  *
     2       C         -1.29334983  *   0.14326589  *   0.45542012  *
     3       C          0.66269160  *  -0.93849663  *  -0.61685959  *
     4       C         -2.65783770  *   0.44402479  *  -0.13091607  *
     5       C         -1.15733834  *  -1.30058921  *   0.84079318  *
     6       C          0.64226835  *   1.59305059  *  -0.18816754  *
     7       C         -0.09642471  *  -1.88201250  *   0.27493163  *
     8       C          2.08831223  *  -0.84683261  *  -0.19701389  *
     9       C          1.94442865  *   1.55715070  *   0.11692406  *
    10       C          2.68034369  *   0.30847133  *   0.12594677  *
    11       H         -1.14194252  *   0.77046672  *   1.36672127  *
    12       H         -0.57139326  *   0.58344357  *  -1.57522607  *
    13       H          0.65634598  *  -1.33884820  *  -1.65982146  *
    14       H         -2.86647050  *  -0.16776962  *  -1.01863091  *
    15       H         -3.45391676  *   0.24575855  *   0.59827338  *
    16       H         -2.73460604  *   1.49734320  *  -0.43056789  *
    17       H          0.08248255  *   2.53557601  *  -0.17130403  *
    18       H         -1.87516675  *  -1.76904795  *   1.51417018  *
    19       H          2.63761111  *  -1.79470071  *  -0.16698392  *
    20       H          0.23388483  *  -2.91178405  *   0.41053513  *
    21       H          3.73591204  *   0.34554276  *   0.41438086  *
    22       H          2.49244715  *   2.46863474  *   0.37729039  *



          CARTESIAN COORDINATES 

    NO.       ATOM           X           Y           Z

     1         C         -0.1430      0.3860     -0.5627
     2         C         -1.2933      0.1433      0.4554
     3         C          0.6627     -0.9385     -0.6169
     4         C         -2.6578      0.4440     -0.1309
     5         C         -1.1573     -1.3006      0.8408
     6         C          0.6423      1.5931     -0.1882
     7         C         -0.0964     -1.8820      0.2749
     8         C          2.0883     -0.8468     -0.1970
     9         C          1.9444      1.5572      0.1169
    10         C          2.6803      0.3085      0.1259
    11         H         -1.1419      0.7705      1.3667
    12         H         -0.5714      0.5834     -1.5752
    13         H          0.6563     -1.3388     -1.6598
    14         H         -2.8665     -0.1678     -1.0186
    15         H         -3.4539      0.2458      0.5983
    16         H         -2.7346      1.4973     -0.4306
    17         H          0.0825      2.5356     -0.1713
    18         H         -1.8752     -1.7690      1.5142
    19         H          2.6376     -1.7947     -0.1670
    20         H          0.2339     -2.9118      0.4105
    21         H          3.7359      0.3455      0.4144
    22         H          2.4924      2.4686      0.3773

  H: (PM3): J. J. P. STEWART, J. COMP. CHEM. 10, 209 (1989).
  C: (PM3): J. J. P. STEWART, J. COMP. CHEM. 10, 209 (1989).

           Empirical Formula: C10 H12  =    22 atoms



      MOLECULAR POINT GROUP   :   C1  


      RHF CALCULATION, NO. OF DOUBLY OCCUPIED LEVELS = 26



          HEAT OF FORMATION =      34.830408 KCALS/MOLE


          CARTESIAN COORDINATE DERIVATIVES

   NUMBER  ATOM         X            Y            Z

     1       C     -0.002453     0.001885     0.008028
     2       C      0.000949     0.001434     0.001553
     3       C      0.003546    -0.005862    -0.005065
     4       C     -0.007039     0.006026     0.000229
     5       C      0.002687     0.001784     0.000355
     6       C     -0.002047    -0.003441     0.004103
     7       C      0.001770     0.000374    -0.004046
     8       C      0.005117    -0.005997    -0.001929
     9       C     -0.008068    -0.008385     0.006838
    10       C      0.004333     0.001670     0.004156
    11       H      0.006861     0.003399    -0.003613
    12       H      0.008407     0.001010    -0.005381
    13       H      0.013311    -0.002081    -0.009422
    14       H     -0.004681     0.004972     0.009391
    15       H     -0.010067    -0.001073     0.004832
    16       H     -0.012260     0.013873     0.005307
    17       H      0.002467    -0.001814    -0.006443
    18       H      0.004095    -0.005763    -0.002344
    19       H      0.001634    -0.002667    -0.000178
    20       H     -0.010908     0.002653    -0.002217
    21       H      0.003438     0.012263    -0.005960
    22       H     -0.001093    -0.014257     0.001807



          GRADIENT NORM =   0.04811

          MOLECULAR WEIGHT =  132.20



          ROTATIONAL CONSTANTS IN CM(-1)

          A =    0.08182285   B =    0.04129702   C =    0.03053771



           PRINCIPAL MOMENTS OF INERTIA IN UNITS OF 10**(-40)*GRAM-CM**2

          A =      342.1141   B =      677.8395   C =      916.6619


          ORIENTATION OF MOLECULE IN FORCE CALCULATION

    NO.       ATOM         X         Y         Z

     1          C      -0.1716   -0.6076   -0.4958
     2          C       1.3836   -0.6076   -0.4958
     3          C      -0.5963    0.8844   -0.4958
     4          C       1.9621   -1.4255   -1.6327
     5          C       1.7607    0.8410   -0.6021
     6          C      -0.6957   -1.4178    0.6368
     7          C       0.6963    1.6476   -0.5888
     8          C      -1.3902    1.3317    0.6818
     9          C      -1.4535   -0.9095    1.6152
    10          C      -1.7970    0.4983    1.6458
    11          H       1.7703   -1.0056    0.4731
    12          H      -0.5484   -1.0847   -1.4329
    13          H      -1.2119    1.0991   -1.4031
    14          H       1.6308   -1.0571   -2.6127
    15          H       3.0592   -1.3935   -1.6244
    16          H       1.6583   -2.4776   -1.5557
    17          H      -0.4177   -2.4783    0.6287
    18          H       2.8055    1.1422   -0.6775
    19          H      -1.6289    2.4008    0.7167
    20          H       0.7015    2.7367   -0.6308
    21          H      -2.3947    0.8548    2.4911
    22          H      -1.8306   -1.5395    2.4275


    FIRST DERIVATIVES WILL BE USED IN THE CALCULATION OF SECOND DERIVATIVES

          ESTIMATED TIME TO COMPLETE CALCULATION =        2.06 SECONDS

    FOR POINT-GROUP C1   THERE ARE   1 UNIQUE SYMMETRY FUNCTIONS.

 STEP:   1 TIME =     0.02 SECS, INTEGRAL =      0.02 TIME LEFT: 172799.97
 STEP:   2 TIME =     0.02 SECS, INTEGRAL =      0.04 TIME LEFT: 172799.95
 STEP:   3 TIME =     0.02 SECS, INTEGRAL =      0.07 TIME LEFT: 172799.93
 STEP:   4 TIME =     0.02 SECS, INTEGRAL =      0.09 TIME LEFT: 172799.91
 STEP:   5 TIME =     0.02 SECS, INTEGRAL =      0.11 TIME LEFT: 172799.88
 STEP:   6 TIME =     0.02 SECS, INTEGRAL =      0.13 TIME LEFT: 172799.86
 STEP:   7 TIME =     0.02 SECS, INTEGRAL =      0.15 TIME LEFT: 172799.84
 STEP:   8 TIME =     0.02 SECS, INTEGRAL =      0.17 TIME LEFT: 172799.82
 STEP:   9 TIME =     0.02 SECS, INTEGRAL =      0.19 TIME LEFT: 172799.80
 STEP:  10 TIME =     0.02 SECS, INTEGRAL =      0.21 TIME LEFT: 172799.78
 STEP:  11 TIME =     0.02 SECS, INTEGRAL =      0.23 TIME LEFT: 172799.76
 STEP:  12 TIME =     0.02 SECS, INTEGRAL =      0.25 TIME LEFT: 172799.74
 STEP:  13 TIME =     0.02 SECS, INTEGRAL =      0.27 TIME LEFT: 172799.72
 STEP:  14 TIME =     0.02 SECS, INTEGRAL =      0.29 TIME LEFT: 172799.70
 STEP:  15 TIME =     0.02 SECS, INTEGRAL =      0.32 TIME LEFT: 172799.68
 STEP:  16 TIME =     0.02 SECS, INTEGRAL =      0.34 TIME LEFT: 172799.65
 STEP:  17 TIME =     0.02 SECS, INTEGRAL =      0.36 TIME LEFT: 172799.63
 STEP:  18 TIME =     0.02 SECS, INTEGRAL =      0.38 TIME LEFT: 172799.61
 STEP:  19 TIME =     0.02 SECS, INTEGRAL =      0.40 TIME LEFT: 172799.59
 STEP:  20 TIME =     0.02 SECS, INTEGRAL =      0.42 TIME LEFT: 172799.57
 STEP:  21 TIME =     0.03 SECS, INTEGRAL =      0.45 TIME LEFT: 172799.54
 STEP:  22 TIME =     0.02 SECS, INTEGRAL =      0.47 TIME LEFT: 172799.52
 STEP:  23 TIME =     0.02 SECS, INTEGRAL =      0.50 TIME LEFT: 172799.50
 STEP:  24 TIME =     0.02 SECS, INTEGRAL =      0.52 TIME LEFT: 172799.47
 STEP:  25 TIME =     0.02 SECS, INTEGRAL =      0.54 TIME LEFT: 172799.45
 STEP:  26 TIME =     0.02 SECS, INTEGRAL =      0.56 TIME LEFT: 172799.43
 STEP:  27 TIME =     0.02 SECS, INTEGRAL =      0.58 TIME LEFT: 172799.41
 STEP:  28 TIME =     0.02 SECS, INTEGRAL =      0.61 TIME LEFT: 172799.39
 STEP:  29 TIME =     0.02 SECS, INTEGRAL =      0.63 TIME LEFT: 172799.36
 STEP:  30 TIME =     0.02 SECS, INTEGRAL =      0.65 TIME LEFT: 172799.34
 STEP:  31 TIME =     0.02 SECS, INTEGRAL =      0.67 TIME LEFT: 172799.32
 STEP:  32 TIME =     0.02 SECS, INTEGRAL =      0.70 TIME LEFT: 172799.30
 STEP:  33 TIME =     0.02 SECS, INTEGRAL =      0.72 TIME LEFT: 172799.27
 STEP:  34 TIME =     0.02 SECS, INTEGRAL =      0.74 TIME LEFT: 172799.25
 STEP:  35 TIME =     0.02 SECS, INTEGRAL =      0.77 TIME LEFT: 172799.23
 STEP:  36 TIME =     0.02 SECS, INTEGRAL =      0.79 TIME LEFT: 172799.20
 STEP:  37 TIME =     0.02 SECS, INTEGRAL =      0.81 TIME LEFT: 172799.18
 STEP:  38 TIME =     0.02 SECS, INTEGRAL =      0.84 TIME LEFT: 172799.16
 STEP:  39 TIME =     0.02 SECS, INTEGRAL =      0.86 TIME LEFT: 172799.14
 STEP:  40 TIME =     0.02 SECS, INTEGRAL =      0.88 TIME LEFT: 172799.12
 STEP:  41 TIME =     0.02 SECS, INTEGRAL =      0.89 TIME LEFT: 172799.10
 STEP:  42 TIME =     0.02 SECS, INTEGRAL =      0.91 TIME LEFT: 172799.08
 STEP:  43 TIME =     0.02 SECS, INTEGRAL =      0.93 TIME LEFT: 172799.06
 STEP:  44 TIME =     0.02 SECS, INTEGRAL =      0.96 TIME LEFT: 172799.04
 STEP:  45 TIME =     0.02 SECS, INTEGRAL =      0.98 TIME LEFT: 172799.01
 STEP:  46 TIME =     0.02 SECS, INTEGRAL =      1.00 TIME LEFT: 172798.99
 STEP:  47 TIME =     0.02 SECS, INTEGRAL =      1.02 TIME LEFT: 172798.97
 STEP:  48 TIME =     0.02 SECS, INTEGRAL =      1.04 TIME LEFT: 172798.95
 STEP:  49 TIME =     0.02 SECS, INTEGRAL =      1.07 TIME LEFT: 172798.93
 STEP:  50 TIME =     0.02 SECS, INTEGRAL =      1.09 TIME LEFT: 172798.91
 STEP:  51 TIME =     0.02 SECS, INTEGRAL =      1.11 TIME LEFT: 172798.88
 STEP:  52 TIME =     0.02 SECS, INTEGRAL =      1.13 TIME LEFT: 172798.86
 STEP:  53 TIME =     0.02 SECS, INTEGRAL =      1.15 TIME LEFT: 172798.84
 STEP:  54 TIME =     0.02 SECS, INTEGRAL =      1.18 TIME LEFT: 172798.82
 STEP:  55 TIME =     0.02 SECS, INTEGRAL =      1.20 TIME LEFT: 172798.79
 STEP:  56 TIME =     0.02 SECS, INTEGRAL =      1.22 TIME LEFT: 172798.77
 STEP:  57 TIME =     0.02 SECS, INTEGRAL =      1.25 TIME LEFT: 172798.75
 STEP:  58 TIME =     0.02 SECS, INTEGRAL =      1.27 TIME LEFT: 172798.72
 STEP:  59 TIME =     0.02 SECS, INTEGRAL =      1.29 TIME LEFT: 172798.70
 STEP:  60 TIME =     0.02 SECS, INTEGRAL =      1.31 TIME LEFT: 172798.68
 STEP:  61 TIME =     0.02 SECS, INTEGRAL =      1.34 TIME LEFT: 172798.66
 STEP:  62 TIME =     0.02 SECS, INTEGRAL =      1.36 TIME LEFT: 172798.63
 STEP:  63 TIME =     0.02 SECS, INTEGRAL =      1.38 TIME LEFT: 172798.61
 STEP:  64 TIME =     0.02 SECS, INTEGRAL =      1.41 TIME LEFT: 172798.59
 STEP:  65 TIME =     0.02 SECS, INTEGRAL =      1.43 TIME LEFT: 172798.56
 STEP:  66 TIME =     0.02 SECS, INTEGRAL =      1.45 TIME LEFT: 172798.54

(To convert to Hartree/Bohr^2, multiply by (10^(-21) x N x a0^2)/(4.184 x 627.51) =  0.0642)


           FORCE MATRIX IN MILLIDYNES/ANGSTROM


                  C  1       C  2       C  3       C  4       C  5       C  6
 ------------------------------------------------------------------------------
     C    1  14.476897
     C    2   3.140558  14.600195
     C    3   3.289306   0.680998  14.943469
     C    4   0.576277   4.313599   0.037258  14.402839
     C    5   0.848124   4.534028   1.146217   0.667066  18.413081
     C    6   4.912296   0.655748   0.581176   0.029419   0.033995  18.114896
     C    7   0.833542   1.140310   4.404320   0.044333  10.670725   0.036879
     C    8   0.565920   0.031973   4.854988   0.006294   0.040879   0.169518
     C    9   0.827546   0.042618   0.121234   0.004732   0.010060  10.328653
     C   10   0.119191   0.017156   0.836387   0.002533   0.011920   1.140864
     H   11   0.436221   4.239056   0.022919   0.427275   0.399579   0.071358
     H   12   4.226406   0.445353   0.419434   0.069192   0.020921   0.396651
     H   13   0.419899   0.032536   4.203367   0.001818   0.037753   0.026568
     H   14   0.021724   0.467401   0.001490   4.730227   0.015071   0.001095
     H   15   0.045863   0.451464   0.005431   4.745845   0.021151   0.004388
     H   16   0.018741   0.454038   0.003130   4.737267   0.050693   0.002898
     H   17   0.429318   0.019189   0.044046   0.002695   0.001993   4.805562
     H   18   0.041365   0.416778   0.113289   0.011329   5.005352   0.004766
     H   19   0.042995   0.005895   0.432086   0.001573   0.002062   0.012429
     H   20   0.040441   0.117318   0.415953   0.017719   0.448939   0.004234
     H   21   0.003455   0.000873   0.121063   0.000397   0.002214   0.047730
     H   22   0.122204   0.016754   0.003020   0.001386   0.002063   0.443151


                  C  7       C  8       C  9       C 10       H 11       H 12
 ------------------------------------------------------------------------------
     C    7  18.368951
     C    8   0.730996  18.110080
     C    9   0.019550   1.142680  18.436744
     C   10   0.046132  10.335640   5.690542  18.440635
     H   11   0.036391   0.001949   0.005301   0.001562   4.715467
     H   12   0.026927   0.030572   0.039525   0.012546   0.028638   4.676252
     H   13   0.414231   0.400120   0.013740   0.037697   0.003092   0.023627
     H   14   0.002452   0.000674   0.000643   0.000374   0.045947   0.027580
     H   15   0.002866   0.001171   0.001147   0.000500   0.030882   0.002740
     H   16   0.007539   0.001142   0.001044   0.000543   0.028296   0.015808
     H   17   0.006532   0.012366   0.444552   0.127766   0.014330   0.033099
     H   18   0.448934   0.017428   0.002441   0.002955   0.014154   0.002188
     H   19   0.020582   4.818486   0.128465   0.444671   0.000629   0.005484
     H   20   5.008576   0.014932   0.001172   0.002330   0.015492   0.002708
     H   21   0.018090   0.443672   0.435205   4.852443   0.000367   0.000678
     H   22   0.000641   0.047812   4.851127   0.435319   0.000841   0.015624


                  H 13       H 14       H 15       H 16       H 17       H 18
 ------------------------------------------------------------------------------
     H   13   4.644447
     H   14   0.000345   5.468572
     H   15   0.000578   0.574278   5.477426
     H   16   0.000238   0.570847   0.566833   5.467520
     H   17   0.005302   0.000622   0.000499   0.005640   5.181782
     H   18   0.015579   0.002372   0.008060   0.001683   0.000483   5.400893
     H   19   0.029333   0.000197   0.000325   0.000262   0.010476   0.000832
     H   20   0.014956   0.000814   0.000729   0.002964   0.001450   0.049774
     H   21   0.016280   0.000107   0.000088   0.000143   0.007405   0.001339
     H   22   0.000665   0.000151   0.000337   0.000207   0.067260   0.000487


                  H 19       H 20       H 21       H 22
 ------------------------------------------------------
     H   19   5.194779
     H   20   0.008293   5.405751
     H   21   0.066988   0.000748   5.217180
     H   22   0.007494   0.000378   0.032312   5.215032


          HEAT OF FORMATION =      34.830408 KCALS/MOLE

          ZERO POINT ENERGY     118.879 KCAL/MOL


           NORMAL COORDINATE ANALYSIS (Total motion = 1 Angstrom)


   Root No.       1         2         3         4         5         6         7         8

                 1 A       2 A       3 A       4 A       5 A       6 A       7 A       8 A   

                  47.7     152.7     181.8     197.8     306.4     365.6     401.1     487.0
  
           1   -0.0055   -0.0166   -0.0037   -0.0111   -0.0120    0.0224   -0.0035    0.0300
           2    0.0097   -0.0106   -0.0054    0.0174   -0.0093   -0.0113   -0.0052    0.0037
           3   -0.0124   -0.0212   -0.0031   -0.0228   -0.0113    0.0140   -0.0176   -0.0071
           4   -0.0057   -0.0151   -0.0032   -0.0113   -0.0067    0.0233   -0.0053    0.0393
           5    0.0137   -0.0099   -0.0057    0.0040   -0.0177    0.0137    0.0008   -0.0077
           6    0.0108    0.0114    0.0025   -0.0129   -0.0371   -0.0066   -0.0256   -0.0027
           7   -0.0086   -0.0160   -0.0014   -0.0010   -0.0064    0.0010   -0.0198   -0.0115
           8    0.0088   -0.0100   -0.0040    0.0202   -0.0031   -0.0192   -0.0081   -0.0093
           9    0.0027   -0.0271   -0.0053   -0.0007    0.0193   -0.0032   -0.0157    0.0222
          10    0.0150    0.0128    0.0077   -0.0116    0.0746   -0.0087    0.0044    0.0061
          11   -0.0211    0.0229    0.0112   -0.0411    0.0005   -0.0124   -0.0255   -0.0258
          12    0.0469    0.0018   -0.0045    0.0219   -0.0112   -0.0054   -0.0025   -0.0187
          13   -0.0097   -0.0121   -0.0014    0.0002   -0.0100    0.0009   -0.0200    0.0025
          14    0.0122   -0.0087   -0.0052    0.0005   -0.0176    0.0214    0.0078    0.0048
          15   -0.0247    0.0445    0.0148   -0.0033   -0.0368   -0.0150    0.0306    0.0258
          16   -0.0205   -0.0205   -0.0135    0.0152   -0.0169   -0.0153    0.0406   -0.0095
          17   -0.0082   -0.0055   -0.0026    0.0075    0.0119   -0.0079    0.0120    0.0171
          18   -0.0324   -0.0187   -0.0055   -0.0185    0.0049   -0.0006    0.0138   -0.0261
          19   -0.0114   -0.0132   -0.0006    0.0081   -0.0034   -0.0108   -0.0259   -0.0167
          20    0.0100   -0.0101   -0.0047    0.0112   -0.0111    0.0052    0.0004   -0.0148
          21   -0.0286    0.0005    0.0011    0.0399    0.0287    0.0368    0.0168   -0.0202
          22    0.0243   -0.0025    0.0071   -0.0352   -0.0113   -0.0143    0.0295   -0.0204
          23    0.0024   -0.0010    0.0026   -0.0039    0.0081   -0.0057    0.0116    0.0084
          24    0.0275   -0.0204   -0.0019   -0.0150    0.0141   -0.0212    0.0107    0.0215
          25   -0.0055    0.0325   -0.0047    0.0469   -0.0091   -0.0227   -0.0120    0.0153
          26   -0.0157    0.0125    0.0037    0.0016    0.0184    0.0031    0.0040    0.0219
          27   -0.0169    0.0128   -0.0018    0.0082    0.0098   -0.0107   -0.0233   -0.0075
          28    0.0254    0.0462    0.0114    0.0007   -0.0164    0.0312    0.0023   -0.0251
          29   -0.0088    0.0156    0.0074   -0.0095    0.0161    0.0159    0.0069    0.0115
          30    0.0184    0.0140    0.0039   -0.0044    0.0180    0.0151   -0.0070    0.0222
          31   -0.0206   -0.0351   -0.0042   -0.0237   -0.0154    0.0441   -0.0076    0.0454
          32    0.0454   -0.0334   -0.0133    0.0194   -0.0081    0.0322   -0.0042   -0.0276
          33    0.0299    0.0096   -0.0004    0.0000   -0.0287   -0.0079   -0.0247   -0.0144
          34    0.0110    0.0004   -0.0013   -0.0167   -0.0201    0.0305   -0.0186    0.0521
          35    0.0245   -0.0129   -0.0059    0.0292   -0.0041   -0.0212   -0.0251    0.0215
          36   -0.0266   -0.0261   -0.0038   -0.0258   -0.0091    0.0144   -0.0006   -0.0258
          37   -0.0355   -0.0099   -0.0016    0.0284   -0.0002    0.0286   -0.0361   -0.0463
          38    0.0113   -0.0072   -0.0033    0.0445    0.0137   -0.0332   -0.0077   -0.0283
          39    0.0216   -0.0296   -0.0047   -0.0153    0.0187   -0.0251   -0.0030    0.0408
          40    0.0345    0.0613   -0.1857   -0.0256    0.1269   -0.0155    0.0211   -0.0133
          41   -0.0505    0.0717   -0.1343   -0.0970   -0.0025   -0.0192   -0.0544   -0.0318
          42    0.0293    0.0038    0.0058    0.0059   -0.0292   -0.0058   -0.0182   -0.0144
          43    0.0149    0.0132    0.0029   -0.0119    0.0742   -0.0081    0.0045    0.0066
          44   -0.0225   -0.0015    0.2241   -0.0278    0.0370   -0.0427   -0.0364   -0.0550
          45    0.0672    0.0485   -0.1457    0.0102    0.0611   -0.0248    0.0129   -0.0526
          46    0.0117   -0.0133    0.2197    0.0014    0.1060   -0.0360   -0.0061   -0.0179
          47   -0.0182    0.0264   -0.0403   -0.0409   -0.0098   -0.0035   -0.0212   -0.0182
          48    0.0733   -0.0550    0.1202    0.0804   -0.0394    0.0157    0.0263    0.0020
          49   -0.0420   -0.0556   -0.0284    0.0248   -0.0279   -0.0630    0.1049   -0.0553
          50   -0.0135   -0.0145   -0.0064    0.0099    0.0089   -0.0200    0.0282    0.0050
          51   -0.0595   -0.0354   -0.0096   -0.0296    0.0164   -0.0153    0.0614   -0.0405
          52   -0.0111   -0.0093   -0.0000    0.0020   -0.0119   -0.0064   -0.0204   -0.0050
          53    0.0128   -0.0073   -0.0058   -0.0074   -0.0204    0.0407    0.0251    0.0410
          54   -0.0424    0.0899    0.0296   -0.0102   -0.0771   -0.0361    0.0971    0.0668
          55    0.0461   -0.0187    0.0144   -0.0881   -0.0076   -0.0289    0.1039   -0.0388
          56    0.0064   -0.0040    0.0042   -0.0152    0.0093   -0.0081    0.0271    0.0049
          57    0.0529   -0.0369   -0.0022   -0.0308    0.0035   -0.0474    0.0477   -0.0044
          58   -0.0145   -0.0129    0.0003    0.0196    0.0052   -0.0309   -0.0332   -0.0272
          59    0.0092   -0.0103   -0.0048    0.0129   -0.0094    0.0076    0.0024   -0.0164
          60   -0.0502   -0.0032    0.0002    0.0856    0.0728    0.0925    0.0604   -0.0708
          61    0.0486    0.0816    0.0246   -0.0159   -0.0191    0.0877    0.0298   -0.0560
          62   -0.0135    0.0285    0.0134   -0.0241    0.0152    0.0363    0.0103   -0.0153
          63    0.0368    0.0336    0.0106   -0.0099    0.0162    0.0463    0.0107    0.0115
          64   -0.0159    0.0517   -0.0114    0.0942   -0.0005   -0.0833   -0.0279    0.0374
          65   -0.0271    0.0215    0.0052    0.0019    0.0174   -0.0024   -0.0002    0.0043
          66   -0.0307    0.0288   -0.0037    0.0304    0.0135   -0.0430   -0.0340   -0.0105


   Root No.       9        10        11        12        13        14        15        16

                 9 A      10 A      11 A      12 A      13 A      14 A      15 A      16 A   

                 502.5     535.6     596.7     689.4     739.5     755.3     804.5     824.1
  
           1    0.0006   -0.0073    0.0041   -0.0186   -0.0151   -0.0034    0.0116    0.0129
           2   -0.0278    0.0045    0.0023   -0.0308    0.0063    0.0128   -0.0098   -0.0016
           3   -0.0078   -0.0070   -0.0421   -0.0246    0.0096    0.0072    0.0035    0.0124
           4    0.0025    0.0004    0.0082   -0.0283    0.0154   -0.0008   -0.0016   -0.0158
           5    0.0118    0.0213    0.0005    0.0281    0.0215    0.0105   -0.0120   -0.0008
           6    0.0060   -0.0378    0.0281   -0.0265   -0.0092   -0.0050    0.0096   -0.0059
           7    0.0091    0.0187   -0.0067    0.0220   -0.0270   -0.0210    0.0143    0.0038
           8   -0.0281   -0.0006   -0.0214   -0.0295    0.0043   -0.0011    0.0053   -0.0011
           9    0.0065   -0.0286   -0.0210    0.0333   -0.0062   -0.0137    0.0039   -0.0043
          10   -0.0122    0.0099   -0.0162   -0.0128    0.0043   -0.0045   -0.0022   -0.0076
          11    0.0082   -0.0171    0.0196    0.0147    0.0053    0.0103   -0.0023    0.0030
          12    0.0064   -0.0117    0.0163    0.0115   -0.0008    0.0081    0.0038    0.0031
          13   -0.0057    0.0170    0.0152    0.0332    0.0447    0.0205   -0.0176   -0.0048
          14    0.0167    0.0284   -0.0102    0.0165    0.0070   -0.0068   -0.0069   -0.0050
          15   -0.0115    0.0178   -0.0182    0.0072   -0.0059   -0.0181   -0.0259   -0.0038
          16   -0.0244   -0.0400    0.0081    0.0120   -0.0191    0.0126   -0.0086    0.0231
          17   -0.0226    0.0248    0.0557   -0.0193   -0.0200    0.0070   -0.0109   -0.0068
          18   -0.0138    0.0137   -0.0129    0.0010   -0.0012    0.0067   -0.0085    0.0051
          19   -0.0133    0.0134    0.0033    0.0183    0.0093   -0.0010    0.0064    0.0089
          20    0.0018    0.0245   -0.0267   -0.0071   -0.0389   -0.0357    0.0259    0.0140
          21    0.0248   -0.0167    0.0135   -0.0106   -0.0042   -0.0112   -0.0292   -0.0055
          22    0.0421    0.0232    0.0053   -0.0098   -0.0280    0.0086   -0.0034   -0.0224
          23    0.0093   -0.0517   -0.0420   -0.0021    0.0221    0.0103   -0.0061   -0.0178
          24    0.0059   -0.0055    0.0037    0.0067   -0.0007    0.0091    0.0048   -0.0080
          25    0.0272   -0.0200   -0.0102    0.0004   -0.0101    0.0121   -0.0083    0.0281
          26    0.0174   -0.0130    0.0115    0.0164   -0.0109   -0.0017    0.0055    0.0186
          27    0.0070    0.0536   -0.0025   -0.0244    0.0024    0.0091   -0.0162   -0.0058
          28   -0.0225   -0.0144   -0.0206   -0.0036   -0.0091    0.0080   -0.0069   -0.0375
          29    0.0068   -0.0156    0.0023    0.0167   -0.0057   -0.0016    0.0050    0.0025
          30   -0.0278    0.0140    0.0325    0.0240   -0.0138   -0.0003    0.0144    0.0051
          31    0.0086   -0.0050   -0.0129   -0.0519    0.0142   -0.0045    0.0161   -0.0080
          32    0.0337    0.0145    0.0138    0.0338    0.0279    0.0281    0.0232   -0.0008
          33    0.0117   -0.0379    0.0409   -0.0130   -0.0068    0.0042    0.0171   -0.0076
          34    0.0194   -0.0146    0.0324   -0.0448    0.0014   -0.0064    0.0214   -0.0060
          35   -0.0195   -0.0198   -0.0210   -0.0276    0.0062   -0.0064    0.0040   -0.0101
          36   -0.0198    0.0084   -0.0419   -0.0158    0.0038    0.0179   -0.0077    0.0235
          37   -0.0033    0.0151   -0.0029    0.0189   -0.0159   -0.0525   -0.0081    0.0281
          38   -0.0279    0.0133    0.0137   -0.0185    0.0116   -0.0036   -0.0251   -0.0185
          39    0.0150   -0.0227   -0.0150    0.0372   -0.0116    0.0073    0.0128   -0.0243
          40   -0.0213    0.0334   -0.0473    0.0168    0.0036    0.0003   -0.0147    0.0162
          41    0.0116   -0.0622    0.0528   -0.0272   -0.0149    0.0082    0.0344   -0.0065
          42    0.0103   -0.0355    0.0379   -0.0134   -0.0079    0.0058    0.0208   -0.0079
          43   -0.0123    0.0104   -0.0165   -0.0130    0.0050   -0.0045   -0.0028   -0.0080
          44   -0.0033   -0.0343    0.0174    0.0156   -0.0168    0.0152    0.0154    0.0263
          45   -0.0081    0.0082   -0.0188    0.0491   -0.0098    0.0170   -0.0050    0.0401
          46   -0.0232   -0.0051   -0.0200   -0.0158   -0.0157   -0.0031    0.0125    0.0115
          47    0.0116   -0.0105    0.0197    0.0180    0.0130    0.0106   -0.0084   -0.0024
          48    0.0113    0.0331   -0.0045    0.0507    0.0301    0.0122   -0.0354   -0.0000
          49   -0.0560   -0.0636    0.0644    0.0285    0.0580   -0.0804    0.0673   -0.1437
          50   -0.0306    0.0186    0.0695   -0.0154   -0.0001   -0.0166    0.0082   -0.0498
          51   -0.0075   -0.0099    0.0259    0.0505    0.0383   -0.0714    0.0617   -0.0851
          52   -0.0107    0.0234    0.0101    0.0428    0.0412    0.0243    0.0013    0.0077
          53    0.0270    0.0293   -0.0086   -0.0079    0.0329    0.0102   -0.0206   -0.0376
          54   -0.0344    0.1108   -0.0813    0.0432    0.0409    0.1020    0.1796    0.0363
          55    0.0990    0.0260    0.0573   -0.0710    0.0828   -0.0506   -0.0405    0.1657
          56    0.0220   -0.0505   -0.0304   -0.0135    0.0439   -0.0021   -0.0135    0.0207
          57    0.0105   -0.0011    0.0096   -0.0704    0.0875   -0.0164   -0.0183    0.0900
          58   -0.0426   -0.0017   -0.0022   -0.0206    0.0085    0.0065    0.0383    0.0252
          59    0.0040    0.0253   -0.0259   -0.0096   -0.0375   -0.0300    0.0337    0.0141
          60    0.0728    0.0003    0.0405   -0.0703    0.0286    0.1458    0.1739    0.0040
          61   -0.0936   -0.0355    0.0197   -0.0172    0.1221   -0.0989    0.0239    0.0839
          62   -0.0017    0.0267    0.0254   -0.0024    0.0081   -0.0315    0.0029    0.0171
          63   -0.0749   -0.0187    0.0505    0.0224    0.0739   -0.0631    0.0374    0.0850
          64    0.0957    0.0057    0.0314   -0.0269    0.1074   -0.1004    0.0784   -0.0398
          65    0.0493   -0.0154   -0.0243    0.0104    0.0333   -0.0301    0.0204   -0.0114
          66    0.0639    0.0635   -0.0115   -0.0412    0.0919   -0.0653    0.0358   -0.0610


   Root No.      17        18        19        20        21        22        23        24

                17 A      18 A      19 A      20 A      21 A      22 A      23 A      24 A   

                 874.6     910.5     952.1     965.4     970.4     973.5     998.1    1014.3
  
           1    0.0132   -0.0115    0.0205    0.0126   -0.0182   -0.0086   -0.0091   -0.0057
           2    0.0344   -0.0148   -0.0200   -0.0069    0.0161    0.0095   -0.0015   -0.0046
           3    0.0290   -0.0344   -0.0153    0.0022    0.0106    0.0036    0.0031    0.0037
           4   -0.0195    0.0073   -0.0006    0.0007    0.0093    0.0027   -0.0029    0.0071
           5   -0.0009   -0.0073    0.0065    0.0032    0.0031   -0.0000   -0.0017   -0.0084
           6   -0.0103    0.0059   -0.0062   -0.0055   -0.0032    0.0035   -0.0023    0.0068
           7    0.0142    0.0196    0.0000   -0.0004    0.0037    0.0053    0.0092    0.0162
           8   -0.0285   -0.0103    0.0015    0.0007    0.0018   -0.0056   -0.0108    0.0035
           9    0.0286    0.0356    0.0031   -0.0004    0.0072    0.0116    0.0051   -0.0022
          10   -0.0144    0.0078   -0.0036   -0.0050    0.0227    0.0085    0.0135   -0.0074
          11    0.0040   -0.0068    0.0274    0.0137    0.0185    0.0078    0.0007    0.0088
          12    0.0012    0.0065   -0.0005    0.0021    0.0029   -0.0044    0.0035   -0.0016
          13   -0.0022   -0.0034   -0.0146   -0.0150   -0.0175   -0.0020    0.0005   -0.0052
          14   -0.0044    0.0063   -0.0182   -0.0159   -0.0179   -0.0022    0.0029    0.0026
          15   -0.0027   -0.0143    0.0113   -0.0248   -0.0093    0.0110    0.0107   -0.0005
          16   -0.0026    0.0027    0.0010   -0.0121    0.0111   -0.0197    0.0099   -0.0064
          17    0.0289    0.0252    0.0172    0.0078   -0.0102   -0.0121    0.0151    0.0037
          18   -0.0149    0.0080    0.0040   -0.0091    0.0041   -0.0126    0.0018   -0.0059
          19   -0.0108   -0.0049    0.0051   -0.0007   -0.0070    0.0006    0.0010   -0.0134
          20   -0.0152    0.0022    0.0063   -0.0036   -0.0111    0.0033    0.0053   -0.0144
          21    0.0017   -0.0023   -0.0100    0.0237    0.0076   -0.0179   -0.0171   -0.0162
          22    0.0088   -0.0119   -0.0012   -0.0154    0.0188   -0.0134   -0.0197    0.0098
          23   -0.0057    0.0201    0.0173    0.0051   -0.0213   -0.0094    0.0098    0.0110
          24   -0.0141   -0.0076    0.0069   -0.0048   -0.0047   -0.0143   -0.0045    0.0140
          25   -0.0059    0.0021   -0.0078    0.0008   -0.0023    0.0217   -0.0163    0.0098
          26   -0.0078   -0.0149   -0.0088   -0.0029    0.0064    0.0045   -0.0086    0.0026
          27   -0.0029    0.0298    0.0099    0.0049   -0.0127    0.0153   -0.0121    0.0027
          28    0.0067    0.0036   -0.0005    0.0192   -0.0108    0.0033    0.0200   -0.0137
          29   -0.0043   -0.0132   -0.0098    0.0005    0.0056    0.0052    0.0031   -0.0035
          30   -0.0175   -0.0317   -0.0150    0.0087   -0.0000    0.0043    0.0137   -0.0020
          31   -0.0078   -0.0278    0.0246    0.0440    0.0117   -0.0017   -0.0319    0.0240
          32   -0.0287    0.0290   -0.0162    0.0430    0.0221   -0.0353   -0.0108   -0.0758
          33   -0.0246    0.0334   -0.0237   -0.0056    0.0035   -0.0093    0.0056   -0.0272
          34   -0.0034   -0.0290    0.0541    0.0353   -0.0717   -0.0036   -0.0745   -0.0236
          35    0.0699    0.0134   -0.0497   -0.0253    0.0611    0.0695   -0.0388   -0.0268
          36    0.0153   -0.0414   -0.0149    0.0017    0.0109   -0.0288    0.0482    0.0227
          37   -0.0119    0.0161   -0.0472    0.0710    0.0123   -0.0210    0.0663    0.1909
          38   -0.0962    0.0155   -0.0362    0.0044    0.0531   -0.0274   -0.0513    0.0835
          39    0.0285    0.0436    0.0282   -0.0474    0.0116    0.0235   -0.0430   -0.1029
          40    0.0462   -0.0500    0.0234    0.0123   -0.0379    0.0013   -0.0335    0.0305
          41   -0.0279    0.0577   -0.0721   -0.0213   -0.0108   -0.0304    0.0178   -0.0411
          42   -0.0296    0.0481   -0.0448   -0.0160    0.0123   -0.0157    0.0251   -0.0311
          43   -0.0149    0.0073   -0.0027   -0.0049    0.0241    0.0094    0.0139   -0.0071
          44    0.0561   -0.0196   -0.0313    0.0022   -0.0879   -0.0380   -0.0426    0.0117
          45    0.0897   -0.0636    0.0179    0.0217   -0.0938   -0.0271   -0.0599    0.0457
          46    0.0292   -0.0046   -0.0617   -0.0211   -0.0781   -0.0316   -0.0257   -0.0050
          47   -0.0078   -0.0060    0.0509    0.0214    0.0524    0.0220    0.0119    0.0101
          48    0.0027   -0.0405    0.1272    0.0489    0.0946    0.0519    0.0117    0.0404
          49    0.0345   -0.0319   -0.0485    0.0454   -0.0209    0.1202   -0.0362    0.0202
          50    0.0394    0.0168    0.0043    0.0224   -0.0180    0.0240    0.0030    0.0101
          51   -0.0604   -0.0226    0.0012    0.0315   -0.0482    0.0508   -0.0569    0.0094
          52   -0.0000   -0.0042   -0.0020   -0.0011   -0.0176   -0.0027    0.0031   -0.0303
          53   -0.0078    0.0340   -0.0767   -0.0254   -0.0038   -0.0157   -0.0198    0.0834
          54    0.0284    0.0918   -0.0526    0.1330    0.0546   -0.0537   -0.0440   -0.0062
          55    0.0187    0.0189   -0.0525    0.0679   -0.0166    0.0914    0.0661   -0.0514
          56   -0.0024    0.0266    0.0060    0.0215   -0.0272    0.0133    0.0274   -0.0026
          57   -0.0562    0.0151    0.0067    0.0556   -0.0641    0.0162    0.0342    0.0021
          58   -0.0589   -0.0421    0.0671    0.0288    0.0154    0.0042   -0.0271   -0.0643
          59   -0.0158    0.0025    0.0075   -0.0102   -0.0136    0.0072    0.0088   -0.0109
          60    0.0032   -0.0119    0.0522   -0.1261   -0.0365    0.0828    0.0621    0.0482
          61    0.0501    0.0922    0.0522   -0.0856    0.0349   -0.0321   -0.0823    0.0363
          62    0.0261    0.0172   -0.0093   -0.0341    0.0527    0.0178   -0.0546   -0.0278
          63   -0.0014    0.0172    0.0220   -0.0507    0.0118   -0.0262   -0.0341    0.0443
          64    0.0670   -0.0804    0.0155   -0.0102    0.0277   -0.1145    0.0904   -0.0138
          65   -0.0116   -0.0267   -0.0078   -0.0196    0.0253   -0.0177   -0.0212   -0.0296
          66    0.0265   -0.0170    0.0223   -0.0131    0.0150   -0.0652    0.0273   -0.0334


   Root No.      25        26        27        28        29        30        31        32

                25 A      26 A      27 A      28 A      29 A      30 A      31 A      32 A   

                1020.1    1063.0    1070.1    1080.1    1098.5    1121.1    1133.5    1143.9
  
           1    0.0061    0.0031    0.0017   -0.0113   -0.0091   -0.0363   -0.0253   -0.0015
           2   -0.0019    0.0024   -0.0051   -0.0098   -0.0035    0.0028   -0.0071   -0.0026
           3   -0.0179   -0.0102    0.0081   -0.0041    0.0056   -0.0014   -0.0112   -0.0064
           4    0.0066   -0.0052    0.0014    0.0140    0.0005    0.0042    0.0264    0.0009
           5   -0.0056    0.0093    0.0132   -0.0050   -0.0004   -0.0040   -0.0101   -0.0021
           6    0.0059   -0.0003   -0.0148    0.0013    0.0225    0.0492   -0.0006    0.0066
           7    0.0050   -0.0034    0.0095    0.0001   -0.0018    0.0024    0.0000    0.0029
           8    0.0080   -0.0061    0.0044    0.0018    0.0003   -0.0098   -0.0045    0.0006
           9    0.0132   -0.0061    0.0179    0.0029    0.0037   -0.0001   -0.0110    0.0046
          10   -0.0124   -0.0006   -0.0060   -0.0086    0.0015    0.0015   -0.0101   -0.0009
          11    0.0054   -0.0060   -0.0077    0.0020   -0.0019   -0.0014    0.0034    0.0006
          12   -0.0010   -0.0086   -0.0028    0.0047   -0.0166   -0.0432    0.0128   -0.0060
          13   -0.0012   -0.0055   -0.0149   -0.0033    0.0054    0.0028    0.0015    0.0008
          14    0.0015   -0.0057   -0.0148    0.0008    0.0045    0.0029   -0.0003   -0.0005
          15   -0.0024    0.0105    0.0309   -0.0014   -0.0044   -0.0080    0.0015   -0.0010
          16    0.0169    0.0117   -0.0067    0.0017    0.0011    0.0061    0.0027    0.0056
          17   -0.0087   -0.0168    0.0117   -0.0030    0.0009    0.0097    0.0014   -0.0050
          18    0.0176    0.0091   -0.0074   -0.0044   -0.0034    0.0079    0.0037   -0.0077
          19   -0.0070   -0.0015   -0.0092    0.0045    0.0019    0.0088    0.0070    0.0011
          20   -0.0078   -0.0022   -0.0205    0.0043    0.0072    0.0082    0.0120    0.0005
          21   -0.0092   -0.0061   -0.0182    0.0014   -0.0009    0.0051    0.0029   -0.0006
          22   -0.0123    0.0022   -0.0012   -0.0037   -0.0037    0.0015   -0.0003   -0.0025
          23   -0.0136    0.0202   -0.0144    0.0070    0.0003   -0.0027    0.0022   -0.0066
          24   -0.0135    0.0088   -0.0084   -0.0051   -0.0062   -0.0012    0.0022    0.0075
          25   -0.0190   -0.0090    0.0035   -0.0012    0.0009   -0.0008   -0.0030   -0.0004
          26   -0.0019   -0.0249    0.0114   -0.0163   -0.0052    0.0101    0.0030    0.0014
          27   -0.0049    0.0171   -0.0072    0.0058   -0.0015   -0.0085    0.0004   -0.0009
          28    0.0180   -0.0160    0.0099   -0.0065   -0.0001    0.0047   -0.0006   -0.0010
          29    0.0035    0.0171   -0.0078    0.0131    0.0067   -0.0063   -0.0002    0.0023
          30    0.0060    0.0150   -0.0084    0.0080    0.0008   -0.0030    0.0016    0.0011
          31    0.0011    0.0101    0.0917    0.0494    0.0365   -0.0266    0.2256   -0.0225
          32   -0.0653    0.1119    0.2378   -0.0324    0.0136    0.0933    0.0051    0.0118
          33   -0.0161    0.0349    0.0403   -0.0241    0.0138    0.1005   -0.0750    0.0221
          34    0.0407    0.0917   -0.0396   -0.0552    0.0265   -0.0053   -0.1136   -0.0056
          35    0.0899    0.0968   -0.0267   -0.0699   -0.1060    0.0210    0.0917   -0.0747
          36   -0.0780   -0.0958    0.0372    0.0444    0.0440   -0.0226   -0.0260    0.0306
          37   -0.0003    0.0935    0.0276   -0.0497   -0.0434   -0.0141   -0.0235    0.0240
          38    0.1078   -0.0219    0.0999    0.0069    0.1484   -0.0877   -0.0622   -0.0741
          39    0.0394   -0.0767    0.0285    0.0385    0.0669   -0.0074   -0.0095   -0.0258
          40    0.0296    0.0082    0.0072    0.0127    0.0336    0.0811    0.0105    0.0107
          41   -0.0304   -0.0007    0.0235   -0.0021   -0.0450   -0.1126    0.0150   -0.0156
          42   -0.0274   -0.0107    0.0039   -0.0029   -0.0427   -0.1104    0.0119   -0.0156
          43   -0.0125   -0.0008   -0.0069   -0.0088    0.0027    0.0031   -0.0094   -0.0009
          44    0.0282    0.0055    0.0342    0.0269   -0.0114   -0.0201    0.0385   -0.0006
          45    0.0540   -0.0048    0.0255    0.0414    0.0047    0.0173    0.0515    0.0063
          46    0.0070    0.0128    0.0274    0.0105    0.0086    0.0152    0.0133    0.0009
          47    0.0010   -0.0101   -0.0178   -0.0036   -0.0034   -0.0023   -0.0032    0.0005
          48    0.0191   -0.0228   -0.0436    0.0006    0.0059    0.0204    0.0009    0.0051
          49   -0.0636    0.0363   -0.0111    0.0403    0.0277   -0.0289    0.0038    0.0903
          50   -0.0289   -0.0110    0.0114    0.0056    0.0070    0.0019    0.0028    0.0167
          51    0.0053   -0.0903    0.0326   -0.0764   -0.0516   -0.0023   -0.0396   -0.1533
          52   -0.0188    0.0091   -0.0291   -0.0379    0.0458   -0.0168    0.0263   -0.0042
          53    0.0614   -0.0633    0.0100    0.1198   -0.1262    0.0784   -0.0810    0.0177
          54    0.0020   -0.0179   -0.0594   -0.0027    0.0196    0.0201   -0.0012    0.0024
          55    0.0499    0.0239    0.0029    0.0518    0.0252    0.0051   -0.0190   -0.0863
          56   -0.0009    0.0301   -0.0158    0.0238    0.0089   -0.0031   -0.0034   -0.0317
          57    0.0350   -0.0915    0.0400   -0.0823   -0.0294   -0.0075    0.0253    0.1616
          58   -0.0095    0.0051    0.0687    0.1298   -0.1478    0.0514   -0.0652    0.0010
          59   -0.0057   -0.0021   -0.0200    0.0031    0.0098    0.0075    0.0127    0.0004
          60    0.0311    0.0106    0.0406   -0.0072    0.0104   -0.0054   -0.0066    0.0018
          61   -0.0476   -0.0105    0.0066   -0.0079   -0.0010   -0.0010   -0.0043    0.0009
          62    0.0322    0.0593    0.0010    0.0614    0.0432   -0.1103   -0.0518    0.1610
          63   -0.0526    0.0027   -0.0157   -0.0135   -0.0159    0.0367    0.0217   -0.0633
          64    0.0174    0.0079   -0.0010    0.0370    0.0273   -0.0021   -0.0246   -0.0679
          65    0.0615   -0.0430    0.0166   -0.0786   -0.0441    0.0201    0.0396    0.1250
          66    0.0620    0.0128   -0.0065   -0.0249   -0.0204   -0.0018    0.0190    0.0623


   Root No.      33        34        35        36        37        38        39        40

                33 A      34 A      35 A      36 A      37 A      38 A      39 A      40 A   

                1151.9    1184.4    1198.9    1227.1    1284.6    1316.6    1333.9    1380.2
  
           1    0.0011   -0.0361   -0.0123    0.0151   -0.0349    0.0102   -0.0085    0.0030
           2    0.0105    0.0041   -0.0080   -0.0180    0.0333   -0.0082   -0.0429   -0.0226
           3   -0.0016    0.0086    0.0130    0.0074   -0.0114   -0.0214    0.0149    0.0079
           4   -0.0004   -0.0055   -0.0220    0.0085    0.0685   -0.0119    0.0160    0.0183
           5    0.0066    0.0211   -0.0039    0.0070    0.0154    0.0338   -0.0220    0.0460
           6   -0.0058    0.0104   -0.0095    0.0035   -0.0231    0.0199   -0.0151   -0.0036
           7   -0.0009   -0.0176    0.0181   -0.0047    0.0163    0.0347   -0.0306   -0.0173
           8   -0.0127   -0.0178    0.0003   -0.0222   -0.0022    0.0633    0.0467   -0.0018
           9    0.0033    0.0212   -0.0087   -0.0059    0.0078    0.0108    0.0224   -0.0005
          10    0.0002    0.0055    0.0063   -0.0019   -0.0149   -0.0006   -0.0012   -0.0139
          11   -0.0026   -0.0101    0.0016   -0.0029   -0.0031   -0.0034   -0.0003    0.0108
          12    0.0056    0.0029    0.0067   -0.0036    0.0024    0.0026   -0.0042    0.0236
          13   -0.0054    0.0008   -0.0003   -0.0010   -0.0205   -0.0047    0.0132   -0.0135
          14   -0.0007    0.0128   -0.0080    0.0169   -0.0216    0.0096    0.0117   -0.0417
          15    0.0009   -0.0025    0.0026   -0.0030    0.0034   -0.0034    0.0015    0.0018
          16   -0.0016    0.0052   -0.0018   -0.0073   -0.0010   -0.0019   -0.0084   -0.0049
          17   -0.0004    0.0108   -0.0006    0.0005   -0.0186   -0.0107    0.0121    0.0068
          18   -0.0003    0.0008    0.0116    0.0074    0.0120    0.0070    0.0118    0.0027
          19   -0.0014   -0.0042    0.0092   -0.0127   -0.0042   -0.0364   -0.0022    0.0298
          20    0.0021    0.0028   -0.0021    0.0006    0.0019   -0.0411    0.0018    0.0112
          21   -0.0031   -0.0050    0.0019    0.0013   -0.0006    0.0050   -0.0034   -0.0022
          22   -0.0019    0.0051    0.0020    0.0060    0.0054    0.0072    0.0040   -0.0037
          23   -0.0010   -0.0083   -0.0004    0.0023   -0.0032   -0.0129   -0.0214   -0.0013
          24    0.0029    0.0015   -0.0116   -0.0078   -0.0122   -0.0163    0.0046    0.0086
          25   -0.0010    0.0025   -0.0043   -0.0045   -0.0040   -0.0052   -0.0018   -0.0003
          26    0.0015    0.0091    0.0107    0.0098    0.0044    0.0015    0.0303    0.0120
          27    0.0019   -0.0099    0.0005    0.0048    0.0029    0.0064   -0.0081   -0.0031
          28    0.0003    0.0078   -0.0005    0.0006   -0.0016   -0.0033    0.0120    0.0051
          29   -0.0042   -0.0091    0.0107    0.0096    0.0129    0.0126   -0.0223   -0.0141
          30    0.0002   -0.0096   -0.0004   -0.0056   -0.0005    0.0034   -0.0115   -0.0037
          31   -0.0025    0.0882    0.0522   -0.0746   -0.1246    0.0347   -0.0566   -0.0515
          32   -0.0327   -0.0843    0.0149   -0.0333   -0.0153   -0.0517    0.0180   -0.0389
          33   -0.0213   -0.0728   -0.0329    0.0213    0.0417   -0.0347    0.0312   -0.0099
          34    0.0568    0.1180    0.1292   -0.0829    0.0785   -0.0346    0.0421   -0.0355
          35   -0.0734   -0.0310    0.0049    0.0923   -0.0826   -0.0403    0.0209    0.0441
          36    0.0174   -0.0374   -0.0534   -0.0081    0.0034    0.0140   -0.0379   -0.0091
          37    0.0124    0.0681   -0.0467    0.0009   -0.0004   -0.0160    0.0288    0.0017
          38    0.0690    0.0012    0.0104    0.0912   -0.0464   -0.1159   -0.0516    0.0083
          39    0.0135   -0.0323    0.0387    0.0172    0.0083    0.0024   -0.0416   -0.0103
          40   -0.0109    0.0022   -0.0174    0.0048   -0.0047    0.0301   -0.0260    0.0586
          41    0.0179    0.0064    0.0179   -0.0084    0.0421   -0.0439    0.0397   -0.0838
          42    0.0165    0.0086    0.0196   -0.0077    0.0181   -0.0270    0.0230   -0.0467
          43    0.0001    0.0079    0.0066   -0.0023   -0.0183    0.0047   -0.0062   -0.0029
          44    0.0021   -0.0188   -0.0185    0.0065    0.0696   -0.0397    0.0388   -0.0552
          45   -0.0077   -0.0383   -0.0347    0.0114    0.0758   -0.0522    0.0532   -0.0817
          46    0.0033    0.0232   -0.0137    0.0078    0.0037    0.0434   -0.0322    0.0740
          47   -0.0048   -0.0197    0.0070   -0.0063   -0.0034   -0.0259    0.0169   -0.0342
          48   -0.0126   -0.0428    0.0072   -0.0118    0.0151   -0.0749    0.0596   -0.1333
          49    0.0624   -0.0358    0.0471    0.0576   -0.0096    0.0182    0.0507    0.0192
          50    0.0172    0.0013    0.0123    0.0174   -0.0216   -0.0068    0.0286    0.0139
          51   -0.1017    0.0263   -0.0891   -0.0829    0.0138   -0.0285   -0.0941   -0.0318
          52   -0.0025    0.0239   -0.0327    0.0279   -0.0079    0.0191    0.0243   -0.0405
          53   -0.0116   -0.0610    0.0970   -0.0789   -0.0663   -0.0738   -0.0197    0.0485
          54   -0.0004    0.0102   -0.0094    0.0055    0.0006    0.0099   -0.0019    0.0007
          55    0.0594   -0.0143   -0.0407   -0.0526   -0.0238    0.0213    0.0540    0.0136
          56    0.0161   -0.0146   -0.0139   -0.0146   -0.0128   -0.0097   -0.0078    0.0037
          57   -0.1053    0.0183    0.0862    0.0820    0.0554   -0.0093   -0.0918   -0.0290
          58    0.0504    0.1264   -0.0492    0.1087   -0.0245    0.0168   -0.0270   -0.0799
          59    0.0017    0.0016   -0.0020   -0.0011    0.0017   -0.0433    0.0045    0.0121
          60    0.0019    0.0060   -0.0035   -0.0062    0.0003    0.0044    0.0059    0.0036
          61   -0.0023    0.0087   -0.0033   -0.0005   -0.0029   -0.0031    0.0129    0.0055
          62   -0.1576    0.0550   -0.0738   -0.0579   -0.0421   -0.0585   -0.0012    0.0171
          63    0.0640   -0.0382    0.0340    0.0223    0.0224    0.0345   -0.0238   -0.0182
          64   -0.0949    0.0194    0.0365    0.0289    0.0270    0.0082    0.0230    0.0068
          65    0.1668   -0.0200   -0.0591   -0.0500   -0.0523   -0.0213   -0.0130    0.0004
          66    0.0877   -0.0268   -0.0355   -0.0265   -0.0260   -0.0037   -0.0342   -0.0105


   Root No.      41        42        43        44        45        46        47        48

                41 A      42 A      43 A      44 A      45 A      46 A      47 A      48 A   

                1402.3    1405.8    1410.5    1420.9    1458.9    1835.5    1852.8    1867.9
  
           1   -0.0029   -0.0307    0.0124    0.0122    0.0175    0.0034    0.0083   -0.0116
           2   -0.0020   -0.0362    0.0045   -0.0108    0.0456    0.0054    0.0071   -0.0088
           3    0.0042    0.0407   -0.0110   -0.0067   -0.0361    0.0004   -0.0140    0.0207
           4    0.0025    0.0123   -0.0083   -0.0156   -0.0089    0.0051    0.0031   -0.0011
           5   -0.0062    0.0195    0.0120    0.0691   -0.0015   -0.0165   -0.0024   -0.0008
           6   -0.0058   -0.0024    0.0091    0.0317    0.0071    0.0001   -0.0006    0.0003
           7    0.0047    0.0548   -0.0152   -0.0100    0.0428   -0.0193    0.0045    0.0141
           8    0.0002    0.0053   -0.0011   -0.0000   -0.0241    0.0018   -0.0002   -0.0008
           9   -0.0035   -0.0412    0.0099    0.0039   -0.0344    0.0065   -0.0120   -0.0206
          10   -0.0282   -0.0013   -0.0175    0.0295    0.0021   -0.0009   -0.0005    0.0003
          11    0.0238   -0.0145   -0.0289   -0.0356   -0.0017   -0.0021   -0.0004   -0.0003
          12   -0.0186   -0.0053   -0.0047   -0.0524   -0.0036   -0.0004    0.0001   -0.0002
          13    0.0002   -0.0107    0.0002   -0.0115   -0.0051   -0.1407   -0.0350   -0.0073
          14    0.0035    0.0054   -0.0091   -0.0335    0.0032    0.1343    0.0316    0.0072
          15    0.0001   -0.0009   -0.0001   -0.0016   -0.0012    0.0013    0.0004   -0.0000
          16    0.0009    0.0081   -0.0024   -0.0013   -0.0267    0.0157   -0.0713    0.0770
          17    0.0022    0.0268   -0.0058    0.0005   -0.0313   -0.0089    0.0319   -0.0284
          18   -0.0018   -0.0176    0.0039    0.0004    0.0509   -0.0206    0.0968   -0.1071
          19   -0.0030   -0.0153    0.0083    0.0212   -0.0113    0.1659    0.0416    0.0088
          20   -0.0009   -0.0150    0.0036   -0.0001   -0.0071   -0.0999   -0.0247   -0.0052
          21    0.0005    0.0063   -0.0015   -0.0005    0.0031   -0.0040   -0.0022   -0.0009
          22   -0.0014   -0.0191    0.0045    0.0016   -0.0361    0.0137   -0.0436   -0.0521
          23    0.0015    0.0172   -0.0042   -0.0014    0.0121    0.0205   -0.0629   -0.0650
          24    0.0012    0.0178   -0.0040   -0.0012    0.0514   -0.0327    0.0922    0.1073
          25    0.0011    0.0117   -0.0030   -0.0016   -0.0129   -0.0170    0.0713   -0.0705
          26   -0.0017   -0.0141    0.0036    0.0015    0.0724    0.0233   -0.0865    0.0493
          27   -0.0011   -0.0143    0.0038    0.0023   -0.0058    0.0177   -0.0781    0.0907
          28   -0.0006   -0.0039    0.0011    0.0006    0.0217   -0.0077    0.0197    0.0374
          29   -0.0010   -0.0190    0.0042    0.0007   -0.0692   -0.0372    0.1098    0.0804
          30    0.0014    0.0150   -0.0038   -0.0015   -0.0090    0.0262   -0.0721   -0.0897
          31   -0.0107   -0.0575    0.0119    0.0247    0.0408   -0.0166   -0.0005   -0.0070
          32    0.0057   -0.0304   -0.0143   -0.0673    0.0053   -0.0164   -0.0021   -0.0032
          33    0.0035    0.0045   -0.0095   -0.0406   -0.0110    0.0050   -0.0019    0.0029
          34    0.0086    0.0346   -0.0343   -0.0546   -0.0204    0.0002    0.0015    0.0004
          35    0.0063    0.0624   -0.0064    0.0209   -0.0232   -0.0034    0.0133   -0.0011
          36   -0.0045   -0.0356    0.0141    0.0045    0.0137    0.0072   -0.0113    0.0093
          37   -0.0046   -0.0587    0.0136    0.0028   -0.0209   -0.0164    0.0035   -0.0007
          38    0.0028    0.0157   -0.0035   -0.0046    0.0037   -0.0183   -0.0152   -0.0032
          39    0.0034    0.0395   -0.0103   -0.0051    0.0156    0.0040   -0.0099   -0.0070
          40   -0.0201    0.0447    0.2454   -0.1637   -0.0048    0.0014    0.0000    0.0002
          41    0.1442    0.0575    0.1911    0.0957    0.0057   -0.0001    0.0002   -0.0000
          42    0.0501    0.0066   -0.0114    0.0813    0.0027    0.0000    0.0002   -0.0000
          43   -0.0014   -0.0023   -0.0057    0.0103    0.0014   -0.0015   -0.0007    0.0003
          44   -0.3162    0.0593    0.1060    0.0371   -0.0013    0.0003    0.0003   -0.0002
          45    0.0793   -0.0226   -0.1816    0.1874    0.0046    0.0001    0.0008   -0.0006
          46    0.3418   -0.0176    0.0210   -0.0403   -0.0013   -0.0012    0.0004   -0.0005
          47   -0.0809    0.0013   -0.0051    0.0018    0.0006   -0.0033   -0.0010   -0.0000
          48    0.1483    0.0427    0.1780    0.0762    0.0086    0.0009   -0.0004    0.0004
          49   -0.0019   -0.0201    0.0065    0.0056    0.0510    0.0033   -0.0057   -0.0042
          50    0.0016    0.0210   -0.0039    0.0021   -0.0096   -0.0169    0.0701   -0.0736
          51    0.0026    0.0196   -0.0070   -0.0089   -0.0722    0.0021   -0.0140    0.0327
          52    0.0024   -0.0005   -0.0080   -0.0342   -0.0030   -0.1170   -0.0301   -0.0065
          53   -0.0051   -0.0344    0.0197    0.0416   -0.0100   -0.0796   -0.0197   -0.0031
          54   -0.0008   -0.0017    0.0013    0.0057   -0.0013    0.0089    0.0019   -0.0000
          55    0.0009    0.0185   -0.0039   -0.0005    0.0418   -0.0094    0.0250    0.0364
          56    0.0023    0.0293   -0.0069   -0.0020    0.0330    0.0201   -0.0635   -0.0634
          57   -0.0015   -0.0298    0.0058   -0.0000   -0.0743    0.0062   -0.0157   -0.0363
          58    0.0062    0.0197   -0.0166   -0.0496    0.0252   -0.0442   -0.0115   -0.0011
          59   -0.0010   -0.0168    0.0039   -0.0008   -0.0091   -0.1354   -0.0340   -0.0071
          60   -0.0015   -0.0072    0.0033    0.0064   -0.0051    0.0104    0.0022   -0.0003
          61   -0.0003   -0.0009    0.0003    0.0001    0.0288   -0.0095    0.0258    0.0436
          62    0.0050    0.0665   -0.0158   -0.0059    0.0794    0.0098   -0.0169   -0.0802
          63   -0.0007   -0.0169    0.0036    0.0006   -0.0722    0.0131   -0.0380   -0.0433
          64   -0.0030   -0.0306    0.0073    0.0013    0.0628   -0.0040    0.0163   -0.0025
          65    0.0055    0.0616   -0.0143   -0.0034   -0.0563   -0.0043    0.0315   -0.0929
          66    0.0025    0.0229   -0.0049    0.0001   -0.0763    0.0080   -0.0376    0.0385


   Root No.      49        50        51        52        53        54        55        56

                49 A      50 A      51 A      52 A      53 A      54 A      55 A      56 A   

                2867.5    2877.7    2887.4    3044.8    3048.1    3063.3    3073.9    3080.4
  
           1    0.0089   -0.0119   -0.0061   -0.0002   -0.0001    0.0000   -0.0001    0.0001
           2    0.0124   -0.0151   -0.0065   -0.0004    0.0003    0.0002    0.0003   -0.0000
           3    0.0229   -0.0302   -0.0133   -0.0003    0.0004    0.0003    0.0005   -0.0000
           4   -0.0009    0.0039   -0.0183   -0.0000    0.0000    0.0000    0.0000   -0.0005
           5    0.0016   -0.0049    0.0189   -0.0001    0.0000    0.0000    0.0000    0.0006
           6   -0.0040    0.0110   -0.0452    0.0001   -0.0000   -0.0000   -0.0000   -0.0013
           7   -0.0236   -0.0135   -0.0021    0.0001    0.0004   -0.0001    0.0000    0.0000
           8    0.0085    0.0042    0.0005    0.0002   -0.0003    0.0001   -0.0003    0.0000
           9   -0.0341   -0.0198   -0.0036   -0.0002    0.0003   -0.0003    0.0005   -0.0000
          10    0.0002   -0.0004    0.0010   -0.0002    0.0001    0.0001    0.0001   -0.0185
          11   -0.0002    0.0004   -0.0012   -0.0004    0.0002    0.0004    0.0006    0.0325
          12    0.0001   -0.0002    0.0008    0.0001   -0.0001   -0.0002   -0.0004   -0.0334
          13    0.0002    0.0003    0.0003   -0.0000   -0.0000   -0.0000    0.0001   -0.0003
          14   -0.0001   -0.0002    0.0007    0.0000    0.0000   -0.0000    0.0000   -0.0003
          15   -0.0001   -0.0001   -0.0001   -0.0000    0.0000    0.0000   -0.0000   -0.0001
          16   -0.0001    0.0001   -0.0006    0.0099   -0.0035   -0.0058   -0.0046    0.0002
          17   -0.0008    0.0008    0.0002   -0.0356    0.0125    0.0164    0.0122   -0.0006
          18    0.0003   -0.0003    0.0001   -0.0011    0.0006    0.0025    0.0022   -0.0000
          19   -0.0006   -0.0004    0.0002    0.0000    0.0001   -0.0001    0.0001   -0.0000
          20   -0.0005    0.0000   -0.0003   -0.0000   -0.0000    0.0000    0.0001    0.0001
          21   -0.0000   -0.0000   -0.0002   -0.0000   -0.0001    0.0000   -0.0000   -0.0000
          22    0.0005    0.0002   -0.0000    0.0017    0.0077   -0.0028    0.0022   -0.0000
          23   -0.0008   -0.0003   -0.0000   -0.0077   -0.0364    0.0181   -0.0165    0.0002
          24   -0.0006   -0.0002   -0.0000   -0.0001   -0.0005   -0.0015    0.0020   -0.0000
          25    0.0002   -0.0002   -0.0001    0.0071   -0.0002    0.0100    0.0095   -0.0002
          26    0.0000    0.0001   -0.0000    0.0139   -0.0014    0.0125    0.0133   -0.0002
          27   -0.0001    0.0001   -0.0000   -0.0161    0.0007   -0.0200   -0.0195    0.0004
          28   -0.0003   -0.0001   -0.0000   -0.0050   -0.0132   -0.0111    0.0154   -0.0002
          29   -0.0002   -0.0002   -0.0000    0.0031    0.0090    0.0042   -0.0072    0.0001
          30    0.0001    0.0001    0.0000    0.0071    0.0183    0.0166   -0.0225    0.0002
          31    0.0187   -0.0531    0.2247   -0.0007    0.0003    0.0003    0.0003    0.0039
          32   -0.0200    0.0550   -0.2249   -0.0004    0.0001    0.0002    0.0001   -0.0031
          33    0.0496   -0.1358    0.5498   -0.0002    0.0001    0.0002    0.0004    0.0162
          34   -0.1151    0.1496    0.0686    0.0022   -0.0012   -0.0012   -0.0012    0.0009
          35   -0.1379    0.1867    0.0814    0.0012   -0.0009   -0.0009   -0.0010    0.0000
          36   -0.2762    0.3638    0.1581    0.0075   -0.0036   -0.0038   -0.0035   -0.0012
          37    0.2832    0.1650    0.0296    0.0001   -0.0026    0.0014   -0.0018    0.0001
          38   -0.0960   -0.0590   -0.0112   -0.0002   -0.0002   -0.0000    0.0002   -0.0000
          39    0.4153    0.2408    0.0429   -0.0004   -0.0065    0.0032   -0.0036    0.0001
          40   -0.0003    0.0012   -0.0063   -0.0006    0.0003    0.0007    0.0016    0.1399
          41    0.0009   -0.0021    0.0073    0.0004   -0.0002   -0.0006   -0.0015   -0.1519
          42   -0.0019    0.0040   -0.0105   -0.0015    0.0006    0.0018    0.0042    0.4025
          43    0.0007    0.0003   -0.0096    0.0011   -0.0003   -0.0008   -0.0004    0.1742
          44   -0.0002    0.0005   -0.0022   -0.0002    0.0001    0.0001    0.0003    0.0245
          45   -0.0003    0.0007   -0.0027    0.0001   -0.0000   -0.0001   -0.0002   -0.0122
          46    0.0008   -0.0015    0.0036    0.0013   -0.0005   -0.0011   -0.0017   -0.0932
          47    0.0009   -0.0019    0.0075    0.0049   -0.0018   -0.0039   -0.0058   -0.2607
          48   -0.0003    0.0008   -0.0030   -0.0002    0.0001    0.0002    0.0003    0.0092
          49   -0.0018    0.0027    0.0001   -0.1071    0.0378    0.0482    0.0341   -0.0020
          50    0.0045   -0.0090   -0.0033    0.4194   -0.1471   -0.1837   -0.1293    0.0071
          51    0.0017   -0.0021   -0.0008   -0.0002   -0.0003   -0.0019   -0.0015    0.0002
          52    0.0013    0.0037   -0.0035    0.0002   -0.0002    0.0003   -0.0011    0.0032
          53    0.0001    0.0008    0.0002    0.0000   -0.0001    0.0000   -0.0003    0.0011
          54   -0.0005   -0.0003   -0.0010    0.0000    0.0000   -0.0000    0.0001   -0.0003
          55   -0.0014   -0.0015   -0.0004   -0.0207   -0.0975    0.0440   -0.0374    0.0003
          56    0.0072    0.0060    0.0013    0.0898    0.4262   -0.1976    0.1692   -0.0015
          57   -0.0021   -0.0010   -0.0002    0.0040    0.0176   -0.0063    0.0051   -0.0000
          58   -0.0013   -0.0005    0.0001    0.0001    0.0004   -0.0002    0.0002   -0.0000
          59    0.0023    0.0040   -0.0023    0.0002   -0.0004   -0.0001   -0.0009   -0.0011
          60   -0.0009   -0.0005   -0.0007   -0.0000   -0.0002    0.0001   -0.0001    0.0001
[...]
 TRANSITION DIPOLE   0.0397         C  4 -- H 15         +18.5% ( 41.4%)      4.8%
 TRAVEL (Ang.)       0.3639         C  4 -- H 16         +13.6% ( 35.5%)     18.6%
 REDUCED MASS        0.3611         C  2 -- C  4          +6.3% ( 24.1%)     42.8%
 EFFECTIVE MASS      2.3860
 FORCE CONSTANT      0.4233

 VIBRATION         44   44A           ATOM PAIR      ENERGY CONTRIBUTION    RADIAL
 FREQUENCY          1420.92         C  2 -- C  4         +21.4% ( 65.6%)     93.3%
 TRANSITION DIPOLE   0.0850         C  2 -- C  5         +13.8% ( 52.7%)     78.5%
 TRAVEL (Ang.)       0.1702         C  4 -- H 14         +13.6% ( 52.4%)      3.5%
 REDUCED MASS        1.6374         C  4 -- H 15         +12.5% ( 50.0%)      4.2%
 EFFECTIVE MASS      7.3617         C  2 -- H 11         +10.9% ( 46.9%)      0.0%
 FORCE CONSTANT      1.9478

 VIBRATION         45   45A           ATOM PAIR      ENERGY CONTRIBUTION    RADIAL
 FREQUENCY          1458.87         C  9 -- C 10         +16.4% ( 62.1%)    100.0%
 TRANSITION DIPOLE   0.1282         C  1 -- C  6         +10.9% ( 50.8%)     99.1%
 TRAVEL (Ang.)       0.1738         C  3 -- C  8         +10.5% ( 49.9%)     97.9%
 REDUCED MASS        1.5302         C  6 -- C  9          +8.8% ( 45.7%)      0.7%
 EFFECTIVE MASS     10.6051
 FORCE CONSTANT      1.9189

 VIBRATION         46   46A           ATOM PAIR      ENERGY CONTRIBUTION    RADIAL
 FREQUENCY          1835.50         C  5 -- C  7         +42.5% ( 96.7%)    100.0%
 TRANSITION DIPOLE   0.1047         C  2 -- C  5         +13.0% ( 53.5%)     26.9%
 TRAVEL (Ang.)       0.0885         C  3 -- C  7         +12.9% ( 53.4%)     26.1%
 REDUCED MASS        4.6903         C  5 -- H 18         +12.1% ( 51.6%)      9.6%
 EFFECTIVE MASS     11.9042         C  7 -- H 20         +12.0% ( 51.3%)      9.9%
 FORCE CONSTANT      9.3103

 VIBRATION         47   47A           ATOM PAIR      ENERGY CONTRIBUTION    RADIAL
 FREQUENCY          1852.84         C  6 -- C  9         +21.1% ( 68.4%)     99.1%
 TRANSITION DIPOLE   0.3020         C  8 -- C 10         +19.8% ( 66.2%)     98.9%
 TRAVEL (Ang.)       0.1199         C  9 -- C 10         +15.5% ( 58.7%)    100.0%
 REDUCED MASS        2.5326         C  9 -- H 22          +6.9% ( 39.1%)      1.7%
 EFFECTIVE MASS     11.9523
 FORCE CONSTANT      5.1227

 VIBRATION         48   48A           ATOM PAIR      ENERGY CONTRIBUTION    RADIAL
 FREQUENCY          1867.88         C  8 -- C 10         +22.4% ( 69.2%)     99.3%
 TRANSITION DIPOLE   0.3906         C  6 -- C  9         +22.0% ( 68.7%)     99.3%
 TRAVEL (Ang.)       0.1162         C  9 -- C 10         +12.1% ( 50.9%)      0.0%
 REDUCED MASS        2.6736         C  3 -- C  8          +7.9% ( 41.2%)     55.2%
 EFFECTIVE MASS     11.7851
 FORCE CONSTANT      5.4960

 VIBRATION         49   49A           ATOM PAIR      ENERGY CONTRIBUTION    RADIAL
 FREQUENCY          2867.52         C  3 -- H 13         +67.7% ( 83.8%)    100.0%
 TRANSITION DIPOLE   0.0730         C  1 -- H 12         +28.2% ( 54.1%)    100.0%
 TRAVEL (Ang.)       0.2097         C  1 -- C  3          +1.1% ( 10.8%)      0.6%
 REDUCED MASS        0.5349         C  2 -- H 11          +0.8% (  9.3%)     99.8%
 EFFECTIVE MASS      1.4539
 FORCE CONSTANT      2.5913

 VIBRATION         50   50A           ATOM PAIR      ENERGY CONTRIBUTION    RADIAL
 FREQUENCY          2877.71         C  1 -- H 12         +60.8% ( 79.1%)    100.0%
 TRANSITION DIPOLE   0.0996         C  3 -- H 13         +28.3% ( 54.0%)    100.0%
 TRAVEL (Ang.)       0.2280         C  2 -- H 11          +7.8% ( 28.4%)    100.0%
 REDUCED MASS        0.4507         C  1 -- C  3          +0.9% (  9.5%)     74.8%
 EFFECTIVE MASS      1.4381
 FORCE CONSTANT      2.1992

 VIBRATION         51   51A           ATOM PAIR      ENERGY CONTRIBUTION    RADIAL
 FREQUENCY          2887.44         C  2 -- H 11         +88.3% ( 95.4%)    100.0%
 TRANSITION DIPOLE   0.1128         C  1 -- H 12          +7.9% ( 28.6%)     99.9%
 TRAVEL (Ang.)       0.1733         C  1 -- C  2          +1.0% (  9.9%)      8.1%
 REDUCED MASS        0.7771         C  2 -- C  4          +1.0% (  9.9%)      9.2%
 EFFECTIVE MASS      1.4387
 FORCE CONSTANT      3.8175

 VIBRATION         52   52A           ATOM PAIR      ENERGY CONTRIBUTION    RADIAL
 FREQUENCY          3044.78         C  6 -- H 17         +64.9% ( 81.8%)    100.0%
 TRANSITION DIPOLE   0.2690         C  9 -- H 22         +25.6% ( 51.4%)    100.0%
 TRAVEL (Ang.)       0.2149         C 10 -- H 21          +4.0% ( 20.4%)    100.0%
 REDUCED MASS        0.4793         C  8 -- H 19          +3.0% ( 17.4%)    100.0%
 EFFECTIVE MASS      1.4707
 FORCE CONSTANT      2.6182

 VIBRATION         53   53A           ATOM PAIR      ENERGY CONTRIBUTION    RADIAL
 FREQUENCY          3048.12         C  8 -- H 19         +61.8% ( 79.8%)    100.0%
 TRANSITION DIPOLE   0.2480         C 10 -- H 21         +28.1% ( 53.8%)    100.0%
 TRAVEL (Ang.)       0.2201         C  6 -- H 17          +7.4% ( 27.7%)    100.0%
 REDUCED MASS        0.4565         C  8 -- C 10          +1.0% ( 10.4%)      2.4%
 EFFECTIVE MASS      1.4638
 FORCE CONSTANT      2.4990

 VIBRATION         54   54A           ATOM PAIR      ENERGY CONTRIBUTION    RADIAL
 FREQUENCY          3063.34         C  9 -- H 22         +37.3% ( 62.1%)     99.9%
 TRANSITION DIPOLE   0.3518         C 10 -- H 21         +23.5% ( 49.2%)     99.9%
 TRAVEL (Ang.)       0.2919         C  8 -- H 19         +18.9% ( 44.2%)     99.9%
 REDUCED MASS        0.2583         C  6 -- H 17         +16.7% ( 41.5%)     99.8%
 EFFECTIVE MASS      1.5728
 FORCE CONSTANT      1.4280

 VIBRATION         55   55A           ATOM PAIR      ENERGY CONTRIBUTION    RADIAL
 FREQUENCY          3073.88         C 10 -- H 21         +41.4% ( 65.3%)    100.0%
 TRANSITION DIPOLE   0.3620         C  9 -- H 22         +33.8% ( 58.9%)    100.0%
 TRAVEL (Ang.)       0.2659         C  8 -- H 19         +13.2% ( 36.9%)     99.8%
 REDUCED MASS        0.3102         C  6 -- H 17          +7.9% ( 28.4%)     99.7%
 EFFECTIVE MASS      1.6015
 FORCE CONSTANT      1.7268

 VIBRATION         56   56A           ATOM PAIR      ENERGY CONTRIBUTION    RADIAL
 FREQUENCY          3080.39         C  4 -- H 14         +64.0% ( 82.6%)     98.8%
 TRANSITION DIPOLE   0.0129         C  4 -- H 16         +24.5% ( 51.1%)     90.1%
 TRAVEL (Ang.)       0.2073         C  4 -- H 15         +10.4% ( 33.2%)     74.4%
 REDUCED MASS        0.5094         C  2 -- C  4          +1.0% ( 10.3%)      0.0%
 EFFECTIVE MASS      1.5046
 FORCE CONSTANT      2.8481

 VIBRATION         57   57A           ATOM PAIR      ENERGY CONTRIBUTION    RADIAL
 FREQUENCY          3083.83         C  4 -- H 15         +54.3% ( 76.0%)     97.9%
 TRANSITION DIPOLE   0.0176         C  4 -- H 16         +42.4% ( 67.2%)     95.9%
 TRAVEL (Ang.)       0.2080         C  4 -- H 14          +2.2% ( 15.4%)     25.2%
 REDUCED MASS        0.5053         C  2 -- C  4          +1.0% ( 10.5%)      0.0%
 EFFECTIVE MASS      1.5082
 FORCE CONSTANT      2.8312

 VIBRATION         58   58A           ATOM PAIR      ENERGY CONTRIBUTION    RADIAL
 FREQUENCY          3111.44         C  5 -- H 18         +51.9% ( 73.1%)    100.0%
 TRANSITION DIPOLE   0.3627         C  7 -- H 20         +45.6% ( 68.6%)    100.0%
 TRAVEL (Ang.)       0.2155         C  5 -- C  7          +1.1% ( 10.6%)      0.1%
 REDUCED MASS        0.4668         C  2 -- C  5          +0.8% (  8.9%)     25.5%
 EFFECTIVE MASS      1.4598
 FORCE CONSTANT      2.6627

 VIBRATION         59   59A           ATOM PAIR      ENERGY CONTRIBUTION    RADIAL
 FREQUENCY          3130.64         C  7 -- H 20         +50.9% ( 72.7%)     99.9%
 TRANSITION DIPOLE   0.3616         C  5 -- H 18         +44.7% ( 68.1%)     99.9%
 TRAVEL (Ang.)       0.2142         C  5 -- C  7          +2.5% ( 16.1%)     99.9%
 REDUCED MASS        0.4695         C  3 -- C  7          +1.0% ( 10.1%)     17.7%
 EFFECTIVE MASS      1.6517
 FORCE CONSTANT      2.7110

 VIBRATION         60   60A           ATOM PAIR      ENERGY CONTRIBUTION    RADIAL
 FREQUENCY          3178.69         C  4 -- H 15         +34.7% ( 56.7%)     97.3%
 TRANSITION DIPOLE   0.0351         C  4 -- H 14         +32.9% ( 55.2%)     97.0%
 TRAVEL (Ang.)       0.2546         C  4 -- H 16         +32.1% ( 54.5%)     96.9%
 REDUCED MASS        0.3273         C  2 -- C  4          +0.3% (  5.0%)     99.9%
 EFFECTIVE MASS      1.1350
 FORCE CONSTANT      1.9487

      SYMMETRY NUMBER FOR POINT-GROUP C1  =  1


          SYSTEM IS A GROUND STATE



 InChI=1S/C10H12/c1-8-6-7-9-4-2-3-5-10(8)9/h2-10H,1H3


          MOLECULE IS NOT LINEAR

          THERE ARE 60 GENUINE VIBRATIONS IN THIS SYSTEM
          THIS THERMODYNAMICS CALCULATION IS LIMITED TO
          MOLECULES WHICH HAVE NO INTERNAL ROTATIONS




                    CALCULATED THERMODYNAMIC PROPERTIES
                                          *
   TEMP. (K)   PARTITION FUNCTION   H.O.F.    ENTHALPY  HEAT CAPACITY ENTROPY
                                   KCAL/MOL   CAL/MOLE    CAL/K/MOL  CAL/K/MOL


 298.00  VIB.     0.8685D+02                  3559.0155    28.2516    20.8143
         ROT.     0.5201D+06                   888.2803     2.9808    29.1360
         INT.     0.4517D+08                  4447.2958    31.2324    49.9503
         TRA.     0.1470D+28                  1480.4672     4.9680    40.5480
         TOT.                       34.830    5927.7630    36.2004    90.4982

 200.00  VIB.     0.1359D+02                  1405.8768    16.0552    12.2145
         ROT.     0.2860D+06                   596.1613     2.9808    27.9473
         INT.     0.3886D+07                  2002.0380    19.0360    40.1618
         TRA.     0.8080D+27                   993.6021     4.9680    38.5668
         TOT.                       31.898    2995.6402    24.0040    78.7286

 210.00  VIB.     0.1624D+02                  1572.0142    17.1785    13.0248
         ROT.     0.3077D+06                   625.9693     2.9808    28.0927
         INT.     0.4996D+07                  2197.9835    20.1593    41.1176
         TRA.     0.8694D+27                  1043.2822     4.9680    38.8092
         TOT.                       32.144    3241.2658    25.1273    79.9268

 220.00  VIB.     0.1945D+02                  1749.5676    18.3380    13.8506
         ROT.     0.3299D+06                   655.7774     2.9808    28.2314
         INT.     0.6418D+07                  2405.3450    21.3188    42.0820
         TRA.     0.9322D+27                  1092.9623     4.9680    39.0403
         TOT.                       32.401    3498.3073    26.2868    81.1223

 230.00  VIB.     0.2336D+02                  1938.8863    19.5311    14.6919
         ROT.     0.3527D+06                   685.5855     2.9808    28.3639
         INT.     0.8239D+07                  2624.4717    22.5119    43.0559
         TRA.     0.9965D+27                  1142.6424     4.9680    39.2612
         TOT.                       32.670    3767.1142    27.4799    82.3170

 240.00  VIB.     0.2813D+02                  2140.2906    20.7545    15.5489
         ROT.     0.3759D+06                   715.3935     2.9808    28.4908
         INT.     0.1057D+08                  2855.6841    23.7354    44.0397
         TRA.     0.1062D+28                  1192.3226     4.9680    39.4726
         TOT.                       32.951    4048.0066    28.7034    83.5123

 250.00  VIB.     0.3396D+02                  2354.0664    22.0048    16.4214
         ROT.     0.3997D+06                   745.2016     2.9808    28.6125
         INT.     0.1357D+08                  3099.2680    24.9856    45.0339
         TRA.     0.1129D+28                  1242.0027     4.9680    39.6754
         TOT.                       33.244    4341.2707    29.9536    84.7093

 260.00  VIB.     0.4110D+02                  2580.4619    23.2778    17.3092
         ROT.     0.4239D+06                   775.0097     2.9808    28.7294
         INT.     0.1742D+08                  3355.4716    26.2586    46.0386
         TRA.     0.1198D+28                  1291.6828     4.9680    39.8703
         TOT.                       33.550    4647.1543    31.2266    85.9088

 270.00  VIB.     0.4986D+02                  2819.6848    24.5696    18.2119
         ROT.     0.4486D+06                   804.8177     2.9808    28.8419
         INT.     0.2237D+08                  3624.5026    27.5504    47.0537
         TRA.     0.1267D+28                  1341.3629     4.9680    40.0578
         TOT.                       33.869    4965.8654    32.5184    87.1115

 280.00  VIB.     0.6066D+02                  3071.9021    25.8760    19.1290
         ROT.     0.4737D+06                   834.6258     2.9808    28.9503
         INT.     0.2873D+08                  3906.5279    28.8568    48.0793
         TRA.     0.1338D+28                  1391.0430     4.9680    40.2384
         TOT.                       34.200    5297.5708    33.8248    88.3177

 290.00  VIB.     0.7397D+02                  3337.2396    27.1930    20.0600
         ROT.     0.4993D+06                   864.4339     2.9808    29.0549
         INT.     0.3693D+08                  4201.6734    30.1738    49.1148
         TRA.     0.1411D+28                  1440.7231     4.9680    40.4128
         TOT.                       34.545    5642.3965    35.1418    89.5276

 300.00  VIB.     0.9043D+02                  3615.7837    28.5167    21.0041
         ROT.     0.5254D+06                   894.2419     2.9808    29.1559
         INT.     0.4751D+08                  4510.0256    31.4975    50.1601
         TRA.     0.1484D+28                  1490.4032     4.9680    40.5812
         TOT.                       34.903    6000.4288    36.4655    90.7413

 310.00  VIB.     0.1108D+03                  3907.5828    29.8434    21.9608
         ROT.     0.5518D+06                   924.0500     2.9808    29.2537
         INT.     0.6116D+08                  4831.6327    32.8242    51.2145
         TRA.     0.1559D+28                  1540.0833     4.9680    40.7441
         TOT.                       35.274    6371.7160    37.7922    91.9586

 320.00  VIB.     0.1362D+03                  4212.6495    31.1696    22.9293
         ROT.     0.5788D+06                   953.8580     2.9808    29.3483
         INT.     0.7880D+08                  5166.5076    34.1505    52.2776
         TRA.     0.1635D+28                  1589.7634     4.9680    40.9018
         TOT.                       35.659    6756.2710    39.1185    93.1794

 330.00  VIB.     0.1677D+03                  4530.9637    32.4923    23.9087
         ROT.     0.6061D+06                   983.6661     2.9808    29.4400
         INT.     0.1016D+09                  5514.6298    35.4732    53.3487
         TRA.     0.1713D+28                  1639.4435     4.9680    41.0547
         TOT.                       36.057    7154.0734    40.4412    94.4034

 340.00  VIB.     0.2070D+03                  4862.4750    33.8086    24.8982
         ROT.     0.6339D+06                  1013.4742     2.9808    29.5290
         INT.     0.1312D+09                  5875.9491    36.7894    54.4272
         TRA.     0.1791D+28                  1689.1236     4.9680    41.2030
         TOT.                       36.468    7565.0728    41.7574    95.6302

 350.00  VIB.     0.2560D+03                  5207.1057    35.1158    25.8971
         ROT.     0.6620D+06                  1043.2822     2.9808    29.6154
         INT.     0.1695D+09                  6250.3879    38.0966    55.5126
         TRA.     0.1871D+28                  1738.8037     4.9680    41.3470
         TOT.                       36.892    7989.1916    43.0646    96.8596

 360.00  VIB.     0.3174D+03                  5564.7539    36.4118    26.9046
         ROT.     0.6906D+06                  1073.0903     2.9808    29.6994
         INT.     0.2192D+09                  6637.8442    39.3926    56.6040
         TRA.     0.1951D+28                  1788.4838     4.9680    41.4870
         TOT.                       37.329    8426.3281    44.3606    98.0909

 370.00  VIB.     0.3944D+03                  5935.2966    37.6944    27.9198
         ROT.     0.7196D+06                  1102.8984     2.9808    29.7811
         INT.     0.2838D+09                  7038.1950    40.6752    57.7008
         TRA.     0.2033D+28                  1838.1639     4.9680    41.6231
         TOT.                       37.779    8876.3589    45.6432    99.3239

 380.00  VIB.     0.4911D+03                  6318.5922    38.9621    28.9419
         ROT.     0.7489D+06                  1132.7064     2.9808    29.8605
         INT.     0.3678D+09                  7451.2986    41.9429    58.8024
         TRA.     0.2116D+28                  1887.8440     4.9680    41.7556
         TOT.                       38.242    9339.1426    46.9109   100.5580

 390.00  VIB.     0.6127D+03                  6714.4830    40.2133    29.9701
         ROT.     0.7787D+06                  1162.5145     2.9808    29.9380
         INT.     0.4771D+09                  7876.9975    43.1941    59.9081
         TRA.     0.2200D+28                  1937.5242     4.9680    41.8846
         TOT.                       38.717    9814.5216    48.1621   101.7927

 400.00  VIB.     0.7658D+03                  7122.7982    41.4468    31.0038
         ROT.     0.8088D+06                  1192.3226     2.9808    30.0134
         INT.     0.6194D+09                  8315.1208    44.4276    61.0173
         TRA.     0.2285D+28                  1987.2043     4.9680    42.0104
         TOT.                       39.205   10302.3250    49.3956   103.0277

   *: NOTE: HEATS OF FORMATION ARE RELATIVE TO THE
            ELEMENTS IN THEIR STANDARD STATE AT 298K
              (=  Standard Enthalpy of Formation).

            Hvib:  Zero-point energy is not included.
                   frequencies of less than zero cm-1 are not included.
            Hrot = (3/2)RT
            Htra = (3/2)RT + pV = (5/2)RT

            Heat capacity is Cp, not Cv

          For more information, see: HTTP://OpenMOPAC.net/Manual/thermochemistry.html


           FORCE CONSTANT IN CARTESIAN COORDINATES (Millidynes/A)

    ATOM   CHEMICAL       X               Y               Z
   NUMBER   SYMBOL  FORCE CONSTANT  FORCE CONSTANT  FORCE CONSTANT

      1       C        7.432813        8.522454        8.906714
      2       C        7.544195        9.341078        8.267791
      3       C        9.486370        7.672266        8.575986
      4       C        8.402618        8.358320        8.183769
      5       C       14.518330       10.529588        2.445270
      6       C        6.720863       10.127367       10.318794
      7       C       11.930971       13.028489        2.419875
      8       C        5.032830       11.715211       10.366870
      9       C        6.309359       10.764092       10.600557
     10       C        5.124385       11.855244       10.700119
     11       H        1.237999        1.152431        3.638862
     12       H        1.197562        1.399071        3.390997
     13       H        1.817088        0.821932        3.207424
     14       H        1.152131        1.267623        4.355580
     15       H        5.379107        0.683868        0.707547
     16       H        1.061567        4.961553        0.736638
     17       H        0.750579        4.825414        0.645666
     18       H        4.953816        1.072916        0.372792
     19       H        0.675642        4.895560        0.662154
     20       H        0.711188        5.339175        0.356781
     21       H        1.776514        1.217803        3.262176
     22       H        0.995969        2.207363        3.049627

 **********************
 *                    *
 * JOB ENDED NORMALLY *
 *                    *
 **********************



 TOTAL JOB TIME:             2.66 SECONDS

 == MOPAC DONE ==
