 *******************************************************************************
 **                                                                           **
 **                              MOPAC v23.1.2                                **
 **                                                                           **
 *******************************************************************************
 **          Digital Object Identifier (DOI): 10.5281/zenodo.6511958          **
 **    Visit the DOI location for information on how to cite this program.    **
 *******************************************************************************

                              PM3 CALCULATION RESULTS

 *******************************************************************************
 *  CALCULATION DONE: (MAX THREADS = 1)              Tue Jun  3 16:27:15 2025  *
 *  PM3        - The PM3 Hamiltonian to be used
 *  PRECISE    - TIGHTER CRITERIA TO BE USED
 *  NOSYM      - POINT-GROUP SYMMETRY SET TO C1
 *  THREADS=1  - MULTI-THREADING NOT USED
 *  T=         - A TIME OF 172800.0 SECONDS REQUESTED
 *  DUMP=N     - RESTART FILE WRITTEN EVERY 7200.0 SECONDS REQUESTED
 *******************************************************************************
pm3  precise nosym THREADS=1
 InChI=1S/C10H10/c1-2-3-7-10-8-5-4-6-9-10/h3-6,8-9H,1,7H2

   ATOM   CHEMICAL          X               Y               Z
  NUMBER   SYMBOL      (ANGSTROMS)     (ANGSTROMS)     (ANGSTROMS)

     1       C          0.69390000  *   0.94420000  *  -1.30520000  *
     2       C         -0.46710000  *   0.42500000  *  -0.49890000  *
     3       C         -0.78640000  *  -0.94350000  *  -0.51390000  *
     4       C         -1.20740000  *   1.29570000  *   0.31840000  *
     5       C          1.93920000  *   0.99930000  *  -0.47330000  *
     6       C         -1.84430000  *  -1.42810000  *   0.26170000  *
     7       C         -2.58410000  *  -0.55350000  *   1.06240000  *
     8       C         -2.26480000  *   0.80680000  *   1.09200000  *
     9       C          3.10330000  *  -1.18730000  *   0.34430000  *
    10       C          2.52500000  *  -0.09420000  *  -0.06390000  *
    11       H          0.86750000  *   0.30780000  *  -2.20090000  *
    12       H          0.46030000  *   1.96630000  *  -1.67430000  *
    13       H         -0.21490000  *  -1.63340000  *  -1.12240000  *
    14       H          2.38290000  *   1.95720000  *  -0.23500000  *
    15       H         -2.08830000  *  -2.48240000  *   0.24460000  *
    16       H         -3.40180000  *  -0.93050000  *   1.66300000  *
    17       H         -2.83450000  *   1.48210000  *   1.71720000  *
    18       H         -0.96400000  *   2.35040000  *   0.35700000  *
    19       H          2.52830000  *  -2.09810000  *   0.44060000  *
    20       H          4.15710000  *  -1.18380000  *   0.58650000  *



          CARTESIAN COORDINATES 

    NO.       ATOM           X           Y           Z

     1         C          0.6939      0.9442     -1.3052
     2         C         -0.4671      0.4250     -0.4989
     3         C         -0.7864     -0.9435     -0.5139
     4         C         -1.2074      1.2957      0.3184
     5         C          1.9392      0.9993     -0.4733
     6         C         -1.8443     -1.4281      0.2617
     7         C         -2.5841     -0.5535      1.0624
     8         C         -2.2648      0.8068      1.0920
     9         C          3.1033     -1.1873      0.3443
    10         C          2.5250     -0.0942     -0.0639
    11         H          0.8675      0.3078     -2.2009
    12         H          0.4603      1.9663     -1.6743
    13         H         -0.2149     -1.6334     -1.1224
    14         H          2.3829      1.9572     -0.2350
    15         H         -2.0883     -2.4824      0.2446
    16         H         -3.4018     -0.9305      1.6630
    17         H         -2.8345      1.4821      1.7172
    18         H         -0.9640      2.3504      0.3570
    19         H          2.5283     -2.0981      0.4406
    20         H          4.1571     -1.1838      0.5865

  H: (PM3): J. J. P. STEWART, J. COMP. CHEM. 10, 209 (1989).
  C: (PM3): J. J. P. STEWART, J. COMP. CHEM. 10, 209 (1989).

           Empirical Formula: C10 H10  =    20 atoms



      MOLECULAR POINT GROUP   :   C1  


      RHF CALCULATION, NO. OF DOUBLY OCCUPIED LEVELS = 25


          Geometry optimization using EF

          DIAGONAL MATRIX USED AS START HESSIAN

 CYCLE:     1 TIME:   0.008 TIME LEFT:  2.00D  GRAD.:    74.742 HEAT:  95.88775
 CYCLE:     2 TIME:   0.012 TIME LEFT:  2.00D  GRAD.:   124.002 HEAT:  94.75718
 CYCLE:     3 TIME:   0.008 TIME LEFT:  2.00D  GRAD.:    95.281 HEAT:  89.95802
 CYCLE:     4 TIME:   0.012 TIME LEFT:  2.00D  GRAD.:    77.274 HEAT:  88.47809
 CYCLE:     5 TIME:   0.008 TIME LEFT:  2.00D  GRAD.:    39.124 HEAT:  86.28535
 CYCLE:     6 TIME:   0.008 TIME LEFT:  2.00D  GRAD.:    53.762 HEAT:  83.36649
 CYCLE:     7 TIME:   0.004 TIME LEFT:  2.00D  GRAD.:    61.150 HEAT:  79.58304
 CYCLE:     8 TIME:   0.008 TIME LEFT:  2.00D  GRAD.:    82.287 HEAT:  76.13760
 CYCLE:     9 TIME:   0.012 TIME LEFT:  2.00D  GRAD.:   112.916 HEAT:  74.97655
 CYCLE:    10 TIME:   0.008 TIME LEFT:  2.00D  GRAD.:    88.491 HEAT:  73.06170
 CYCLE:    11 TIME:   0.008 TIME LEFT:  2.00D  GRAD.:   107.083 HEAT:  72.41248
 CYCLE:    12 TIME:   0.008 TIME LEFT:  2.00D  GRAD.:    64.559 HEAT:  70.59015
 CYCLE:    13 TIME:   0.012 TIME LEFT:  2.00D  GRAD.:    31.144 HEAT:  69.73691
 CYCLE:    14 TIME:   0.016 TIME LEFT:  2.00D  GRAD.:    23.665 HEAT:  69.48676
 CYCLE:    15 TIME:   0.004 TIME LEFT:  2.00D  GRAD.:    16.729 HEAT:  69.23440
 CYCLE:    16 TIME:   0.008 TIME LEFT:  2.00D  GRAD.:    34.226 HEAT:  69.06337
 CYCLE:    17 TIME:   0.012 TIME LEFT:  2.00D  GRAD.:    24.405 HEAT:  68.70445
 CYCLE:    18 TIME:   0.004 TIME LEFT:  2.00D  GRAD.:    33.736 HEAT:  68.56502
 CYCLE:    19 TIME:   0.008 TIME LEFT:  2.00D  GRAD.:    21.218 HEAT:  68.25296
 CYCLE:    20 TIME:   0.020 TIME LEFT:  2.00D  GRAD.:    21.206 HEAT:  68.19916
 CYCLE:    21 TIME:   0.008 TIME LEFT:  2.00D  GRAD.:    17.071 HEAT:  68.13788
 CYCLE:    22 TIME:   0.008 TIME LEFT:  2.00D  GRAD.:    12.829 HEAT:  68.05484
 CYCLE:    23 TIME:   0.004 TIME LEFT:  2.00D  GRAD.:    11.443 HEAT:  67.97688
 CYCLE:    24 TIME:   0.008 TIME LEFT:  2.00D  GRAD.:    14.056 HEAT:  67.85499
 CYCLE:    25 TIME:   0.008 TIME LEFT:  2.00D  GRAD.:    13.141 HEAT:  67.69651
 CYCLE:    26 TIME:   0.008 TIME LEFT:  2.00D  GRAD.:    15.449 HEAT:  67.63214
 CYCLE:    27 TIME:   0.004 TIME LEFT:  2.00D  GRAD.:    10.302 HEAT:  67.56550
 CYCLE:    28 TIME:   0.012 TIME LEFT:  2.00D  GRAD.:     9.286 HEAT:  67.54597
 CYCLE:    29 TIME:   0.008 TIME LEFT:  2.00D  GRAD.:     4.099 HEAT:  67.51176
 CYCLE:    30 TIME:   0.004 TIME LEFT:  2.00D  GRAD.:     5.212 HEAT:  67.49519
 CYCLE:    31 TIME:   0.008 TIME LEFT:  2.00D  GRAD.:     5.947 HEAT:  67.46984
 CYCLE:    32 TIME:   0.008 TIME LEFT:  2.00D  GRAD.:     4.455 HEAT:  67.43746
 CYCLE:    33 TIME:   0.008 TIME LEFT:  2.00D  GRAD.:     4.201 HEAT:  67.41503
 CYCLE:    34 TIME:   0.008 TIME LEFT:  2.00D  GRAD.:     4.275 HEAT:  67.39701
 CYCLE:    35 TIME:   0.008 TIME LEFT:  2.00D  GRAD.:     6.867 HEAT:  67.36661
 CYCLE:    36 TIME:   0.008 TIME LEFT:  2.00D  GRAD.:     5.392 HEAT:  67.32638
 CYCLE:    37 TIME:   0.008 TIME LEFT:  2.00D  GRAD.:     3.517 HEAT:  67.29370
 CYCLE:    38 TIME:   0.004 TIME LEFT:  2.00D  GRAD.:     4.096 HEAT:  67.26416
 CYCLE:    39 TIME:   0.012 TIME LEFT:  2.00D  GRAD.:     3.877 HEAT:  67.24124
 CYCLE:    40 TIME:   0.004 TIME LEFT:  2.00D  GRAD.:     2.808 HEAT:  67.21935
 CYCLE:    41 TIME:   0.008 TIME LEFT:  2.00D  GRAD.:     2.593 HEAT:  67.20197
 CYCLE:    42 TIME:   0.004 TIME LEFT:  2.00D  GRAD.:     2.555 HEAT:  67.18624
 CYCLE:    43 TIME:   0.008 TIME LEFT:  2.00D  GRAD.:     2.129 HEAT:  67.17610
 CYCLE:    44 TIME:   0.008 TIME LEFT:  2.00D  GRAD.:     1.672 HEAT:  67.16889
 CYCLE:    45 TIME:   0.008 TIME LEFT:  2.00D  GRAD.:     1.880 HEAT:  67.16253
 CYCLE:    46 TIME:   0.008 TIME LEFT:  2.00D  GRAD.:     2.194 HEAT:  67.15412
 CYCLE:    47 TIME:   0.008 TIME LEFT:  2.00D  GRAD.:     2.189 HEAT:  67.14406
 CYCLE:    48 TIME:   0.008 TIME LEFT:  2.00D  GRAD.:     1.369 HEAT:  67.13657
 CYCLE:    49 TIME:   0.004 TIME LEFT:  2.00D  GRAD.:     0.965 HEAT:  67.13245
 CYCLE:    50 TIME:   0.012 TIME LEFT:  2.00D  GRAD.:     0.985 HEAT:  67.13014
 CYCLE:    51 TIME:   0.004 TIME LEFT:  2.00D  GRAD.:     1.021 HEAT:  67.12787
 CYCLE:    52 TIME:   0.008 TIME LEFT:  2.00D  GRAD.:     1.037 HEAT:  67.12506
 CYCLE:    53 TIME:   0.008 TIME LEFT:  2.00D  GRAD.:     1.229 HEAT:  67.12156
 CYCLE:    54 TIME:   0.008 TIME LEFT:  2.00D  GRAD.:     1.373 HEAT:  67.11771
 CYCLE:    55 TIME:   0.012 TIME LEFT:  2.00D  GRAD.:     1.447 HEAT:  67.11350
 CYCLE:    56 TIME:   0.008 TIME LEFT:  2.00D  GRAD.:     1.514 HEAT:  67.10876
 CYCLE:    57 TIME:   0.008 TIME LEFT:  2.00D  GRAD.:     1.607 HEAT:  67.10351
 CYCLE:    58 TIME:   0.008 TIME LEFT:  2.00D  GRAD.:     1.686 HEAT:  67.09713
 CYCLE:    59 TIME:   0.008 TIME LEFT:  2.00D  GRAD.:     1.695 HEAT:  67.09117
 CYCLE:    60 TIME:   0.008 TIME LEFT:  2.00D  GRAD.:     1.663 HEAT:  67.08542
 CYCLE:    61 TIME:   0.008 TIME LEFT:  2.00D  GRAD.:     1.685 HEAT:  67.07962
 CYCLE:    62 TIME:   0.008 TIME LEFT:  2.00D  GRAD.:     1.758 HEAT:  67.07330
 CYCLE:    63 TIME:   0.004 TIME LEFT:  2.00D  GRAD.:     1.834 HEAT:  67.06625
 CYCLE:    64 TIME:   0.008 TIME LEFT:  2.00D  GRAD.:     2.074 HEAT:  67.05725
 CYCLE:    65 TIME:   0.008 TIME LEFT:  2.00D  GRAD.:     2.632 HEAT:  67.04371
 CYCLE:    66 TIME:   0.008 TIME LEFT:  2.00D  GRAD.:     3.437 HEAT:  67.02134
 CYCLE:    67 TIME:   0.008 TIME LEFT:  2.00D  GRAD.:     4.860 HEAT:  66.97649
 CYCLE:    68 TIME:   0.008 TIME LEFT:  2.00D  GRAD.:     4.315 HEAT:  66.94132
 CYCLE:    69 TIME:   0.004 TIME LEFT:  2.00D  GRAD.:     6.386 HEAT:  66.90772
 CYCLE:    70 TIME:   0.008 TIME LEFT:  2.00D  GRAD.:     5.437 HEAT:  66.87521
 CYCLE:    71 TIME:   0.008 TIME LEFT:  2.00D  GRAD.:     4.023 HEAT:  66.84386
 CYCLE:    72 TIME:   0.004 TIME LEFT:  2.00D  GRAD.:     8.889 HEAT:  66.79838
 CYCLE:    73 TIME:   0.012 TIME LEFT:  2.00D  GRAD.:     5.953 HEAT:  66.74053
 CYCLE:    74 TIME:   0.004 TIME LEFT:  2.00D  GRAD.:     7.857 HEAT:  66.63472
 CYCLE:    75 TIME:   0.008 TIME LEFT:  2.00D  GRAD.:     8.349 HEAT:  66.57863
 CYCLE:    76 TIME:   0.008 TIME LEFT:  2.00D  GRAD.:    12.138 HEAT:  66.57486
 CYCLE:    77 TIME:   0.004 TIME LEFT:  2.00D  GRAD.:     6.122 HEAT:  66.53903
 CYCLE:    78 TIME:   0.008 TIME LEFT:  2.00D  GRAD.:     7.712 HEAT:  66.51938
 CYCLE:    79 TIME:   0.008 TIME LEFT:  2.00D  GRAD.:     4.361 HEAT:  66.49256
 CYCLE:    80 TIME:   0.008 TIME LEFT:  2.00D  GRAD.:     5.875 HEAT:  66.47305
 CYCLE:    81 TIME:   0.008 TIME LEFT:  2.00D  GRAD.:     4.883 HEAT:  66.44238
 CYCLE:    82 TIME:   0.008 TIME LEFT:  2.00D  GRAD.:     7.091 HEAT:  66.37290
 CYCLE:    83 TIME:   0.008 TIME LEFT:  2.00D  GRAD.:     5.507 HEAT:  66.34143
 CYCLE:    84 TIME:   0.012 TIME LEFT:  2.00D  GRAD.:     7.358 HEAT:  66.30945
 CYCLE:    85 TIME:   0.008 TIME LEFT:  2.00D  GRAD.:     8.615 HEAT:  66.28324
 CYCLE:    86 TIME:   0.008 TIME LEFT:  2.00D  GRAD.:     4.300 HEAT:  66.24332
 CYCLE:    87 TIME:   0.008 TIME LEFT:  2.00D  GRAD.:     9.314 HEAT:  66.22952
 CYCLE:    88 TIME:   0.008 TIME LEFT:  2.00D  GRAD.:     6.861 HEAT:  66.21169
 CYCLE:    89 TIME:   0.008 TIME LEFT:  2.00D  GRAD.:     5.437 HEAT:  66.19459
 CYCLE:    90 TIME:   0.008 TIME LEFT:  2.00D  GRAD.:     3.858 HEAT:  66.17615
 CYCLE:    91 TIME:   0.008 TIME LEFT:  2.00D  GRAD.:     2.697 HEAT:  66.16425
 CYCLE:    92 TIME:   0.008 TIME LEFT:  2.00D  GRAD.:     3.154 HEAT:  66.14170
 CYCLE:    93 TIME:   0.008 TIME LEFT:  2.00D  GRAD.:     3.567 HEAT:  66.12709
 CYCLE:    94 TIME:   0.008 TIME LEFT:  2.00D  GRAD.:     4.737 HEAT:  66.12465
 CYCLE:    95 TIME:   0.012 TIME LEFT:  2.00D  GRAD.:     4.929 HEAT:  66.11850
 CYCLE:    96 TIME:   0.008 TIME LEFT:  2.00D  GRAD.:     4.036 HEAT:  66.11778
 CYCLE:    97 TIME:   0.008 TIME LEFT:  2.00D  GRAD.:     1.380 HEAT:  66.10803
 CYCLE:    98 TIME:   0.008 TIME LEFT:  2.00D  GRAD.:     2.251 HEAT:  66.10357
 CYCLE:    99 TIME:   0.008 TIME LEFT:  2.00D  GRAD.:     2.696 HEAT:  66.09848
 CYCLE:   100 TIME:   0.008 TIME LEFT:  2.00D  GRAD.:     2.220 HEAT:  66.09473
 CYCLE:   101 TIME:   0.008 TIME LEFT:  2.00D  GRAD.:     1.330 HEAT:  66.09227
 CYCLE:   102 TIME:   0.008 TIME LEFT:  2.00D  GRAD.:     0.956 HEAT:  66.09037
 CYCLE:   103 TIME:   0.008 TIME LEFT:  2.00D  GRAD.:     0.741 HEAT:  66.08918
 CYCLE:   104 TIME:   0.008 TIME LEFT:  2.00D  GRAD.:     0.743 HEAT:  66.08845
 CYCLE:   105 TIME:   0.008 TIME LEFT:  2.00D  GRAD.:     0.825 HEAT:  66.08767
 CYCLE:   106 TIME:   0.008 TIME LEFT:  2.00D  GRAD.:     0.936 HEAT:  66.08663
 CYCLE:   107 TIME:   0.008 TIME LEFT:  2.00D  GRAD.:     0.599 HEAT:  66.08584
 CYCLE:   108 TIME:   0.008 TIME LEFT:  2.00D  GRAD.:     0.523 HEAT:  66.08530
 CYCLE:   109 TIME:   0.008 TIME LEFT:  2.00D  GRAD.:     0.576 HEAT:  66.08498
 CYCLE:   110 TIME:   0.008 TIME LEFT:  2.00D  GRAD.:     1.293 HEAT:  66.08540
 CYCLE:   111 TIME:   0.008 TIME LEFT:  2.00D  GRAD.:     0.590 HEAT:  66.08456
 CYCLE:   112 TIME:   0.008 TIME LEFT:  2.00D  GRAD.:     0.449 HEAT:  66.08441
 CYCLE:   113 TIME:   0.004 TIME LEFT:  2.00D  GRAD.:     0.409 HEAT:  66.08418
 CYCLE:   114 TIME:   0.008 TIME LEFT:  2.00D  GRAD.:     0.271 HEAT:  66.08403
 CYCLE:   115 TIME:   0.012 TIME LEFT:  2.00D  GRAD.:     0.506 HEAT:  66.08411
 CYCLE:   116 TIME:   0.004 TIME LEFT:  2.00D  GRAD.:     0.246 HEAT:  66.08385
 CYCLE:   117 TIME:   0.008 TIME LEFT:  2.00D  GRAD.:     0.225 HEAT:  66.08379
 CYCLE:   118 TIME:   0.008 TIME LEFT:  2.00D  GRAD.:     0.570 HEAT:  66.08399
 CYCLE:   119 TIME:   0.008 TIME LEFT:  2.00D  GRAD.:     0.223 HEAT:  66.08354
 CYCLE:   120 TIME:   0.004 TIME LEFT:  2.00D  GRAD.:     0.201 HEAT:  66.08349
 CYCLE:   121 TIME:   0.008 TIME LEFT:  2.00D  GRAD.:     0.417 HEAT:  66.08328
 CYCLE:   122 TIME:   0.008 TIME LEFT:  2.00D  GRAD.:     0.432 HEAT:  66.08315
 CYCLE:   123 TIME:   0.008 TIME LEFT:  2.00D  GRAD.:     0.544 HEAT:  66.08287
 CYCLE:   124 TIME:   0.008 TIME LEFT:  2.00D  GRAD.:     0.456 HEAT:  66.08262
 CYCLE:   125 TIME:   0.008 TIME LEFT:  2.00D  GRAD.:     0.524 HEAT:  66.08141
 CYCLE:   126 TIME:   0.008 TIME LEFT:  2.00D  GRAD.:     0.591 HEAT:  66.08055
 CYCLE:   127 TIME:   0.008 TIME LEFT:  2.00D  GRAD.:     1.437 HEAT:  66.07437
 CYCLE:   128 TIME:   0.008 TIME LEFT:  2.00D  GRAD.:     1.052 HEAT:  66.07210
 CYCLE:   129 TIME:   0.008 TIME LEFT:  2.00D  GRAD.:     1.425 HEAT:  66.06766
 CYCLE:   130 TIME:   0.012 TIME LEFT:  2.00D  GRAD.:     1.445 HEAT:  66.06616
 CYCLE:   131 TIME:   0.004 TIME LEFT:  2.00D  GRAD.:     1.446 HEAT:  66.06346
 CYCLE:   132 TIME:   0.012 TIME LEFT:  2.00D  GRAD.:     1.689 HEAT:  66.05894
 CYCLE:   133 TIME:   0.008 TIME LEFT:  2.00D  GRAD.:     2.112 HEAT:  66.05899
 CYCLE:   134 TIME:   0.008 TIME LEFT:  2.00D  GRAD.:     1.089 HEAT:  66.05549
 CYCLE:   135 TIME:   0.008 TIME LEFT:  2.00D  GRAD.:     0.944 HEAT:  66.05442
 CYCLE:   136 TIME:   0.008 TIME LEFT:  2.00D  GRAD.:     0.905 HEAT:  66.05331
 CYCLE:   137 TIME:   0.012 TIME LEFT:  2.00D  GRAD.:     0.582 HEAT:  66.05255
 CYCLE:   138 TIME:   0.004 TIME LEFT:  2.00D  GRAD.:     0.470 HEAT:  66.05181
 CYCLE:   139 TIME:   0.008 TIME LEFT:  2.00D  GRAD.:     0.478 HEAT:  66.05126
 CYCLE:   140 TIME:   0.012 TIME LEFT:  2.00D  GRAD.:     0.432 HEAT:  66.05090
 CYCLE:   141 TIME:   0.004 TIME LEFT:  2.00D  GRAD.:     0.316 HEAT:  66.05078
 CYCLE:   142 TIME:   0.008 TIME LEFT:  2.00D  GRAD.:     0.212 HEAT:  66.05066
 CYCLE:   143 TIME:   0.008 TIME LEFT:  2.00D  GRAD.:     2.032 HEAT:  66.05291
 CYCLE:   144 TIME:   0.008 TIME LEFT:  2.00D  GRAD.:     0.316 HEAT:  66.05054
 CYCLE:   145 TIME:   0.008 TIME LEFT:  2.00D  GRAD.:     0.403 HEAT:  66.05053
 CYCLE:   146 TIME:   0.008 TIME LEFT:  2.00D  GRAD.:     0.176 HEAT:  66.05045
 CYCLE:   147 TIME:   0.008 TIME LEFT:  2.00D  GRAD.:     0.179 HEAT:  66.05046
 CYCLE:   148 TIME:   0.008 TIME LEFT:  2.00D  GRAD.:     0.123 HEAT:  66.05044
 CYCLE:   149 TIME:   0.004 TIME LEFT:  2.00D  GRAD.:     0.495 HEAT:  66.05059
 CYCLE:   150 TIME:   0.008 TIME LEFT:  2.00D  GRAD.:     0.065 HEAT:  66.05042
 CYCLE:   151 TIME:   0.008 TIME LEFT:  2.00D  GRAD.:     0.041 HEAT:  66.05042

     GRADIENT =  0.04051 IS LESS THAN CUTOFF =  0.05000



 -------------------------------------------------------------------------------
 pm3  precise nosym THREADS=1
 InChI=1S/C10H10/c1-2-3-7-10-8-5-4-6-9-10/h3-6,8-9H,1,7H2



     GEOMETRY OPTIMISED USING EIGENVECTOR FOLLOWING (EF).     
     SCF FIELD WAS ACHIEVED                                   


                              PM3 CALCULATION
                                                       MOPAC v23.1.2 MacOS
                                                       Tue Jun  3 16:27:16 2025




          FINAL HEAT OF FORMATION =         66.05042 KCAL/MOL =     276.35498 KJ/MOL


          COSMO AREA              =        186.49 SQUARE ANGSTROMS
          COSMO VOLUME            =        183.08 CUBIC ANGSTROMS

          GRADIENT NORM           =          0.04051          =       0.00906 PER ATOM
          IONIZATION POTENTIAL    =          9.537585 EV
          HOMO LUMO ENERGIES (EV) =         -9.538  0.292
          NO. OF FILLED LEVELS    =         25
          MOLECULAR WEIGHT        =        130.1890         POINT GROUP:  C1  

          MOLECULAR DIMENSIONS (Angstroms)

            Atom       Atom       Distance
            H    20    H    16     9.21763
            H    18    H    15     4.53717
            H    12    H    19     2.81324


          SCF CALCULATIONS        =        164

          WALL-CLOCK TIME         =      1.191 SECONDS
          COMPUTATION TIME        =      0.741 SECONDS




   ATOM   CHEMICAL          X               Y               Z
  NUMBER   SYMBOL      (ANGSTROMS)     (ANGSTROMS)     (ANGSTROMS)

     1       C          0.75816753  *   0.44925985  *  -1.00173004  *
     2       C         -0.56234631  *   0.21037546  *  -0.34038749  *
     3       C         -1.12654433  *  -1.06558368  *  -0.33316865  *
     4       C         -1.23919836  *   1.26585189  *   0.27375383  *
     5       C          1.84869668  *   0.55351981  *   0.01128130  *
     6       C         -2.35526396  *  -1.28166475  *   0.28138211  *
     7       C         -3.02631773  *  -0.22776655  *   0.89176296  *
     8       C         -2.46659027  *   1.04586910  *   0.88733921  *
     9       C          4.12661557  *  -0.67140020  *  -0.23961988  *
    10       C          2.98913658  *  -0.06314488  *  -0.11747250  *
    11       H          0.97223748  *  -0.34948083  *  -1.73932463  *
    12       H          0.72374431  *   1.39589804  *  -1.57904118  *
    13       H         -0.60032989  *  -1.89907869  *  -0.81217006  *
    14       H          1.65826243  *   1.18413370  *   0.88884448  *
    15       H         -2.79416653  *  -2.28467443  *   0.28411825  *
    16       H         -3.99349434  *  -0.39971592  *   1.37480812  *
    17       H         -2.99332726  *   1.87698909  *   1.36729848  *
    18       H         -0.79783116  *   2.26889715  *   0.27017609  *
    19       H          4.29886420  *  -1.66623967  *   0.16201783  *
    20       H          4.97423444  *  -0.22168668  *  -0.74952956  *

                             CARTESIAN COORDINATES

   1    C        0.758167532     0.449259852    -1.001730039
   2    C       -0.562346309     0.210375456    -0.340387489
   3    C       -1.126544334    -1.065583675    -0.333168648
   4    C       -1.239198364     1.265851892     0.273753831
   5    C        1.848696682     0.553519807     0.011281296
   6    C       -2.355263958    -1.281664752     0.281382115
   7    C       -3.026317733    -0.227766550     0.891762957
   8    C       -2.466590269     1.045869098     0.887339210
   9    C        4.126615571    -0.671400197    -0.239619879
  10    C        2.989136581    -0.063144879    -0.117472502
  11    H        0.972237483    -0.349480829    -1.739324631
  12    H        0.723744307     1.395898036    -1.579041180
  13    H       -0.600329892    -1.899078694    -0.812170058
  14    H        1.658262428     1.184133702     0.888844476
  15    H       -2.794166526    -2.284674430     0.284118245
  16    H       -3.993494343    -0.399715924     1.374808117
  17    H       -2.993327264     1.876989093     1.367298483
  18    H       -0.797831155     2.268897154     0.270176085
  19    H        4.298864204    -1.666239671     0.162017830
  20    H        4.974234443    -0.221686676    -0.749529556


           Empirical Formula: C10 H10  =    20 atoms



      MOLECULAR POINT GROUP   :   C1  


                  EIGENVALUES  
 -40.26185 -35.46194 -31.35051 -29.65344 -27.39878 -23.70815 -21.68051 -20.48721
 -17.96909 -17.91320 -16.69497 -16.04834 -15.31720 -15.18323 -15.00815 -14.63942
 -14.36922 -13.07662 -12.94706 -12.54984 -12.25470 -10.36730  -9.80837  -9.75555
  -9.53758   0.29203   0.40349   1.03864   1.13057   2.77916   3.00743   3.21015
   3.44483   3.45743   3.61299   3.71082   3.91597   3.98128   4.12780   4.27644
   4.66342   4.93838   5.00000   5.04850   5.13544   5.26565   5.32008   6.13248
   6.33037   6.50817


              NET ATOMIC CHARGES AND DIPOLE CONTRIBUTIONS

  ATOM NO.   TYPE          CHARGE      No. of ELECS.   s-Pop       p-Pop       
    1          C          -0.005409        4.0054     1.13278     2.87263
    2          C          -0.077786        4.0778     1.18325     2.89454
    3          C          -0.095228        4.0952     1.17895     2.91627
    4          C          -0.101177        4.1012     1.17849     2.92269
    5          C          -0.083231        4.0832     1.16225     2.92099
    6          C          -0.100050        4.1001     1.17906     2.92099
    7          C          -0.104637        4.1046     1.17931     2.92533
    8          C          -0.099465        4.0995     1.17868     2.92078
    9          C          -0.090587        4.0906     1.14660     2.94399
   10          C          -0.185600        4.1856     1.21419     2.97141
   11          H           0.060491        0.9395     0.93951
   12          H           0.060552        0.9394     0.93945
   13          H           0.106649        0.8934     0.89335
   14          H           0.115008        0.8850     0.88499
   15          H           0.102384        0.8976     0.89762
   16          H           0.102666        0.8973     0.89733
   17          H           0.102287        0.8977     0.89771
   18          H           0.105370        0.8946     0.89463
   19          H           0.094236        0.9058     0.90576
   20          H           0.093525        0.9065     0.90647
 DIPOLE           X         Y         Z       TOTAL
 POINT-CHG.     0.004     0.022    -0.157     0.159
 HYBRID         0.046    -0.002     0.056     0.072
 SUM            0.050     0.019    -0.101     0.114


          ATOMIC ORBITAL ELECTRON POPULATIONS

     Atom    s        px        py        pz   
    1  C   1.13278   0.90528   1.01656   0.95079
    2  C   1.18325   0.95831   0.94871   0.98752
    3  C   1.17895   0.96219   0.95836   0.99572
    4  C   1.17849   0.95984   0.97508   0.98777
    5  C   1.16225   0.92087   1.00302   0.99709
    6  C   1.17906   0.95924   0.97800   0.98375
    7  C   1.17931   0.98686   0.94388   0.99459
    8  C   1.17868   0.96172   0.96711   0.99195
    9  C   1.14660   0.93549   0.98874   1.01975
   10  C   1.21419   0.97640   0.99677   0.99825
   11  H   0.93951
   12  H   0.93945
   13  H   0.89335
   14  H   0.88499
   15  H   0.89762
   16  H   0.89733
   17  H   0.89771
   18  H   0.89463
   19  H   0.90576
   20  H   0.90647
 *******************************************************************************
 **                                                                           **
 **                              MOPAC v23.1.2                                **
 **                                                                           **
 *******************************************************************************
 **          Digital Object Identifier (DOI): 10.5281/zenodo.6511958          **
 **    Visit the DOI location for information on how to cite this program.    **
 *******************************************************************************

                              PM3 CALCULATION RESULTS

 *******************************************************************************
 *  CALCULATION DONE: (MAX THREADS = 1)              Tue Jun  3 16:27:16 2025  *
 *  PM3        - The PM3 Hamiltonian to be used
 *  OLDGEO     - PREVIOUS GEOMETRY TO BE USED
 *  PRECISE    - TIGHTER CRITERIA TO BE USED
 *  NOSYM      - POINT-GROUP SYMMETRY SET TO C1
 *  THREADS=1  - MULTI-THREADING NOT USED
 *  T=         - A TIME OF 172800.0 SECONDS REQUESTED
 *  DUMP=N     - RESTART FILE WRITTEN EVERY 7200.0 SECONDS REQUESTED
 *  THERMO     - THERMODYNAMIC QUANTITIES TO BE CALCULATED
 *******************************************************************************
oldgeo thermo nosym precise THREADS=1  pm3
 InChI=1S/C10H10/c1-2-3-7-10-8-5-4-6-9-10/h3-6,8-9H,1,7H2

   ATOM   CHEMICAL          X               Y               Z
  NUMBER   SYMBOL      (ANGSTROMS)     (ANGSTROMS)     (ANGSTROMS)

     1       C          0.75816753  *   0.44925985  *  -1.00173004  *
     2       C         -0.56234631  *   0.21037546  *  -0.34038749  *
     3       C         -1.12654433  *  -1.06558368  *  -0.33316865  *
     4       C         -1.23919836  *   1.26585189  *   0.27375383  *
     5       C          1.84869668  *   0.55351981  *   0.01128130  *
     6       C         -2.35526396  *  -1.28166475  *   0.28138211  *
     7       C         -3.02631773  *  -0.22776655  *   0.89176296  *
     8       C         -2.46659027  *   1.04586910  *   0.88733921  *
     9       C          4.12661557  *  -0.67140020  *  -0.23961988  *
    10       C          2.98913658  *  -0.06314488  *  -0.11747250  *
    11       H          0.97223748  *  -0.34948083  *  -1.73932463  *
    12       H          0.72374431  *   1.39589804  *  -1.57904118  *
    13       H         -0.60032989  *  -1.89907869  *  -0.81217006  *
    14       H          1.65826243  *   1.18413370  *   0.88884448  *
    15       H         -2.79416653  *  -2.28467443  *   0.28411825  *
    16       H         -3.99349434  *  -0.39971592  *   1.37480812  *
    17       H         -2.99332726  *   1.87698909  *   1.36729848  *
    18       H         -0.79783116  *   2.26889715  *   0.27017609  *
    19       H          4.29886420  *  -1.66623967  *   0.16201783  *
    20       H          4.97423444  *  -0.22168668  *  -0.74952956  *



          CARTESIAN COORDINATES 

    NO.       ATOM           X           Y           Z

     1         C          0.7582      0.4493     -1.0017
     2         C         -0.5623      0.2104     -0.3404
     3         C         -1.1265     -1.0656     -0.3332
     4         C         -1.2392      1.2659      0.2738
     5         C          1.8487      0.5535      0.0113
     6         C         -2.3553     -1.2817      0.2814
     7         C         -3.0263     -0.2278      0.8918
     8         C         -2.4666      1.0459      0.8873
     9         C          4.1266     -0.6714     -0.2396
    10         C          2.9891     -0.0631     -0.1175
    11         H          0.9722     -0.3495     -1.7393
    12         H          0.7237      1.3959     -1.5790
    13         H         -0.6003     -1.8991     -0.8122
    14         H          1.6583      1.1841      0.8888
    15         H         -2.7942     -2.2847      0.2841
    16         H         -3.9935     -0.3997      1.3748
    17         H         -2.9933      1.8770      1.3673
    18         H         -0.7978      2.2689      0.2702
    19         H          4.2989     -1.6662      0.1620
    20         H          4.9742     -0.2217     -0.7495

  H: (PM3): J. J. P. STEWART, J. COMP. CHEM. 10, 209 (1989).
  C: (PM3): J. J. P. STEWART, J. COMP. CHEM. 10, 209 (1989).

           Empirical Formula: C10 H10  =    20 atoms



      MOLECULAR POINT GROUP   :   C1  


      RHF CALCULATION, NO. OF DOUBLY OCCUPIED LEVELS = 25



          HEAT OF FORMATION =      66.050424 KCALS/MOLE


          CARTESIAN COORDINATE DERIVATIVES

   NUMBER  ATOM         X            Y            Z

     1       C     -0.003001    -0.005553    -0.001063
     2       C      0.002811    -0.000410     0.000284
     3       C     -0.010595    -0.001425     0.001954
     4       C     -0.006332     0.005875    -0.003849
     5       C     -0.005452     0.002338    -0.001926
     6       C      0.012250    -0.008177    -0.002458
     7       C     -0.007057     0.005668    -0.000149
     8       C      0.002073     0.006868     0.003349
     9       C      0.008323     0.006585     0.000149
    10       C     -0.003427    -0.007076    -0.005747
    11       H     -0.001426    -0.003595     0.001864
    12       H      0.005746     0.003756     0.004443
    13       H     -0.004658    -0.009778     0.006685
    14       H      0.002171     0.003595     0.000246
    15       H      0.006710    -0.007339    -0.007168
    16       H      0.003676     0.004804     0.002575
    17       H     -0.010151     0.003810     0.005999
    18       H      0.006399     0.001937    -0.007146
    19       H      0.003566     0.001429     0.003696
    20       H     -0.001626    -0.003311    -0.001740



          GRADIENT NORM =   0.04029

          MOLECULAR WEIGHT =  130.19



          ROTATIONAL CONSTANTS IN CM(-1)

          A =    0.12507578   B =    0.02174981   C =    0.01990496



           PRINCIPAL MOMENTS OF INERTIA IN UNITS OF 10**(-40)*GRAM-CM**2

          A =      223.8063   B =     1287.0343   C =     1406.3206


          ORIENTATION OF MOLECULE IN FORCE CALCULATION

    NO.       ATOM         X         Y         Z

     1          C      -1.2676   -0.1154   -0.5756
     2          C       0.2285   -0.1154   -0.5756
     3          C       0.9334    1.0885   -0.5756
     4          C       0.9289   -1.3232   -0.5765
     5          C      -1.7990   -0.4198    0.7851
     6          C       2.3241    1.0827   -0.5775
     7          C       3.0180   -0.1223   -0.5787
     8          C       2.3186   -1.3249   -0.5779
     9          C      -3.7249    0.9371    1.8814
    10          C      -2.7640    0.2636    1.3319
    11          H      -1.6550    0.8532   -0.9490
    12          H      -1.6435   -0.8859   -1.2796
    13          H       0.3903    2.0404   -0.5735
    14          H      -1.3436   -1.2602    1.3240
    15          H       2.8729    2.0301   -0.5779
    16          H       4.1127   -0.1249   -0.5805
    17          H       2.8630   -2.2748   -0.5789
    18          H       0.3776   -2.2703   -0.5757
    19          H      -3.5406    1.8052    2.5084
    20          H      -4.7703    0.6723    1.7481


    FIRST DERIVATIVES WILL BE USED IN THE CALCULATION OF SECOND DERIVATIVES

          ESTIMATED TIME TO COMPLETE CALCULATION =        1.88 SECONDS

    FOR POINT-GROUP C1   THERE ARE   1 UNIQUE SYMMETRY FUNCTIONS.

 STEP:   1 TIME =     0.02 SECS, INTEGRAL =      0.02 TIME LEFT: 172799.97
 STEP:   2 TIME =     0.02 SECS, INTEGRAL =      0.04 TIME LEFT: 172799.95
 STEP:   3 TIME =     0.02 SECS, INTEGRAL =      0.06 TIME LEFT: 172799.93
 STEP:   4 TIME =     0.02 SECS, INTEGRAL =      0.08 TIME LEFT: 172799.91
 STEP:   5 TIME =     0.02 SECS, INTEGRAL =      0.10 TIME LEFT: 172799.89
 STEP:   6 TIME =     0.02 SECS, INTEGRAL =      0.12 TIME LEFT: 172799.87
 STEP:   7 TIME =     0.02 SECS, INTEGRAL =      0.14 TIME LEFT: 172799.85
 STEP:   8 TIME =     0.02 SECS, INTEGRAL =      0.17 TIME LEFT: 172799.82
 STEP:   9 TIME =     0.02 SECS, INTEGRAL =      0.19 TIME LEFT: 172799.80
 STEP:  10 TIME =     0.02 SECS, INTEGRAL =      0.21 TIME LEFT: 172799.78
 STEP:  11 TIME =     0.02 SECS, INTEGRAL =      0.24 TIME LEFT: 172799.75
 STEP:  12 TIME =     0.02 SECS, INTEGRAL =      0.26 TIME LEFT: 172799.73
 STEP:  13 TIME =     0.02 SECS, INTEGRAL =      0.29 TIME LEFT: 172799.71
 STEP:  14 TIME =     0.02 SECS, INTEGRAL =      0.30 TIME LEFT: 172799.69
 STEP:  15 TIME =     0.02 SECS, INTEGRAL =      0.32 TIME LEFT: 172799.67
 STEP:  16 TIME =     0.02 SECS, INTEGRAL =      0.35 TIME LEFT: 172799.64
 STEP:  17 TIME =     0.02 SECS, INTEGRAL =      0.37 TIME LEFT: 172799.62
 STEP:  18 TIME =     0.02 SECS, INTEGRAL =      0.39 TIME LEFT: 172799.60
 STEP:  19 TIME =     0.02 SECS, INTEGRAL =      0.41 TIME LEFT: 172799.58
 STEP:  20 TIME =     0.03 SECS, INTEGRAL =      0.44 TIME LEFT: 172799.55
 STEP:  21 TIME =     0.02 SECS, INTEGRAL =      0.46 TIME LEFT: 172799.53
 STEP:  22 TIME =     0.02 SECS, INTEGRAL =      0.48 TIME LEFT: 172799.51
 STEP:  23 TIME =     0.02 SECS, INTEGRAL =      0.51 TIME LEFT: 172799.48
 STEP:  24 TIME =     0.02 SECS, INTEGRAL =      0.53 TIME LEFT: 172799.46
 STEP:  25 TIME =     0.02 SECS, INTEGRAL =      0.55 TIME LEFT: 172799.44
 STEP:  26 TIME =     0.02 SECS, INTEGRAL =      0.57 TIME LEFT: 172799.42
 STEP:  27 TIME =     0.02 SECS, INTEGRAL =      0.59 TIME LEFT: 172799.40
 STEP:  28 TIME =     0.02 SECS, INTEGRAL =      0.61 TIME LEFT: 172799.38
 STEP:  29 TIME =     0.02 SECS, INTEGRAL =      0.63 TIME LEFT: 172799.36
 STEP:  30 TIME =     0.02 SECS, INTEGRAL =      0.65 TIME LEFT: 172799.34
 STEP:  31 TIME =     0.02 SECS, INTEGRAL =      0.67 TIME LEFT: 172799.32
 STEP:  32 TIME =     0.02 SECS, INTEGRAL =      0.69 TIME LEFT: 172799.30
 STEP:  33 TIME =     0.02 SECS, INTEGRAL =      0.71 TIME LEFT: 172799.28
 STEP:  34 TIME =     0.02 SECS, INTEGRAL =      0.73 TIME LEFT: 172799.26
 STEP:  35 TIME =     0.02 SECS, INTEGRAL =      0.75 TIME LEFT: 172799.24
 STEP:  36 TIME =     0.02 SECS, INTEGRAL =      0.77 TIME LEFT: 172799.22
 STEP:  37 TIME =     0.02 SECS, INTEGRAL =      0.79 TIME LEFT: 172799.21
 STEP:  38 TIME =     0.02 SECS, INTEGRAL =      0.80 TIME LEFT: 172799.19
 STEP:  39 TIME =     0.02 SECS, INTEGRAL =      0.82 TIME LEFT: 172799.17
 STEP:  40 TIME =     0.02 SECS, INTEGRAL =      0.84 TIME LEFT: 172799.15
 STEP:  41 TIME =     0.02 SECS, INTEGRAL =      0.86 TIME LEFT: 172799.13
 STEP:  42 TIME =     0.02 SECS, INTEGRAL =      0.88 TIME LEFT: 172799.11
 STEP:  43 TIME =     0.02 SECS, INTEGRAL =      0.90 TIME LEFT: 172799.09
 STEP:  44 TIME =     0.02 SECS, INTEGRAL =      0.92 TIME LEFT: 172799.07
 STEP:  45 TIME =     0.02 SECS, INTEGRAL =      0.94 TIME LEFT: 172799.05
 STEP:  46 TIME =     0.02 SECS, INTEGRAL =      0.96 TIME LEFT: 172799.03
 STEP:  47 TIME =     0.02 SECS, INTEGRAL =      0.98 TIME LEFT: 172799.01
 STEP:  48 TIME =     0.02 SECS, INTEGRAL =      1.01 TIME LEFT: 172798.98
 STEP:  49 TIME =     0.02 SECS, INTEGRAL =      1.03 TIME LEFT: 172798.96
 STEP:  50 TIME =     0.02 SECS, INTEGRAL =      1.04 TIME LEFT: 172798.95
 STEP:  51 TIME =     0.02 SECS, INTEGRAL =      1.06 TIME LEFT: 172798.93
 STEP:  52 TIME =     0.02 SECS, INTEGRAL =      1.08 TIME LEFT: 172798.91
 STEP:  53 TIME =     0.02 SECS, INTEGRAL =      1.10 TIME LEFT: 172798.89
 STEP:  54 TIME =     0.02 SECS, INTEGRAL =      1.12 TIME LEFT: 172798.87
 STEP:  55 TIME =     0.02 SECS, INTEGRAL =      1.14 TIME LEFT: 172798.85
 STEP:  56 TIME =     0.02 SECS, INTEGRAL =      1.16 TIME LEFT: 172798.83
 STEP:  57 TIME =     0.02 SECS, INTEGRAL =      1.18 TIME LEFT: 172798.81
 STEP:  58 TIME =     0.02 SECS, INTEGRAL =      1.20 TIME LEFT: 172798.79
 STEP:  59 TIME =     0.02 SECS, INTEGRAL =      1.22 TIME LEFT: 172798.77
 STEP:  60 TIME =     0.02 SECS, INTEGRAL =      1.24 TIME LEFT: 172798.75

(To convert to Hartree/Bohr^2, multiply by (10^(-21) x N x a0^2)/(4.184 x 627.51) =  0.0642)


           FORCE MATRIX IN MILLIDYNES/ANGSTROM


                  C  1       C  2       C  3       C  4       C  5       C  6
 ------------------------------------------------------------------------------
     C    1  14.875028
     C    2   4.680682  17.520542
     C    3   0.706033   6.790059  17.328627
     C    4   0.697986   6.744780   2.439197  17.337427
     C    5   4.727666   0.734112   0.024727   0.049727  18.276290
     C    6   0.097152   2.508675   6.991301   1.854324   0.015040  17.273674
     C    7   0.012661   1.891392   2.535746   2.535257   0.005387   7.021534
     C    8   0.094994   2.506722   1.855981   7.035714   0.012520   2.530592
     C    9   0.072025   0.012053   0.001670   0.001391   0.777680   0.000663
     C   10   0.924810   0.041248   0.004541   0.005739  11.478337   0.001905
     H   11   4.466673   0.444565   0.051712   0.044147   0.456897   0.002975
     H   12   4.402803   0.443535   0.036057   0.037986   0.417153   0.011033
     H   13   0.046918   0.449563   4.828228   0.084114   0.005294   0.437322
     H   14   0.444275   0.024184   0.002114   0.007632   4.740932   0.000925
     H   15   0.008158   0.092443   0.437517   0.010808   0.001100   4.862830
     H   16   0.009211   0.008973   0.090253   0.089455   0.001434   0.440207
     H   17   0.007996   0.092877   0.010691   0.437791   0.001144   0.089784
     H   18   0.045236   0.449867   0.084809   4.828424   0.009964   0.010761
     H   19   0.082609   0.009974   0.001135   0.000619   0.048576   0.000588
     H   20   0.082723   0.009445   0.000884   0.000443   0.047629   0.000507


                  C  7       C  8       C  9       C 10       H 11       H 12
 ------------------------------------------------------------------------------
     C    7  17.251704
     C    8   6.993910  17.283580
     C    9   0.000389   0.000810  18.148967
     C   10   0.001419   0.002900  11.869195  24.888042
     H   11   0.001757   0.009261   0.005030   0.040449   5.056238
     H   12   0.003563   0.007225   0.009729   0.029408   0.556131   4.983152
     H   13   0.090189   0.010742   0.000880   0.001604   0.029819   0.003558
     H   14   0.001214   0.001460   0.043346   0.445001   0.038535   0.013304
     H   15   0.439279   0.090244   0.000452   0.000544   0.000478   0.001064
     H   16   4.867129   0.440064   0.000429   0.000611   0.000333   0.000780
     H   17   0.439373   4.863668   0.000363   0.000652   0.001333   0.000582
     H   18   0.091271   0.438321   0.000731   0.002959   0.002243   0.020677
     H   19   0.000254   0.000497   5.026831   0.477793   0.001702   0.010739
     H   20   0.000173   0.000383   5.024601   0.478493   0.002064   0.011321


                  H 13       H 14       H 15       H 16       H 17       H 18
 ------------------------------------------------------------------------------
     H   13   5.199673
     H   14   0.000990   5.119173
     H   15   0.042188   0.000312   5.227721
     H   16   0.007064   0.000361   0.041717   5.233821
     H   17   0.008045   0.000600   0.007201   0.041399   5.228917
     H   18   0.006915   0.005003   0.008218   0.007142   0.042413   5.202168
     H   19   0.000531   0.070321   0.000187   0.000167   0.000134   0.000456
     H   20   0.000346   0.070514   0.000120   0.000124   0.000126   0.000224


                  H 19       H 20
 ------------------------------
     H   19   5.402380
     H   20   0.406831   5.401968


          HEAT OF FORMATION =      66.050424 KCALS/MOLE

          ZERO POINT ENERGY     102.935 KCAL/MOL


           NORMAL COORDINATE ANALYSIS (Total motion = 1 Angstrom)


   Root No.       1         2         3         4         5         6         7         8

                 1 A       2 A       3 A       4 A       5 A       6 A       7 A       8 A   

                  20.5      36.1     119.0     196.0     266.8     335.0     355.2     368.0
  
           1   -0.0073   -0.0079   -0.0070    0.0068   -0.0041    0.0013    0.0002    0.0011
           2   -0.0464    0.0101   -0.0043   -0.0164   -0.0065    0.0181    0.0061    0.0508
           3   -0.0097   -0.0309   -0.0189   -0.0303   -0.0339   -0.0017   -0.0001    0.0002
           4   -0.0073   -0.0078   -0.0071    0.0101   -0.0078   -0.0010    0.0000   -0.0003
           5   -0.0235    0.0082   -0.0032   -0.0200    0.0121   -0.0210   -0.0043   -0.0369
           6   -0.0039   -0.0141   -0.0426    0.0088    0.0068   -0.0019   -0.0008   -0.0082
           7   -0.0267   -0.0056   -0.0078    0.0028   -0.0093   -0.0128   -0.0018   -0.0175
           8   -0.0120    0.0068   -0.0030   -0.0152    0.0111   -0.0145   -0.0032   -0.0273
           9    0.0289   -0.0293   -0.0319    0.0160    0.0419    0.0033    0.0601    0.0005
          10    0.0120   -0.0100   -0.0079    0.0232   -0.0210    0.0052    0.0012    0.0113
          11   -0.0122    0.0068   -0.0037   -0.0128    0.0049   -0.0170   -0.0034   -0.0299
          12   -0.0294    0.0209   -0.0350    0.0152    0.0415    0.0007   -0.0582    0.0116
          13   -0.0048   -0.0189    0.0384   -0.0345    0.0361   -0.0051    0.0025    0.0161
          14   -0.0152   -0.0329    0.0413    0.0447    0.0114   -0.0030    0.0026    0.0170
          15   -0.0016   -0.0447    0.0096   -0.0357   -0.0169   -0.0103    0.0000   -0.0027
          16   -0.0267   -0.0054   -0.0078    0.0026   -0.0094   -0.0151   -0.0025   -0.0219
          17    0.0106    0.0039   -0.0035   -0.0013   -0.0004    0.0021    0.0005    0.0036
          18    0.0366   -0.0079    0.0175   -0.0002    0.0131   -0.0013   -0.0586    0.0105
          19   -0.0073   -0.0078   -0.0081    0.0148   -0.0196   -0.0055   -0.0005   -0.0050
          20    0.0217    0.0027   -0.0037    0.0057   -0.0063    0.0076    0.0015    0.0135
          21    0.0115    0.0287    0.0501   -0.0193   -0.0370   -0.0027   -0.0011   -0.0084
          22    0.0122   -0.0101   -0.0079    0.0244   -0.0231    0.0068    0.0019    0.0149
          23    0.0105    0.0039   -0.0038    0.0003   -0.0046    0.0003    0.0003    0.0017
          24   -0.0216    0.0426    0.0144   -0.0020    0.0126    0.0039    0.0600    0.0011
          25    0.0376    0.0532   -0.0029   -0.0210    0.0214   -0.0147    0.0016    0.0081
          26    0.0489    0.0033   -0.0257   -0.0179   -0.0179   -0.0161    0.0012    0.0048
          27   -0.0066    0.0368    0.0191    0.0670   -0.0149   -0.0120    0.0003   -0.0032
          28    0.0166    0.0167    0.0194   -0.0317    0.0353    0.0606   -0.0045   -0.0145
          29    0.0167   -0.0146    0.0152    0.0441    0.0019    0.0544   -0.0050   -0.0230
          30   -0.0037   -0.0050    0.0080   -0.0294   -0.0118    0.0337   -0.0028   -0.0076
          31   -0.0193   -0.0044   -0.0183    0.0210   -0.0204    0.0286    0.0080    0.0598
          32   -0.0622    0.0219   -0.0184   -0.0331   -0.0228    0.0407    0.0128    0.1037
          33   -0.0381   -0.0037   -0.0426   -0.0870   -0.0571    0.0265    0.0089    0.0714
          34    0.0045   -0.0001   -0.0244    0.0264    0.0142   -0.0244   -0.0085   -0.0630
          35   -0.0714    0.0325   -0.0308   -0.0487   -0.0305    0.0501    0.0155    0.1261
          36    0.0116   -0.0594    0.0196   -0.0057   -0.0171   -0.0224   -0.0055   -0.0456
          37   -0.0425   -0.0034   -0.0084   -0.0051   -0.0073   -0.0234   -0.0041   -0.0349
          38   -0.0211    0.0081   -0.0034   -0.0197    0.0119   -0.0202   -0.0047   -0.0365
          39    0.0488   -0.0574   -0.0525    0.0265    0.0770    0.0104    0.1640    0.0042
          40   -0.0206   -0.0540    0.0933   -0.0527    0.0830   -0.0876    0.0118    0.0620
          41   -0.0182   -0.0798    0.0897    0.0508    0.0458   -0.0854    0.0098    0.0424
          42    0.0067   -0.0878    0.0394   -0.0079   -0.0021   -0.0694    0.0031   -0.0024
          43   -0.0420   -0.0036   -0.0075   -0.0073   -0.0009   -0.0255   -0.0048   -0.0415
          44    0.0194    0.0029   -0.0037    0.0045   -0.0054    0.0080    0.0017    0.0147
          45    0.0625   -0.0195    0.0349   -0.0019    0.0210   -0.0028   -0.1603    0.0290
          46   -0.0072   -0.0077   -0.0080    0.0147   -0.0198   -0.0055   -0.0005   -0.0050
          47    0.0395    0.0005   -0.0038    0.0161   -0.0131    0.0189    0.0037    0.0331
          48    0.0177    0.0466    0.1004   -0.0443   -0.1003   -0.0072   -0.0036   -0.0238
          49    0.0275   -0.0119   -0.0078    0.0328   -0.0279    0.0189    0.0045    0.0363
          50    0.0193    0.0029   -0.0038    0.0051   -0.0072    0.0072    0.0016    0.0138
          51   -0.0417    0.0711    0.0293   -0.0054    0.0203    0.0100    0.1626    0.0022
          52    0.0277   -0.0123   -0.0079    0.0338   -0.0307    0.0137    0.0037    0.0270
          53   -0.0213    0.0081   -0.0037   -0.0188    0.0104   -0.0216   -0.0049   -0.0383
          54   -0.0559    0.0328   -0.0583    0.0251    0.0772    0.0011   -0.1603    0.0321
          55    0.0641    0.0996   -0.0356   -0.0112   -0.0031   -0.1471    0.0130    0.0519
          56    0.0536   -0.0357    0.0074   -0.0452    0.0174   -0.0676    0.0059    0.0243
          57   -0.0208    0.0772   -0.0173    0.1021   -0.0571    0.0959   -0.0095   -0.0421
          58    0.0299    0.0397    0.0090   -0.0209    0.0308    0.0165   -0.0010   -0.0022
          59    0.0733    0.0585   -0.0957   -0.0439   -0.0743   -0.0593    0.0049    0.0222
          60    0.0051    0.0337    0.0642    0.1169    0.0229   -0.1815    0.0148    0.0480


   Root No.       9        10        11        12        13        14        15        16

                 9 A      10 A      11 A      12 A      13 A      14 A      15 A      16 A   

                 469.2     509.9     568.3     612.6     629.0     659.4     773.7     839.5
  
           1    0.0290    0.0300   -0.0034    0.0393    0.0014   -0.0177    0.0002   -0.0165
           2    0.0055   -0.0053    0.0049   -0.0012   -0.0125    0.0063    0.0074   -0.0275
           3    0.0113    0.0249   -0.0291   -0.0066   -0.0034   -0.0052    0.0029   -0.0205
           4    0.0159    0.0172   -0.0010    0.0382    0.0016   -0.0193   -0.0062    0.0029
           5   -0.0031    0.0017   -0.0020    0.0002   -0.0346   -0.0020   -0.0008    0.0008
           6    0.0633   -0.0255    0.0051    0.0138   -0.0020    0.0625    0.0453    0.0068
           7   -0.0131   -0.0063   -0.0029    0.0002    0.0687   -0.0029   -0.0045    0.0093
           8    0.0112    0.0147   -0.0029    0.0248   -0.0619   -0.0157   -0.0075    0.0090
           9    0.0061   -0.0089    0.0122   -0.0145    0.0013   -0.0142   -0.0135    0.0020
          10   -0.0108   -0.0073    0.0033    0.0014   -0.0688   -0.0032   -0.0038    0.0076
          11   -0.0168   -0.0111   -0.0014   -0.0240   -0.0637    0.0089    0.0027    0.0002
          12    0.0068   -0.0087    0.0121   -0.0148    0.0017   -0.0135   -0.0141    0.0027
          13    0.0162    0.0255    0.0158   -0.0195   -0.0008    0.0104    0.0012   -0.0155
          14    0.0023    0.0098    0.0419    0.0063   -0.0002    0.0088    0.0066   -0.0204
          15   -0.0059    0.0226   -0.0107   -0.0210    0.0003   -0.0016   -0.0074   -0.0037
          16   -0.0173   -0.0092   -0.0031   -0.0042    0.0733   -0.0013   -0.0049    0.0119
          17    0.0107    0.0105   -0.0034    0.0230    0.0723   -0.0131   -0.0094    0.0182
          18   -0.0334    0.0170   -0.0139    0.0140   -0.0014    0.0241   -0.0174   -0.0029
          19   -0.0330   -0.0268    0.0016   -0.0411   -0.0017    0.0200    0.0101   -0.0172
          20    0.0010   -0.0005   -0.0006   -0.0003    0.0400    0.0010    0.0006   -0.0010
          21    0.0420   -0.0202    0.0152   -0.0141    0.0013   -0.0143   -0.0298   -0.0053
          22   -0.0142   -0.0107    0.0038   -0.0029   -0.0730   -0.0012   -0.0037    0.0078
          23   -0.0109   -0.0105   -0.0020   -0.0244    0.0705    0.0141    0.0088   -0.0156
          24   -0.0336    0.0173   -0.0136    0.0139   -0.0013    0.0243   -0.0174   -0.0024
          25    0.0149    0.0040   -0.0067   -0.0112   -0.0005    0.0072    0.0048   -0.0004
          26   -0.0137   -0.0073    0.0072    0.0114    0.0003   -0.0056   -0.0032    0.0104
          27   -0.0022    0.0022   -0.0042    0.0038    0.0001   -0.0049   -0.0031    0.0081
          28    0.0090   -0.0140   -0.0113   -0.0029   -0.0004    0.0041    0.0032   -0.0016
          29    0.0153    0.0040   -0.0422   -0.0179   -0.0028   -0.0022   -0.0029    0.0044
          30   -0.0423   -0.0410    0.0449    0.0458    0.0039   -0.0083   -0.0007    0.0043
          31    0.0420    0.0145   -0.0143    0.0508    0.0085   -0.0186   -0.0004    0.0147
          32    0.0107   -0.0170   -0.0330   -0.0105   -0.0189   -0.0025   -0.0076    0.0291
          33    0.0092    0.0101   -0.1101   -0.0398   -0.0237   -0.0266   -0.0339    0.0871
          34    0.0469    0.0131    0.0131    0.0772   -0.0029   -0.0020    0.0356   -0.0333
          35    0.0152   -0.0262   -0.0603   -0.0147   -0.0265   -0.0081   -0.0161    0.0742
          36   -0.0089    0.0554    0.0314   -0.0131    0.0129    0.0018    0.0087   -0.1193
          37   -0.0279   -0.0183   -0.0045   -0.0220    0.0344    0.0072   -0.0020    0.0097
          38    0.0029    0.0078   -0.0040    0.0123   -0.0813   -0.0095   -0.0063    0.0094
          39   -0.0347    0.0047    0.0228   -0.0657    0.0063   -0.1996    0.0370   -0.0145
          40    0.0073   -0.0327    0.0397   -0.0155   -0.0024    0.0341    0.0119    0.1548
          41    0.0120   -0.0170    0.0226   -0.0055   -0.0000    0.0214    0.0075    0.1526
          42    0.0162    0.0289   -0.0571   -0.0400    0.0025   -0.0019   -0.0144    0.1214
          43   -0.0089    0.0025   -0.0057    0.0204    0.0429   -0.0179   -0.0169    0.0354
          44    0.0056    0.0036   -0.0019    0.0086    0.0896   -0.0035   -0.0026    0.0052
          45   -0.1224    0.0681   -0.0569    0.0437   -0.0044   -0.0027    0.2083    0.0221
          46   -0.0328   -0.0268    0.0017   -0.0410   -0.0019    0.0197    0.0104   -0.0171
          47    0.0028   -0.0014    0.0039    0.0007   -0.0624    0.0011    0.0018   -0.0061
          48    0.1162   -0.0561    0.0461   -0.0587    0.0056   -0.1451    0.2137    0.0351
          49   -0.0018   -0.0015    0.0048    0.0214   -0.0403   -0.0129   -0.0109    0.0196
          50   -0.0034   -0.0051   -0.0014   -0.0104    0.0889    0.0074    0.0046   -0.0093
          51   -0.1237    0.0688   -0.0559    0.0435   -0.0047   -0.0041    0.2096    0.0186
          52   -0.0229   -0.0208    0.0061   -0.0211   -0.0365    0.0120    0.0024   -0.0020
          53   -0.0096   -0.0032   -0.0031   -0.0110   -0.0822    0.0000   -0.0010    0.0060
          54   -0.0349    0.0055    0.0227   -0.0665    0.0063   -0.2017    0.0382   -0.0183
          55    0.0232    0.0553    0.0279   -0.0336    0.0001    0.0190    0.0080   -0.0474
          56   -0.0268   -0.1264   -0.0627    0.0808   -0.0013   -0.0374   -0.0047   -0.0348
          57    0.0132    0.1530    0.0836   -0.0855    0.0022    0.0354   -0.0024    0.0839
          58    0.0157   -0.0134   -0.0238   -0.0065   -0.0012    0.0044    0.0054    0.0055
          59   -0.0288    0.1131    0.1446   -0.0266    0.0064    0.0237   -0.0022    0.0300
          60    0.0243   -0.0945   -0.1395    0.0379   -0.0072   -0.0376   -0.0074   -0.0872


   Root No.      17        18        19        20        21        22        23        24

                17 A      18 A      19 A      20 A      21 A      22 A      23 A      24 A   

                 845.9     883.8     915.8     933.7     963.4     975.7     984.3    1014.6
  
           1   -0.0003    0.0502    0.0067    0.0091    0.0079   -0.0004    0.0019    0.0027
           2   -0.0006   -0.0185   -0.0313   -0.0034    0.0341   -0.0010   -0.0077    0.0062
           3   -0.0004    0.0030   -0.0173   -0.0013    0.0181   -0.0006   -0.0092    0.0016
           4   -0.0000    0.0090    0.0024    0.0034    0.0048   -0.0001    0.0029    0.0047
           5   -0.0003    0.0000   -0.0007   -0.0004    0.0023    0.0001   -0.0003    0.0002
           6    0.0009   -0.0056   -0.0069   -0.0266   -0.0235    0.0009    0.0028   -0.0219
           7    0.0001   -0.0207   -0.0019   -0.0026   -0.0033   -0.0000   -0.0015   -0.0025
           8   -0.0003    0.0030    0.0069    0.0042   -0.0020    0.0008    0.0038    0.0083
           9    0.0321   -0.0082    0.0137    0.0280    0.0117   -0.0454   -0.0008    0.0324
          10    0.0002   -0.0215   -0.0032   -0.0030   -0.0024    0.0000   -0.0014   -0.0028
          11   -0.0000    0.0026    0.0045   -0.0011   -0.0111    0.0003   -0.0020   -0.0090
          12   -0.0332   -0.0081    0.0142    0.0285    0.0128    0.0445   -0.0011    0.0312
          13   -0.0000   -0.0081    0.0138    0.0081   -0.0276    0.0008    0.0085   -0.0049
          14    0.0001   -0.0018    0.0098    0.0052   -0.0278    0.0006    0.0006   -0.0075
          15   -0.0002   -0.0128    0.0084    0.0062   -0.0130    0.0006    0.0074   -0.0009
          16    0.0001   -0.0247   -0.0014   -0.0033   -0.0048    0.0003   -0.0011   -0.0023
          17    0.0003   -0.0398   -0.0031   -0.0050   -0.0077    0.0002   -0.0022   -0.0049
          18    0.0317    0.0025   -0.0010    0.0027    0.0078    0.0446   -0.0021   -0.0453
          19   -0.0002    0.0403    0.0047    0.0053    0.0055   -0.0002    0.0029    0.0047
          20    0.0002   -0.0007   -0.0014   -0.0005    0.0017   -0.0004   -0.0002    0.0000
          21    0.0005    0.0088   -0.0136   -0.0287   -0.0182    0.0018    0.0032    0.0490
          22    0.0001   -0.0267   -0.0050   -0.0036   -0.0013   -0.0002   -0.0019   -0.0016
          23   -0.0002    0.0417    0.0068    0.0059    0.0027    0.0001    0.0031    0.0044
          24   -0.0314    0.0026   -0.0011    0.0016    0.0054   -0.0466   -0.0017   -0.0443
          25    0.0000    0.0005   -0.0294    0.0175   -0.0108    0.0001   -0.0093   -0.0016
          26    0.0000    0.0078   -0.0183    0.0190   -0.0089    0.0003    0.0558   -0.0008
          27    0.0000    0.0087   -0.0093    0.0139   -0.0129    0.0002   -0.0623    0.0011
          28    0.0001   -0.0038    0.0143   -0.0202    0.0178   -0.0004   -0.0041    0.0014
          29    0.0001   -0.0058    0.0153   -0.0177    0.0167   -0.0004   -0.0169    0.0027
          30    0.0001    0.0096    0.0157   -0.0107    0.0088   -0.0002    0.0220    0.0000
          31    0.0010    0.0948    0.0595    0.0177   -0.0662    0.0025    0.0151   -0.0085
          32    0.0011    0.0144    0.0249    0.0031   -0.0259    0.0006    0.0032   -0.0031
          33    0.0023    0.0396    0.0682    0.0064   -0.0547    0.0006    0.0051   -0.0096
          34   -0.0014    0.0883   -0.0426   -0.0292    0.0872   -0.0032    0.0063   -0.0160
          35    0.0019    0.0331    0.0571   -0.0001   -0.0535    0.0014    0.0136   -0.0123
          36   -0.0022   -0.0726   -0.0851    0.0157    0.0694   -0.0021   -0.0346    0.0316
          37    0.0011   -0.0111    0.0060    0.0009   -0.0101   -0.0015   -0.0001    0.0053
          38    0.0009    0.0088    0.0119    0.0067   -0.0059   -0.0005    0.0048    0.0133
          39   -0.2150    0.0423   -0.0638   -0.1225   -0.0474    0.1983    0.0033   -0.1005
          40    0.0012    0.0403   -0.0685   -0.0395    0.1081   -0.0023    0.0177    0.0170
          41    0.0020    0.0691   -0.0461   -0.0327    0.0822   -0.0030   -0.0307    0.0092
          42    0.0018    0.0578   -0.0095   -0.0128    0.0441   -0.0024   -0.0475    0.0069
          43   -0.0003   -0.0598    0.0040   -0.0038   -0.0184    0.0021    0.0016    0.0076
          44    0.0004   -0.0209   -0.0062   -0.0050   -0.0002   -0.0009   -0.0038   -0.0106
          45   -0.2126   -0.0148    0.0008   -0.0234   -0.0397   -0.1957    0.0088    0.1530
          46   -0.0002    0.0401    0.0048    0.0056    0.0059   -0.0002    0.0029    0.0047
          47    0.0005   -0.0041   -0.0086   -0.0016    0.0118   -0.0019   -0.0028    0.0020
          48   -0.0029   -0.0533    0.0769    0.1531    0.0858   -0.0076   -0.0133   -0.1660
          49    0.0007   -0.0701   -0.0182   -0.0091    0.0108   -0.0005   -0.0034    0.0107
          50   -0.0001    0.0185   -0.0003    0.0030    0.0096   -0.0003    0.0023    0.0113
          51    0.2112   -0.0159    0.0015   -0.0174   -0.0290    0.2044    0.0071    0.1490
          52   -0.0027   -0.0194   -0.0085   -0.0017    0.0077    0.0045   -0.0018    0.0072
          53    0.0017    0.0012    0.0078   -0.0019   -0.0175   -0.0023   -0.0019   -0.0152
          54    0.2160    0.0416   -0.0637   -0.1227   -0.0534   -0.1923    0.0051   -0.0944
          55   -0.0001   -0.0455    0.1256   -0.1198    0.0748   -0.0016   -0.0102    0.0016
          56   -0.0006    0.0136   -0.0209    0.0421   -0.0441    0.0007   -0.1922    0.0021
          57    0.0008    0.0137   -0.0455    0.0186    0.0128    0.0001    0.2824   -0.0036
          58    0.0000    0.0074   -0.0731    0.0513   -0.0302    0.0004    0.0099   -0.0037
          59    0.0005    0.0033    0.1159   -0.0889    0.0433   -0.0010   -0.1973    0.0076
          60   -0.0012   -0.0454    0.0859   -0.0576    0.0480   -0.0001    0.2814    0.0006


   Root No.      25        26        27        28        29        30        31        32

                25 A      26 A      27 A      28 A      29 A      30 A      31 A      32 A   

                1026.9    1042.4    1082.4    1102.0    1112.0    1141.0    1152.9    1154.7
  
           1   -0.0005    0.0222    0.0047   -0.0012    0.0160    0.0018   -0.0025    0.0058
           2    0.0160   -0.0035   -0.0022   -0.0023   -0.0025   -0.0377    0.0008    0.0023
           3   -0.0216    0.0126   -0.0072   -0.0060    0.0070    0.0519    0.0016   -0.0006
           4   -0.0039   -0.0117    0.0077    0.0028   -0.0256   -0.0027    0.0006   -0.0013
           5    0.0084   -0.0016   -0.0032    0.0085   -0.0011    0.0060   -0.0112   -0.0044
           6   -0.0054   -0.0098    0.0043    0.0017   -0.0060   -0.0060   -0.0001   -0.0010
           7    0.0019    0.0121   -0.0008    0.0173    0.0127    0.0021    0.0059   -0.0031
           8   -0.0211   -0.0505    0.0022   -0.0091   -0.0314   -0.0087    0.0062   -0.0154
           9    0.0030    0.0059   -0.0018   -0.0011    0.0016    0.0030    0.0001    0.0004
          10    0.0034    0.0120   -0.0006   -0.0195    0.0094   -0.0008   -0.0048   -0.0037
          11   -0.0013    0.0535    0.0034   -0.0151    0.0323    0.0017   -0.0034    0.0171
          12    0.0025    0.0065   -0.0019   -0.0001    0.0015    0.0030   -0.0002    0.0006
          13    0.0277   -0.0083    0.0136    0.0008    0.0011   -0.0081   -0.0003    0.0005
          14   -0.0086    0.0059   -0.0330   -0.0033   -0.0044    0.0460    0.0021   -0.0035
          15    0.0306   -0.0119    0.0172    0.0039    0.0024   -0.0481   -0.0011    0.0023
          16    0.0018    0.0029   -0.0010   -0.0041   -0.0080    0.0033    0.0000    0.0016
          17    0.0000    0.0220    0.0047   -0.0138   -0.0151   -0.0055    0.0068   -0.0089
          18   -0.0029   -0.0041    0.0006    0.0003   -0.0004   -0.0002   -0.0000   -0.0002
          19   -0.0038   -0.0142    0.0076    0.0044   -0.0450   -0.0047    0.0020   -0.0041
          20    0.0036   -0.0003   -0.0009    0.0104    0.0004    0.0022    0.0020    0.0004
          21    0.0030    0.0035   -0.0005   -0.0001    0.0003    0.0002   -0.0000    0.0001
          22    0.0010    0.0032   -0.0001    0.0051   -0.0064   -0.0027   -0.0006    0.0028
          23   -0.0094   -0.0207   -0.0015   -0.0157    0.0145   -0.0011    0.0005    0.0125
          24   -0.0033   -0.0045    0.0008   -0.0001   -0.0004   -0.0004    0.0001   -0.0003
          25   -0.0135    0.0044   -0.0227   -0.0005   -0.0027    0.0053    0.0006   -0.0008
          26    0.0094   -0.0017    0.0113    0.0004    0.0015   -0.0030   -0.0004    0.0005
          27    0.0142   -0.0063    0.0193    0.0003    0.0019   -0.0039   -0.0003    0.0005
          28   -0.0097    0.0033   -0.0051   -0.0002   -0.0000   -0.0005   -0.0001    0.0002
          29    0.0041   -0.0040    0.0167   -0.0002    0.0016   -0.0000   -0.0000    0.0001
          30   -0.0064    0.0061   -0.0149    0.0001   -0.0010   -0.0000   -0.0001    0.0001
          31   -0.1790    0.0677    0.0804    0.0168    0.1063   -0.1630   -0.0220    0.0219
          32   -0.0331    0.0078    0.0058    0.0001    0.0140   -0.0213   -0.0029   -0.0002
          33    0.0354   -0.0053   -0.0613   -0.0168   -0.0395    0.2723    0.0126   -0.0266
          34    0.2809    0.0178   -0.0613   -0.0222    0.0597    0.0301    0.0129    0.0060
          35    0.0274   -0.0057   -0.0063   -0.0012   -0.0061   -0.0141   -0.0012    0.0045
          36   -0.1867    0.0174    0.0317    0.0031   -0.0114    0.0139   -0.0041   -0.0045
          37   -0.0295   -0.0636   -0.0305    0.1486    0.1665    0.0099   -0.0318   -0.1812
          38   -0.0401   -0.0952   -0.0142    0.0643    0.0530   -0.0055   -0.0158   -0.1186
          39   -0.0086   -0.0204    0.0046    0.0043   -0.0048   -0.0083   -0.0005   -0.0027
          40   -0.0188   -0.0192    0.2190   -0.0126    0.0365    0.1300    0.0012   -0.0014
          41   -0.0630    0.0306   -0.0777   -0.0012   -0.0081    0.0024    0.0003   -0.0002
          42   -0.0150    0.0352   -0.2152    0.0186   -0.0309   -0.2298   -0.0055    0.0094
          43   -0.0439   -0.1195   -0.0315   -0.0917    0.0690    0.0058    0.1593    0.2228
          44    0.0261    0.0928    0.0226    0.0378   -0.0613   -0.0073   -0.0837   -0.1387
          45    0.0086    0.0114   -0.0009   -0.0007    0.0001   -0.0000   -0.0001    0.0002
          46   -0.0041   -0.0160    0.0077    0.0052   -0.0479   -0.0047    0.0025   -0.0029
          47    0.0167   -0.0011   -0.0070    0.2704    0.0228    0.0316    0.2761    0.0500
          48   -0.0090   -0.0091    0.0008    0.0001   -0.0002   -0.0001   -0.0000    0.0000
          49    0.0117   -0.1279   -0.0520    0.0840    0.0692    0.0507   -0.2469    0.1206
          50   -0.0037   -0.0956   -0.0312    0.0302    0.0597    0.0299   -0.1400    0.0823
          51    0.0093    0.0127   -0.0012    0.0006   -0.0000    0.0002   -0.0001    0.0005
          52    0.0054   -0.0733   -0.0403   -0.1813    0.1344   -0.0197    0.1088   -0.1528
          53   -0.0027    0.1048    0.0260    0.0769   -0.0371    0.0125   -0.0709    0.1051
          54   -0.0091   -0.0230    0.0061   -0.0012   -0.0037   -0.0106    0.0017   -0.0035
          55   -0.0546    0.0185   -0.0844   -0.0024   -0.0113    0.0307    0.0036   -0.0050
          56    0.0273   -0.0120    0.0366    0.0002    0.0039   -0.0054   -0.0008    0.0013
          57    0.0048    0.0027    0.0092    0.0014    0.0021   -0.0102   -0.0008    0.0011
          58   -0.0211    0.0078   -0.0450   -0.0010   -0.0058    0.0138    0.0016   -0.0023
          59    0.0335   -0.0163    0.0751    0.0013    0.0092   -0.0220   -0.0026    0.0037
          60    0.0086    0.0022    0.0354    0.0016    0.0070   -0.0217   -0.0024    0.0035


   Root No.      33        34        35        36        37        38        39        40

                33 A      34 A      35 A      36 A      37 A      38 A      39 A      40 A   

                1216.7    1225.9    1286.0    1342.5    1370.1    1406.8    1522.0    1541.9
  
           1   -0.0160    0.0082    0.0216    0.0087    0.0304    0.0568   -0.0424   -0.0029
           2   -0.0025    0.0076    0.0083   -0.0064    0.0089   -0.0042   -0.0038   -0.0116
           3    0.0132   -0.0059   -0.0366   -0.0041   -0.0383    0.0217    0.0544    0.0045
           4   -0.0065    0.0035    0.0321   -0.0133   -0.0425   -0.0328   -0.0035   -0.0015
           5   -0.0108   -0.0115    0.0016    0.1007   -0.0041   -0.0016   -0.0057    0.0764
           6   -0.0075    0.0040    0.0085    0.0003    0.0048    0.0016   -0.0017   -0.0003
           7   -0.0131   -0.0116    0.0123   -0.0932   -0.0189   -0.0198    0.0054    0.0585
           8    0.0035   -0.0126   -0.0135   -0.0457   -0.0012   -0.0081    0.0126   -0.0249
           9    0.0016   -0.0009   -0.0019    0.0000   -0.0011   -0.0000    0.0007   -0.0001
          10    0.0050    0.0162    0.0169    0.0793   -0.0275   -0.0234    0.0130   -0.0558
          11   -0.0120   -0.0053    0.0080   -0.0448    0.0040    0.0090   -0.0082   -0.0275
          12    0.0016   -0.0006   -0.0018   -0.0004   -0.0010   -0.0001    0.0008    0.0001
          13   -0.0120    0.0092   -0.0048    0.0005    0.0111    0.0038    0.0936    0.0042
          14    0.0090   -0.0051   -0.0130   -0.0023   -0.0145   -0.0038   -0.0375   -0.0006
          15    0.0157   -0.0129    0.0200    0.0005   -0.0003   -0.0088   -0.0928   -0.0053
          16   -0.0022   -0.0099   -0.0108    0.0924    0.0017    0.0014    0.0109   -0.0588
          17    0.0116    0.0021   -0.0223   -0.0429    0.0321    0.0273   -0.0103   -0.0254
          18   -0.0002    0.0002    0.0000   -0.0001   -0.0001    0.0001    0.0002    0.0001
          19    0.0087   -0.0048   -0.0218    0.0079    0.0268    0.0226   -0.0118   -0.0010
          20    0.0108    0.0176    0.0038    0.0983   -0.0041   -0.0017   -0.0055    0.0731
          21    0.0001   -0.0001   -0.0000   -0.0000   -0.0000   -0.0001   -0.0000    0.0000
          22    0.0099    0.0059   -0.0100   -0.0875    0.0124    0.0055    0.0019    0.0598
          23   -0.0017    0.0092    0.0214   -0.0598   -0.0272   -0.0251    0.0138   -0.0232
          24   -0.0003    0.0000    0.0000    0.0001   -0.0001    0.0001    0.0002   -0.0000
          25    0.0040   -0.0016   -0.0171   -0.0029   -0.0190   -0.0084   -0.0803   -0.0035
          26   -0.0031    0.0013    0.0116    0.0020    0.0133    0.0061    0.0568    0.0025
          27   -0.0017    0.0005    0.0104    0.0016    0.0110    0.0046    0.0453    0.0020
          28   -0.0061    0.0052   -0.0119   -0.0008   -0.0036   -0.0004    0.0121    0.0006
          29    0.0053   -0.0043    0.0101    0.0005    0.0028    0.0001   -0.0102   -0.0008
          30    0.0005   -0.0009    0.0050    0.0009    0.0026    0.0023   -0.0047   -0.0001
          31    0.0685   -0.0808   -0.1254    0.0943    0.0468   -0.1494    0.0560    0.0453
          32    0.0032   -0.0090   -0.0212    0.0294    0.0772   -0.1322   -0.0065    0.0043
          33   -0.0597    0.0459    0.0365   -0.0050    0.1589   -0.1498   -0.0616   -0.0055
          34    0.0890   -0.0235   -0.1045   -0.0524    0.0550   -0.1429    0.0308   -0.0274
          35    0.0166   -0.0188    0.0046    0.0045   -0.1314    0.1707    0.0108    0.0082
          36   -0.0656    0.0402    0.0339    0.0220    0.1222   -0.0935   -0.0073   -0.0042
          37    0.0700    0.1164    0.0133   -0.0405    0.0196    0.0403   -0.0197   -0.0340
          38    0.0516    0.0587   -0.0164   -0.0140    0.0237    0.0270   -0.0003   -0.0870
          39   -0.0048    0.0038    0.0063    0.0005    0.0033    0.0010   -0.0022   -0.0006
          40    0.0344   -0.0269    0.0267    0.0004    0.0025    0.0095   -0.0561   -0.0029
          41   -0.0098    0.0084   -0.0167   -0.0006   -0.0091    0.0020   -0.0072   -0.0001
          42   -0.0526    0.0382   -0.0113    0.0035    0.0184   -0.0024    0.0969    0.0023
          43    0.0580    0.0735   -0.0237    0.0358    0.0552    0.0488   -0.0254    0.0227
          44   -0.0219   -0.0464   -0.0185   -0.0088    0.0060    0.0042    0.0099   -0.0835
          45   -0.0005   -0.0000    0.0008    0.0001    0.0005   -0.0001   -0.0003   -0.0001
          46    0.0096   -0.0056   -0.0250    0.0090    0.0314    0.0266   -0.0140   -0.0017
          47   -0.0607   -0.0818   -0.0078    0.0455   -0.0049   -0.0014    0.0100   -0.1255
          48    0.0000   -0.0000    0.0001    0.0001    0.0002   -0.0002   -0.0002   -0.0000
          49   -0.0514   -0.0822   -0.0395   -0.0028    0.0530    0.0481   -0.0206   -0.0278
          50   -0.0376   -0.0405    0.0081   -0.0126   -0.0090   -0.0051    0.0031   -0.0840
          51   -0.0002    0.0005    0.0008   -0.0001    0.0004   -0.0000   -0.0002   -0.0001
          52   -0.0893   -0.0959   -0.0012    0.0480    0.0153    0.0330   -0.0231    0.0257
          53    0.0409    0.0596    0.0214   -0.0267   -0.0240   -0.0250    0.0128   -0.0846
          54   -0.0065    0.0011    0.0059    0.0001    0.0035    0.0014   -0.0024    0.0007
          55    0.1104   -0.0879    0.1661    0.0122    0.0652    0.0223    0.1170    0.0047
          56   -0.0188    0.0140   -0.0120    0.0002    0.0041    0.0040    0.0392    0.0017
          57   -0.0187    0.0142   -0.0195   -0.0008   -0.0025   -0.0016    0.0210    0.0012
          58    0.0374   -0.0286    0.0380    0.0016    0.0049    0.0001   -0.0318   -0.0015
          59   -0.0846    0.0676   -0.1315   -0.0104   -0.0534   -0.0197   -0.0977   -0.0038
          60   -0.0671    0.0531   -0.0968   -0.0068   -0.0372   -0.0110   -0.0715   -0.0031


   Root No.      41        42        43        44        45        46        47        48

                41 A      42 A      43 A      44 A      45 A      46 A      47 A      48 A   

                1605.0    1781.6    1798.7    2261.4    2943.2    3019.9    3034.4    3052.0
  
           1   -0.0486    0.0008    0.0181    0.0026   -0.0024    0.0212    0.0049   -0.0005
           2   -0.0006    0.0083   -0.0000   -0.0004   -0.0579   -0.0114   -0.0055    0.0002
           3    0.0076   -0.0006   -0.0000   -0.0063   -0.0147    0.0285    0.0059   -0.0005
           4    0.1093   -0.0005   -0.0913    0.0026   -0.0002    0.0005   -0.0001    0.0004
           5    0.0001   -0.1403   -0.0033    0.0004   -0.0004    0.0000   -0.0001    0.0015
           6   -0.0015    0.0002    0.0008   -0.0014   -0.0001   -0.0000    0.0002   -0.0000
           7   -0.0186    0.0382    0.1281   -0.0004    0.0007    0.0008    0.0004    0.0163
           8   -0.0503    0.0737    0.0464   -0.0004    0.0000   -0.0015   -0.0006   -0.0297
           9    0.0002    0.0000   -0.0003    0.0000   -0.0000    0.0001    0.0000   -0.0001
          10   -0.0200   -0.0418    0.1278   -0.0002   -0.0004    0.0003   -0.0007   -0.0069
          11    0.0508    0.0741   -0.0439    0.0002    0.0001    0.0010   -0.0009   -0.0119
          12    0.0003    0.0000   -0.0003   -0.0000   -0.0000    0.0000    0.0001   -0.0000
          13    0.0082    0.0006   -0.0000   -0.1145   -0.0006   -0.0043    0.0288   -0.0002
          14   -0.0023   -0.0007    0.0005    0.0712    0.0015    0.0068   -0.0482    0.0004
          15   -0.0078    0.0002   -0.0007    0.0785   -0.0016   -0.0034    0.0266   -0.0002
          16   -0.0589    0.0393   -0.1164    0.0000   -0.0000    0.0001    0.0001    0.0089
          17    0.0474   -0.0765    0.0360   -0.0000    0.0000    0.0002    0.0002    0.0173
          18    0.0001   -0.0001    0.0002    0.0000   -0.0000    0.0000    0.0000   -0.0000
          19    0.0540   -0.0012    0.0509   -0.0000    0.0000    0.0000   -0.0000   -0.0052
          20    0.0022    0.1420    0.0018   -0.0001    0.0001    0.0000   -0.0000   -0.0006
          21   -0.0001    0.0000   -0.0001    0.0000    0.0000   -0.0000    0.0000    0.0000
          22   -0.0588   -0.0343   -0.1193    0.0001   -0.0000    0.0001   -0.0001   -0.0018
          23   -0.0493   -0.0740   -0.0377    0.0001   -0.0000   -0.0002    0.0003    0.0044
          24    0.0001    0.0000    0.0001    0.0000   -0.0000    0.0000    0.0000    0.0000
          25   -0.0049   -0.0003   -0.0005   -0.1047    0.0001   -0.0001    0.0006   -0.0000
          26    0.0034    0.0002    0.0004    0.0732   -0.0001    0.0001   -0.0006    0.0000
          27    0.0028    0.0002    0.0003    0.0601   -0.0001    0.0000   -0.0002    0.0000
          28    0.0012    0.0003    0.0006    0.2265   -0.0006    0.0009   -0.0052    0.0000
          29   -0.0008   -0.0000   -0.0005   -0.1582    0.0002   -0.0006    0.0035   -0.0000
          30   -0.0015   -0.0002    0.0001   -0.1305    0.0005   -0.0003    0.0032   -0.0000
          31    0.0116   -0.0416   -0.0032   -0.0112   -0.1427   -0.1458   -0.0369    0.0025
          32    0.0157   -0.0098   -0.0067    0.0045    0.3404    0.4054    0.1057   -0.0098
          33   -0.0059    0.0023    0.0002    0.0089   -0.1413   -0.1321   -0.0390    0.0030
          34    0.0085    0.0301   -0.0003    0.0037    0.1733   -0.1101   -0.0165    0.0017
          35   -0.0131   -0.0089    0.0052    0.0095    0.3504   -0.2694   -0.0452    0.0042
          36   -0.0047   -0.0005   -0.0000   -0.0042    0.3226   -0.2145   -0.0316    0.0034
          37    0.0974   -0.0482   -0.0396    0.0005    0.0000   -0.0082   -0.0036   -0.1908
          38    0.0059    0.0329   -0.0529    0.0000    0.0028    0.0164    0.0069    0.3396
          39   -0.0009    0.0003    0.0004   -0.0001    0.0003    0.0001    0.0001    0.0008
          40   -0.0104    0.0012    0.0016   -0.0422    0.0116    0.0423   -0.2913    0.0025
          41   -0.0008   -0.0005    0.0007    0.0882   -0.0216   -0.0766    0.5458   -0.0046
          42    0.0104    0.0005   -0.0015   -0.0618    0.0106    0.0489   -0.3566    0.0029
          43    0.0846   -0.0524    0.0213    0.0000   -0.0001   -0.0015   -0.0010   -0.1137
          44   -0.0330   -0.0333   -0.0494    0.0000   -0.0001   -0.0028   -0.0019   -0.2001
          45   -0.0002    0.0001   -0.0000   -0.0000    0.0000   -0.0000    0.0000    0.0001
          46    0.0639   -0.0020    0.0602    0.0000    0.0000   -0.0008    0.0001    0.0601
          47   -0.0021   -0.0573   -0.0005    0.0000   -0.0000    0.0000    0.0000    0.0016
          48   -0.0002   -0.0000    0.0001   -0.0000    0.0000   -0.0000   -0.0000   -0.0001
          49    0.0854    0.0500    0.0231   -0.0001   -0.0000   -0.0010    0.0017    0.0272
          50    0.0302   -0.0357    0.0496    0.0000    0.0001    0.0019   -0.0030   -0.0501
          51   -0.0002   -0.0000   -0.0000   -0.0001    0.0000   -0.0000   -0.0000   -0.0000
          52    0.0992    0.0483   -0.0372    0.0006   -0.0012   -0.0052    0.0060    0.0802
          53   -0.0089    0.0295    0.0567    0.0001    0.0007   -0.0100    0.0111    0.1396
          54   -0.0008   -0.0003    0.0000   -0.0002   -0.0003    0.0000    0.0003   -0.0000
          55    0.0054    0.0003    0.0002    0.0229   -0.0002    0.0001    0.0001   -0.0000
          56    0.0019    0.0003    0.0007    0.0966   -0.0010    0.0005   -0.0007   -0.0001
          57    0.0028    0.0000   -0.0001    0.0701   -0.0003    0.0000   -0.0004   -0.0001
          58   -0.0027   -0.0003   -0.0004   -0.1167    0.0008   -0.0005    0.0009    0.0000
          59   -0.0038   -0.0002   -0.0005   -0.0312    0.0005   -0.0002   -0.0001    0.0000
          60   -0.0045   -0.0001    0.0002   -0.0162   -0.0002    0.0001    0.0001   -0.0000


   Root No.      49        50        51        52        53        54

                49 A      50 A      51 A      52 A      53 A      54 A   

                3052.9    3061.0    3068.4    3079.9    3119.0    3124.6
  
           1    0.0005    0.0005   -0.0000   -0.0002   -0.0001   -0.0000
           2   -0.0003   -0.0002   -0.0000    0.0001    0.0001   -0.0000
           3    0.0005    0.0004   -0.0001   -0.0001    0.0002   -0.0000
           4   -0.0007   -0.0011   -0.0000    0.0009    0.0000    0.0000
           5    0.0006   -0.0000    0.0012   -0.0000   -0.0000    0.0000
           6    0.0000    0.0000    0.0000   -0.0000   -0.0000    0.0000
           7   -0.0035   -0.0083    0.0076    0.0051   -0.0000    0.0000
           8    0.0070    0.0141   -0.0113   -0.0073    0.0000   -0.0000
           9    0.0000    0.0000   -0.0000   -0.0000   -0.0000    0.0000
          10   -0.0140   -0.0085   -0.0082    0.0055   -0.0000   -0.0000
          11   -0.0254   -0.0144   -0.0120    0.0077   -0.0000   -0.0000
          12   -0.0000    0.0000    0.0000   -0.0000   -0.0000   -0.0000
          13   -0.0003   -0.0001   -0.0001    0.0000   -0.0006   -0.0001
          14    0.0005    0.0002    0.0001   -0.0000    0.0004   -0.0001
          15   -0.0003   -0.0001   -0.0001    0.0000    0.0004   -0.0001
          16   -0.0047    0.0068   -0.0136   -0.0094    0.0000   -0.0000
          17   -0.0082    0.0087   -0.0224   -0.0177    0.0001   -0.0000
          18    0.0000   -0.0000    0.0000    0.0000    0.0000    0.0000
          19    0.0113   -0.0262   -0.0012   -0.0259    0.0001   -0.0000
          20   -0.0003    0.0000    0.0021    0.0000   -0.0000   -0.0000
          21   -0.0000    0.0000    0.0000    0.0000   -0.0000    0.0000
          22   -0.0095    0.0058    0.0135   -0.0097    0.0000   -0.0000
          23    0.0180   -0.0071   -0.0223    0.0183   -0.0001   -0.0000
          24    0.0000   -0.0000   -0.0000    0.0000    0.0000   -0.0000
          25   -0.0000   -0.0000   -0.0000   -0.0000   -0.0362   -0.0428
          26    0.0000   -0.0000    0.0000    0.0000    0.0241   -0.0405
          27    0.0000   -0.0000    0.0000    0.0000    0.0198   -0.0272
          28    0.0001    0.0000    0.0000   -0.0000    0.0065   -0.0004
          29   -0.0000   -0.0000   -0.0000    0.0000   -0.0045   -0.0002
          30   -0.0000   -0.0000   -0.0000   -0.0000   -0.0038   -0.0001
          31   -0.0020   -0.0017    0.0003    0.0004    0.0000   -0.0000
          32    0.0068    0.0066   -0.0016   -0.0020   -0.0002    0.0001
          33   -0.0021   -0.0020    0.0005    0.0006    0.0001   -0.0000
          34   -0.0013   -0.0011    0.0002    0.0002   -0.0003    0.0000
          35   -0.0048   -0.0039    0.0001    0.0011   -0.0007    0.0000
          36   -0.0034   -0.0028    0.0002    0.0007   -0.0007   -0.0000
          37    0.0421    0.0908   -0.0749   -0.0460    0.0003   -0.0001
          38   -0.0755   -0.1586    0.1287    0.0788   -0.0005    0.0002
          39   -0.0002   -0.0004    0.0003    0.0002   -0.0000    0.0000
          40    0.0032    0.0013    0.0008   -0.0004   -0.0005    0.0000
          41   -0.0057   -0.0022   -0.0014    0.0006    0.0008   -0.0001
          42    0.0035    0.0013    0.0009   -0.0003   -0.0005    0.0000
          43    0.0552   -0.0653    0.1489    0.1071   -0.0004    0.0001
          44    0.0947   -0.1070    0.2556    0.1870   -0.0007    0.0001
          45   -0.0000    0.0000   -0.0001   -0.0001   -0.0000    0.0000
          46   -0.1314    0.3045    0.0137    0.2805   -0.0009    0.0000
          47    0.0011   -0.0006   -0.0034   -0.0006    0.0000   -0.0000
          48    0.0002   -0.0005   -0.0000   -0.0004   -0.0000    0.0000
          49    0.1184   -0.0537   -0.1469    0.1102   -0.0003   -0.0000
          50   -0.2089    0.0880    0.2546   -0.1945    0.0006    0.0000
          51   -0.0002    0.0001    0.0003   -0.0002    0.0000   -0.0000
          52    0.1644    0.0945    0.0809   -0.0498    0.0001    0.0000
          53    0.2875    0.1624    0.1367   -0.0837    0.0002    0.0001
          54   -0.0001   -0.0000   -0.0000    0.0000    0.0000   -0.0000
          55   -0.0000    0.0000   -0.0000   -0.0001   -0.0917    0.0743
          56    0.0000    0.0000   -0.0002   -0.0006   -0.3659    0.3806
          57   -0.0000    0.0000   -0.0001   -0.0004   -0.2634    0.2750
          58   -0.0000   -0.0000    0.0000    0.0007    0.4546    0.4427
          59   -0.0000   -0.0000    0.0000    0.0002    0.1265    0.1062
          60    0.0000    0.0000   -0.0000    0.0001    0.0663    0.0523


           MASS-WEIGHTED COORDINATE ANALYSIS (NORMAL COORDINATES)


   Root No.       1         2         3         4         5         6         7         8

                 1 A       2 A       3 A       4 A       5 A       6 A       7 A       8 A   

                  20.5      36.1     119.0     196.0     266.8     335.0     355.2     368.0
  
           1   -0.0547   -0.0578   -0.0527    0.0456   -0.0318    0.0095    0.0012    0.0093
           2   -0.3475    0.0733   -0.0327   -0.1097   -0.0503    0.1312    0.0399    0.4235
[...]

 VIBRATION         37   37A           ATOM PAIR      ENERGY CONTRIBUTION    RADIAL
 FREQUENCY          1370.10         C  1 -- C  2         +13.6% ( 50.5%)     72.4%
 TRANSITION DIPOLE   0.2439         C  1 -- H 12         +12.2% ( 47.9%)      1.1%
 TRAVEL (Ang.)       0.2744         C  1 -- H 11         +12.0% ( 47.6%)      1.5%
 REDUCED MASS        0.6538         C  6 -- C  7          +6.8% ( 35.8%)     99.3%
 EFFECTIVE MASS      7.3613
 FORCE CONSTANT      0.7231

 VIBRATION         38   38A           ATOM PAIR      ENERGY CONTRIBUTION    RADIAL
 FREQUENCY          1406.83         C  1 -- H 11         +21.1% ( 57.3%)      4.8%
 TRANSITION DIPOLE   0.1647         C  1 -- H 12         +20.1% ( 56.0%)      4.9%
 TRAVEL (Ang.)       0.2614         C  1 -- C  2         +14.9% ( 48.3%)     95.1%
 REDUCED MASS        0.7016         C  1 -- C  5          +8.1% ( 35.6%)      2.2%
 EFFECTIVE MASS      5.6343
 FORCE CONSTANT      0.8181

 VIBRATION         39   39A           ATOM PAIR      ENERGY CONTRIBUTION    RADIAL
 FREQUENCY          1522.00         C  1 -- C  5         +22.5% ( 76.1%)     74.8%
 TRANSITION DIPOLE   0.1282         C  5 -- H 14         +17.6% ( 67.3%)      0.6%
 TRAVEL (Ang.)       0.1104         C  5 -- C 10         +14.0% ( 60.0%)     82.3%
 REDUCED MASS        3.6360         C  9 -- C 10         +13.5% ( 59.0%)     99.9%
 EFFECTIVE MASS     10.9618         C  9 -- H 20         +10.9% ( 53.1%)      9.4%
 FORCE CONSTANT      4.9625         C  9 -- H 19         +10.9% ( 53.1%)      9.4%

 VIBRATION         40   40A           ATOM PAIR      ENERGY CONTRIBUTION    RADIAL
 FREQUENCY          1541.87         C  3 -- C  6         +12.7% ( 52.5%)    100.0%
 TRANSITION DIPOLE   0.4954         C  4 -- C  8         +12.5% ( 52.0%)     99.9%
 TRAVEL (Ang.)       0.1695         C  2 -- C  4         +11.5% ( 49.8%)     28.5%
 REDUCED MASS        1.5217         C  2 -- C  3         +11.5% ( 49.8%)     23.5%
 EFFECTIVE MASS     10.8791         C  6 -- C  7         +10.8% ( 48.4%)     24.5%
 FORCE CONSTANT      2.1315         C  7 -- C  8         +10.7% ( 48.2%)     21.4%

 VIBRATION         41   41A           ATOM PAIR      ENERGY CONTRIBUTION    RADIAL
 FREQUENCY          1605.00         C  2 -- C  4         +15.0% ( 56.9%)     61.2%
 TRANSITION DIPOLE   0.4604         C  2 -- C  3         +14.8% ( 56.6%)     61.9%
 TRAVEL (Ang.)       0.1459         C  1 -- C  2         +14.2% ( 55.4%)     99.7%
 REDUCED MASS        1.9740         C  7 -- C  8          +9.5% ( 45.3%)     66.6%
 EFFECTIVE MASS     11.0648
 FORCE CONSTANT      2.9961

 VIBRATION         42   42A           ATOM PAIR      ENERGY CONTRIBUTION    RADIAL
 FREQUENCY          1781.59         C  6 -- C  7         +15.5% ( 54.2%)     88.9%
 TRANSITION DIPOLE   0.0526         C  2 -- C  4         +15.0% ( 53.3%)     89.2%
 TRAVEL (Ang.)       0.1243         C  7 -- C  8         +14.9% ( 53.2%)     86.6%
 REDUCED MASS        2.4482         C  2 -- C  3         +14.8% ( 53.0%)     88.2%
 EFFECTIVE MASS     11.8441
 FORCE CONSTANT      4.5783

 VIBRATION         43   43A           ATOM PAIR      ENERGY CONTRIBUTION    RADIAL
 FREQUENCY          1798.66         C  4 -- C  8         +16.6% ( 56.6%)     99.9%
 TRANSITION DIPOLE   0.2388         C  3 -- C  6         +16.3% ( 56.0%)     99.8%
 TRAVEL (Ang.)       0.1282         C  2 -- C  3         +12.0% ( 48.1%)     46.7%
 REDUCED MASS        2.2810         C  2 -- C  4         +11.7% ( 47.5%)     42.4%
 EFFECTIVE MASS     11.8326
 FORCE CONSTANT      4.3479

 VIBRATION         44   44A           ATOM PAIR      ENERGY CONTRIBUTION    RADIAL
 FREQUENCY          2261.44         C  5 -- C 10         +42.8% ( 85.9%)     99.8%
 TRANSITION DIPOLE   0.4466         C  9 -- C 10         +41.3% ( 84.4%)    100.0%
 TRAVEL (Ang.)       0.0715         C  1 -- C  5          +4.5% ( 27.7%)     41.9%
 REDUCED MASS        5.8386         C  5 -- H 14          +4.4% ( 27.5%)      4.1%
 EFFECTIVE MASS     11.8459
 FORCE CONSTANT     17.5925

 VIBRATION         45   45A           ATOM PAIR      ENERGY CONTRIBUTION    RADIAL
 FREQUENCY          2943.17         C  1 -- H 12         +59.6% ( 80.2%)     97.5%
 TRANSITION DIPOLE   0.0647         C  1 -- H 11         +37.8% ( 63.9%)     95.0%
 TRAVEL (Ang.)       0.2057         C  1 -- C  5          +1.2% ( 11.3%)      0.0%
 REDUCED MASS        0.5417         C  1 -- C  2          +1.2% ( 11.2%)      0.1%
 EFFECTIVE MASS      1.5468
 FORCE CONSTANT      2.7644

 VIBRATION         46   46A           ATOM PAIR      ENERGY CONTRIBUTION    RADIAL
 FREQUENCY          3019.91         C  1 -- H 11         +58.6% ( 75.6%)     98.7%
 TRANSITION DIPOLE   0.0573         C  1 -- H 12         +36.7% ( 59.8%)     95.9%
 TRAVEL (Ang.)       0.2168         C  5 -- H 14          +3.1% ( 17.5%)     99.9%
 REDUCED MASS        0.4750         C  1 -- C  5          +0.7% (  8.4%)     28.0%
 EFFECTIVE MASS      1.2907
 FORCE CONSTANT      2.5523

 VIBRATION         47   47A           ATOM PAIR      ENERGY CONTRIBUTION    RADIAL
 FREQUENCY          3034.43         C  5 -- H 14         +94.1% ( 98.3%)    100.0%
 TRANSITION DIPOLE   0.3282         C  1 -- H 11          +2.4% ( 15.9%)     99.5%
 TRAVEL (Ang.)       0.1599         C  5 -- C 10          +1.5% ( 12.5%)     41.2%
 REDUCED MASS        0.8696         C  1 -- C  5          +1.3% ( 11.4%)     13.0%
 EFFECTIVE MASS      1.5099
 FORCE CONSTANT      4.7177

 VIBRATION         48   48A           ATOM PAIR      ENERGY CONTRIBUTION    RADIAL
 FREQUENCY          3052.05         C  3 -- H 13         +62.0% ( 80.1%)    100.0%
 TRANSITION DIPOLE   0.1789         C  6 -- H 15         +21.7% ( 47.3%)    100.0%
 TRAVEL (Ang.)       0.2247         C  4 -- H 18         +10.6% ( 33.1%)    100.0%
 REDUCED MASS        0.4375         C  7 -- H 16          +1.5% ( 12.4%)     99.7%
 EFFECTIVE MASS      1.4956
 FORCE CONSTANT      2.4012

 VIBRATION         49   49A           ATOM PAIR      ENERGY CONTRIBUTION    RADIAL
 FREQUENCY          3052.94         C  4 -- H 18         +52.2% ( 73.4%)    100.0%
 TRANSITION DIPOLE   0.1963         C  8 -- H 17         +27.4% ( 53.3%)    100.0%
 TRAVEL (Ang.)       0.2498         C  7 -- H 16          +8.2% ( 29.2%)    100.0%
 REDUCED MASS        0.3538         C  6 -- H 15          +5.7% ( 24.3%)    100.0%
 EFFECTIVE MASS      1.5026
 FORCE CONSTANT      1.9431

 VIBRATION         50   50A           ATOM PAIR      ENERGY CONTRIBUTION    RADIAL
 FREQUENCY          3060.96         C  7 -- H 16         +47.9% ( 70.3%)    100.0%
 TRANSITION DIPOLE   0.2916         C  4 -- H 18         +18.2% ( 43.4%)    100.0%
 TRAVEL (Ang.)       0.2722         C  3 -- H 13         +17.2% ( 42.2%)    100.0%
 REDUCED MASS        0.2974         C  6 -- H 15          +8.1% ( 29.0%)     99.8%
 EFFECTIVE MASS      1.5138
 FORCE CONSTANT      1.6418

 VIBRATION         51   51A           ATOM PAIR      ENERGY CONTRIBUTION    RADIAL
 FREQUENCY          3068.42         C  6 -- H 15         +38.2% ( 62.8%)    100.0%
 TRANSITION DIPOLE   0.5612         C  8 -- H 17         +37.7% ( 62.4%)    100.0%
 TRAVEL (Ang.)       0.2673         C  4 -- H 18         +11.0% ( 33.7%)     99.9%
 REDUCED MASS        0.3076         C  3 -- H 13          +9.7% ( 31.6%)     99.9%
 EFFECTIVE MASS      1.5412
 FORCE CONSTANT      1.7065

 VIBRATION         52   52A           ATOM PAIR      ENERGY CONTRIBUTION    RADIAL
 FREQUENCY          3079.91         C  7 -- H 16         +39.3% ( 63.5%)    100.0%
 TRANSITION DIPOLE   0.3626         C  8 -- H 17         +25.0% ( 50.6%)    100.0%
 TRAVEL (Ang.)       0.2820         C  6 -- H 15         +23.2% ( 48.8%)    100.0%
 REDUCED MASS        0.2753         C  4 -- H 18          +4.7% ( 22.1%)     99.9%
 EFFECTIVE MASS      1.6000
 FORCE CONSTANT      1.5388

 VIBRATION         53   53A           ATOM PAIR      ENERGY CONTRIBUTION    RADIAL
 FREQUENCY          3119.02         C  9 -- H 20         +50.8% ( 71.4%)     95.5%
 TRANSITION DIPOLE   0.3622         C  9 -- H 19         +47.3% ( 68.9%)     94.8%
 TRAVEL (Ang.)       0.2108         C  9 -- C 10          +1.8% ( 13.4%)    100.0%
 REDUCED MASS        0.4865
 EFFECTIVE MASS      1.4147
 FORCE CONSTANT      2.7883

 VIBRATION         54   54A           ATOM PAIR      ENERGY CONTRIBUTION    RADIAL
 FREQUENCY          3124.60         C  9 -- H 19         +51.1% ( 73.2%)     97.3%
 TRANSITION DIPOLE   0.2267         C  9 -- H 20         +47.7% ( 70.7%)     96.9%
 TRAVEL (Ang.)       0.2010         C  9 -- C 10          +1.2% ( 11.2%)      0.0%
 REDUCED MASS        0.5340
 EFFECTIVE MASS      1.5953
 FORCE CONSTANT      3.0718

      SYMMETRY NUMBER FOR POINT-GROUP C1  =  1


          SYSTEM IS A GROUND STATE



 InChI=1S/C10H10/c1-2-3-7-10-8-5-4-6-9-10/h3-6,8-9H,1,7H2


          MOLECULE IS NOT LINEAR

          THERE ARE 54 GENUINE VIBRATIONS IN THIS SYSTEM
          THIS THERMODYNAMICS CALCULATION IS LIMITED TO
          MOLECULES WHICH HAVE NO INTERNAL ROTATIONS




                    CALCULATED THERMODYNAMIC PROPERTIES
                                          *
   TEMP. (K)   PARTITION FUNCTION   H.O.F.    ENTHALPY  HEAT CAPACITY ENTROPY
                                   KCAL/MOL   CAL/MOLE    CAL/K/MOL  CAL/K/MOL


 298.00  VIB.     0.1136D+04                  4046.1890    28.9773    27.5588
         ROT.     0.7180D+06                   888.2803     2.9808    29.7767
         INT.     0.8158D+09                  4934.4693    31.9581    57.3355
         TRA.     0.1436D+28                  1480.4672     4.9680    40.5022
         TOT.                       66.050    6414.9365    36.9261    97.8376

 200.00  VIB.     0.1254D+03                  1764.1519    17.7864    18.4212
         ROT.     0.3948D+06                   596.1613     2.9808    28.5880
         INT.     0.4948D+08                  2360.3131    20.7672    47.0092
         TRA.     0.7896D+27                   993.6021     4.9680    38.5210
         TOT.                       62.989    3353.9153    25.7352    85.5302

 210.00  VIB.     0.1565D+03                  1947.3588    18.8590    19.3148
         ROT.     0.4247D+06                   625.9693     2.9808    28.7334
         INT.     0.6648D+08                  2573.3281    21.8398    48.0483
         TRA.     0.8496D+27                  1043.2822     4.9680    38.7634
         TOT.                       63.252    3616.6103    26.8078    86.8117

 220.00  VIB.     0.1955D+03                  2141.4075    19.9544    20.2173
         ROT.     0.4554D+06                   655.7774     2.9808    28.8721
         INT.     0.8904D+08                  2797.1850    22.9352    49.0894
         TRA.     0.9110D+27                  1092.9623     4.9680    38.9945
         TOT.                       63.526    3890.1473    27.9033    88.0840

 230.00  VIB.     0.2443D+03                  2346.5163    21.0705    21.1289
         ROT.     0.4868D+06                   685.5855     2.9808    29.0046
         INT.     0.1189D+09                  3032.1017    24.0513    50.1335
         TRA.     0.9738D+27                  1142.6424     4.9680    39.2154
         TOT.                       63.810    4174.7442    29.0193    89.3489

 240.00  VIB.     0.3055D+03                  2562.8776    22.2045    22.0496
         ROT.     0.5189D+06                   715.3935     2.9808    29.1315
         INT.     0.1585D+09                  3278.2711    25.1853    51.1810
         TRA.     0.1038D+28                  1192.3226     4.9680    39.4268
         TOT.                       64.106    4470.5937    30.1533    90.6078

 250.00  VIB.     0.3824D+03                  2790.6556    23.3534    22.9792
         ROT.     0.5517D+06                   745.2016     2.9808    29.2531
         INT.     0.2109D+09                  3535.8572    26.3342    52.2324
         TRA.     0.1103D+28                  1242.0027     4.9680    39.6296
         TOT.                       64.413    4777.8599    31.3022    91.8620

 260.00  VIB.     0.4789D+03                  3029.9841    24.5140    23.9177
         ROT.     0.5851D+06                   775.0097     2.9808    29.3701
         INT.     0.2802D+09                  3804.9937    27.4948    53.2878
         TRA.     0.1170D+28                  1291.6828     4.9680    39.8245
         TOT.                       64.732    5096.6765    32.4628    93.1123

 270.00  VIB.     0.6003D+03                  3280.9651    25.6833    24.8648
         ROT.     0.6192D+06                   804.8177     2.9808    29.4825
         INT.     0.3717D+09                  4085.7828    28.6642    54.3474
         TRA.     0.1239D+28                  1341.3629     4.9680    40.0120
         TOT.                       65.063    5427.1457    33.6322    94.3593

 280.00  VIB.     0.7533D+03                  3543.6694    26.8582    25.8201
         ROT.     0.6539D+06                   834.6258     2.9808    29.5910
         INT.     0.4926D+09                  4378.2952    29.8390    55.4110
         TRA.     0.1308D+28                  1391.0430     4.9680    40.1926
         TOT.                       65.405    5769.3382    34.8070    95.6037

 290.00  VIB.     0.9461D+03                  3818.1372    28.0355    26.7831
         ROT.     0.6893D+06                   864.4339     2.9808    29.6956
         INT.     0.6521D+09                  4682.5710    31.0163    56.4787
         TRA.     0.1379D+28                  1440.7231     4.9680    40.3670
         TOT.                       65.759    6123.2941    35.9843    96.8456

 300.00  VIB.     0.1190D+04                  4104.3788    29.2125    27.7534
         ROT.     0.7252D+06                   894.2419     2.9808    29.7966
         INT.     0.8627D+09                  4998.6207    32.1933    57.5500
         TRA.     0.1451D+28                  1490.4032     4.9680    40.5354
         TOT.                       66.125    6489.0239    37.1613    98.0854

 310.00  VIB.     0.1497D+04                  4402.3771    30.3864    28.7304
         ROT.     0.7618D+06                   924.0500     2.9808    29.8943
         INT.     0.1141D+10                  5326.4271    33.3672    58.6248
         TRA.     0.1524D+28                  1540.0833     4.9680    40.6983
         TOT.                       66.502    6866.5104    38.3352    99.3231

 320.00  VIB.     0.1886D+04                  4712.0890    31.5548    29.7136
         ROT.     0.7989D+06                   953.8580     2.9808    29.9890
         INT.     0.1507D+10                  5665.9470    34.5356    59.7026
         TRA.     0.1598D+28                  1589.7634     4.9680    40.8560
         TOT.                       66.891    7255.7104    39.5037   100.5586

 330.00  VIB.     0.2379D+04                  5033.4480    32.7155    30.7024
         ROT.     0.8367D+06                   983.6661     2.9808    30.0807
         INT.     0.1991D+10                  6017.1141    35.6963    60.7831
         TRA.     0.1674D+28                  1639.4435     4.9680    41.0089
         TOT.                       67.292    7656.5576    40.6643   101.7920

 340.00  VIB.     0.3004D+04                  5366.3664    33.8664    31.6962
         ROT.     0.8750D+06                  1013.4742     2.9808    30.1697
         INT.     0.2628D+10                  6379.8406    36.8472    61.8659
         TRA.     0.1750D+28                  1689.1236     4.9680    41.1572
         TOT.                       67.704    8068.9642    41.8152   103.0231

 350.00  VIB.     0.3796D+04                  5710.7376    35.0058    32.6943
         ROT.     0.9139D+06                  1043.2822     2.9808    30.2561
         INT.     0.3469D+10                  6754.0198    37.9866    62.9504
         TRA.     0.1828D+28                  1738.8037     4.9680    41.3012
         TOT.                       68.128    8492.8235    42.9546   104.2517

 360.00  VIB.     0.4802D+04                  6066.4384    36.1321    33.6963
         ROT.     0.9533D+06                  1073.0903     2.9808    30.3401
         INT.     0.4578D+10                  7139.5287    39.1129    64.0364
         TRA.     0.1907D+28                  1788.4838     4.9680    41.4412
         TOT.                       68.564    8928.0125    44.0809   105.4776

 370.00  VIB.     0.6080D+04                  6433.3314    37.2440    34.7015
         ROT.     0.9933D+06                  1102.8984     2.9808    30.4217
         INT.     0.6040D+10                  7536.2298    40.2248    65.1232
         TRA.     0.1987D+28                  1838.1639     4.9680    41.5773
         TOT.                       69.010    9374.3937    45.1928   106.7005

 380.00  VIB.     0.7706D+04                  6811.2671    38.3404    35.7093
         ROT.     0.1034D+07                  1132.7064     2.9808    30.5012
         INT.     0.7967D+10                  7943.9735    41.3213    66.2106
         TRA.     0.2068D+28                  1887.8440     4.9680    41.7098
         TOT.                       69.467    9831.8175    46.2893   107.9203

 390.00  VIB.     0.9774D+04                  7200.0856    39.4205    36.7192
         ROT.     0.1075D+07                  1162.5145     2.9808    30.5787
         INT.     0.1051D+11                  8362.6001    42.4013    67.2979
         TRA.     0.2150D+28                  1937.5242     4.9680    41.8388
         TOT.                       69.936   10300.1242    47.3693   109.1367

 400.00  VIB.     0.1241D+05                  7599.6188    40.4833    37.7307
         ROT.     0.1117D+07                  1192.3226     2.9808    30.6541
         INT.     0.1385D+11                  8791.9414    43.4641    68.3848
         TRA.     0.2233D+28                  1987.2043     4.9680    41.9646
         TOT.                       70.415   10779.1457    48.4321   110.3494

   *: NOTE: HEATS OF FORMATION ARE RELATIVE TO THE
            ELEMENTS IN THEIR STANDARD STATE AT 298K
              (=  Standard Enthalpy of Formation).

            Hvib:  Zero-point energy is not included.
                   frequencies of less than zero cm-1 are not included.
            Hrot = (3/2)RT
            Htra = (3/2)RT + pV = (5/2)RT

            Heat capacity is Cp, not Cv

          For more information, see: HTTP://OpenMOPAC.net/Manual/thermochemistry.html


           FORCE CONSTANT IN CARTESIAN COORDINATES (Millidynes/A)

    ATOM   CHEMICAL       X               Y               Z
   NUMBER   SYMBOL  FORCE CONSTANT  FORCE CONSTANT  FORCE CONSTANT

      1       C        8.870773        8.465304        8.404241
      2       C       12.259363       12.183727        2.859874
      3       C       12.312148       11.969778        2.327246
      4       C       12.376213       11.916718        2.325263
      5       C        9.919894        8.064669        8.867849
      6       C       12.070969       12.134936        2.326850
      7       C       12.143829       12.031182        2.323490
      8       C       12.105462       12.115195        2.324115
      9       C       12.562321        8.168135        5.512785
     10       C       14.335194        7.863443        6.050322
     11       H        1.234436        4.028380        1.133131
     12       H        1.138164        2.805307        2.275782
     13       H        1.834769        4.071968        0.352015
     14       H        1.252837        3.100128        1.716889
     15       H        1.864618        4.054914        0.352744
     16       H        5.166518        0.758767        0.352009
     17       H        1.846912        4.073501        0.352734
     18       H        1.861654        4.041803        0.348604
     19       H        0.756314        3.529262        1.983859
     20       H        4.991698        0.794601        0.483531

 **********************
 *                    *
 * JOB ENDED NORMALLY *
 *                    *
 **********************



 TOTAL JOB TIME:             3.79 SECONDS

 == MOPAC DONE ==
