 *******************************************************************************
 **                                                                           **
 **                              MOPAC v23.1.2                                **
 **                                                                           **
 *******************************************************************************
 **          Digital Object Identifier (DOI): 10.5281/zenodo.6511958          **
 **    Visit the DOI location for information on how to cite this program.    **
 *******************************************************************************

                              PM3 CALCULATION RESULTS

 *******************************************************************************
 *  CALCULATION DONE: (MAX THREADS = 1)              Tue Jun  3 16:27:30 2025  *
 *  PM3        - The PM3 Hamiltonian to be used
 *  PRECISE    - TIGHTER CRITERIA TO BE USED
 *  NOSYM      - POINT-GROUP SYMMETRY SET TO C1
 *  THREADS=1  - MULTI-THREADING NOT USED
 *  T=         - A TIME OF 172800.0 SECONDS REQUESTED
 *  DUMP=N     - RESTART FILE WRITTEN EVERY 7200.0 SECONDS REQUESTED
 *******************************************************************************
pm3  precise nosym THREADS=1
 InChI=1S/C10H12/c1-8-6-7-9-4-2-3-5-10(8)9/h2-4,10H,1,5-7H2

   ATOM   CHEMICAL          X               Y               Z
  NUMBER   SYMBOL      (ANGSTROMS)     (ANGSTROMS)     (ANGSTROMS)

     1       C         -0.02310000  *   0.60610000  *  -0.33300000  *
     2       C         -0.94460000  *  -1.71250000  *  -0.45690000  *
     3       C         -2.01460000  *  -0.81160000  *   0.17180000  *
     4       C          1.04790000  *   1.17810000  *   0.61670000  *
     5       C          0.25310000  *  -0.83550000  *  -0.60020000  *
     6       C         -1.40240000  *   0.55710000  *   0.23520000  *
     7       C          2.42580000  *   0.80960000  *   0.11240000  *
     8       C          1.50460000  *  -1.28870000  *  -0.74420000  *
     9       C          2.63500000  *  -0.36800000  *  -0.49800000  *
    10       C         -2.06310000  *   1.63190000  *   0.68050000  *
    11       H         -0.02350000  *   1.17150000  *  -1.29110000  *
    12       H         -1.26510000  *  -2.08210000  *  -1.45460000  *
    13       H         -0.72270000  *  -2.57160000  *   0.21340000  *
    14       H         -2.93140000  *  -0.79640000  *  -0.45660000  *
    15       H          0.95570000  *   2.28340000  *   0.67540000  *
    16       H         -2.26640000  *  -1.15990000  *   1.19700000  *
    17       H          0.91860000  *   0.75590000  *   1.63750000  *
    18       H          3.25810000  *   1.47790000  *   0.29310000  *
    19       H          3.63690000  *  -0.65920000  *  -0.78550000  *
    20       H          1.69590000  *  -2.33640000  *  -0.93890000  *
    21       H         -3.07830000  *   1.53860000  *   1.05340000  *
    22       H         -1.59640000  *   2.61170000  *   0.67280000  *



          CARTESIAN COORDINATES 

    NO.       ATOM           X           Y           Z

     1         C         -0.0231      0.6061     -0.3330
     2         C         -0.9446     -1.7125     -0.4569
     3         C         -2.0146     -0.8116      0.1718
     4         C          1.0479      1.1781      0.6167
     5         C          0.2531     -0.8355     -0.6002
     6         C         -1.4024      0.5571      0.2352
     7         C          2.4258      0.8096      0.1124
     8         C          1.5046     -1.2887     -0.7442
     9         C          2.6350     -0.3680     -0.4980
    10         C         -2.0631      1.6319      0.6805
    11         H         -0.0235      1.1715     -1.2911
    12         H         -1.2651     -2.0821     -1.4546
    13         H         -0.7227     -2.5716      0.2134
    14         H         -2.9314     -0.7964     -0.4566
    15         H          0.9557      2.2834      0.6754
    16         H         -2.2664     -1.1599      1.1970
    17         H          0.9186      0.7559      1.6375
    18         H          3.2581      1.4779      0.2931
    19         H          3.6369     -0.6592     -0.7855
    20         H          1.6959     -2.3364     -0.9389
    21         H         -3.0783      1.5386      1.0534
    22         H         -1.5964      2.6117      0.6728

  H: (PM3): J. J. P. STEWART, J. COMP. CHEM. 10, 209 (1989).
  C: (PM3): J. J. P. STEWART, J. COMP. CHEM. 10, 209 (1989).

           Empirical Formula: C10 H12  =    22 atoms



      MOLECULAR POINT GROUP   :   C1  


      RHF CALCULATION, NO. OF DOUBLY OCCUPIED LEVELS = 26


          Geometry optimization using EF

          DIAGONAL MATRIX USED AS START HESSIAN

 CYCLE:     1 TIME:   0.012 TIME LEFT:  2.00D  GRAD.:    72.487 HEAT:  35.68835
 CYCLE:     2 TIME:   0.016 TIME LEFT:  2.00D  GRAD.:    62.205 HEAT:  34.60609
 CYCLE:     3 TIME:   0.004 TIME LEFT:  2.00D  GRAD.:    56.960 HEAT:  34.07208
 CYCLE:     4 TIME:   0.008 TIME LEFT:  2.00D  GRAD.:    42.038 HEAT:  33.55576
 CYCLE:     5 TIME:   0.008 TIME LEFT:  2.00D  GRAD.:    52.728 HEAT:  33.40774
 CYCLE:     6 TIME:   0.008 TIME LEFT:  2.00D  GRAD.:    55.128 HEAT:  33.27819
 CYCLE:     7 TIME:   0.008 TIME LEFT:  2.00D  GRAD.:    32.089 HEAT:  32.83508
 CYCLE:     8 TIME:   0.012 TIME LEFT:  2.00D  GRAD.:    14.053 HEAT:  32.65126
 CYCLE:     9 TIME:   0.004 TIME LEFT:  2.00D  GRAD.:    12.067 HEAT:  32.51726
 CYCLE:    10 TIME:   0.012 TIME LEFT:  2.00D  GRAD.:    20.483 HEAT:  32.46197
 CYCLE:    11 TIME:   0.008 TIME LEFT:  2.00D  GRAD.:     9.532 HEAT:  32.32653
 CYCLE:    12 TIME:   0.008 TIME LEFT:  2.00D  GRAD.:    15.330 HEAT:  32.30313
 CYCLE:    13 TIME:   0.008 TIME LEFT:  2.00D  GRAD.:    13.441 HEAT:  32.23519
 CYCLE:    14 TIME:   0.008 TIME LEFT:  2.00D  GRAD.:    12.499 HEAT:  32.20581
 CYCLE:    15 TIME:   0.008 TIME LEFT:  2.00D  GRAD.:    10.340 HEAT:  32.16056
 CYCLE:    16 TIME:   0.004 TIME LEFT:  2.00D  GRAD.:    13.808 HEAT:  32.14600
 CYCLE:    17 TIME:   0.008 TIME LEFT:  2.00D  GRAD.:    10.173 HEAT:  32.09160
 CYCLE:    18 TIME:   0.004 TIME LEFT:  2.00D  GRAD.:    11.604 HEAT:  32.07072
 CYCLE:    19 TIME:   0.012 TIME LEFT:  2.00D  GRAD.:     9.979 HEAT:  32.04005
 CYCLE:    20 TIME:   0.004 TIME LEFT:  2.00D  GRAD.:     8.960 HEAT:  32.00843
 CYCLE:    21 TIME:   0.008 TIME LEFT:  2.00D  GRAD.:     7.253 HEAT:  31.96646
 CYCLE:    22 TIME:   0.004 TIME LEFT:  2.00D  GRAD.:     5.617 HEAT:  31.93109
 CYCLE:    23 TIME:   0.008 TIME LEFT:  2.00D  GRAD.:     5.303 HEAT:  31.90358
 CYCLE:    24 TIME:   0.004 TIME LEFT:  2.00D  GRAD.:     4.493 HEAT:  31.88208
 CYCLE:    25 TIME:   0.008 TIME LEFT:  2.00D  GRAD.:     7.483 HEAT:  31.87232
 CYCLE:    26 TIME:   0.004 TIME LEFT:  2.00D  GRAD.:     3.696 HEAT:  31.84304
 CYCLE:    27 TIME:   0.008 TIME LEFT:  2.00D  GRAD.:     6.426 HEAT:  31.82793
 CYCLE:    28 TIME:   0.004 TIME LEFT:  2.00D  GRAD.:     5.054 HEAT:  31.80694
 CYCLE:    29 TIME:   0.008 TIME LEFT:  2.00D  GRAD.:     4.332 HEAT:  31.78746
 CYCLE:    30 TIME:   0.004 TIME LEFT:  2.00D  GRAD.:     4.335 HEAT:  31.75905
 CYCLE:    31 TIME:   0.008 TIME LEFT:  2.00D  GRAD.:     5.113 HEAT:  31.73449
 CYCLE:    32 TIME:   0.008 TIME LEFT:  2.00D  GRAD.:     4.847 HEAT:  31.71867
 CYCLE:    33 TIME:   0.004 TIME LEFT:  2.00D  GRAD.:     2.898 HEAT:  31.70085
 CYCLE:    34 TIME:   0.008 TIME LEFT:  2.00D  GRAD.:     3.852 HEAT:  31.69094
 CYCLE:    35 TIME:   0.004 TIME LEFT:  2.00D  GRAD.:     2.685 HEAT:  31.68271
 CYCLE:    36 TIME:   0.008 TIME LEFT:  2.00D  GRAD.:     2.362 HEAT:  31.67440
 CYCLE:    37 TIME:   0.004 TIME LEFT:  2.00D  GRAD.:     2.489 HEAT:  31.66207
 CYCLE:    38 TIME:   0.008 TIME LEFT:  2.00D  GRAD.:     2.123 HEAT:  31.65456
 CYCLE:    39 TIME:   0.004 TIME LEFT:  2.00D  GRAD.:     1.930 HEAT:  31.64651
 CYCLE:    40 TIME:   0.008 TIME LEFT:  2.00D  GRAD.:     2.181 HEAT:  31.63779
 CYCLE:    41 TIME:   0.004 TIME LEFT:  2.00D  GRAD.:     2.017 HEAT:  31.63021
 CYCLE:    42 TIME:   0.008 TIME LEFT:  2.00D  GRAD.:     1.753 HEAT:  31.62391
 CYCLE:    43 TIME:   0.008 TIME LEFT:  2.00D  GRAD.:     1.733 HEAT:  31.61918
 CYCLE:    44 TIME:   0.004 TIME LEFT:  2.00D  GRAD.:     1.576 HEAT:  31.61489
 CYCLE:    45 TIME:   0.008 TIME LEFT:  2.00D  GRAD.:     1.197 HEAT:  31.61119
 CYCLE:    46 TIME:   0.008 TIME LEFT:  2.00D  GRAD.:     0.979 HEAT:  31.60816
 CYCLE:    47 TIME:   0.004 TIME LEFT:  2.00D  GRAD.:     0.864 HEAT:  31.60617
 CYCLE:    48 TIME:   0.008 TIME LEFT:  2.00D  GRAD.:     0.569 HEAT:  31.60522
 CYCLE:    49 TIME:   0.008 TIME LEFT:  2.00D  GRAD.:     0.497 HEAT:  31.60466
 CYCLE:    50 TIME:   0.004 TIME LEFT:  2.00D  GRAD.:     0.461 HEAT:  31.60429
 CYCLE:    51 TIME:   0.008 TIME LEFT:  2.00D  GRAD.:     0.450 HEAT:  31.60387
 CYCLE:    52 TIME:   0.004 TIME LEFT:  2.00D  GRAD.:     0.335 HEAT:  31.60345
 CYCLE:    53 TIME:   0.008 TIME LEFT:  2.00D  GRAD.:     0.342 HEAT:  31.60319
 CYCLE:    54 TIME:   0.004 TIME LEFT:  2.00D  GRAD.:     0.313 HEAT:  31.60292
 CYCLE:    55 TIME:   0.008 TIME LEFT:  2.00D  GRAD.:     0.283 HEAT:  31.60276
 CYCLE:    56 TIME:   0.008 TIME LEFT:  2.00D  GRAD.:     0.290 HEAT:  31.60256
 CYCLE:    57 TIME:   0.004 TIME LEFT:  2.00D  GRAD.:     0.331 HEAT:  31.60235
 CYCLE:    58 TIME:   0.008 TIME LEFT:  2.00D  GRAD.:     0.349 HEAT:  31.60204
 CYCLE:    59 TIME:   0.004 TIME LEFT:  2.00D  GRAD.:     0.383 HEAT:  31.60171
 CYCLE:    60 TIME:   0.008 TIME LEFT:  2.00D  GRAD.:     0.459 HEAT:  31.60126
 CYCLE:    61 TIME:   0.008 TIME LEFT:  2.00D  GRAD.:     0.487 HEAT:  31.60078
 CYCLE:    62 TIME:   0.008 TIME LEFT:  2.00D  GRAD.:     0.595 HEAT:  31.60011
 CYCLE:    63 TIME:   0.008 TIME LEFT:  2.00D  GRAD.:     0.496 HEAT:  31.59968
 CYCLE:    64 TIME:   0.008 TIME LEFT:  2.00D  GRAD.:     0.647 HEAT:  31.59868
 CYCLE:    65 TIME:   0.008 TIME LEFT:  2.00D  GRAD.:     0.567 HEAT:  31.59820
 CYCLE:    66 TIME:   0.008 TIME LEFT:  2.00D  GRAD.:     0.398 HEAT:  31.59725
 CYCLE:    67 TIME:   0.008 TIME LEFT:  2.00D  GRAD.:     0.285 HEAT:  31.59685
 CYCLE:    68 TIME:   0.008 TIME LEFT:  2.00D  GRAD.:     0.224 HEAT:  31.59671
 CYCLE:    69 TIME:   0.008 TIME LEFT:  2.00D  GRAD.:     0.197 HEAT:  31.59664
 CYCLE:    70 TIME:   0.008 TIME LEFT:  2.00D  GRAD.:     0.212 HEAT:  31.59652
 CYCLE:    71 TIME:   0.004 TIME LEFT:  2.00D  GRAD.:     0.152 HEAT:  31.59645
 CYCLE:    72 TIME:   0.012 TIME LEFT:  2.00D  GRAD.:     0.138 HEAT:  31.59646
 CYCLE:    73 TIME:   0.004 TIME LEFT:  2.00D  GRAD.:     0.103 HEAT:  31.59638
 CYCLE:    74 TIME:   0.012 TIME LEFT:  2.00D  GRAD.:     0.672 HEAT:  31.59901
 CYCLE:    75 TIME:   0.012 TIME LEFT:  2.00D  GRAD.:     0.112 HEAT:  31.59634
 CYCLE:    76 TIME:   0.008 TIME LEFT:  2.00D  GRAD.:     0.089 HEAT:  31.59631
 CYCLE:    77 TIME:   0.008 TIME LEFT:  2.00D  GRAD.:     0.083 HEAT:  31.59629
 CYCLE:    78 TIME:   0.004 TIME LEFT:  2.00D  GRAD.:     0.075 HEAT:  31.59623
 CYCLE:    79 TIME:   0.008 TIME LEFT:  2.00D  GRAD.:     0.074 HEAT:  31.59619
 CYCLE:    80 TIME:   0.008 TIME LEFT:  2.00D  GRAD.:     0.071 HEAT:  31.59618
 CYCLE:    81 TIME:   0.008 TIME LEFT:  2.00D  GRAD.:     0.061 HEAT:  31.59617
 CYCLE:    82 TIME:   0.004 TIME LEFT:  2.00D  GRAD.:     0.045 HEAT:  31.59617

     GRADIENT =  0.04456 IS LESS THAN CUTOFF =  0.05000



 -------------------------------------------------------------------------------
 pm3  precise nosym THREADS=1
 InChI=1S/C10H12/c1-8-6-7-9-4-2-3-5-10(8)9/h2-4,10H,1,5-7H2



     GEOMETRY OPTIMISED USING EIGENVECTOR FOLLOWING (EF).     
     SCF FIELD WAS ACHIEVED                                   


                              PM3 CALCULATION
                                                       MOPAC v23.1.2 MacOS
                                                       Tue Jun  3 16:27:30 2025




          FINAL HEAT OF FORMATION =         31.59617 KCAL/MOL =     132.19837 KJ/MOL


          COSMO AREA              =        175.36 SQUARE ANGSTROMS
          COSMO VOLUME            =        179.78 CUBIC ANGSTROMS

          GRADIENT NORM           =          0.04456          =       0.00950 PER ATOM
          IONIZATION POTENTIAL    =          8.839450 EV
          HOMO LUMO ENERGIES (EV) =         -8.839  0.245
          NO. OF FILLED LEVELS    =         26
          MOLECULAR WEIGHT        =        132.2048         POINT GROUP:  C1  

          MOLECULAR DIMENSIONS (Angstroms)

            Atom       Atom       Distance
            H    21    H    19     7.29868
            H    18    H    12     5.42385
            H    16    H    11     3.09024


          SCF CALCULATIONS        =         92

          WALL-CLOCK TIME         =      0.590 SECONDS
          COMPUTATION TIME        =      0.425 SECONDS




   ATOM   CHEMICAL          X               Y               Z
  NUMBER   SYMBOL      (ANGSTROMS)     (ANGSTROMS)     (ANGSTROMS)

     1       C         -0.03638715  *   0.56423865  *  -0.33892600  *
     2       C         -0.96812304  *  -1.69766278  *  -0.54669396  *
     3       C         -2.03171608  *  -0.79978124  *   0.10003445  *
     4       C          1.03857890  *   1.26978619  *   0.48077769  *
     5       C          0.28464394  *  -0.89136661  *  -0.54116489  *
     6       C         -1.41420645  *   0.55812605  *   0.26027157  *
     7       C          2.40593506  *   0.82448883  *   0.08528681  *
     8       C          1.54652287  *  -1.33250909  *  -0.62374163  *
     9       C          2.63609191  *  -0.38733988  *  -0.44045998  *
    10       C         -2.01181726  *   1.59496843  *   0.83710652  *
    11       H         -0.09848678  *   1.04456346  *  -1.34771080  *
    12       H         -1.24266302  *  -1.97549569  *  -1.58194901  *
    13       H         -0.84006937  *  -2.64898904  *   0.00141744  *
    14       H         -2.94771273  *  -0.74173607  *  -0.51659058  *
    15       H          0.94109373  *   2.36645732  *   0.35980538  *
    16       H         -2.34977127  *  -1.19483504  *   1.08293808  *
    17       H          0.90377933  *   1.07358425  *   1.56407543  *
    18       H          3.22478058  *   1.52672565  *   0.27203216  *
    19       H          3.64350445  *  -0.71230253  *  -0.71820755  *
    20       H          1.78839481  *  -2.38664929  *  -0.78755155  *
    21       H         -3.01668714  *   1.53788456  *   1.24372144  *
    22       H         -1.53151020  *   2.56357715  *   0.93947857  *

                             CARTESIAN COORDINATES

   1    C       -0.036387146     0.564238651    -0.338925995
   2    C       -0.968123042    -1.697662777    -0.546693959
   3    C       -2.031716079    -0.799781242     0.100034452
   4    C        1.038578899     1.269786185     0.480777689
   5    C        0.284643935    -0.891366612    -0.541164886
   6    C       -1.414206454     0.558126047     0.260271575
   7    C        2.405935060     0.824488834     0.085286811
   8    C        1.546522874    -1.332509094    -0.623741631
   9    C        2.636091911    -0.387339877    -0.440459977
  10    C       -2.011817264     1.594968426     0.837106517
  11    H       -0.098486785     1.044563455    -1.347710796
  12    H       -1.242663018    -1.975495687    -1.581949007
  13    H       -0.840069371    -2.648989044     0.001417436
  14    H       -2.947712734    -0.741736068    -0.516590579
  15    H        0.941093725     2.366457318     0.359805378
  16    H       -2.349771271    -1.194835039     1.082938077
  17    H        0.903779333     1.073584249     1.564075435
  18    H        3.224780578     1.526725646     0.272032161
  19    H        3.643504452    -0.712302529    -0.718207550
  20    H        1.788394814    -2.386649286    -0.787551553
  21    H       -3.016687139     1.537884556     1.243721438
  22    H       -1.531510202     2.563577153     0.939478568


           Empirical Formula: C10 H12  =    22 atoms



      MOLECULAR POINT GROUP   :   C1  


                  EIGENVALUES  
 -41.87815 -35.47690 -32.27011 -28.41611 -27.57112 -23.64016 -22.08018 -20.04384
 -18.69792 -17.25138 -16.98589 -16.17441 -15.64130 -15.31100 -14.61927 -14.35101
 -13.88757 -13.42372 -12.95876 -12.82422 -12.51350 -11.97335 -11.72081 -11.11238
  -9.86413  -8.83945   0.24462   1.07958   2.02050   3.17476   3.27647   3.36649
   3.47337   3.63423   3.69120   3.80571   3.88831   4.01211   4.08020   4.14325
   4.25125   4.46205   4.62963   4.68051   4.79433   4.82933   5.07504   5.44732
   5.63936   5.93118   6.03179   6.24542


              NET ATOMIC CHARGES AND DIPOLE CONTRIBUTIONS

  ATOM NO.   TYPE          CHARGE      No. of ELECS.   s-Pop       p-Pop       
    1          C          -0.000099        4.0001     1.15235     2.84775
    2          C          -0.049584        4.0496     1.14783     2.90175
    3          C          -0.057306        4.0573     1.15198     2.90532
    4          C          -0.051196        4.0512     1.14592     2.90527
    5          C          -0.113091        4.1131     1.20579     2.90731
    6          C          -0.106374        4.1064     1.20374     2.90264
    7          C          -0.140599        4.1406     1.19735     2.94325
    8          C          -0.114344        4.1143     1.17398     2.94037
    9          C          -0.107376        4.1074     1.17885     2.92853
   10          C          -0.174869        4.1749     1.17675     2.99812
   11          H           0.079464        0.9205     0.92054
   12          H           0.059144        0.9409     0.94086
   13          H           0.058944        0.9411     0.94106
   14          H           0.058320        0.9417     0.94168
   15          H           0.055955        0.9440     0.94404
   16          H           0.059344        0.9407     0.94066
   17          H           0.063604        0.9364     0.93640
   18          H           0.099176        0.9008     0.90082
   19          H           0.101419        0.8986     0.89858
   20          H           0.107318        0.8927     0.89268
   21          H           0.085557        0.9144     0.91444
   22          H           0.086595        0.9134     0.91340
 DIPOLE           X         Y         Z       TOTAL
 POINT-CHG.    -0.280    -0.102     0.005     0.298
 HYBRID        -0.012     0.007     0.016     0.021
 SUM           -0.292    -0.095     0.021     0.308


          ATOMIC ORBITAL ELECTRON POPULATIONS

     Atom    s        px        py        pz   
    1  C   1.15235   0.92031   0.94010   0.98733
    2  C   1.14783   0.93103   0.96741   1.00331
    3  C   1.15198   0.96973   0.93099   1.00460
    4  C   1.14592   0.92504   0.98593   0.99430
    5  C   1.20579   0.95455   0.96044   0.99232
    6  C   1.20374   0.95952   0.95940   0.98372
    7  C   1.19735   0.97249   0.97114   0.99962
    8  C   1.17398   0.92975   0.98019   1.03042
    9  C   1.17885   0.97319   0.94779   1.00754
   10  C   1.17675   1.00278   0.97591   1.01944
   11  H   0.92054
   12  H   0.94086
   13  H   0.94106
   14  H   0.94168
   15  H   0.94404
   16  H   0.94066
   17  H   0.93640
   18  H   0.90082
   19  H   0.89858
   20  H   0.89268
   21  H   0.91444
   22  H   0.91340
 *******************************************************************************
 **                                                                           **
 **                              MOPAC v23.1.2                                **
 **                                                                           **
 *******************************************************************************
 **          Digital Object Identifier (DOI): 10.5281/zenodo.6511958          **
 **    Visit the DOI location for information on how to cite this program.    **
 *******************************************************************************

                              PM3 CALCULATION RESULTS

 *******************************************************************************
 *  CALCULATION DONE: (MAX THREADS = 1)              Tue Jun  3 16:27:30 2025  *
 *  PM3        - The PM3 Hamiltonian to be used
 *  OLDGEO     - PREVIOUS GEOMETRY TO BE USED
 *  PRECISE    - TIGHTER CRITERIA TO BE USED
 *  NOSYM      - POINT-GROUP SYMMETRY SET TO C1
 *  THREADS=1  - MULTI-THREADING NOT USED
 *  T=         - A TIME OF 172800.0 SECONDS REQUESTED
 *  DUMP=N     - RESTART FILE WRITTEN EVERY 7200.0 SECONDS REQUESTED
 *  THERMO     - THERMODYNAMIC QUANTITIES TO BE CALCULATED
 *******************************************************************************
oldgeo thermo nosym precise THREADS=1  pm3
 InChI=1S/C10H12/c1-8-6-7-9-4-2-3-5-10(8)9/h2-4,10H,1,5-7H2

   ATOM   CHEMICAL          X               Y               Z
  NUMBER   SYMBOL      (ANGSTROMS)     (ANGSTROMS)     (ANGSTROMS)

     1       C         -0.03638715  *   0.56423865  *  -0.33892600  *
     2       C         -0.96812304  *  -1.69766278  *  -0.54669396  *
     3       C         -2.03171608  *  -0.79978124  *   0.10003445  *
     4       C          1.03857890  *   1.26978619  *   0.48077769  *
     5       C          0.28464394  *  -0.89136661  *  -0.54116489  *
     6       C         -1.41420645  *   0.55812605  *   0.26027157  *
     7       C          2.40593506  *   0.82448883  *   0.08528681  *
     8       C          1.54652287  *  -1.33250909  *  -0.62374163  *
     9       C          2.63609191  *  -0.38733988  *  -0.44045998  *
    10       C         -2.01181726  *   1.59496843  *   0.83710652  *
    11       H         -0.09848678  *   1.04456346  *  -1.34771080  *
    12       H         -1.24266302  *  -1.97549569  *  -1.58194901  *
    13       H         -0.84006937  *  -2.64898904  *   0.00141744  *
    14       H         -2.94771273  *  -0.74173607  *  -0.51659058  *
    15       H          0.94109373  *   2.36645732  *   0.35980538  *
    16       H         -2.34977127  *  -1.19483504  *   1.08293808  *
    17       H          0.90377933  *   1.07358425  *   1.56407543  *
    18       H          3.22478058  *   1.52672565  *   0.27203216  *
    19       H          3.64350445  *  -0.71230253  *  -0.71820755  *
    20       H          1.78839481  *  -2.38664929  *  -0.78755155  *
    21       H         -3.01668714  *   1.53788456  *   1.24372144  *
    22       H         -1.53151020  *   2.56357715  *   0.93947857  *



          CARTESIAN COORDINATES 

    NO.       ATOM           X           Y           Z

     1         C         -0.0364      0.5642     -0.3389
     2         C         -0.9681     -1.6977     -0.5467
     3         C         -2.0317     -0.7998      0.1000
     4         C          1.0386      1.2698      0.4808
     5         C          0.2846     -0.8914     -0.5412
     6         C         -1.4142      0.5581      0.2603
     7         C          2.4059      0.8245      0.0853
     8         C          1.5465     -1.3325     -0.6237
     9         C          2.6361     -0.3873     -0.4405
    10         C         -2.0118      1.5950      0.8371
    11         H         -0.0985      1.0446     -1.3477
    12         H         -1.2427     -1.9755     -1.5819
    13         H         -0.8401     -2.6490      0.0014
    14         H         -2.9477     -0.7417     -0.5166
    15         H          0.9411      2.3665      0.3598
    16         H         -2.3498     -1.1948      1.0829
    17         H          0.9038      1.0736      1.5641
    18         H          3.2248      1.5267      0.2720
    19         H          3.6435     -0.7123     -0.7182
    20         H          1.7884     -2.3866     -0.7876
    21         H         -3.0167      1.5379      1.2437
    22         H         -1.5315      2.5636      0.9395

  H: (PM3): J. J. P. STEWART, J. COMP. CHEM. 10, 209 (1989).
  C: (PM3): J. J. P. STEWART, J. COMP. CHEM. 10, 209 (1989).

           Empirical Formula: C10 H12  =    22 atoms



      MOLECULAR POINT GROUP   :   C1  


      RHF CALCULATION, NO. OF DOUBLY OCCUPIED LEVELS = 26



          HEAT OF FORMATION =      31.596169 KCALS/MOLE


          CARTESIAN COORDINATE DERIVATIVES

   NUMBER  ATOM         X            Y            Z

     1       C     -0.000427     0.001791    -0.000436
     2       C      0.000892     0.003490    -0.000217
     3       C     -0.000788     0.002967     0.006280
     4       C      0.001291    -0.000517    -0.005929
     5       C     -0.000533     0.003332     0.003005
     6       C      0.000407     0.003662     0.005720
     7       C     -0.002702    -0.002904     0.002949
     8       C     -0.003592     0.002465     0.003067
     9       C     -0.003319    -0.007542    -0.000867
    10       C     -0.001386     0.003787    -0.009004
    11       H      0.004384    -0.006585    -0.004191
    12       H      0.004290    -0.017903    -0.007559
    13       H      0.004849     0.006311     0.003524
    14       H      0.004801     0.011796     0.004648
    15       H     -0.002507    -0.004192    -0.004007
    16       H     -0.009044    -0.001777     0.001172
    17       H     -0.003649     0.008417     0.001575
    18       H     -0.003004    -0.009255     0.004688
    19       H      0.001478    -0.010024    -0.005102
    20       H     -0.000732     0.003140     0.002082
    21       H      0.008633     0.001879    -0.000535
    22       H      0.000656     0.007660    -0.000862



          GRADIENT NORM =   0.04165

          MOLECULAR WEIGHT =  132.20



          ROTATIONAL CONSTANTS IN CM(-1)

          A =    0.07961215   B =    0.04189424   C =    0.02853116



           PRINCIPAL MOMENTS OF INERTIA IN UNITS OF 10**(-40)*GRAM-CM**2

          A =      351.6141   B =      668.1767   C =      981.1292


          ORIENTATION OF MOLECULE IN FORCE CALCULATION

    NO.       ATOM         X         Y         Z

     1          C      -0.4587    0.2028    0.4416
     2          C       1.9964    0.2028    0.4416
     3          C       1.5181    1.6612    0.4416
     4          C      -1.5861   -0.1530   -0.5216
     5          C       0.7776   -0.6117    0.1755
     6          C       0.0191    1.6263    0.3887
     7          C      -1.6613   -1.6244   -0.7533
     8          C       0.7121   -1.8617   -0.3010
     9          C      -0.5877   -2.4194   -0.6380
    10          C      -0.7582    2.7014    0.3178
    11          H      -0.7923   -0.0129    1.4877
    12          H       2.4441   -0.0803    1.4130
    13          H       2.7779    0.0231   -0.3193
    14          H       1.8644    2.2051    1.3398
    15          H      -2.5492    0.2237   -0.1251
    16          H       1.9195    2.2175   -0.4260
    17          H      -1.4458    0.3509   -1.4997
    18          H      -2.6348   -2.0257   -1.0528
    19          H      -0.6471   -3.4968   -0.8203
    20          H       1.6054   -2.4667   -0.4814
    21          H      -0.3586    3.7104    0.2947
    22          H      -1.8415    2.6375    0.2767


    FIRST DERIVATIVES WILL BE USED IN THE CALCULATION OF SECOND DERIVATIVES

          ESTIMATED TIME TO COMPLETE CALCULATION =        2.06 SECONDS

    FOR POINT-GROUP C1   THERE ARE   1 UNIQUE SYMMETRY FUNCTIONS.

 STEP:   1 TIME =     0.02 SECS, INTEGRAL =      0.02 TIME LEFT: 172799.97
 STEP:   2 TIME =     0.02 SECS, INTEGRAL =      0.04 TIME LEFT: 172799.95
 STEP:   3 TIME =     0.02 SECS, INTEGRAL =      0.06 TIME LEFT: 172799.93
 STEP:   4 TIME =     0.02 SECS, INTEGRAL =      0.08 TIME LEFT: 172799.91
 STEP:   5 TIME =     0.02 SECS, INTEGRAL =      0.10 TIME LEFT: 172799.89
 STEP:   6 TIME =     0.02 SECS, INTEGRAL =      0.12 TIME LEFT: 172799.87
 STEP:   7 TIME =     0.02 SECS, INTEGRAL =      0.14 TIME LEFT: 172799.85
 STEP:   8 TIME =     0.02 SECS, INTEGRAL =      0.16 TIME LEFT: 172799.83
 STEP:   9 TIME =     0.02 SECS, INTEGRAL =      0.18 TIME LEFT: 172799.81
 STEP:  10 TIME =     0.02 SECS, INTEGRAL =      0.20 TIME LEFT: 172799.79
 STEP:  11 TIME =     0.02 SECS, INTEGRAL =      0.22 TIME LEFT: 172799.77
 STEP:  12 TIME =     0.02 SECS, INTEGRAL =      0.24 TIME LEFT: 172799.75
 STEP:  13 TIME =     0.02 SECS, INTEGRAL =      0.26 TIME LEFT: 172799.73
 STEP:  14 TIME =     0.02 SECS, INTEGRAL =      0.28 TIME LEFT: 172799.71
 STEP:  15 TIME =     0.02 SECS, INTEGRAL =      0.30 TIME LEFT: 172799.69
 STEP:  16 TIME =     0.02 SECS, INTEGRAL =      0.32 TIME LEFT: 172799.67
 STEP:  17 TIME =     0.02 SECS, INTEGRAL =      0.34 TIME LEFT: 172799.65
 STEP:  18 TIME =     0.02 SECS, INTEGRAL =      0.36 TIME LEFT: 172799.63
 STEP:  19 TIME =     0.02 SECS, INTEGRAL =      0.38 TIME LEFT: 172799.61
 STEP:  20 TIME =     0.02 SECS, INTEGRAL =      0.40 TIME LEFT: 172799.59
 STEP:  21 TIME =     0.02 SECS, INTEGRAL =      0.42 TIME LEFT: 172799.57
 STEP:  22 TIME =     0.02 SECS, INTEGRAL =      0.45 TIME LEFT: 172799.55
 STEP:  23 TIME =     0.02 SECS, INTEGRAL =      0.47 TIME LEFT: 172799.52
 STEP:  24 TIME =     0.02 SECS, INTEGRAL =      0.49 TIME LEFT: 172799.50
 STEP:  25 TIME =     0.02 SECS, INTEGRAL =      0.51 TIME LEFT: 172799.48
 STEP:  26 TIME =     0.02 SECS, INTEGRAL =      0.53 TIME LEFT: 172799.46
 STEP:  27 TIME =     0.02 SECS, INTEGRAL =      0.55 TIME LEFT: 172799.44
 STEP:  28 TIME =     0.02 SECS, INTEGRAL =      0.57 TIME LEFT: 172799.42
 STEP:  29 TIME =     0.02 SECS, INTEGRAL =      0.59 TIME LEFT: 172799.40
 STEP:  30 TIME =     0.02 SECS, INTEGRAL =      0.61 TIME LEFT: 172799.38
 STEP:  31 TIME =     0.02 SECS, INTEGRAL =      0.64 TIME LEFT: 172799.36
 STEP:  32 TIME =     0.02 SECS, INTEGRAL =      0.66 TIME LEFT: 172799.33
 STEP:  33 TIME =     0.02 SECS, INTEGRAL =      0.68 TIME LEFT: 172799.31
 STEP:  34 TIME =     0.02 SECS, INTEGRAL =      0.70 TIME LEFT: 172799.29
 STEP:  35 TIME =     0.02 SECS, INTEGRAL =      0.73 TIME LEFT: 172799.27
 STEP:  36 TIME =     0.02 SECS, INTEGRAL =      0.75 TIME LEFT: 172799.25
 STEP:  37 TIME =     0.02 SECS, INTEGRAL =      0.77 TIME LEFT: 172799.23
 STEP:  38 TIME =     0.02 SECS, INTEGRAL =      0.79 TIME LEFT: 172799.21
 STEP:  39 TIME =     0.02 SECS, INTEGRAL =      0.80 TIME LEFT: 172799.19
 STEP:  40 TIME =     0.02 SECS, INTEGRAL =      0.82 TIME LEFT: 172799.17
 STEP:  41 TIME =     0.02 SECS, INTEGRAL =      0.84 TIME LEFT: 172799.15
 STEP:  42 TIME =     0.02 SECS, INTEGRAL =      0.86 TIME LEFT: 172799.13
 STEP:  43 TIME =     0.02 SECS, INTEGRAL =      0.89 TIME LEFT: 172799.11
 STEP:  44 TIME =     0.02 SECS, INTEGRAL =      0.91 TIME LEFT: 172799.08
 STEP:  45 TIME =     0.02 SECS, INTEGRAL =      0.93 TIME LEFT: 172799.06
 STEP:  46 TIME =     0.02 SECS, INTEGRAL =      0.95 TIME LEFT: 172799.04
 STEP:  47 TIME =     0.02 SECS, INTEGRAL =      0.97 TIME LEFT: 172799.02
 STEP:  48 TIME =     0.02 SECS, INTEGRAL =      0.99 TIME LEFT: 172799.00
 STEP:  49 TIME =     0.02 SECS, INTEGRAL =      1.01 TIME LEFT: 172798.98
 STEP:  50 TIME =     0.02 SECS, INTEGRAL =      1.03 TIME LEFT: 172798.96
 STEP:  51 TIME =     0.02 SECS, INTEGRAL =      1.05 TIME LEFT: 172798.94
 STEP:  52 TIME =     0.02 SECS, INTEGRAL =      1.07 TIME LEFT: 172798.92
 STEP:  53 TIME =     0.02 SECS, INTEGRAL =      1.09 TIME LEFT: 172798.90
 STEP:  54 TIME =     0.02 SECS, INTEGRAL =      1.11 TIME LEFT: 172798.88
 STEP:  55 TIME =     0.02 SECS, INTEGRAL =      1.14 TIME LEFT: 172798.86
 STEP:  56 TIME =     0.02 SECS, INTEGRAL =      1.16 TIME LEFT: 172798.84
 STEP:  57 TIME =     0.02 SECS, INTEGRAL =      1.18 TIME LEFT: 172798.81
 STEP:  58 TIME =     0.02 SECS, INTEGRAL =      1.20 TIME LEFT: 172798.79
 STEP:  59 TIME =     0.02 SECS, INTEGRAL =      1.22 TIME LEFT: 172798.77
 STEP:  60 TIME =     0.02 SECS, INTEGRAL =      1.25 TIME LEFT: 172798.75
 STEP:  61 TIME =     0.02 SECS, INTEGRAL =      1.27 TIME LEFT: 172798.72
 STEP:  62 TIME =     0.02 SECS, INTEGRAL =      1.29 TIME LEFT: 172798.70
 STEP:  63 TIME =     0.02 SECS, INTEGRAL =      1.31 TIME LEFT: 172798.68
 STEP:  64 TIME =     0.02 SECS, INTEGRAL =      1.33 TIME LEFT: 172798.66
 STEP:  65 TIME =     0.02 SECS, INTEGRAL =      1.36 TIME LEFT: 172798.64
 STEP:  66 TIME =     0.02 SECS, INTEGRAL =      1.38 TIME LEFT: 172798.61

(To convert to Hartree/Bohr^2, multiply by (10^(-21) x N x a0^2)/(4.184 x 627.51) =  0.0642)


           FORCE MATRIX IN MILLIDYNES/ANGSTROM


                  C  1       C  2       C  3       C  4       C  5       C  6
 ------------------------------------------------------------------------------
     C    1  15.101915
     C    2   0.745619  14.691425
     C    3   0.748009   3.799400  14.573983
     C    4   4.006404   0.042751   0.036638  14.633046
     C    5   4.360475   4.820470   0.885512   0.645256  19.046816
     C    6   4.404729   0.802607   4.513651   0.566947   0.970140  18.934618
     C    7   0.684273   0.016078   0.006489   4.823520   0.154331   0.053052
     C    8   0.778577   0.681735   0.046568   0.115174  10.150970   0.052075
     C    9   0.117996   0.137563   0.011318   0.839983   1.177123   0.009739
     C   10   0.709399   0.052095   0.741636   0.047356   0.053854  10.894008
     H   11   4.152054   0.017106   0.020069   0.431739   0.401685   0.402716
     H   12   0.019834   4.492903   0.442401   0.002037   0.425948   0.021940
     H   13   0.034798   4.536376   0.435426   0.005002   0.446373   0.032294
     H   14   0.024580   0.435486   4.522432   0.001533   0.034531   0.433056
     H   15   0.439417   0.008159   0.001348   4.467364   0.048821   0.011837
     H   16   0.028746   0.440166   4.516726   0.004228   0.020629   0.434670
     H   17   0.450590   0.004606   0.002489   4.409786   0.015603   0.024215
     H   18   0.044209   0.009113   0.001522   0.425983   0.015874   0.007570
     H   19   0.005382   0.009275   0.001253   0.121817   0.047908   0.001047
     H   20   0.114319   0.067966   0.003911   0.008866   0.460870   0.011515
     H   21   0.129129   0.001994   0.089431   0.011011   0.009931   0.478481
     H   22   0.090568   0.006519   0.126175   0.014820   0.004756   0.479378


                  C  7       C  8       C  9       C 10       H 11       H 12
 ------------------------------------------------------------------------------
     C    7  17.865722
     C    8   1.118559  18.388852
     C    9  10.201396   5.538395  18.276461
     C   10   0.004601   0.011053   0.002279  18.087796
     H   11   0.013306   0.029084   0.017342   0.022107   4.598844
     H   12   0.002239   0.024785   0.017612   0.003433   0.002409   5.092576
     H   13   0.001602   0.021885   0.011263   0.005763   0.001041   0.570789
     H   14   0.000503   0.004640   0.000981   0.023689   0.002680   0.029348
     H   15   0.439576   0.009823   0.047668   0.008178   0.035519   0.000538
     H   16   0.000918   0.003202   0.000932   0.024742   0.001208   0.031653
     H   17   0.408242   0.018876   0.032977   0.005877   0.044450   0.000381
     H   18   4.856139   0.123500   0.443859   0.001110   0.004186   0.001150
     H   19   0.444982   0.431820   4.867908   0.000681   0.000817   0.001074
     H   20   0.046382   4.881507   0.434310   0.002325   0.015006   0.009715
     H   21   0.001657   0.002143   0.000606   5.108612   0.015742   0.000394
     H   22   0.002910   0.001422   0.001110   5.091646   0.012242   0.000625


                  H 13       H 14       H 15       H 16       H 17       H 18
 ------------------------------------------------------------------------------
     H   13   5.137620
     H   14   0.022266   5.123063
     H   15   0.001386   0.000284   5.064117
     H   16   0.029988   0.573235   0.000253   5.113252
     H   17   0.000597   0.000277   0.571040   0.000311   5.011150
     H   18   0.000860   0.000219   0.034942   0.000287   0.014913   5.229966
     H   19   0.000904   0.000252   0.012475   0.000175   0.016968   0.066249
     H   20   0.009344   0.000499   0.001176   0.000472   0.000806   0.007935
     H   21   0.000519   0.011094   0.000704   0.011270   0.000760   0.000317
     H   22   0.000927   0.013332   0.014794   0.012506   0.002117   0.000619


                  H 19       H 20       H 21       H 22
 ------------------------------------------------------
     H   19   5.236128
     H   20   0.028163   5.254894
     H   21   0.000143   0.000495   5.487862
     H   22   0.000295   0.000279   0.407477   5.472520


          HEAT OF FORMATION =      31.596169 KCALS/MOLE

          ZERO POINT ENERGY     118.690 KCAL/MOL


           NORMAL COORDINATE ANALYSIS (Total motion = 1 Angstrom)


   Root No.       1         2         3         4         5         6         7         8

                 1 A       2 A       3 A       4 A       5 A       6 A       7 A       8 A   

                  64.0      94.4     189.7     248.8     303.8     407.8     445.2     491.0
  
           1   -0.0036   -0.0004   -0.0001   -0.0141   -0.0233    0.0014   -0.0172   -0.0030
           2    0.0017   -0.0013   -0.0015    0.0149   -0.0030   -0.0188    0.0147    0.0295
           3   -0.0093    0.0191    0.0184   -0.0309    0.0402    0.0075    0.0045    0.0058
           4   -0.0040   -0.0047    0.0051   -0.0109   -0.0113   -0.0007    0.0007   -0.0247
           5   -0.0000   -0.0067    0.0032   -0.0017   -0.0028    0.0114   -0.0171   -0.0244
           6    0.0075    0.0410   -0.0395   -0.0003   -0.0182    0.0031   -0.0017   -0.0127
           7   -0.0003    0.0035   -0.0013    0.0010   -0.0114   -0.0149    0.0244    0.0186
           8    0.0010   -0.0040    0.0011   -0.0011   -0.0072    0.0038   -0.0118   -0.0079
           9   -0.0542   -0.0341   -0.0076    0.0095   -0.0098   -0.0003   -0.0002    0.0038
          10    0.0150   -0.0170   -0.0065   -0.0344    0.0174   -0.0032   -0.0143    0.0102
          11    0.0047   -0.0036    0.0047   -0.0289   -0.0079    0.0015   -0.0021    0.0061
          12   -0.0326    0.0391    0.0226    0.0076   -0.0092    0.0029   -0.0056    0.0049
          13   -0.0023   -0.0021   -0.0031   -0.0143   -0.0209    0.0116   -0.0201   -0.0300
          14   -0.0027   -0.0028   -0.0057    0.0094   -0.0020    0.0038    0.0125    0.0119
          15    0.0096    0.0156    0.0236   -0.0141    0.0332   -0.0310    0.0205   -0.0488
          16   -0.0021    0.0023   -0.0009   -0.0002   -0.0129   -0.0148    0.0207    0.0114
          17    0.0016   -0.0021   -0.0018    0.0139   -0.0035   -0.0133    0.0040    0.0341
          18    0.0007   -0.0087    0.0042   -0.0192    0.0228    0.0325   -0.0122    0.0559
          19    0.0063    0.0026    0.0167    0.0070    0.0075    0.0069    0.0118    0.0276
          20    0.0021    0.0035    0.0163   -0.0322   -0.0118    0.0067   -0.0033   -0.0029
          21   -0.0151   -0.0072   -0.0502   -0.0042    0.0049   -0.0310   -0.0221    0.0106
          22   -0.0022    0.0046   -0.0066    0.0039    0.0018    0.0038    0.0018   -0.0023
          23   -0.0078    0.0082   -0.0173   -0.0013    0.0149   -0.0012    0.0311   -0.0122
          24    0.0229   -0.0132    0.0541    0.0123   -0.0143   -0.0154   -0.0214    0.0078
          25   -0.0014    0.0101    0.0022    0.0176    0.0129   -0.0103    0.0061    0.0138
          26   -0.0044    0.0101    0.0029   -0.0179   -0.0071   -0.0062   -0.0019   -0.0257
          27    0.0131   -0.0351   -0.0085   -0.0041   -0.0139    0.0417    0.0333   -0.0072
          28   -0.0056    0.0033   -0.0047    0.0408    0.0275    0.0196   -0.0091   -0.0205
          29    0.0031   -0.0020   -0.0051    0.0466    0.0237    0.0084   -0.0176    0.0090
          30    0.0606   -0.0172   -0.0052    0.0268   -0.0102   -0.0098    0.0045   -0.0115
          31   -0.0242    0.0147    0.0038    0.0010   -0.0517    0.0154   -0.0382    0.0132
          32   -0.0003    0.0125    0.0051    0.0311    0.0005   -0.0596    0.0445   -0.0003
          33   -0.0164    0.0266    0.0209   -0.0215    0.0301    0.0032    0.0035    0.0049
          34   -0.0294   -0.0569    0.0736   -0.0186    0.0375   -0.0434    0.0166   -0.0808
          35    0.0327    0.0252    0.0034   -0.0149    0.0029    0.0089   -0.0277   -0.0628
          36    0.0288    0.0745   -0.0715   -0.0004   -0.0394    0.0228   -0.0122    0.0028
          37    0.0141    0.0323   -0.0448   -0.0081   -0.0489    0.0352   -0.0214    0.0028
          38   -0.0294   -0.0405    0.0111   -0.0020   -0.0084    0.0238   -0.0405   -0.0366
          39    0.0332    0.0874   -0.0934    0.0025   -0.0565    0.0380   -0.0198    0.0191
          40    0.0379    0.0244    0.0015   -0.0148    0.0102    0.0105    0.0196    0.1029
          41    0.0520    0.0486   -0.0172   -0.0174   -0.0038    0.0273   -0.0256   -0.0048
          42   -0.1001   -0.0744    0.0027    0.0259   -0.0202   -0.0248    0.0100   -0.0321
          43    0.0100   -0.0148   -0.0097   -0.0343    0.0025   -0.0037   -0.0250   -0.0023
          44    0.0208   -0.0363   -0.0428   -0.0737    0.0206   -0.0313   -0.0463   -0.0087
          45   -0.0604    0.0760    0.0614    0.0512   -0.0751    0.0342    0.0116   -0.0124
          46   -0.0343   -0.0116   -0.0080    0.0248   -0.0330   -0.0541    0.0465   -0.0175
          47   -0.0506   -0.0590    0.0222    0.0098   -0.0091   -0.0085   -0.0112   -0.0434
          48   -0.1033   -0.0766    0.0029    0.0276   -0.0215   -0.0272    0.0109   -0.0366
          49    0.0450   -0.0553   -0.0427   -0.0991    0.0871   -0.0263   -0.0407    0.0153
          50   -0.0093    0.0288    0.0579   -0.0155   -0.0327    0.0459    0.0272   -0.0028
          51   -0.0353    0.0502    0.0447    0.0059   -0.0126    0.0232    0.0066    0.0010
          52    0.0080    0.0068    0.0358    0.0179    0.0029    0.0177    0.0231    0.0248
          53    0.0057    0.0027    0.0322   -0.0494   -0.0133    0.0136   -0.0135    0.0046
          54   -0.0254   -0.0204   -0.1351   -0.0180    0.0230   -0.0758   -0.0453    0.0091
          55   -0.0062    0.0196    0.0009    0.0362    0.0258   -0.0280    0.0109    0.0106
          56   -0.0066    0.0159    0.0092   -0.0168   -0.0065   -0.0176   -0.0144   -0.0214
          57    0.0278   -0.0732   -0.0463   -0.0174   -0.0197    0.1151    0.1073   -0.0298
          58   -0.0031    0.0085   -0.0078    0.0139    0.0173   -0.0040    0.0168    0.0133
          59   -0.0135    0.0156   -0.0297    0.0029    0.0505   -0.0035    0.0752   -0.0088
          60    0.0379   -0.0192    0.0891    0.0471   -0.0577   -0.0451   -0.0948    0.0744
          61   -0.0072    0.0047   -0.0086    0.0865    0.0769    0.0685   -0.0578   -0.0790
          62    0.0040   -0.0031   -0.0039    0.0302    0.0040   -0.0106    0.0006    0.0306
          63    0.0719   -0.0405   -0.0221    0.0742   -0.0518   -0.0338    0.0058   -0.0392
          64   -0.0072    0.0027   -0.0048    0.0387    0.0248    0.0184   -0.0076   -0.0162
          65    0.0036   -0.0011   -0.0098    0.0956    0.0748    0.0573   -0.0694   -0.0528
          66    0.1029   -0.0018    0.0029    0.0222   -0.0012   -0.0317    0.0216   -0.0640


   Root No.       9        10        11        12        13        14        15        16

                 9 A      10 A      11 A      12 A      13 A      14 A      15 A      16 A   

                 494.4     509.2     591.0     637.9     656.6     755.6     788.9     804.0
  
           1   -0.0263   -0.0118   -0.0129    0.0115   -0.0095   -0.0012    0.0012   -0.0022
           2   -0.0117   -0.0061   -0.0052    0.0096   -0.0045    0.0003   -0.0093   -0.0002
           3   -0.0231   -0.0104    0.0164   -0.0066    0.0250    0.0144    0.0162    0.0015
           4    0.0020    0.0235   -0.0055    0.0555    0.0051    0.0064   -0.0196    0.0178
           5   -0.0178    0.0240    0.0052   -0.0358   -0.0067    0.0001   -0.0032   -0.0003
           6   -0.0074    0.0020   -0.0041    0.0070   -0.0089    0.0026   -0.0102   -0.0251
           7   -0.0111    0.0290    0.0074   -0.0149   -0.0042   -0.0036    0.0125    0.0027
           8   -0.0305    0.0209    0.0036   -0.0507   -0.0155   -0.0038    0.0084   -0.0027
           9   -0.0042    0.0037   -0.0027    0.0019   -0.0069   -0.0030   -0.0068   -0.0238
          10   -0.0421   -0.0234   -0.0044    0.0056    0.0085    0.0189   -0.0128   -0.0018
          11    0.0349   -0.0254    0.0000   -0.0182   -0.0060    0.0016   -0.0204    0.0046
          12   -0.0190   -0.0177    0.0008    0.0004    0.0173   -0.0038    0.0074   -0.0129
          13   -0.0039    0.0069   -0.0083    0.0286   -0.0053   -0.0053    0.0034    0.0076
          14    0.0041    0.0289    0.0196    0.0211    0.0268    0.0159   -0.0213   -0.0034
          15   -0.0026    0.0047   -0.0285   -0.0025   -0.0259   -0.0042    0.0035    0.0168
          16   -0.0123    0.0242    0.0074   -0.0322   -0.0062   -0.0031    0.0061   -0.0052
          17   -0.0275   -0.0151   -0.0142    0.0233   -0.0152   -0.0087    0.0200    0.0038
          18    0.0146    0.0455   -0.0114    0.0096   -0.0254   -0.0080    0.0061    0.0194
          19    0.0161   -0.0386   -0.0005   -0.0213   -0.0030    0.0100   -0.0357    0.0033
          20    0.0282   -0.0298   -0.0011   -0.0136    0.0012    0.0007   -0.0114   -0.0005
          21    0.0281   -0.0077    0.0008   -0.0098   -0.0005   -0.0225   -0.0276    0.0017
          22    0.0417   -0.0208   -0.0012   -0.0071   -0.0041   -0.0184    0.0407   -0.0074
          23    0.0012    0.0271    0.0069    0.0252    0.0194    0.0165   -0.0207   -0.0016
          24    0.0140    0.0188    0.0110    0.0052    0.0107    0.0003   -0.0049    0.0130
          25    0.0329   -0.0095    0.0045   -0.0025    0.0037    0.0008    0.0072   -0.0013
          26    0.0438    0.0103    0.0047    0.0171    0.0120   -0.0094    0.0486   -0.0068
          27    0.0061   -0.0127    0.0006    0.0037    0.0087   -0.0306   -0.0022   -0.0040
          28    0.0073    0.0184    0.0102   -0.0305    0.0023    0.0018   -0.0032   -0.0052
          29   -0.0168   -0.0274   -0.0152    0.0343   -0.0103   -0.0073    0.0195    0.0059
          30   -0.0040   -0.0059    0.0029   -0.0031    0.0017    0.0004    0.0002    0.0017
          31   -0.0411   -0.0324   -0.0042    0.0271    0.0211    0.0103    0.0213   -0.0393
          32   -0.0484   -0.0335   -0.0253   -0.0155    0.0095   -0.0006    0.0024   -0.0167
          33   -0.0345   -0.0222    0.0140   -0.0068    0.0370    0.0181    0.0238   -0.0137
          34    0.0213    0.0341   -0.0634    0.0832   -0.0484    0.0156   -0.0496   -0.0969
          35   -0.0265    0.0218   -0.0067   -0.0467   -0.0227    0.0005    0.0079    0.0592
          36   -0.0191   -0.0039    0.0203   -0.0087    0.0123   -0.0020    0.0078    0.0495
          37   -0.0136    0.0138    0.0302    0.0486    0.0390   -0.0008   -0.0057    0.1051
          38   -0.0189    0.0199   -0.0066   -0.0191   -0.0167   -0.0021   -0.0286   -0.0592
          39   -0.0245   -0.0074    0.0372   -0.0065    0.0293   -0.0046    0.0113    0.0829
          40    0.0077    0.0790   -0.0433   -0.0038   -0.0291   -0.0228    0.0261   -0.0322
          41   -0.0171    0.0586   -0.0318   -0.0426   -0.0288   -0.0007   -0.0358   -0.1030
          42   -0.0205   -0.0394    0.0403   -0.0093    0.0107    0.0024    0.0163    0.0540
          43   -0.0403   -0.0205   -0.0115    0.0136   -0.0006    0.0135   -0.0155   -0.0010
          44    0.0233   -0.0103    0.0174   -0.0050    0.0365   -0.0606    0.0200   -0.0257
          45   -0.0015   -0.0262   -0.0354    0.0060   -0.0499    0.0451   -0.0432    0.0211
          46   -0.0394   -0.0321    0.0497   -0.0247    0.0089    0.0004    0.0425    0.0294
          47   -0.0403   -0.0022    0.0435   -0.0737   -0.0006    0.0000    0.0295    0.0991
          48   -0.0241   -0.0414    0.0443   -0.0165    0.0097    0.0018    0.0212    0.0578
          49   -0.0719   -0.0196    0.0362    0.0037    0.0922   -0.0176    0.0609   -0.0473
          50    0.0371   -0.0489   -0.0140   -0.0304   -0.0330    0.0796   -0.0361    0.0264
          51   -0.0215   -0.0287   -0.0013   -0.0062    0.0132    0.0329    0.0094   -0.0070
          52    0.0197   -0.0316    0.0060   -0.0135    0.0134   -0.0559   -0.0325   -0.0071
          53   -0.0217   -0.0457   -0.0046   -0.0157    0.0122   -0.0214   -0.0608   -0.0070
          54    0.0827   -0.0088   -0.0152   -0.0313   -0.0669    0.2227    0.0279    0.0435
          55    0.0183    0.0337    0.0150    0.0292    0.0277   -0.0257   -0.0128    0.0034
          56    0.0447    0.0121    0.0075    0.0151    0.0177   -0.0422    0.0287   -0.0027
          57    0.0048   -0.0399   -0.0190    0.0053   -0.0312    0.1743    0.1218   -0.0307
          58    0.0449   -0.0236    0.0029   -0.0163    0.0020   -0.0128    0.0188   -0.0040
          59   -0.0060    0.0133    0.0000    0.0039    0.0203   -0.0159   -0.0669    0.0278
          60    0.0578    0.0502    0.0560    0.0292    0.0397    0.1390    0.0385   -0.0697
          61    0.0348    0.0021    0.0213   -0.0265    0.0174    0.0194   -0.0515   -0.0050
          62   -0.0276   -0.0216   -0.0241    0.0314   -0.0127   -0.0136    0.0388    0.0062
          63    0.0020   -0.0038   -0.1818   -0.0951    0.1616    0.0291    0.0038    0.0035
          64    0.0073    0.0223    0.0024   -0.0351    0.0062    0.0018   -0.0013   -0.0036
          65    0.0087   -0.0515   -0.0071    0.0502    0.0044    0.0074   -0.0204    0.0090
          66   -0.0320   -0.0709    0.2078    0.0695   -0.1148   -0.0113   -0.0210   -0.0523


   Root No.      17        18        19        20        21        22        23        24

                17 A      18 A      19 A      20 A      21 A      22 A      23 A      24 A   

                 855.2     900.1     920.5     938.2     955.5     980.7    1002.0    1025.7
  
           1    0.0300    0.0022    0.0039    0.0076   -0.0108   -0.0021    0.0136   -0.0048
           2   -0.0026    0.0019    0.0009    0.0252    0.0100   -0.0167    0.0012    0.0174
           3   -0.0267   -0.0087   -0.0037   -0.0225    0.0169    0.0038   -0.0140    0.0002
           4   -0.0453   -0.0006    0.0054    0.0026    0.0086    0.0010   -0.0054    0.0012
           5   -0.0082   -0.0022   -0.0083    0.0025    0.0014    0.0012   -0.0014   -0.0013
           6   -0.0089    0.0090    0.0007   -0.0164   -0.0148   -0.0138   -0.0053    0.0203
           7   -0.0073    0.0017    0.0373   -0.0203    0.0031    0.0074   -0.0068   -0.0041
           8   -0.0031    0.0031    0.0232   -0.0108    0.0021    0.0036   -0.0024   -0.0040
           9   -0.0027   -0.0219    0.0046    0.0103    0.0154    0.0137    0.0051   -0.0175
          10    0.0510   -0.0006   -0.0140   -0.0041    0.0144    0.0020   -0.0175    0.0087
          11   -0.0170    0.0024    0.0034   -0.0046   -0.0071    0.0031    0.0107   -0.0128
          12   -0.0048    0.0035    0.0067    0.0200   -0.0161   -0.0032    0.0097    0.0011
          13   -0.0152   -0.0026   -0.0024   -0.0010    0.0028    0.0004    0.0009   -0.0028
          14    0.0085   -0.0037   -0.0007   -0.0038   -0.0085   -0.0002   -0.0046    0.0063
          15    0.0097    0.0135    0.0014    0.0107    0.0046    0.0122    0.0139   -0.0228
          16   -0.0007   -0.0011   -0.0111    0.0047    0.0002   -0.0038    0.0017    0.0026
          17   -0.0077   -0.0004    0.0012   -0.0086   -0.0009    0.0025   -0.0001    0.0001
          18    0.0073    0.0151   -0.0005    0.0062   -0.0063   -0.0071    0.0058    0.0276
          19   -0.0199    0.0039    0.0036    0.0034   -0.0065   -0.0006    0.0057    0.0003
          20   -0.0055    0.0005    0.0009    0.0042   -0.0012   -0.0003   -0.0029    0.0048
          21    0.0013    0.0196   -0.0041    0.0030    0.0038    0.0191   -0.0245   -0.0003
          22   -0.0002   -0.0015   -0.0004   -0.0020    0.0111   -0.0049   -0.0063    0.0072
          23    0.0221    0.0155   -0.0050   -0.0004   -0.0035    0.0053    0.0110   -0.0116
          24    0.0104   -0.0423    0.0066    0.0053   -0.0234    0.0024   -0.0135    0.0091
          25    0.0033   -0.0005    0.0023    0.0048   -0.0052    0.0036   -0.0012   -0.0016
          26    0.0323   -0.0088   -0.0043    0.0030    0.0085   -0.0023   -0.0115    0.0098
          27    0.0115    0.0007   -0.0077   -0.0230    0.0174   -0.0198    0.0232   -0.0023
          28    0.0002   -0.0028   -0.0469    0.0072   -0.0077    0.0012    0.0030    0.0016
          29   -0.0140   -0.0027   -0.0174   -0.0171   -0.0063    0.0107   -0.0027   -0.0096
          30    0.0013    0.0050   -0.0018    0.0042   -0.0067   -0.0296   -0.0181   -0.0308
          31    0.0392   -0.0087    0.0243    0.0069   -0.0894   -0.0314    0.0944   -0.0213
          32   -0.0267   -0.0247   -0.0012    0.1511    0.1218   -0.1151    0.0039    0.0560
          33   -0.0263   -0.0168    0.0025    0.0039    0.0142   -0.0252    0.0122    0.0030
          34   -0.0703    0.0433    0.0001   -0.0524   -0.0435   -0.0493   -0.0138    0.0815
          35   -0.0287    0.0703   -0.0338    0.0126   -0.0222   -0.0237    0.0455    0.0756
          36   -0.0039    0.0097   -0.0043    0.0131    0.0035    0.0032    0.0129    0.0051
          37   -0.0639   -0.0345   -0.0092    0.0527    0.0568    0.0308   -0.0050   -0.0492
          38   -0.0504   -0.0607   -0.0495    0.0243    0.0340   -0.0015   -0.0407   -0.0423
          39   -0.0162   -0.0120   -0.0050    0.0322    0.0280    0.0186    0.0061   -0.0231
          40    0.0124   -0.0426    0.0771    0.0125    0.0551    0.0721    0.0470   -0.0552
          41   -0.0306   -0.0480    0.0162   -0.0129    0.0144    0.0018   -0.0355   -0.0271
          42    0.0059    0.0285   -0.0062   -0.0021   -0.0128   -0.0107    0.0045    0.0176
          43    0.0981    0.0062   -0.0117    0.0022   -0.0037    0.0212   -0.0110   -0.0098
          44   -0.0316    0.0194    0.0411    0.0480   -0.0869    0.0221    0.0667   -0.0554
          45    0.1258    0.0045   -0.0260   -0.0176    0.0190    0.0279   -0.0308   -0.0047
          46   -0.0045    0.0413    0.0649   -0.1050   -0.0481   -0.0273   -0.0682    0.0165
          47    0.0019    0.0568    0.0054    0.0131   -0.0059   -0.0069    0.0314    0.0324
          48    0.0027    0.0333    0.0053   -0.0135   -0.0147   -0.0102   -0.0010    0.0173
          49   -0.0581   -0.0134    0.0201    0.0199   -0.0378   -0.0321    0.0496   -0.0111
          50    0.0095   -0.0313   -0.0246   -0.0871    0.0435   -0.0105    0.0087   -0.0369
          51   -0.0044   -0.0159   -0.0039   -0.0206    0.0040   -0.0146    0.0166   -0.0134
          52   -0.0251    0.0343    0.0053    0.0115   -0.0067    0.0175   -0.0064   -0.0080
          53    0.0168    0.0337   -0.0100    0.0219    0.0016    0.0270   -0.0478    0.0175
          54   -0.0096   -0.1233    0.0052   -0.0468   -0.0013   -0.0759    0.0775    0.0076
          55    0.0532   -0.0074   -0.0106   -0.0299   -0.0060   -0.0108    0.0613   -0.0507
          56    0.0375   -0.0151   -0.0114   -0.0200    0.0252   -0.0193    0.0017    0.0127
          57   -0.0285    0.0404    0.0373    0.1264   -0.0799    0.0861   -0.0793   -0.0003
          58    0.0163   -0.0111    0.0058    0.0050   -0.0175    0.0058    0.0006   -0.0071
          59    0.0530   -0.0680    0.0161    0.0162   -0.0779    0.0173    0.0028   -0.0129
          60   -0.0057    0.1921   -0.0346   -0.0156    0.0820    0.0174    0.0496   -0.0599
          61    0.0516    0.0158    0.1587    0.0338    0.0334   -0.0402   -0.0002    0.0200
          62   -0.0345   -0.0104   -0.0942   -0.0296   -0.0212    0.0309    0.0002   -0.0138
          63   -0.0214   -0.0189    0.0086   -0.0386    0.0288    0.1217    0.0619    0.1231
          64   -0.0009   -0.0016   -0.0581    0.0082   -0.0114   -0.0048   -0.0004   -0.0037
          65    0.0283    0.0138    0.2182   -0.0143    0.0383   -0.0042   -0.0037    0.0059
          66    0.0001   -0.0449   -0.0033    0.0058    0.0401    0.1265    0.0816    0.1106


   Root No.      25        26        27        28        29        30        31        32

                25 A      26 A      27 A      28 A      29 A      30 A      31 A      32 A   

                1043.5    1060.1    1070.7    1074.4    1095.1    1097.7    1102.5    1154.0
  
           1    0.0098   -0.0010   -0.0137    0.0025   -0.0018   -0.0029    0.0084   -0.0082
           2    0.0107    0.0043   -0.0058    0.0022   -0.0014   -0.0034    0.0018   -0.0016
           3    0.0110    0.0049   -0.0058   -0.0017    0.0177    0.0077    0.0404    0.0046
           4    0.0002    0.0024    0.0026   -0.0294   -0.0047    0.0025    0.0015   -0.0016
           5   -0.0020    0.0029    0.0126    0.0389    0.0049   -0.0142    0.0013    0.0000
           6    0.0050   -0.0000    0.0050    0.0082   -0.0045    0.0343    0.0036   -0.0005
           7   -0.0083   -0.0006    0.0077    0.0055    0.0001    0.0004   -0.0012    0.0020
           8   -0.0037   -0.0038   -0.0132   -0.0454   -0.0067    0.0162   -0.0038    0.0039
           9   -0.0069   -0.0108    0.0106   -0.0156    0.0156   -0.0242    0.0018   -0.0003
          10   -0.0044   -0.0017    0.0068   -0.0028    0.0027    0.0019   -0.0087   -0.0071
          11    0.0356    0.0102   -0.0003   -0.0009    0.0106    0.0044    0.0038    0.0014
          12   -0.0246    0.0097    0.0078   -0.0002   -0.0035    0.0009   -0.0393   -0.0064
          13   -0.0009   -0.0026   -0.0064    0.0110    0.0038    0.0021   -0.0075    0.0082
          14   -0.0045   -0.0023    0.0058   -0.0006    0.0027    0.0026    0.0005   -0.0039
          15   -0.0077    0.0006   -0.0117    0.0060   -0.0148   -0.0098   -0.0015    0.0009
          16    0.0065    0.0032   -0.0030    0.0047   -0.0001   -0.0008    0.0013   -0.0054
          17    0.0027    0.0022   -0.0013    0.0058   -0.0005   -0.0019    0.0008   -0.0035
          18    0.0087    0.0121   -0.0144    0.0037   -0.0109   -0.0102   -0.0085    0.0018
          19   -0.0351   -0.0084   -0.0146    0.0071    0.0055    0.0014   -0.0024   -0.0033
          20   -0.0355   -0.0071   -0.0047    0.0024   -0.0043   -0.0022    0.0035    0.0043
          21    0.0189   -0.0215   -0.0037    0.0039   -0.0036   -0.0020    0.0001   -0.0002
          22    0.0078    0.0142    0.0238   -0.0113   -0.0133   -0.0040    0.0083    0.0074
          23   -0.0092   -0.0034   -0.0066    0.0068   -0.0029   -0.0022   -0.0033   -0.0013
          24    0.0071   -0.0043    0.0038    0.0001    0.0025    0.0031   -0.0004    0.0021
          25    0.0050   -0.0025   -0.0076    0.0008    0.0089    0.0037   -0.0058    0.0005
          26   -0.0099   -0.0146   -0.0136    0.0018    0.0052    0.0011   -0.0041   -0.0067
          27   -0.0147    0.0073   -0.0007   -0.0022   -0.0008   -0.0004   -0.0009   -0.0005
          28   -0.0013   -0.0014   -0.0029   -0.0074   -0.0009    0.0017   -0.0003    0.0013
          29   -0.0072   -0.0025    0.0032   -0.0055    0.0008    0.0021   -0.0005    0.0018
          30   -0.0055   -0.0068    0.0073   -0.0024    0.0051    0.0036    0.0039   -0.0005
          31    0.0610   -0.0953   -0.0563    0.0209   -0.0526   -0.0540    0.2038    0.0764
          32    0.0759    0.0195    0.0019   -0.0186    0.0200    0.0088    0.0149    0.0230
          33    0.0396   -0.0210   -0.0175   -0.0007    0.0064   -0.0058    0.1054    0.0361
          34    0.0184   -0.0093    0.0524    0.0007    0.0226    0.0380    0.0171   -0.0095
          35    0.0069   -0.0575    0.1303    0.0419    0.1216   -0.1367    0.0243   -0.0175
          36   -0.0013   -0.0128    0.0180   -0.0040    0.0174   -0.0182    0.0037   -0.0021
          37   -0.0002    0.0276   -0.0114    0.0102   -0.0244   -0.0331    0.0061   -0.0090
          38    0.0265    0.0854   -0.0403    0.2280   -0.0803    0.0618    0.0183   -0.0168
          39   -0.0025    0.0051    0.0022    0.0028   -0.0044   -0.0196    0.0044   -0.0040
          40   -0.0488   -0.0752    0.1117    0.1118    0.0314    0.0998    0.0296    0.0104
          41    0.0019    0.0243   -0.0627   -0.1571    0.0075   -0.1137   -0.0234    0.0014
          42    0.0053    0.0006    0.0016    0.0124   -0.0047    0.0164    0.0019   -0.0017
          43    0.0063    0.0721    0.0246   -0.0246    0.0549    0.0275    0.0192   -0.0484
          44    0.0301    0.1415    0.0302   -0.0316    0.0827    0.0428    0.0018   -0.0589
          45    0.0093    0.0691    0.0259   -0.0256    0.0564    0.0282    0.0277   -0.0453
          46    0.0016    0.0698   -0.0457    0.1027   -0.0026   -0.1382   -0.0316    0.0181
          47    0.0020   -0.0334    0.0100   -0.0738   -0.0377    0.1765    0.0137   -0.0022
          48    0.0019    0.0024    0.0005    0.0098   -0.0055    0.0147   -0.0008    0.0030
          49    0.0214   -0.0523    0.0270    0.0088   -0.0625   -0.0216   -0.1523   -0.0460
          50    0.1977   -0.0659    0.0429   -0.0003   -0.0442   -0.0124   -0.1123   -0.0480
          51    0.0619   -0.0365    0.0324    0.0018   -0.0403   -0.0109   -0.1180   -0.0380
          52    0.0141   -0.0382   -0.0558    0.0184    0.0334    0.0083    0.0088   -0.1198
          53   -0.0657    0.0233    0.0874   -0.0195   -0.0710   -0.0200   -0.0177    0.2681
          54   -0.1018    0.0340    0.0021   -0.0018    0.0011    0.0018   -0.0127    0.0195
          55    0.1141    0.0299   -0.0377    0.0120    0.0894    0.0402   -0.1008    0.2367
          56   -0.0302   -0.0129   -0.0099   -0.0005   -0.0043   -0.0032    0.0051   -0.0268
          57    0.0571   -0.0175   -0.0133    0.0072    0.0234    0.0104   -0.0225    0.0401
          58    0.0367    0.0514    0.0889   -0.0480   -0.0885   -0.0319    0.0712   -0.0302
          59    0.0357    0.0378    0.0831   -0.0419   -0.0985   -0.0346    0.0787   -0.0526
          60   -0.0077    0.0377    0.0214   -0.0142   -0.0520   -0.0278    0.0375   -0.0219
          61    0.0234    0.0024   -0.0095    0.0253   -0.0051   -0.0094    0.0039   -0.0064
          62   -0.0163   -0.0031    0.0051   -0.0181    0.0020    0.0064   -0.0023    0.0047
          63    0.0257    0.0309   -0.0324    0.0118   -0.0151   -0.0097   -0.0040    0.0014
          64   -0.0024   -0.0027   -0.0028   -0.0089   -0.0005    0.0025    0.0006    0.0015
          65    0.0101    0.0082    0.0062    0.0247    0.0021   -0.0044   -0.0005   -0.0062
          66    0.0162    0.0134   -0.0190    0.0022   -0.0155   -0.0152   -0.0148    0.0025


   Root No.      33        34        35        36        37        38        39        40

                33 A      34 A      35 A      36 A      37 A      38 A      39 A      40 A   

                1160.2    1191.3    1208.1    1267.2    1286.7    1330.7    1351.2    1372.5
  
           1    0.0022    0.0339    0.0236    0.0069   -0.0260   -0.0060    0.0063   -0.0230
           2   -0.0413   -0.0145    0.0155   -0.0272    0.0196   -0.0179    0.0024    0.0244
           3   -0.0096    0.0125    0.0181    0.0008   -0.0115    0.0029   -0.0038    0.0059
           4   -0.0046   -0.0100   -0.0130   -0.0102    0.0185    0.0037   -0.0056    0.0115
           5    0.0112   -0.0100    0.0182    0.0162    0.0529    0.0159   -0.0209   -0.0126
           6    0.0030    0.0019    0.0007    0.0019    0.0068    0.0028   -0.0017    0.0020
           7    0.0070   -0.0088   -0.0151    0.0390    0.0220    0.0191    0.0276   -0.0190
           8    0.0080    0.0057   -0.0113   -0.0374   -0.0193   -0.0149   -0.0203   -0.0025
           9   -0.0051    0.0014    0.0011    0.0002   -0.0015    0.0002    0.0010   -0.0003
          10   -0.0074   -0.0038   -0.0131   -0.0086    0.0236   -0.0128    0.0124   -0.0162
          11   -0.0049    0.0061    0.0122   -0.0103    0.0180   -0.0246    0.0233   -0.0163
          12   -0.0084    0.0050   -0.0017   -0.0068    0.0146   -0.0135    0.0131   -0.0165
          13    0.0198    0.0182    0.0367   -0.0008   -0.0056    0.0017    0.0062    0.0316
          14    0.0081   -0.0147    0.0149    0.0002   -0.0052   -0.0071    0.0068   -0.0058
          15   -0.0027   -0.0152    0.0038   -0.0022    0.0051   -0.0026    0.0021   -0.0013
          16   -0.0277    0.0046    0.0113    0.0255   -0.0197   -0.0003   -0.0313    0.0104
          17   -0.0178    0.0040    0.0097    0.0063   -0.0155    0.0284   -0.0145    0.0014
          18    0.0139   -0.0025   -0.0063    0.0027    0.0009    0.0000   -0.0004   -0.0003
          19    0.0087   -0.0008   -0.0075    0.0068   -0.0113    0.0104   -0.0087    0.0060
          20    0.0053    0.0189   -0.0154    0.0041    0.0150    0.0139   -0.0110    0.0115
          21    0.0065    0.0011   -0.0041    0.0037   -0.0026    0.0058   -0.0046    0.0038
          22   -0.0070   -0.0228    0.0177   -0.0071    0.0118   -0.0126    0.0104   -0.0058
          23    0.0112   -0.0054    0.0119    0.0048   -0.0197   -0.0077    0.0106   -0.0051
          24    0.0041   -0.0005    0.0055    0.0015   -0.0069   -0.0036    0.0046   -0.0020
          25    0.0005   -0.0113   -0.0022    0.0031   -0.0232   -0.0006   -0.0001   -0.0062
          26   -0.0058    0.0071   -0.0186    0.0027   -0.0068    0.0069   -0.0079    0.0005
          27   -0.0035   -0.0002   -0.0048    0.0000   -0.0037    0.0007   -0.0013   -0.0014
          28    0.0067   -0.0015   -0.0010   -0.0099    0.0020   -0.0189   -0.0025    0.0040
          29    0.0140    0.0027   -0.0065    0.0017    0.0018    0.0198    0.0127   -0.0100
          30   -0.0042    0.0005    0.0018   -0.0007   -0.0004   -0.0017   -0.0007    0.0008
          31    0.0087   -0.1279   -0.0687   -0.0088    0.0441   -0.0010   -0.0056    0.0142
          32    0.2076    0.0348   -0.0364    0.0377   -0.0217    0.0133    0.0132   -0.0272
          33    0.0436   -0.0302   -0.0235    0.0085    0.0036    0.0104   -0.0048    0.0064
          34   -0.0292    0.0090   -0.0759   -0.0454   -0.0390   -0.0176   -0.0675   -0.1120
          35   -0.0655    0.0354   -0.0775    0.0195   -0.1005   -0.0139    0.0679    0.0287
          36   -0.0086    0.0056   -0.0005    0.0160   -0.0113    0.0031    0.0455    0.0600
          37   -0.0463   -0.0206   -0.0884   -0.0438   -0.0366   -0.0192   -0.0471   -0.0893
          38   -0.0680   -0.0018   -0.1112    0.0282   -0.0953   -0.0144    0.0842    0.0280
          39   -0.0212   -0.0103   -0.0429   -0.0313   -0.0152   -0.0127   -0.0599   -0.0976
          40    0.0584    0.0172   -0.0139   -0.1488   -0.0166   -0.0509    0.0151    0.0449
          41   -0.0276   -0.0074   -0.0413    0.0518   -0.0159    0.0086    0.1180    0.0374
          42   -0.0026   -0.0005    0.0158    0.0159    0.0100    0.0115   -0.0682   -0.0424
          43    0.0245   -0.0736   -0.0429    0.0027   -0.0038    0.0378   -0.0337    0.0498
          44    0.0477   -0.0934   -0.0036    0.0142   -0.0727    0.0400   -0.0244   -0.0035
          45    0.0203   -0.0713   -0.0532   -0.0021    0.0242    0.0462   -0.0486    0.1140
          46    0.1008    0.0063   -0.0327   -0.1476   -0.0176   -0.0526    0.0151    0.0428
          47   -0.0308   -0.0059   -0.0357    0.0557   -0.0052    0.0123    0.1124    0.0349
          48    0.0129    0.0010   -0.0197   -0.0238   -0.0095   -0.0142    0.0699    0.0454
          49    0.0056   -0.0298   -0.0332    0.0014    0.0136    0.0340   -0.0420    0.0996
          50    0.0306   -0.0594    0.0053    0.0152   -0.0634    0.0243   -0.0183   -0.0089
          51    0.0103   -0.0315   -0.0090    0.0071   -0.0253    0.0189   -0.0179    0.0116
          52    0.0121    0.0332   -0.0295   -0.0041    0.0444    0.0103   -0.0068    0.0108
          53    0.0064   -0.0647    0.0308    0.0319   -0.1162    0.0192   -0.0192    0.0036
          54   -0.0039    0.0040   -0.0017    0.0031   -0.0065    0.0038   -0.0035    0.0010
          55   -0.0498    0.1154   -0.0871   -0.0022    0.0900    0.0329   -0.0294    0.0240
          56   -0.0026   -0.0030   -0.0132    0.0034   -0.0174    0.0049   -0.0065   -0.0019
          57   -0.0054    0.0230   -0.0183    0.0011    0.0131    0.0074   -0.0064    0.0040
          58   -0.0034    0.0986   -0.0185   -0.0084    0.0382    0.0152   -0.0133    0.0241
          59    0.0165    0.1562   -0.0388    0.0040    0.0113    0.0292   -0.0206    0.0335
          60    0.0090    0.0637   -0.0108    0.0038    0.0068    0.0133   -0.0091    0.0126
          61   -0.0654    0.0010    0.0435   -0.1047   -0.0260    0.2069    0.0364   -0.0307
          62    0.0429    0.0024   -0.0251    0.0452    0.0126   -0.0755   -0.0049    0.0046
          63    0.0008    0.0004    0.0034   -0.0056   -0.0017    0.0111    0.0016   -0.0005
          64    0.0055   -0.0016    0.0016   -0.0233    0.0009   -0.0003    0.0032    0.0004
          65   -0.0153    0.0094   -0.0169    0.1590   -0.0023   -0.1998   -0.0789    0.0441
          66    0.0159   -0.0025   -0.0063   -0.0062    0.0016    0.0080    0.0037   -0.0032


   Root No.      41        42        43        44        45        46        47        48

                41 A      42 A      43 A      44 A      45 A      46 A      47 A      48 A   

                1383.0    1404.1    1417.1    1423.0    1445.5    1839.6    1890.6    1920.0
  
           1    0.0019    0.0215   -0.0288   -0.0347    0.0729   -0.0013    0.0072    0.0085
           2   -0.0294    0.0029   -0.0465    0.0298    0.0223   -0.0006   -0.0303    0.0087
           3   -0.0044    0.0068   -0.0141    0.0017    0.0169   -0.0011   -0.0038   -0.0039
           4   -0.0135   -0.0127    0.0083   -0.0654    0.0097   -0.0041   -0.0112   -0.0180
           5   -0.0182    0.0277   -0.0068   -0.0235   -0.0042   -0.0029   -0.0160   -0.0133
           6   -0.0046   -0.0003   -0.0014   -0.0116    0.0002   -0.0007   -0.0047   -0.0048
           7    0.0032   -0.0181   -0.0400    0.0274    0.0095    0.0013    0.0133   -0.0200
           8    0.0090   -0.0357   -0.0088    0.0011    0.0013   -0.0016   -0.0082    0.0023
           9    0.0006   -0.0010   -0.0017    0.0016    0.0006   -0.0001    0.0003   -0.0012
          10   -0.0137   -0.0158    0.0236    0.0037   -0.0326    0.0075   -0.0018   -0.0012
          11    0.0393    0.0011   -0.0099   -0.0241   -0.0545   -0.0298    0.0087    0.0021
          12   -0.0066   -0.0101    0.0140   -0.0022   -0.0266   -0.0032    0.0015    0.0009
          13    0.0004   -0.0096   -0.0045    0.0729   -0.0503    0.0094    0.0136    0.0139
          14    0.0155   -0.0031    0.0185    0.0041    0.0276    0.0310    0.1289    0.1311
          15    0.0039   -0.0015    0.0052    0.0034    0.0068    0.0125    0.0481    0.0461
          16    0.0091    0.0062    0.0483   -0.0125   -0.0306   -0.0067   -0.0737    0.0946
          17    0.0097    0.0031    0.0356   -0.0094   -0.0222    0.0111    0.1051   -0.1311
          18    0.0003   -0.0006    0.0029   -0.0001   -0.0017   -0.0003   -0.0072    0.0075
          19   -0.0091    0.0027   -0.0058    0.0010    0.0007   -0.1615    0.0199    0.0092
          20    0.0004   -0.0045    0.0269    0.0223    0.0515    0.1582   -0.0228   -0.0121
          21   -0.0013    0.0004    0.0030    0.0037    0.0092   -0.0117    0.0007   -0.0005
          22    0.0233   -0.0068    0.0321    0.0128    0.0507   -0.0416   -0.0214   -0.0207
          23    0.0175   -0.0026    0.0136    0.0126    0.0077   -0.0323   -0.1103   -0.1044
          24    0.0087   -0.0016    0.0082    0.0059    0.0076   -0.0174   -0.0425   -0.0403
          25   -0.0099    0.0079   -0.0320   -0.0266   -0.0458    0.2057   -0.0146   -0.0038
          26   -0.0193    0.0044   -0.0202   -0.0149   -0.0251   -0.1007    0.0222    0.0146
          27   -0.0055    0.0020   -0.0095   -0.0084   -0.0129    0.0278    0.0011    0.0020
          28   -0.0050   -0.0000   -0.0083    0.0029    0.0087    0.0067    0.0597   -0.0711
          29    0.0047   -0.0024   -0.0035   -0.0027   -0.0004   -0.0096   -0.0829    0.0984
          30   -0.0006    0.0002   -0.0006    0.0003    0.0007    0.0006    0.0054   -0.0064
          31   -0.0098   -0.0231    0.0348    0.0256   -0.0533    0.0020   -0.0015    0.0114
          32    0.0331   -0.0053    0.0273   -0.0167   -0.0199   -0.0011    0.0116    0.0008
          33    0.0045   -0.0096    0.0210    0.0104   -0.0315    0.0011    0.0030    0.0014
          34    0.0329    0.0964   -0.0155    0.1285   -0.0150   -0.0008   -0.0044   -0.0033
          35    0.0219   -0.0692   -0.0067   -0.0037    0.0234    0.0020    0.0083    0.0073
          36   -0.0116   -0.0673    0.0081   -0.0803    0.0168    0.0006    0.0030   -0.0035
          37    0.0302    0.0658   -0.0028    0.0800    0.0016   -0.0004    0.0058    0.0013
          38    0.0242   -0.0805   -0.0068   -0.0164    0.0363    0.0044    0.0187    0.0165
          39    0.0271    0.0920   -0.0110    0.1174   -0.0133    0.0012    0.0028    0.0102
          40   -0.0326    0.0667    0.0384   -0.0435    0.0057   -0.0016   -0.0097    0.0077
          41   -0.0238    0.1251    0.0447    0.0304   -0.0111    0.0013    0.0104   -0.0107
          42    0.0294   -0.1135   -0.0552    0.0089    0.0073   -0.0012   -0.0050   -0.0039
          43    0.0035    0.0051   -0.0104    0.0254    0.0174   -0.0052   -0.0068   -0.0033
          44   -0.1457   -0.0224    0.0266    0.0489    0.0413   -0.0472    0.0002    0.0005
          45    0.1643    0.0493   -0.0826   -0.0068    0.0034   -0.0092   -0.0032   -0.0038
          46   -0.0297    0.0563    0.0369   -0.0398    0.0051   -0.0015   -0.0118    0.0101
          47   -0.0262    0.1252    0.0430    0.0240   -0.0108    0.0016    0.0108   -0.0104
          48   -0.0324    0.1183    0.0576   -0.0130   -0.0068    0.0008    0.0031    0.0040
          49    0.1711    0.0591   -0.0954   -0.0252    0.0327   -0.0053    0.0005    0.0029
          50   -0.1226   -0.0161    0.0195    0.0356    0.0497   -0.0047   -0.0016    0.0005
          51   -0.0434   -0.0025    0.0027    0.0197    0.0346    0.0002   -0.0031    0.0005
          52   -0.0006   -0.0107    0.0366    0.0300    0.0410   -0.0920    0.0077    0.0022
          53   -0.0226    0.0268   -0.0711   -0.0436   -0.0427   -0.0926    0.0187    0.0100
          54   -0.0041    0.0015   -0.0018   -0.0009    0.0033   -0.0291    0.0043    0.0023
          55   -0.0058   -0.0078    0.0443    0.0289    0.0888   -0.0529    0.0315    0.0258
          56   -0.0220    0.0063   -0.0289   -0.0213   -0.0387   -0.1117    0.0215    0.0128
          57   -0.0056   -0.0007    0.0036    0.0027    0.0072   -0.0252    0.0101    0.0078
          58   -0.0226   -0.0042   -0.0081    0.0201   -0.0151   -0.0286    0.0783    0.0722
          59   -0.0438    0.0013   -0.0415    0.0200   -0.0842   -0.0250   -0.0115   -0.0157
          60   -0.0159    0.0016   -0.0140    0.0087   -0.0286   -0.0144   -0.0040   -0.0055
          61    0.0261   -0.0074    0.0337   -0.0108   -0.0317   -0.0062   -0.0525    0.0605
          62   -0.0075    0.0009   -0.0188    0.0020    0.0151   -0.0062   -0.0560    0.0689
          63    0.0006    0.0006    0.0000   -0.0001   -0.0003   -0.0002   -0.0002    0.0004
          64   -0.0033   -0.0011   -0.0087    0.0024    0.0084    0.0075    0.0695   -0.0842
          65   -0.0126    0.0157    0.0264   -0.0034   -0.0064    0.0054    0.0341   -0.0361
          66    0.0013   -0.0018    0.0013   -0.0004   -0.0013    0.0005    0.0017   -0.0025


   Root No.      49        50        51        52        53        54        55        56

                49 A      50 A      51 A      52 A      53 A      54 A      55 A      56 A   

                2854.7    2947.7    2965.7    2980.3    3028.5    3050.5    3054.4    3057.2
  
           1    0.0205    0.0011   -0.0001   -0.0000   -0.0006    0.0000    0.0005   -0.0001
           2    0.0132    0.0006    0.0000    0.0000   -0.0001   -0.0000    0.0002   -0.0003
           3   -0.0634   -0.0032   -0.0000   -0.0004   -0.0003    0.0000   -0.0000   -0.0002
           4   -0.0002   -0.0000    0.0045    0.0040   -0.0001   -0.0217   -0.0192   -0.0004
           5    0.0000    0.0000    0.0025    0.0023    0.0000    0.0080    0.0064    0.0002
           6    0.0001    0.0001   -0.0317   -0.0288   -0.0000   -0.0009   -0.0007   -0.0000
           7   -0.0001   -0.0000   -0.0012    0.0012    0.0000    0.0112   -0.0130   -0.0001
           8   -0.0001   -0.0000   -0.0005    0.0006   -0.0000    0.0172   -0.0186   -0.0001
           9    0.0001    0.0001    0.0295   -0.0319    0.0000    0.0010   -0.0011   -0.0000
          10   -0.0036    0.0337    0.0000    0.0000   -0.0279    0.0000    0.0000    0.0021
          11   -0.0005    0.0060    0.0000    0.0000    0.0259   -0.0000   -0.0000   -0.0013
          12    0.0034   -0.0462   -0.0000   -0.0000   -0.0131    0.0000   -0.0000    0.0002
          13    0.0009   -0.0003   -0.0001   -0.0000    0.0003   -0.0003   -0.0002    0.0001
          14   -0.0010    0.0001   -0.0002   -0.0001    0.0001   -0.0005    0.0002   -0.0002
          15   -0.0003   -0.0001   -0.0001   -0.0001    0.0001   -0.0001    0.0000   -0.0000
          16    0.0002   -0.0001   -0.0000   -0.0000   -0.0002    0.0005   -0.0002    0.0000
          17    0.0010   -0.0001    0.0000    0.0000   -0.0001   -0.0003   -0.0002    0.0000
          18   -0.0001   -0.0001   -0.0000   -0.0001   -0.0001    0.0000   -0.0000   -0.0000
          19    0.0002   -0.0012    0.0000    0.0000    0.0044   -0.0002   -0.0003    0.0303
          20   -0.0001    0.0002   -0.0000   -0.0000    0.0023   -0.0001   -0.0001    0.0124
          21   -0.0001   -0.0003    0.0000    0.0000    0.0015   -0.0001   -0.0001    0.0093
          22    0.0002   -0.0001    0.0002    0.0001   -0.0001    0.0001   -0.0000   -0.0056
          23    0.0006   -0.0001    0.0001    0.0001   -0.0001    0.0000    0.0001    0.0043
          24    0.0000    0.0000   -0.0000   -0.0000   -0.0000    0.0000    0.0000    0.0013
          25   -0.0002    0.0003   -0.0000   -0.0000    0.0001   -0.0000   -0.0000   -0.0022
          26   -0.0001    0.0001    0.0000    0.0000   -0.0001    0.0001    0.0002   -0.0309
          27    0.0000   -0.0001   -0.0000   -0.0000    0.0000    0.0000    0.0000   -0.0054
          28    0.0002    0.0003   -0.0000    0.0000   -0.0005   -0.0000    0.0000    0.0000
          29   -0.0003   -0.0000   -0.0000   -0.0000    0.0000    0.0000   -0.0000    0.0000
          30   -0.0001   -0.0000    0.0001   -0.0001   -0.0000    0.0000   -0.0000    0.0000
          31   -0.2487   -0.0079   -0.0000   -0.0007   -0.0000    0.0000   -0.0001   -0.0001
          32   -0.1590   -0.0064   -0.0001   -0.0004    0.0008   -0.0001   -0.0001   -0.0002
          33    0.7787    0.0390    0.0001    0.0021   -0.0022   -0.0000    0.0007    0.0005
          34   -0.0013   -0.0003    0.1085    0.1002    0.0003    0.0787    0.0693    0.0016
          35    0.0006    0.0002   -0.0665   -0.0648   -0.0002   -0.0545   -0.0490   -0.0011
          36   -0.0027   -0.0007    0.2317    0.2107    0.0008    0.2094    0.1847    0.0041
          37    0.0008    0.0004   -0.1606   -0.1468    0.0007    0.1805    0.1605    0.0033
          38   -0.0003   -0.0001    0.0361    0.0365   -0.0001   -0.0382   -0.0354   -0.0007
          39   -0.0007   -0.0003    0.1502    0.1358   -0.0007   -0.1973   -0.1756   -0.0036
          40   -0.0012   -0.0002   -0.0711    0.0759    0.0000   -0.0644    0.0713    0.0004
          41   -0.0015   -0.0004   -0.1086    0.1220    0.0000   -0.1014    0.1148    0.0006
          42   -0.0025   -0.0006   -0.1766    0.1914    0.0000   -0.1929    0.2166    0.0012
          43    0.0286   -0.3460   -0.0001   -0.0005    0.4131   -0.0003   -0.0002   -0.0283
          44   -0.0137    0.1392    0.0000    0.0002   -0.1442    0.0001    0.0000    0.0129
          45   -0.0161    0.1338    0.0000    0.0002   -0.1953    0.0001    0.0001    0.0139
          46    0.0004    0.0001    0.0854   -0.0904    0.0000   -0.0730    0.0814    0.0005
          47    0.0007    0.0002    0.1153   -0.1287    0.0000   -0.0994    0.1132    0.0006
          48   -0.0009   -0.0003   -0.1786    0.1916   -0.0000    0.1802   -0.2031   -0.0011
          49    0.0083   -0.0570    0.0000    0.0000   -0.0762    0.0001    0.0000    0.0043
          50    0.0196   -0.2178   -0.0000   -0.0003   -0.1661    0.0002    0.0000    0.0073
          51   -0.0333    0.4235    0.0000    0.0006    0.3581   -0.0003   -0.0001   -0.0151
          52   -0.0007    0.0129    0.0000   -0.0000   -0.0519    0.0020    0.0040   -0.3572
[...]
 FORCE CONSTANT      0.4481

 VIBRATION         43   43A           ATOM PAIR      ENERGY CONTRIBUTION    RADIAL
 FREQUENCY          1417.14         C  1 -- C  6         +15.3% ( 58.1%)     79.7%
 TRANSITION DIPOLE   0.0970         C  3 -- C  6         +11.6% ( 50.6%)     81.7%
 TRAVEL (Ang.)       0.1947         C  8 -- C  9          +8.4% ( 43.0%)     99.4%
 REDUCED MASS        1.2556         C  1 -- C  4          +7.9% ( 41.8%)     86.8%
 EFFECTIVE MASS      9.4601
 FORCE CONSTANT      1.4857

 VIBRATION         44   44A           ATOM PAIR      ENERGY CONTRIBUTION    RADIAL
 FREQUENCY          1423.04         C  2 -- C  5         +20.8% ( 67.4%)     85.2%
 TRANSITION DIPOLE   0.0685         C  1 -- C  5         +13.6% ( 54.4%)     85.1%
 TRAVEL (Ang.)       0.1690         C  2 -- H 12         +10.2% ( 47.2%)      5.8%
 REDUCED MASS        1.6595         C  2 -- H 13          +9.6% ( 45.8%)      7.7%
 EFFECTIVE MASS      9.2939
 FORCE CONSTANT      1.9800

 VIBRATION         45   45A           ATOM PAIR      ENERGY CONTRIBUTION    RADIAL
 FREQUENCY          1445.48         C  1 -- C  4         +12.9% ( 55.8%)     80.5%
 TRANSITION DIPOLE   0.1816         C  1 -- C  5         +11.7% ( 53.0%)     68.4%
 TRAVEL (Ang.)       0.1733         C  4 -- C  7         +10.1% ( 49.4%)     91.7%
 REDUCED MASS        1.5528         C  8 -- C  9          +9.2% ( 47.1%)     99.3%
 EFFECTIVE MASS     10.7287
 FORCE CONSTANT      1.9116

 VIBRATION         46   46A           ATOM PAIR      ENERGY CONTRIBUTION    RADIAL
 FREQUENCY          1839.56         C  7 -- C  9         +42.7% ( 96.8%)     99.9%
 TRANSITION DIPOLE   0.2875         C  8 -- C  9         +14.9% ( 57.2%)     62.1%
 TRAVEL (Ang.)       0.0846         C  4 -- C  7         +13.5% ( 54.4%)     48.2%
 REDUCED MASS        5.1248         C  9 -- H 19         +12.9% ( 53.2%)      4.5%
 EFFECTIVE MASS     11.8841         C  7 -- H 18         +12.5% ( 52.2%)      5.3%
 FORCE CONSTANT     10.2178

 VIBRATION         47   47A           ATOM PAIR      ENERGY CONTRIBUTION    RADIAL
 FREQUENCY          1890.57         C  5 -- C  8         +23.1% ( 71.8%)     99.2%
 TRANSITION DIPOLE   0.4423         C  6 -- C 10         +19.4% ( 65.8%)    100.0%
 TRAVEL (Ang.)       0.1156         C  1 -- C  5          +9.2% ( 45.4%)     28.9%
 REDUCED MASS        2.6712         C  2 -- C  5          +9.1% ( 45.0%)     48.6%
 EFFECTIVE MASS     11.8854
 FORCE CONSTANT      5.6253

 VIBRATION         48   48A           ATOM PAIR      ENERGY CONTRIBUTION    RADIAL
 FREQUENCY          1919.99         C  6 -- C 10         +25.0% ( 73.6%)    100.0%
 TRANSITION DIPOLE   0.3655         C  5 -- C  8         +19.0% ( 64.2%)     99.2%
 TRAVEL (Ang.)       0.1093         C  3 -- C  6         +10.5% ( 47.6%)     40.3%
 REDUCED MASS        2.9417         C  1 -- C  6         +10.2% ( 47.1%)     41.0%
 EFFECTIVE MASS     11.9065
 FORCE CONSTANT      6.3893

 VIBRATION         49   49A           ATOM PAIR      ENERGY CONTRIBUTION    RADIAL
 FREQUENCY          2854.70         C  1 -- H 11         +96.6% ( 99.8%)    100.0%
 TRANSITION DIPOLE   0.0994         C  1 -- C  4          +1.0% ( 10.1%)      8.6%
 TRAVEL (Ang.)       0.1600         C  1 -- C  6          +1.0% (  9.9%)      8.9%
 REDUCED MASS        0.9222         C  1 -- C  5          +1.0% (  9.9%)      8.5%
 EFFECTIVE MASS      1.4329
 FORCE CONSTANT      4.4278

 VIBRATION         50   50A           ATOM PAIR      ENERGY CONTRIBUTION    RADIAL
 FREQUENCY          2947.66         C  4 -- H 17         +57.1% ( 78.4%)     97.3%
 TRANSITION DIPOLE   0.0575         C  4 -- H 15         +40.3% ( 65.8%)     95.4%
 TRAVEL (Ang.)       0.2082         C  4 -- C  7          +1.1% ( 11.0%)      0.0%
 REDUCED MASS        0.5276         C  1 -- C  4          +1.1% ( 10.9%)      0.1%
 EFFECTIVE MASS      1.5366
 FORCE CONSTANT      2.7008

 VIBRATION         51   51A           ATOM PAIR      ENERGY CONTRIBUTION    RADIAL
 FREQUENCY          2965.75         C  2 -- H 12         +30.6% ( 57.6%)     97.2%
 TRANSITION DIPOLE   0.0087         C  3 -- H 16         +23.2% ( 50.2%)     96.6%
 TRAVEL (Ang.)       0.2929         C  2 -- H 13         +22.4% ( 49.3%)     95.5%
 REDUCED MASS        0.2650         C  3 -- H 14         +21.4% ( 48.2%)     96.2%
 EFFECTIVE MASS      1.5529
 FORCE CONSTANT      1.3731

 VIBRATION         52   52A           ATOM PAIR      ENERGY CONTRIBUTION    RADIAL
 FREQUENCY          2980.32         C  3 -- H 16         +27.5% ( 54.2%)     96.9%
 TRANSITION DIPOLE   0.0790         C  2 -- H 12         +25.9% ( 52.6%)     97.5%
 TRAVEL (Ang.)       0.2930         C  3 -- H 14         +25.7% ( 52.5%)     96.5%
 REDUCED MASS        0.2636         C  2 -- H 13         +18.8% ( 44.8%)     95.7%
 EFFECTIVE MASS      1.5270
 FORCE CONSTANT      1.3794

 VIBRATION         53   53A           ATOM PAIR      ENERGY CONTRIBUTION    RADIAL
 FREQUENCY          3028.51         C  4 -- H 15         +57.9% ( 75.0%)     98.6%
 TRANSITION DIPOLE   0.0833         C  4 -- H 17         +39.8% ( 62.2%)     96.4%
 TRAVEL (Ang.)       0.2133         C  7 -- H 18          +0.9% (  9.5%)    100.0%
 REDUCED MASS        0.4893         C  4 -- C  7          +0.7% (  8.0%)     20.7%
 EFFECTIVE MASS      1.2811
 FORCE CONSTANT      2.6441

 VIBRATION         54   54A           ATOM PAIR      ENERGY CONTRIBUTION    RADIAL
 FREQUENCY          3050.49         C  2 -- H 13         +32.2% ( 56.0%)     98.4%
 TRANSITION DIPOLE   0.0556         C  2 -- H 12         +23.0% ( 47.3%)     96.4%
 TRAVEL (Ang.)       0.2978         C  3 -- H 14         +22.7% ( 47.0%)     97.8%
 REDUCED MASS        0.2493         C  3 -- H 16         +20.8% ( 45.0%)     97.3%
 EFFECTIVE MASS      1.2849
 FORCE CONSTANT      1.3669

 VIBRATION         55   55A           ATOM PAIR      ENERGY CONTRIBUTION    RADIAL
 FREQUENCY          3054.45         C  3 -- H 14         +28.6% ( 52.7%)     97.9%
 TRANSITION DIPOLE   0.1276         C  3 -- H 16         +26.5% ( 50.8%)     97.4%
 TRAVEL (Ang.)       0.2983         C  2 -- H 13         +25.6% ( 49.8%)     98.5%
 REDUCED MASS        0.2481         C  2 -- H 12         +17.9% ( 41.7%)     96.4%
 EFFECTIVE MASS      1.2812
 FORCE CONSTANT      1.3636

 VIBRATION         56   56A           ATOM PAIR      ENERGY CONTRIBUTION    RADIAL
 FREQUENCY          3057.23         C  7 -- H 18         +51.0% ( 72.5%)    100.0%
 TRANSITION DIPOLE   0.2587         C  9 -- H 19         +44.0% ( 67.3%)    100.0%
 TRAVEL (Ang.)       0.2229         C  8 -- H 20          +2.1% ( 14.7%)     99.9%
 REDUCED MASS        0.4438         C  7 -- C  9          +1.1% ( 10.6%)      0.1%
 EFFECTIVE MASS      1.4647
 FORCE CONSTANT      2.4442

 VIBRATION         57   57A           ATOM PAIR      ENERGY CONTRIBUTION    RADIAL
 FREQUENCY          3071.54         C  8 -- H 20         +54.0% ( 74.7%)    100.0%
 TRANSITION DIPOLE   0.2979         C  7 -- H 18         +26.4% ( 52.3%)     99.9%
 TRAVEL (Ang.)       0.2391         C  9 -- H 19         +16.0% ( 40.7%)     99.8%
 REDUCED MASS        0.3839         C  8 -- C  9          +1.1% ( 10.8%)      2.5%
 EFFECTIVE MASS      1.5423
 FORCE CONSTANT      2.1341

 VIBRATION         58   58A           ATOM PAIR      ENERGY CONTRIBUTION    RADIAL
 FREQUENCY          3080.98         C  8 -- H 20         +40.8% ( 64.8%)    100.0%
 TRANSITION DIPOLE   0.4208         C  9 -- H 19         +37.0% ( 61.7%)    100.0%
 TRAVEL (Ang.)       0.2547         C  7 -- H 18         +18.5% ( 43.6%)     99.8%
 REDUCED MASS        0.3373         C  8 -- C  9          +1.3% ( 11.5%)     92.9%
 EFFECTIVE MASS      1.5834
 FORCE CONSTANT      1.8865

 VIBRATION         59   59A           ATOM PAIR      ENERGY CONTRIBUTION    RADIAL
 FREQUENCY          3139.05         C 10 -- H 22         +88.3% ( 94.4%)     99.4%
 TRANSITION DIPOLE   0.2866         C 10 -- H 21         +10.1% ( 32.0%)     62.6%
 TRAVEL (Ang.)       0.1677         C  6 -- C 10          +1.5% ( 12.3%)     74.3%
 REDUCED MASS        0.7636
 EFFECTIVE MASS      1.4326
 FORCE CONSTANT      4.4331

 VIBRATION         60   60A           ATOM PAIR      ENERGY CONTRIBUTION    RADIAL
 FREQUENCY          3145.02         C 10 -- H 21         +87.3% ( 95.3%)     99.7%
 TRANSITION DIPOLE   0.2388         C 10 -- H 22         +11.4% ( 34.4%)     81.4%
 TRAVEL (Ang.)       0.1644         C  6 -- C 10          +1.3% ( 11.8%)     15.4%
 REDUCED MASS        0.7930
 EFFECTIVE MASS      1.5627
 FORCE CONSTANT      4.6214

      SYMMETRY NUMBER FOR POINT-GROUP C1  =  1


          SYSTEM IS A GROUND STATE



 InChI=1S/C10H12/c1-8-6-7-9-4-2-3-5-10(8)9/h2-4,10H,1,5-7H2


          MOLECULE IS NOT LINEAR

          THERE ARE 60 GENUINE VIBRATIONS IN THIS SYSTEM
          THIS THERMODYNAMICS CALCULATION IS LIMITED TO
          MOLECULES WHICH HAVE NO INTERNAL ROTATIONS




                    CALCULATED THERMODYNAMIC PROPERTIES
                                          *
   TEMP. (K)   PARTITION FUNCTION   H.O.F.    ENTHALPY  HEAT CAPACITY ENTROPY
                                   KCAL/MOL   CAL/MOLE    CAL/K/MOL  CAL/K/MOL


 298.00  VIB.     0.8080D+02                  3565.3131    28.5113    20.6919
         ROT.     0.5416D+06                   888.2803     2.9808    29.2165
         INT.     0.4376D+08                  4453.5934    31.4921    49.9083
         TRA.     0.1470D+28                  1480.4672     4.9680    40.5480
         TOT.                       31.596    5934.0605    36.4601    90.4563

 200.00  VIB.     0.1270D+02                  1394.7617    16.0986    12.0241
         ROT.     0.2978D+06                   596.1613     2.9808    28.0278
         INT.     0.3781D+07                  1990.9230    19.0794    40.0518
         TRA.     0.8080D+27                   993.6021     4.9680    38.5668
         TOT.                       28.647    2984.5251    24.0474    78.6187

 210.00  VIB.     0.1515D+02                  1561.5193    17.2586    12.8374
         ROT.     0.3204D+06                   625.9693     2.9808    28.1732
         INT.     0.4855D+07                  2187.4886    20.2394    41.0107
         TRA.     0.8694D+27                  1043.2822     4.9680    38.8092
         TOT.                       28.893    3230.7709    25.2074    79.8199

 220.00  VIB.     0.1813D+02                  1740.0440    18.4516    13.6677
         ROT.     0.3436D+06                   655.7774     2.9808    28.3119
         INT.     0.6230D+07                  2395.8214    21.4324    41.9796
         TRA.     0.9322D+27                  1092.9623     4.9680    39.0403
         TOT.                       29.151    3488.7838    26.4004    81.0199

 230.00  VIB.     0.2176D+02                  1930.6523    19.6748    14.5148
         ROT.     0.3672D+06                   685.5855     2.9808    28.4444
         INT.     0.7991D+07                  2616.2378    22.6556    42.9592
         TRA.     0.9965D+27                  1142.6424     4.9680    39.2612
         TOT.                       29.421    3758.8802    27.6236    82.2204

 240.00  VIB.     0.2618D+02                  2133.6293    20.9248    15.3785
         ROT.     0.3914D+06                   715.3935     2.9808    28.5712
         INT.     0.1025D+08                  2849.0228    23.9056    43.9497
         TRA.     0.1062D+28                  1192.3226     4.9680    39.4726
         TOT.                       29.703    4041.3453    28.8736    83.4223

 250.00  VIB.     0.3159D+02                  2349.2254    22.1980    16.2584
         ROT.     0.4162D+06                   745.2016     2.9808    28.6929
         INT.     0.1315D+08                  3094.4270    25.1788    44.9513
         TRA.     0.1129D+28                  1242.0027     4.9680    39.6754
         TOT.                       29.999    4336.4296    30.1468    84.6268

 260.00  VIB.     0.3822D+02                  2577.6539    23.4906    17.1542
         ROT.     0.4414D+06                   775.0097     2.9808    28.8098
         INT.     0.1687D+08                  3352.6635    26.4714    45.9640
         TRA.     0.1198D+28                  1291.6828     4.9680    39.8703
         TOT.                       30.306    4644.3463    31.4394    85.8343

 270.00  VIB.     0.4637D+02                  2819.0893    24.7987    18.0652
         ROT.     0.4671D+06                   804.8177     2.9808    28.9223
         INT.     0.2166D+08                  3623.9070    27.7795    46.9875
         TRA.     0.1267D+28                  1341.3629     4.9680    40.0578
         TOT.                       30.627    4965.2699    32.7475    87.0453

 280.00  VIB.     0.5640D+02                  3073.6673    26.1185    18.9909
         ROT.     0.4933D+06                   834.6258     2.9808    29.0307
         INT.     0.2782D+08                  3908.2930    29.0993    48.0216
         TRA.     0.1338D+28                  1391.0430     4.9680    40.2384
         TOT.                       30.961    5299.3360    34.0673    88.2601

 290.00  VIB.     0.6880D+02                  3341.4849    27.4460    19.9306
         ROT.     0.5199D+06                   864.4339     2.9808    29.1353
         INT.     0.3577D+08                  4205.9187    30.4269    49.0659
         TRA.     0.1411D+28                  1440.7231     4.9680    40.4128
         TOT.                       31.309    5646.6418    35.3949    89.4787

 300.00  VIB.     0.8413D+02                  3622.6021    28.7778    20.8835
         ROT.     0.5471D+06                   894.2419     2.9808    29.2364
         INT.     0.4603D+08                  4516.8441    31.7586    50.1199
         TRA.     0.1484D+28                  1490.4032     4.9680    40.5812
         TOT.                       31.669    6007.2473    36.7266    90.7011

 310.00  VIB.     0.1032D+03                  3917.0436    30.1103    21.8488
         ROT.     0.5746D+06                   924.0500     2.9808    29.3341
         INT.     0.5928D+08                  4841.0936    33.0911    51.1829
         TRA.     0.1559D+28                  1540.0833     4.9680    40.7441
         TOT.                       32.043    6381.1769    38.0592    91.9270

 320.00  VIB.     0.1268D+03                  4224.8008    31.4404    22.8258
         ROT.     0.6027D+06                   953.8580     2.9808    29.4288
         INT.     0.7642D+08                  5178.6589    34.4212    52.2546
         TRA.     0.1635D+28                  1589.7634     4.9680    40.9018
         TOT.                       32.431    6768.4223    39.3893    93.1564

 330.00  VIB.     0.1563D+03                  4545.8346    32.7652    23.8136
         ROT.     0.6311D+06                   983.6661     2.9808    29.5205
         INT.     0.9862D+08                  5529.5007    35.7460    53.3341
         TRA.     0.1713D+28                  1639.4435     4.9680    41.0547
         TOT.                       32.831    7168.9442    40.7140    94.3888

 340.00  VIB.     0.1930D+03                  4880.0779    34.0819    24.8113
         ROT.     0.6600D+06                  1013.4742     2.9808    29.6095
         INT.     0.1274D+09                  5893.5521    37.0627    54.4208
         TRA.     0.1791D+28                  1689.1236     4.9680    41.2030
         TOT.                       33.245    7582.6757    42.0308    95.6238

 350.00  VIB.     0.2390D+03                  5227.4387    35.3883    25.8181
         ROT.     0.6894D+06                  1043.2822     2.9808    29.6959
         INT.     0.1647D+09                  6270.7210    38.3691    55.5140
         TRA.     0.1871D+28                  1738.8037     4.9680    41.3470
         TOT.                       33.672    8009.5247    43.3371    96.8610

 360.00  VIB.     0.2965D+03                  5587.8028    36.6822    26.8332
         ROT.     0.7191D+06                  1073.0903     2.9808    29.7799
         INT.     0.2133D+09                  6660.8931    39.6631    56.6131
         TRA.     0.1951D+28                  1788.4838     4.9680    41.4870
         TOT.                       34.111    8449.3769    44.6311    98.1000

 370.00  VIB.     0.3688D+03                  5961.0361    37.9619    27.8557
         ROT.     0.7493D+06                  1102.8984     2.9808    29.8615
         INT.     0.2763D+09                  7063.9345    40.9427    57.7173
         TRA.     0.2033D+28                  1838.1639     4.9680    41.6231
         TOT.                       34.564    8902.0984    45.9107    99.3404

 380.00  VIB.     0.4596D+03                  6346.9880    39.2257    28.8849
         ROT.     0.7799D+06                  1132.7064     2.9808    29.9410
         INT.     0.3584D+09                  7479.6944    42.2065    58.8259
         TRA.     0.2116D+28                  1887.8440     4.9680    41.7556
         TOT.                       35.030    9367.5384    47.1745   100.5815

 390.00  VIB.     0.5740D+03                  6745.4932    40.4724    29.9200
         ROT.     0.8109D+06                  1162.5145     2.9808    30.0185
         INT.     0.4654D+09                  7908.0077    43.4532    59.9384
         TRA.     0.2200D+28                  1937.5242     4.9680    41.8846
         TOT.                       35.508    9845.5319    48.4212   101.8231

 400.00  VIB.     0.7182D+03                  7156.3748    41.7008    30.9602
         ROT.     0.8423D+06                  1192.3226     2.9808    30.0939
         INT.     0.6049D+09                  8348.6973    44.6816    61.0541
         TRA.     0.2285D+28                  1987.2043     4.9680    42.0104
         TOT.                       35.998   10335.9016    49.6496   103.0645

   *: NOTE: HEATS OF FORMATION ARE RELATIVE TO THE
            ELEMENTS IN THEIR STANDARD STATE AT 298K
              (=  Standard Enthalpy of Formation).

            Hvib:  Zero-point energy is not included.
                   frequencies of less than zero cm-1 are not included.
            Hrot = (3/2)RT
            Htra = (3/2)RT + pV = (5/2)RT

            Heat capacity is Cp, not Cv

          For more information, see: HTTP://OpenMOPAC.net/Manual/thermochemistry.html


           FORCE CONSTANT IN CARTESIAN COORDINATES (Millidynes/A)

    ATOM   CHEMICAL       X               Y               Z
   NUMBER   SYMBOL  FORCE CONSTANT  FORCE CONSTANT  FORCE CONSTANT

      1       C        9.281080        8.997766        7.778846
      2       C        9.510931        7.740068        8.089251
      3       C        8.526191        8.564746        8.078916
      4       C        8.459999        8.904795        7.935080
      5       C        9.130881       14.922754        4.267962
      6       C       11.261501       13.903905        2.833312
      7       C       12.980717       10.845914        2.983869
      8       C       10.452265       13.354216        3.825534
      9       C       12.720487       12.009240        2.777964
     10       C       11.316270       13.289630        1.986816
     11       H        1.006594        0.757545        4.029281
     12       H        1.287797        0.960394        4.091225
     13       H        2.759909        0.809973        2.843037
     14       H        1.051209        1.687783        3.646110
     15       H        3.917494        1.126905        1.313995
     16       H        1.205595        1.728803        3.444127
     17       H        0.762123        1.464818        4.014053
     18       H        4.208169        1.359160        0.697340
     19       H        0.754019        5.024893        0.489789
     20       H        3.712666        2.042654        0.509636
     21       H        1.330221        4.776590        0.333320
     22       H        5.394672        0.699558        0.337423

 **********************
 *                    *
 * JOB ENDED NORMALLY *
 *                    *
 **********************



 TOTAL JOB TIME:             2.76 SECONDS

 == MOPAC DONE ==
