 *******************************************************************************
 **                                                                           **
 **                              MOPAC v23.1.2                                **
 **                                                                           **
 *******************************************************************************
 **          Digital Object Identifier (DOI): 10.5281/zenodo.6511958          **
 **    Visit the DOI location for information on how to cite this program.    **
 *******************************************************************************

                              PM3 CALCULATION RESULTS

 *******************************************************************************
 *  CALCULATION DONE: (MAX THREADS = 1)              Tue Jun  3 16:34:13 2025  *
 *  PM3        - The PM3 Hamiltonian to be used
 *  PRECISE    - TIGHTER CRITERIA TO BE USED
 *  NOSYM      - POINT-GROUP SYMMETRY SET TO C1
 *  THREADS=1  - MULTI-THREADING NOT USED
 *  T=         - A TIME OF 172800.0 SECONDS REQUESTED
 *  DUMP=N     - RESTART FILE WRITTEN EVERY 7200.0 SECONDS REQUESTED
 *******************************************************************************
pm3  precise nosym THREADS=1
 InChI=1S/C9H10/c1-2-5-9-7-3-6-8(9)4-1/h1-2,4-6,9H,3,7H2

   ATOM   CHEMICAL          X               Y               Z
  NUMBER   SYMBOL      (ANGSTROMS)     (ANGSTROMS)     (ANGSTROMS)

     1       C         -0.25130000  *  -0.63750000  *  -0.51380000  *
     2       C         -1.52860000  *  -0.90430000  *   0.28710000  *
     3       C         -2.17870000  *   0.47770000  *   0.45150000  *
     4       C         -0.00880000  *   0.81060000  *  -0.28350000  *
     5       C         -1.06310000  *   1.43150000  *   0.20600000  *
     6       C          0.94470000  *  -1.45870000  *  -0.09100000  *
     7       C          1.34460000  *   1.37410000  *  -0.35770000  *
     8       C          2.17490000  *  -0.91830000  *  -0.05970000  *
     9       C          2.38480000  *   0.53680000  *  -0.26870000  *
    10       H         -0.44220000  *  -0.80170000  *  -1.59710000  *
    11       H         -2.20290000  *  -1.60710000  *  -0.24850000  *
    12       H         -1.28490000  *  -1.31970000  *   1.29070000  *
    13       H         -2.59030000  *   0.60820000  *   1.47510000  *
    14       H         -2.97540000  *   0.63250000  *  -0.30760000  *
    15       H          0.82800000  *  -2.52440000  *   0.06150000  *
    16       H         -1.07410000  *   2.47360000  *   0.49930000  *
    17       H          1.50100000  *   2.44420000  *  -0.41310000  *
    18       H          3.39280000  *   0.93060000  *  -0.28180000  *
    19       H          3.02950000  *  -1.54810000  *   0.15120000  *



          CARTESIAN COORDINATES 

    NO.       ATOM           X           Y           Z

     1         C         -0.2513     -0.6375     -0.5138
     2         C         -1.5286     -0.9043      0.2871
     3         C         -2.1787      0.4777      0.4515
     4         C         -0.0088      0.8106     -0.2835
     5         C         -1.0631      1.4315      0.2060
     6         C          0.9447     -1.4587     -0.0910
     7         C          1.3446      1.3741     -0.3577
     8         C          2.1749     -0.9183     -0.0597
     9         C          2.3848      0.5368     -0.2687
    10         H         -0.4422     -0.8017     -1.5971
    11         H         -2.2029     -1.6071     -0.2485
    12         H         -1.2849     -1.3197      1.2907
    13         H         -2.5903      0.6082      1.4751
    14         H         -2.9754      0.6325     -0.3076
    15         H          0.8280     -2.5244      0.0615
    16         H         -1.0741      2.4736      0.4993
    17         H          1.5010      2.4442     -0.4131
    18         H          3.3928      0.9306     -0.2818
    19         H          3.0295     -1.5481      0.1512

  H: (PM3): J. J. P. STEWART, J. COMP. CHEM. 10, 209 (1989).
  C: (PM3): J. J. P. STEWART, J. COMP. CHEM. 10, 209 (1989).

           Empirical Formula: C9 H10  =    19 atoms



      MOLECULAR POINT GROUP   :   C1  


      RHF CALCULATION, NO. OF DOUBLY OCCUPIED LEVELS = 23


          Geometry optimization using EF

          DIAGONAL MATRIX USED AS START HESSIAN

 CYCLE:     1 TIME:   0.008 TIME LEFT:  2.00D  GRAD.:   104.734 HEAT:  42.46400
 CYCLE:     2 TIME:   0.012 TIME LEFT:  2.00D  GRAD.:    53.382 HEAT:  40.44682
 CYCLE:     3 TIME:   0.008 TIME LEFT:  2.00D  GRAD.:    65.207 HEAT:  40.23696
 CYCLE:     4 TIME:   0.008 TIME LEFT:  2.00D  GRAD.:    36.782 HEAT:  39.44717
 CYCLE:     5 TIME:   0.008 TIME LEFT:  2.00D  GRAD.:    28.982 HEAT:  39.10245
 CYCLE:     6 TIME:   0.008 TIME LEFT:  2.00D  GRAD.:    36.949 HEAT:  39.05016
 CYCLE:     7 TIME:   0.004 TIME LEFT:  2.00D  GRAD.:    30.927 HEAT:  38.75790
 CYCLE:     8 TIME:   0.012 TIME LEFT:  2.00D  GRAD.:    33.365 HEAT:  38.67509
 CYCLE:     9 TIME:   0.004 TIME LEFT:  2.00D  GRAD.:    32.026 HEAT:  38.64784
 CYCLE:    10 TIME:   0.004 TIME LEFT:  2.00D  GRAD.:    24.201 HEAT:  38.46692
 CYCLE:    11 TIME:   0.012 TIME LEFT:  2.00D  GRAD.:    18.549 HEAT:  38.39596
 CYCLE:    12 TIME:   0.004 TIME LEFT:  2.00D  GRAD.:    15.965 HEAT:  38.35585
 CYCLE:    13 TIME:   0.008 TIME LEFT:  2.00D  GRAD.:    14.222 HEAT:  38.29607
 CYCLE:    14 TIME:   0.008 TIME LEFT:  2.00D  GRAD.:    13.637 HEAT:  38.27330
 CYCLE:    15 TIME:   0.004 TIME LEFT:  2.00D  GRAD.:     7.679 HEAT:  38.22747
 CYCLE:    16 TIME:   0.008 TIME LEFT:  2.00D  GRAD.:    11.089 HEAT:  38.21079
 CYCLE:    17 TIME:   0.008 TIME LEFT:  2.00D  GRAD.:     9.249 HEAT:  38.17522
 CYCLE:    18 TIME:   0.004 TIME LEFT:  2.00D  GRAD.:    11.405 HEAT:  38.15634
 CYCLE:    19 TIME:   0.008 TIME LEFT:  2.00D  GRAD.:     7.814 HEAT:  38.12239
 CYCLE:    20 TIME:   0.004 TIME LEFT:  2.00D  GRAD.:     8.133 HEAT:  38.10638
 CYCLE:    21 TIME:   0.008 TIME LEFT:  2.00D  GRAD.:     4.405 HEAT:  38.08395
 CYCLE:    22 TIME:   0.004 TIME LEFT:  2.00D  GRAD.:     7.120 HEAT:  38.07907
 CYCLE:    23 TIME:   0.008 TIME LEFT:  2.00D  GRAD.:     3.265 HEAT:  38.06345
 CYCLE:    24 TIME:   0.008 TIME LEFT:  2.00D  GRAD.:     3.689 HEAT:  38.05854
 CYCLE:    25 TIME:   0.004 TIME LEFT:  2.00D  GRAD.:     2.548 HEAT:  38.05122
 CYCLE:    26 TIME:   0.008 TIME LEFT:  2.00D  GRAD.:     2.985 HEAT:  38.04797
 CYCLE:    27 TIME:   0.004 TIME LEFT:  2.00D  GRAD.:     2.435 HEAT:  38.04325
 CYCLE:    28 TIME:   0.008 TIME LEFT:  2.00D  GRAD.:     2.066 HEAT:  38.03862
 CYCLE:    29 TIME:   0.004 TIME LEFT:  2.00D  GRAD.:     2.030 HEAT:  38.03510
 CYCLE:    30 TIME:   0.008 TIME LEFT:  2.00D  GRAD.:     1.424 HEAT:  38.03185
 CYCLE:    31 TIME:   0.008 TIME LEFT:  2.00D  GRAD.:     1.313 HEAT:  38.02949
 CYCLE:    32 TIME:   0.004 TIME LEFT:  2.00D  GRAD.:     1.566 HEAT:  38.02374
 CYCLE:    33 TIME:   0.008 TIME LEFT:  2.00D  GRAD.:     1.311 HEAT:  38.02056
 CYCLE:    34 TIME:   0.004 TIME LEFT:  2.00D  GRAD.:     1.112 HEAT:  38.01751
 CYCLE:    35 TIME:   0.008 TIME LEFT:  2.00D  GRAD.:     1.153 HEAT:  38.01482
 CYCLE:    36 TIME:   0.004 TIME LEFT:  2.00D  GRAD.:     1.232 HEAT:  38.01192
 CYCLE:    37 TIME:   0.008 TIME LEFT:  2.00D  GRAD.:     1.002 HEAT:  38.00941
 CYCLE:    38 TIME:   0.004 TIME LEFT:  2.00D  GRAD.:     0.775 HEAT:  38.00797
 CYCLE:    39 TIME:   0.008 TIME LEFT:  2.00D  GRAD.:     0.706 HEAT:  38.00693
 CYCLE:    40 TIME:   0.008 TIME LEFT:  2.00D  GRAD.:     0.706 HEAT:  38.00615
 CYCLE:    41 TIME:   0.004 TIME LEFT:  2.00D  GRAD.:     0.532 HEAT:  38.00536
 CYCLE:    42 TIME:   0.008 TIME LEFT:  2.00D  GRAD.:     0.483 HEAT:  38.00473
 CYCLE:    43 TIME:   0.004 TIME LEFT:  2.00D  GRAD.:     0.477 HEAT:  38.00430
 CYCLE:    44 TIME:   0.008 TIME LEFT:  2.00D  GRAD.:     0.527 HEAT:  38.00373
 CYCLE:    45 TIME:   0.004 TIME LEFT:  2.00D  GRAD.:     0.609 HEAT:  38.00287
 CYCLE:    46 TIME:   0.008 TIME LEFT:  2.00D  GRAD.:     0.548 HEAT:  38.00221
 CYCLE:    47 TIME:   0.008 TIME LEFT:  2.00D  GRAD.:     0.425 HEAT:  38.00171
 CYCLE:    48 TIME:   0.004 TIME LEFT:  2.00D  GRAD.:     0.387 HEAT:  38.00134
 CYCLE:    49 TIME:   0.008 TIME LEFT:  2.00D  GRAD.:     0.346 HEAT:  38.00102
 CYCLE:    50 TIME:   0.004 TIME LEFT:  2.00D  GRAD.:     0.270 HEAT:  38.00078
 CYCLE:    51 TIME:   0.008 TIME LEFT:  2.00D  GRAD.:     0.183 HEAT:  38.00066
 CYCLE:    52 TIME:   0.008 TIME LEFT:  2.00D  GRAD.:     0.138 HEAT:  38.00060
 CYCLE:    53 TIME:   0.004 TIME LEFT:  2.00D  GRAD.:     0.120 HEAT:  38.00056
 CYCLE:    54 TIME:   0.008 TIME LEFT:  2.00D  GRAD.:     0.085 HEAT:  38.00053
 CYCLE:    55 TIME:   0.004 TIME LEFT:  2.00D  GRAD.:     0.045 HEAT:  38.00052

     GRADIENT =  0.04530 IS LESS THAN CUTOFF =  0.05000



 -------------------------------------------------------------------------------
 pm3  precise nosym THREADS=1
 InChI=1S/C9H10/c1-2-5-9-7-3-6-8(9)4-1/h1-2,4-6,9H,3,7H2



     GEOMETRY OPTIMISED USING EIGENVECTOR FOLLOWING (EF).     
     SCF FIELD WAS ACHIEVED                                   


                              PM3 CALCULATION
                                                       MOPAC v23.1.2 MacOS
                                                       Tue Jun  3 16:34:14 2025




          FINAL HEAT OF FORMATION =         38.00052 KCAL/MOL =     158.99418 KJ/MOL


          COSMO AREA              =        160.14 SQUARE ANGSTROMS
          COSMO VOLUME            =        158.51 CUBIC ANGSTROMS

          GRADIENT NORM           =          0.04530          =       0.01039 PER ATOM
          IONIZATION POTENTIAL    =          8.559848 EV
          HOMO LUMO ENERGIES (EV) =         -8.560 -0.160
          NO. OF FILLED LEVELS    =         23
          MOLECULAR WEIGHT        =        118.1780         POINT GROUP:  C1  

          MOLECULAR DIMENSIONS (Angstroms)

            Atom       Atom       Distance
            H    19    H    14     6.45917
            H    17    H    11     5.03480
            H    10    H    13     3.28513


          SCF CALCULATIONS        =         62

          WALL-CLOCK TIME         =      0.371 SECONDS
          COMPUTATION TIME        =      0.231 SECONDS




   ATOM   CHEMICAL          X               Y               Z
  NUMBER   SYMBOL      (ANGSTROMS)     (ANGSTROMS)     (ANGSTROMS)

     1       C         -0.22219576  *  -0.62369509  *  -0.49294870  *
     2       C         -1.54416176  *  -0.91435401  *   0.23946212  *
     3       C         -2.18485849  *   0.46568902  *   0.47160786  *
     4       C          0.01772233  *   0.84243085  *  -0.23437790  *
     5       C         -1.07751709  *   1.44849169  *   0.25347539  *
     6       C          0.94935298  *  -1.44717953  *  -0.08677353  *
     7       C          1.35904817  *   1.36106216  *  -0.39939557  *
     8       C          2.17529041  *  -0.90410472  *  -0.02590952  *
     9       C          2.39489546  *   0.50791493  *  -0.29433393  *
    10       H         -0.35780324  *  -0.77638885  *  -1.59308541  *
    11       H         -2.19969590  *  -1.58062963  *  -0.34747037  *
    12       H         -1.35944114  *  -1.43440507  *   1.19719341  *
    13       H         -2.61018158  *   0.56363197  *   1.48659447  *
    14       H         -3.01716846  *   0.65566199  *  -0.23176588  *
    15       H          0.77011921  *  -2.50601002  *   0.12450809  *
    16       H         -1.18478577  *   2.50344767  *   0.50237864  *
    17       H          1.49009985  *   2.43481326  *  -0.56319529  *
    18       H          3.42979331  *   0.85158852  *  -0.38800581  *
    19       H          3.05114854  *  -1.50768625  *   0.23333057  *

                             CARTESIAN COORDINATES

   1    C       -0.222195757    -0.623695090    -0.492948696
   2    C       -1.544161759    -0.914354014     0.239462120
   3    C       -2.184858491     0.465689020     0.471607860
   4    C        0.017722335     0.842430854    -0.234377897
   5    C       -1.077517087     1.448491695     0.253475392
   6    C        0.949352979    -1.447179534    -0.086773525
   7    C        1.359048168     1.361062158    -0.399395568
   8    C        2.175290413    -0.904104719    -0.025909517
   9    C        2.394895460     0.507914928    -0.294333935
  10    H       -0.357803241    -0.776388854    -1.593085413
  11    H       -2.199695903    -1.580629626    -0.347470373
  12    H       -1.359441139    -1.434405075     1.197193407
  13    H       -2.610181577     0.563631967     1.486594473
  14    H       -3.017168461     0.655661986    -0.231765875
  15    H        0.770119208    -2.506010022     0.124508089
  16    H       -1.184785771     2.503447667     0.502378641
  17    H        1.490099849     2.434813257    -0.563195290
  18    H        3.429793308     0.851588515    -0.388005807
  19    H        3.051148543    -1.507686248     0.233330575


           Empirical Formula: C9 H10  =    19 atoms



      MOLECULAR POINT GROUP   :   C1  


                  EIGENVALUES  
 -41.48381 -35.04750 -30.82761 -27.21232 -26.09362 -21.37100 -20.60504 -19.45515
 -17.34418 -17.28301 -16.11576 -15.37724 -14.72853 -14.32443 -13.67218 -13.26250
 -13.00141 -12.60849 -12.39712 -11.86330 -11.39011 -10.19712  -8.55985  -0.16047
   1.27663   2.25484   3.23295   3.29131   3.43505   3.55637   3.62004   3.76450
   3.81431   4.08240   4.09710   4.16419   4.28143   4.48815   4.84019   4.98515
   5.03992   5.35001   5.45772   5.69567   6.21412   6.28234


              NET ATOMIC CHARGES AND DIPOLE CONTRIBUTIONS

  ATOM NO.   TYPE          CHARGE      No. of ELECS.   s-Pop       p-Pop       
    1          C          -0.012537        4.0125     1.15712     2.85541
    2          C          -0.090623        4.0906     1.16745     2.92317
    3          C          -0.062877        4.0629     1.15408     2.90880
    4          C          -0.102346        4.1023     1.18890     2.91344
    5          C          -0.137600        4.1376     1.19949     2.93811
    6          C          -0.121795        4.1218     1.19644     2.92535
    7          C          -0.076250        4.0763     1.17382     2.90243
    8          C          -0.116776        4.1168     1.17994     2.93683
    9          C          -0.100403        4.1004     1.18135     2.91906
   10          H           0.078262        0.9217     0.92174
   11          H           0.050876        0.9491     0.94912
   12          H           0.055646        0.9444     0.94435
   13          H           0.056112        0.9439     0.94389
   14          H           0.056266        0.9437     0.94373
   15          H           0.102845        0.8972     0.89716
   16          H           0.114465        0.8855     0.88554
   17          H           0.104965        0.8950     0.89504
   18          H           0.100758        0.8992     0.89924
   19          H           0.101012        0.8990     0.89899
 DIPOLE           X         Y         Z       TOTAL
 POINT-CHG.    -0.313    -0.152     0.038     0.350
 HYBRID         0.001    -0.006     0.002     0.006
 SUM           -0.313    -0.158     0.040     0.352


          ATOMIC ORBITAL ELECTRON POPULATIONS

     Atom    s        px        py        pz   
    1  C   1.15712   0.93456   0.92682   0.99403
    2  C   1.16745   0.95397   0.96509   1.00411
    3  C   1.15408   0.96454   0.93636   1.00790
    4  C   1.18890   0.94646   0.95805   1.00893
    5  C   1.19949   0.95521   0.98426   0.99863
    6  C   1.19644   0.94904   0.98392   0.99240
    7  C   1.17382   0.92427   0.97803   1.00013
    8  C   1.17994   0.96793   0.95225   1.01665
    9  C   1.18135   0.97611   0.94161   1.00134
   10  H   0.92174
   11  H   0.94912
   12  H   0.94435
   13  H   0.94389
   14  H   0.94373
   15  H   0.89716
   16  H   0.88554
   17  H   0.89504
   18  H   0.89924
   19  H   0.89899
 *******************************************************************************
 **                                                                           **
 **                              MOPAC v23.1.2                                **
 **                                                                           **
 *******************************************************************************
 **          Digital Object Identifier (DOI): 10.5281/zenodo.6511958          **
 **    Visit the DOI location for information on how to cite this program.    **
 *******************************************************************************

                              PM3 CALCULATION RESULTS

 *******************************************************************************
 *  CALCULATION DONE: (MAX THREADS = 1)              Tue Jun  3 16:34:14 2025  *
 *  PM3        - The PM3 Hamiltonian to be used
 *  OLDGEO     - PREVIOUS GEOMETRY TO BE USED
 *  PRECISE    - TIGHTER CRITERIA TO BE USED
 *  NOSYM      - POINT-GROUP SYMMETRY SET TO C1
 *  THREADS=1  - MULTI-THREADING NOT USED
 *  T=         - A TIME OF 172800.0 SECONDS REQUESTED
 *  DUMP=N     - RESTART FILE WRITTEN EVERY 7200.0 SECONDS REQUESTED
 *  THERMO     - THERMODYNAMIC QUANTITIES TO BE CALCULATED
 *******************************************************************************
oldgeo thermo nosym precise THREADS=1  pm3
 InChI=1S/C9H10/c1-2-5-9-7-3-6-8(9)4-1/h1-2,4-6,9H,3,7H2

   ATOM   CHEMICAL          X               Y               Z
  NUMBER   SYMBOL      (ANGSTROMS)     (ANGSTROMS)     (ANGSTROMS)

     1       C         -0.22219576  *  -0.62369509  *  -0.49294870  *
     2       C         -1.54416176  *  -0.91435401  *   0.23946212  *
     3       C         -2.18485849  *   0.46568902  *   0.47160786  *
     4       C          0.01772233  *   0.84243085  *  -0.23437790  *
     5       C         -1.07751709  *   1.44849169  *   0.25347539  *
     6       C          0.94935298  *  -1.44717953  *  -0.08677353  *
     7       C          1.35904817  *   1.36106216  *  -0.39939557  *
     8       C          2.17529041  *  -0.90410472  *  -0.02590952  *
     9       C          2.39489546  *   0.50791493  *  -0.29433393  *
    10       H         -0.35780324  *  -0.77638885  *  -1.59308541  *
    11       H         -2.19969590  *  -1.58062963  *  -0.34747037  *
    12       H         -1.35944114  *  -1.43440507  *   1.19719341  *
    13       H         -2.61018158  *   0.56363197  *   1.48659447  *
    14       H         -3.01716846  *   0.65566199  *  -0.23176588  *
    15       H          0.77011921  *  -2.50601002  *   0.12450809  *
    16       H         -1.18478577  *   2.50344767  *   0.50237864  *
    17       H          1.49009985  *   2.43481326  *  -0.56319529  *
    18       H          3.42979331  *   0.85158852  *  -0.38800581  *
    19       H          3.05114854  *  -1.50768625  *   0.23333057  *



          CARTESIAN COORDINATES 

    NO.       ATOM           X           Y           Z

     1         C         -0.2222     -0.6237     -0.4929
     2         C         -1.5442     -0.9144      0.2395
     3         C         -2.1849      0.4657      0.4716
     4         C          0.0177      0.8424     -0.2344
     5         C         -1.0775      1.4485      0.2535
     6         C          0.9494     -1.4472     -0.0868
     7         C          1.3590      1.3611     -0.3994
     8         C          2.1753     -0.9041     -0.0259
     9         C          2.3949      0.5079     -0.2943
    10         H         -0.3578     -0.7764     -1.5931
    11         H         -2.1997     -1.5806     -0.3475
    12         H         -1.3594     -1.4344      1.1972
    13         H         -2.6102      0.5636      1.4866
    14         H         -3.0172      0.6557     -0.2318
    15         H          0.7701     -2.5060      0.1245
    16         H         -1.1848      2.5034      0.5024
    17         H          1.4901      2.4348     -0.5632
    18         H          3.4298      0.8516     -0.3880
    19         H          3.0511     -1.5077      0.2333

  H: (PM3): J. J. P. STEWART, J. COMP. CHEM. 10, 209 (1989).
  C: (PM3): J. J. P. STEWART, J. COMP. CHEM. 10, 209 (1989).

           Empirical Formula: C9 H10  =    19 atoms



      MOLECULAR POINT GROUP   :   C1  


      RHF CALCULATION, NO. OF DOUBLY OCCUPIED LEVELS = 23



          HEAT OF FORMATION =      38.000522 KCALS/MOLE


          CARTESIAN COORDINATE DERIVATIVES

   NUMBER  ATOM         X            Y            Z

     1       C     -0.000656    -0.000266    -0.000991
     2       C     -0.004573    -0.003348    -0.011227
     3       C     -0.007264    -0.002552    -0.004718
     4       C     -0.001034     0.006353     0.005360
     5       C     -0.003337     0.003845     0.003429
     6       C      0.005970    -0.000070     0.001929
     7       C     -0.000226    -0.000360     0.007277
     8       C      0.011832     0.006174     0.001775
     9       C      0.004999    -0.003150     0.003908
    10       H      0.002168     0.003974    -0.001768
    11       H     -0.010286     0.007721    -0.012802
    12       H     -0.005518    -0.004952     0.002611
    13       H      0.007655    -0.008566     0.006059
    14       H     -0.014465    -0.007755    -0.002099
    15       H      0.010641     0.006686     0.009049
    16       H     -0.003751    -0.008364    -0.009607
    17       H      0.003896     0.002319     0.004909
    18       H      0.001393    -0.003582    -0.001487
    19       H      0.002554     0.005893    -0.001608



          GRADIENT NORM =   0.04530

          MOLECULAR WEIGHT =  118.18



          ROTATIONAL CONSTANTS IN CM(-1)

          A =    0.11324135   B =    0.05212723   C =    0.03762438



           PRINCIPAL MOMENTS OF INERTIA IN UNITS OF 10**(-40)*GRAM-CM**2

          A =      247.1955   B =      537.0082   C =      744.0056


          ORIENTATION OF MOLECULE IN FORCE CALCULATION

    NO.       ATOM         X         Y         Z

     1          C       0.2612   -0.6109    0.6210
     2          C       1.8002   -0.6109    0.6210
     3          C       2.2004    0.8753    0.6210
     4          C      -0.0987    0.7844    0.1765
     5          C       0.9598    1.6105    0.2209
     6          C      -0.3963   -1.6401   -0.2299
     7          C      -1.4274    1.0197   -0.3476
     8          C      -1.5230   -1.3514   -0.8999
     9          C      -2.1060   -0.0199   -0.8677
    10          H      -0.1170   -0.7642    1.6628
    11          H       2.2098   -1.1489    1.4932
    12          H       2.1955   -1.1303   -0.2711
    13          H       3.0303    1.0847   -0.0777
    14          H       2.5447    1.2079    1.6181
    15          H       0.0582   -2.6354   -0.2560
    16          H       0.9711    2.6722   -0.0222
    17          H      -1.8207    2.0406   -0.3416
    18          H      -3.1045    0.1073   -1.2976
    19          H      -2.0379   -2.1103   -1.4978


    FIRST DERIVATIVES WILL BE USED IN THE CALCULATION OF SECOND DERIVATIVES

          ESTIMATED TIME TO COMPLETE CALCULATION =        1.78 SECONDS

    FOR POINT-GROUP C1   THERE ARE   1 UNIQUE SYMMETRY FUNCTIONS.

 STEP:   1 TIME =     0.02 SECS, INTEGRAL =      0.02 TIME LEFT: 172799.98
 STEP:   2 TIME =     0.02 SECS, INTEGRAL =      0.04 TIME LEFT: 172799.96
 STEP:   3 TIME =     0.02 SECS, INTEGRAL =      0.05 TIME LEFT: 172799.94
 STEP:   4 TIME =     0.02 SECS, INTEGRAL =      0.07 TIME LEFT: 172799.92
 STEP:   5 TIME =     0.02 SECS, INTEGRAL =      0.09 TIME LEFT: 172799.91
 STEP:   6 TIME =     0.02 SECS, INTEGRAL =      0.11 TIME LEFT: 172799.89
 STEP:   7 TIME =     0.02 SECS, INTEGRAL =      0.12 TIME LEFT: 172799.87
 STEP:   8 TIME =     0.02 SECS, INTEGRAL =      0.14 TIME LEFT: 172799.85
 STEP:   9 TIME =     0.02 SECS, INTEGRAL =      0.16 TIME LEFT: 172799.84
 STEP:  10 TIME =     0.02 SECS, INTEGRAL =      0.17 TIME LEFT: 172799.82
 STEP:  11 TIME =     0.02 SECS, INTEGRAL =      0.19 TIME LEFT: 172799.80
 STEP:  12 TIME =     0.02 SECS, INTEGRAL =      0.21 TIME LEFT: 172799.78
 STEP:  13 TIME =     0.02 SECS, INTEGRAL =      0.23 TIME LEFT: 172799.76
 STEP:  14 TIME =     0.02 SECS, INTEGRAL =      0.25 TIME LEFT: 172799.74
 STEP:  15 TIME =     0.02 SECS, INTEGRAL =      0.27 TIME LEFT: 172799.72
 STEP:  16 TIME =     0.02 SECS, INTEGRAL =      0.29 TIME LEFT: 172799.71
 STEP:  17 TIME =     0.02 SECS, INTEGRAL =      0.30 TIME LEFT: 172799.69
 STEP:  18 TIME =     0.02 SECS, INTEGRAL =      0.32 TIME LEFT: 172799.67
 STEP:  19 TIME =     0.02 SECS, INTEGRAL =      0.34 TIME LEFT: 172799.65
 STEP:  20 TIME =     0.02 SECS, INTEGRAL =      0.36 TIME LEFT: 172799.64
 STEP:  21 TIME =     0.02 SECS, INTEGRAL =      0.38 TIME LEFT: 172799.62
 STEP:  22 TIME =     0.02 SECS, INTEGRAL =      0.39 TIME LEFT: 172799.60
 STEP:  23 TIME =     0.02 SECS, INTEGRAL =      0.41 TIME LEFT: 172799.59
 STEP:  24 TIME =     0.02 SECS, INTEGRAL =      0.42 TIME LEFT: 172799.57
 STEP:  25 TIME =     0.02 SECS, INTEGRAL =      0.44 TIME LEFT: 172799.55
 STEP:  26 TIME =     0.02 SECS, INTEGRAL =      0.45 TIME LEFT: 172799.54
 STEP:  27 TIME =     0.02 SECS, INTEGRAL =      0.47 TIME LEFT: 172799.52
 STEP:  28 TIME =     0.02 SECS, INTEGRAL =      0.48 TIME LEFT: 172799.51
 STEP:  29 TIME =     0.02 SECS, INTEGRAL =      0.50 TIME LEFT: 172799.49
 STEP:  30 TIME =     0.02 SECS, INTEGRAL =      0.52 TIME LEFT: 172799.48
 STEP:  31 TIME =     0.02 SECS, INTEGRAL =      0.54 TIME LEFT: 172799.46
 STEP:  32 TIME =     0.02 SECS, INTEGRAL =      0.55 TIME LEFT: 172799.44
 STEP:  33 TIME =     0.02 SECS, INTEGRAL =      0.57 TIME LEFT: 172799.42
 STEP:  34 TIME =     0.02 SECS, INTEGRAL =      0.59 TIME LEFT: 172799.41
 STEP:  35 TIME =     0.02 SECS, INTEGRAL =      0.60 TIME LEFT: 172799.39
 STEP:  36 TIME =     0.02 SECS, INTEGRAL =      0.62 TIME LEFT: 172799.37
 STEP:  37 TIME =     0.02 SECS, INTEGRAL =      0.64 TIME LEFT: 172799.35
 STEP:  38 TIME =     0.02 SECS, INTEGRAL =      0.66 TIME LEFT: 172799.34
 STEP:  39 TIME =     0.02 SECS, INTEGRAL =      0.68 TIME LEFT: 172799.32
 STEP:  40 TIME =     0.02 SECS, INTEGRAL =      0.69 TIME LEFT: 172799.30
 STEP:  41 TIME =     0.02 SECS, INTEGRAL =      0.71 TIME LEFT: 172799.29
 STEP:  42 TIME =     0.02 SECS, INTEGRAL =      0.73 TIME LEFT: 172799.27
 STEP:  43 TIME =     0.02 SECS, INTEGRAL =      0.75 TIME LEFT: 172799.25
 STEP:  44 TIME =     0.02 SECS, INTEGRAL =      0.76 TIME LEFT: 172799.23
 STEP:  45 TIME =     0.02 SECS, INTEGRAL =      0.78 TIME LEFT: 172799.21
 STEP:  46 TIME =     0.02 SECS, INTEGRAL =      0.80 TIME LEFT: 172799.20
 STEP:  47 TIME =     0.02 SECS, INTEGRAL =      0.81 TIME LEFT: 172799.18
 STEP:  48 TIME =     0.02 SECS, INTEGRAL =      0.83 TIME LEFT: 172799.16
 STEP:  49 TIME =     0.02 SECS, INTEGRAL =      0.85 TIME LEFT: 172799.14
 STEP:  50 TIME =     0.02 SECS, INTEGRAL =      0.86 TIME LEFT: 172799.13
 STEP:  51 TIME =     0.02 SECS, INTEGRAL =      0.88 TIME LEFT: 172799.11
 STEP:  52 TIME =     0.02 SECS, INTEGRAL =      0.90 TIME LEFT: 172799.09
 STEP:  53 TIME =     0.02 SECS, INTEGRAL =      0.92 TIME LEFT: 172799.07
 STEP:  54 TIME =     0.02 SECS, INTEGRAL =      0.94 TIME LEFT: 172799.05
 STEP:  55 TIME =     0.02 SECS, INTEGRAL =      0.96 TIME LEFT: 172799.03
 STEP:  56 TIME =     0.02 SECS, INTEGRAL =      0.98 TIME LEFT: 172799.01
 STEP:  57 TIME =     0.02 SECS, INTEGRAL =      1.00 TIME LEFT: 172798.99

(To convert to Hartree/Bohr^2, multiply by (10^(-21) x N x a0^2)/(4.184 x 627.51) =  0.0642)


           FORCE MATRIX IN MILLIDYNES/ANGSTROM


                  C  1       C  2       C  3       C  4       C  5       C  6
 ------------------------------------------------------------------------------
     C    1  15.121089
     C    2   3.604976  14.220055
     C    3   0.770615   3.681764  14.596657
     C    4   4.266360   0.881436   1.227817  19.414233
     C    5   1.105261   0.880149   4.651367  10.000626  18.122851
     C    6   4.871693   0.561749   0.042766   0.728068   0.051428  17.922676
     C    7   0.596990   0.046304   0.135139   5.775088   0.894323   0.188461
     C    8   0.892994   0.050331   0.020286   0.172484   0.059309  10.097011
     C    9   0.140642   0.014187   0.028911   1.199389   0.144749   1.126824
     H   10   4.140583   0.428660   0.019203   0.408579   0.034632   0.390518
     H   11   0.436337   4.596381   0.436662   0.039210   0.038071   0.019612
     H   12   0.452479   4.551127   0.442526   0.013801   0.017545   0.032148
     H   13   0.041163   0.437264   4.543588   0.040403   0.432753   0.003783
     H   14   0.018662   0.438636   4.493566   0.036566   0.424084   0.005299
     H   15   0.431518   0.016266   0.004369   0.043002   0.006914   4.863832
     H   16   0.110011   0.041940   0.409874   0.459209   5.032008   0.017550
     H   17   0.037183   0.006977   0.006557   0.445877   0.018461   0.017460
     H   18   0.004266   0.000917   0.009142   0.122017   0.011285   0.047842
     H   19   0.121488   0.012894   0.001982   0.004631   0.000772   0.443266


                  C  7       C  8       C  9       H 10       H 11       H 12
 ------------------------------------------------------------------------------
     C    7  18.257129
     C    8   1.136210  18.156017
     C    9   9.853186   5.471764  18.104020
     H   10   0.014492   0.036735   0.018446   4.594655
     H   11   0.005497   0.002658   0.000941   0.031447   5.208655
     H   12   0.001234   0.003984   0.000900   0.036390   0.575252   5.161529
     H   13   0.018863   0.003032   0.004173   0.003604   0.019314   0.030631
     H   14   0.019336   0.003976   0.003420   0.003756   0.030473   0.035964
     H   15   0.013979   0.444230   0.124527   0.013767   0.001731   0.014932
     H   16   0.059054   0.009519   0.010546   0.016707   0.004700   0.001504
     H   17   4.874069   0.124253   0.446361   0.004322   0.001123   0.000549
     H   18   0.439969   0.433560   4.867902   0.001127   0.000087   0.000225
     H   19   0.047850   4.854744   0.434107   0.016174   0.000790   0.000823


                  H 13       H 14       H 15       H 16       H 17       H 18
 ------------------------------------------------------------------------------
     H   13   5.149861
     H   14   0.570743   5.104047
     H   15   0.000554   0.000663   5.242030
     H   16   0.017192   0.010942   0.003939   5.428968
     H   17   0.001034   0.000945   0.009814   0.006666   5.247830
     H   18   0.001293   0.001383   0.007748   0.003740   0.062254   5.232894
     H   19   0.000254   0.000262   0.065818   0.000756   0.007314   0.031811


                  H 19
 ------------------
     H   19   5.220024


          HEAT OF FORMATION =      38.000522 KCALS/MOLE

          ZERO POINT ENERGY     101.776 KCAL/MOL


           NORMAL COORDINATE ANALYSIS (Total motion = 1 Angstrom)


   Root No.       1         2         3         4         5         6         7         8

                 1 A       2 A       3 A       4 A       5 A       6 A       7 A       8 A   

                 113.5     171.9     252.2     353.8     421.4     467.1     539.1     552.3
  
           1   -0.0096    0.0050    0.0055   -0.0234    0.0075    0.0054    0.0291   -0.0323
           2   -0.0011    0.0017   -0.0044    0.0335    0.0079   -0.0222    0.0231   -0.0045
           3    0.0136   -0.0311   -0.0226    0.0039   -0.0433    0.0187    0.0291    0.0177
           4   -0.0095    0.0035    0.0046   -0.0309    0.0074    0.0129    0.0465   -0.0257
           5   -0.0029    0.0025    0.0031   -0.0148    0.0066    0.0060   -0.0040    0.0350
           6    0.0511    0.0297    0.0196   -0.0169    0.0099    0.0019    0.0081   -0.0017
           7    0.0049   -0.0006    0.0093    0.0057    0.0128   -0.0054    0.0402    0.0269
           8   -0.0071    0.0037    0.0033   -0.0290    0.0089    0.0163   -0.0079    0.0314
           9   -0.0387    0.0414   -0.0249   -0.0039    0.0069   -0.0041    0.0109    0.0016
          10   -0.0056    0.0162    0.0022    0.0005    0.0224    0.0077   -0.0055    0.0281
          11   -0.0015    0.0008   -0.0001    0.0354    0.0084   -0.0333   -0.0018    0.0107
          12    0.0107   -0.0433   -0.0009   -0.0173   -0.0447   -0.0249    0.0008    0.0463
          13    0.0004    0.0166   -0.0101    0.0164    0.0141   -0.0178    0.0164    0.0289
          14   -0.0085   -0.0012    0.0130    0.0152    0.0173   -0.0067   -0.0227    0.0215
          15   -0.0244   -0.0234    0.0561    0.0258    0.0104    0.0120    0.0164   -0.0029
          16    0.0151    0.0146    0.0010    0.0165   -0.0388   -0.0225   -0.0174   -0.0412
          17    0.0095    0.0048   -0.0047    0.0089   -0.0228   -0.0145    0.0732   -0.0011
          18   -0.0209   -0.0427   -0.0174    0.0097    0.0263    0.0272    0.0074   -0.0187
          19   -0.0142    0.0025    0.0144   -0.0093   -0.0157    0.0213   -0.0303    0.0452
          20   -0.0013   -0.0008    0.0015    0.0001   -0.0147    0.0071   -0.0501   -0.0383
          21    0.0304   -0.0104   -0.0293   -0.0139    0.0409   -0.0328   -0.0162    0.0032
          22    0.0203   -0.0218   -0.0253    0.0272   -0.0051    0.0214   -0.0246   -0.0392
          23    0.0124   -0.0046   -0.0117   -0.0129   -0.0091    0.0281    0.0101   -0.0370
          24   -0.0284    0.0136    0.0227   -0.0119   -0.0269   -0.0317   -0.0148   -0.0403
          25   -0.0024   -0.0312   -0.0025   -0.0029    0.0078   -0.0247   -0.0707    0.0086
          26    0.0022   -0.0089   -0.0017   -0.0266   -0.0034    0.0077   -0.0169   -0.0225
          27    0.0082    0.0493   -0.0023    0.0257   -0.0145    0.0335   -0.0393    0.0140
          28   -0.0379   -0.0301   -0.0133   -0.0341   -0.0036    0.0240    0.0630   -0.0369
          29   -0.0133    0.0049   -0.0109    0.0665    0.0557    0.0077    0.0235   -0.0452
          30    0.0011   -0.0428   -0.0291    0.0045   -0.0379    0.0291    0.0408    0.0089
          31   -0.0364   -0.0314   -0.0246   -0.0320   -0.0357    0.0363    0.0561   -0.0011
          32    0.0565    0.0071    0.0435   -0.0468    0.0271    0.0162   -0.0166    0.0184
          33    0.1008    0.0492    0.0589   -0.0364    0.0437   -0.0033   -0.0040   -0.0255
          34    0.0135    0.0415    0.0358   -0.0636    0.0480    0.0093    0.0280   -0.0565
          35   -0.0692   -0.0005   -0.0389   -0.0104   -0.0156    0.0140   -0.0006    0.0582
          36    0.1000    0.0485    0.0585   -0.0354    0.0425   -0.0038   -0.0019   -0.0289
          37   -0.0235    0.0390   -0.0543   -0.0075    0.0107   -0.0285    0.0258    0.0278
          38   -0.0513    0.0021   -0.0087   -0.0430    0.0049    0.0292    0.0055    0.0030
          39   -0.0863    0.0884   -0.1057   -0.0244    0.0031   -0.0285   -0.0036   -0.0070
          40    0.0539   -0.0593    0.1063    0.0438    0.0200    0.0172    0.0589    0.0481
          41    0.0390    0.0109    0.0109   -0.0556    0.0081    0.0231   -0.0056    0.0318
          42   -0.0712    0.0596   -0.0619   -0.0088    0.0047   -0.0148    0.0037   -0.0062
          43    0.0298    0.0418    0.0056    0.0521   -0.1041   -0.0532   -0.0025   -0.0175
          44    0.0168    0.0187   -0.0021    0.0250   -0.0550   -0.0284    0.0799    0.0099
          45   -0.0425   -0.0884   -0.0306    0.0141    0.1290    0.0314   -0.0192   -0.0264
          46    0.0017    0.0263   -0.0277    0.0474    0.0104   -0.0535    0.0359    0.0245
          47   -0.0124   -0.0029    0.0295    0.0247    0.0330   -0.0008   -0.0240    0.0040
          48   -0.0421   -0.0299    0.1267    0.0691    0.0792    0.0360    0.0109   -0.0817
          49   -0.0275    0.0087    0.0345   -0.0398   -0.0735    0.0607   -0.0377    0.0482
          50   -0.0067    0.0016    0.0097   -0.0117   -0.0376    0.0222   -0.0526   -0.0364
          51    0.0621   -0.0147   -0.0746   -0.0223    0.1583   -0.0454    0.0029   -0.0333
          52   -0.0075   -0.0579    0.0033   -0.0282   -0.0022   -0.0693   -0.0691    0.0018
          53   -0.0034   -0.0159    0.0083   -0.0571   -0.0002   -0.0134   -0.0143    0.0309
          54    0.0187    0.1095   -0.0132    0.0751    0.0093    0.1324   -0.0422    0.0451
          55    0.0403   -0.0360   -0.0539    0.0636   -0.0186    0.0776    0.0362   -0.0303
          56    0.0232   -0.0016   -0.0209   -0.0082   -0.0094    0.0679   -0.0310   -0.0163
          57   -0.0593    0.0223    0.0589   -0.0485   -0.0147   -0.1310   -0.0152   -0.0738


   Root No.       9        10        11        12        13        14        15        16

                 9 A      10 A      11 A      12 A      13 A      14 A      15 A      16 A   

                 662.7     698.6     746.4     807.1     822.6     849.4     877.5     931.3
  
           1    0.0158   -0.0227    0.0051   -0.0146   -0.0013    0.0042    0.0086   -0.0085
           2    0.0066   -0.0067   -0.0003    0.0003   -0.0022    0.0102   -0.0217   -0.0127
           3   -0.0357   -0.0075    0.0062    0.0153    0.0076    0.0137    0.0126    0.0357
           4    0.0244   -0.0071   -0.0021   -0.0072    0.0163    0.0315    0.0107    0.0134
           5   -0.0092    0.0439   -0.0069    0.0147   -0.0044   -0.0105   -0.0071   -0.0050
           6   -0.0054    0.0047    0.0051   -0.0112   -0.0056    0.0232    0.0260   -0.0035
           7    0.0031    0.0588   -0.0140    0.0217   -0.0010   -0.0078   -0.0051    0.0030
           8   -0.0094    0.0164   -0.0033    0.0023   -0.0001   -0.0042   -0.0046    0.0020
           9   -0.0015    0.0217    0.0066   -0.0283   -0.0011    0.0049   -0.0067   -0.0115
          10   -0.0287   -0.0271    0.0008   -0.0057   -0.0075   -0.0131    0.0036    0.0091
          11    0.0326   -0.0038   -0.0012   -0.0086    0.0079   -0.0010    0.0289    0.0069
          12    0.0524   -0.0051    0.0069    0.0077    0.0015   -0.0146    0.0146   -0.0284
          13    0.0028    0.0190   -0.0080    0.0061   -0.0028   -0.0087    0.0147    0.0021
          14   -0.0010   -0.0542    0.0051   -0.0207   -0.0017   -0.0198    0.0330    0.0196
          15   -0.0005    0.0109    0.0049   -0.0038    0.0094   -0.0164   -0.0207    0.0279
          16   -0.0122    0.0093    0.0123    0.0046   -0.0195   -0.0163    0.0003   -0.0005
          17   -0.0081   -0.0358    0.0167    0.0081   -0.0097    0.0255   -0.0329   -0.0142
          18    0.0056   -0.0057   -0.0148   -0.0056    0.0145   -0.0097   -0.0056   -0.0124
          19   -0.0131   -0.0376    0.0133    0.0023    0.0013   -0.0123   -0.0128   -0.0170
          20    0.0162    0.0334   -0.0007    0.0043    0.0253    0.0336    0.0003    0.0121
          21   -0.0155   -0.0105   -0.0184   -0.0081   -0.0250    0.0117   -0.0131    0.0016
          22    0.0049    0.0112    0.0086    0.0036   -0.0209   -0.0193    0.0003    0.0033
          23   -0.0060    0.0036    0.0053   -0.0008   -0.0221   -0.0355    0.0098   -0.0009
          24   -0.0196    0.0075   -0.0123   -0.0074    0.0108   -0.0331    0.0079   -0.0183
          25   -0.0020   -0.0052    0.0062    0.0050    0.0272    0.0413   -0.0174   -0.0052
          26   -0.0108    0.0056    0.0024    0.0003    0.0042   -0.0093    0.0018   -0.0042
          27    0.0178   -0.0028   -0.0112   -0.0058   -0.0168    0.0241   -0.0145    0.0154
          28    0.0515   -0.0354   -0.0032   -0.0160    0.0413    0.0086   -0.0012   -0.0066
          29   -0.0377   -0.0327   -0.0389   -0.0160    0.0072    0.0406   -0.0721   -0.0012
          30   -0.0279   -0.0167   -0.0026    0.0124    0.0236    0.0186   -0.0003    0.0360
          31   -0.0347   -0.0008    0.0176   -0.0158    0.0104    0.0953    0.1037    0.0842
          32    0.0349   -0.0170   -0.0302    0.0795    0.0288   -0.0647   -0.0415    0.0750
          33    0.0530   -0.0391   -0.0193    0.0342    0.0193   -0.0427   -0.0405    0.0144
          34    0.0900   -0.0375   -0.0193   -0.0137    0.0412   -0.0119   -0.0431   -0.0252
          35   -0.0592    0.1015    0.0175   -0.0552   -0.0305    0.0570    0.0517   -0.0685
          36    0.0554   -0.0437   -0.0179    0.0293    0.0220   -0.0379   -0.0356    0.0178
          37    0.0250    0.0215   -0.0482    0.1141   -0.0072   -0.0323    0.0269    0.0123
          38    0.0144   -0.0068   -0.0147    0.0424    0.0325   -0.0128   -0.0692    0.0723
          39    0.0331   -0.0355   -0.0388    0.0985    0.0016   -0.0285    0.0113    0.0225
          40   -0.0366    0.1388    0.0354   -0.1216   -0.0048    0.0018   -0.0325   -0.0186
          41   -0.0199    0.0448    0.0023   -0.0212   -0.0151    0.0634    0.0467   -0.0745
          42    0.0174   -0.0164   -0.0142    0.0341    0.0058   -0.0223   -0.0141    0.0236
          43   -0.0624   -0.0115   -0.0677   -0.0080    0.1021   -0.0031   -0.0400   -0.0320
          44   -0.0334   -0.0457   -0.0231    0.0015    0.0501    0.0311   -0.0507   -0.0285
          45    0.0900    0.0159    0.1033    0.0281   -0.1519    0.0254   -0.0463   -0.0202
          46    0.0459    0.0286    0.0060   -0.0464    0.0184   -0.0314    0.0521    0.0649
          47   -0.0188   -0.0660   -0.0152    0.0179   -0.0158    0.0085    0.0666   -0.0121
          48   -0.0779   -0.0424   -0.0831    0.1653   -0.0524    0.1083    0.1215   -0.1132
          49   -0.0121   -0.0579   -0.0331   -0.0095   -0.1009   -0.0093   -0.0630   -0.0355
          50    0.0177    0.0254   -0.0195   -0.0005   -0.0149    0.0358   -0.0185    0.0056
          51   -0.1203    0.0001    0.1013    0.0234    0.1576   -0.0777   -0.0027   -0.0314
          52   -0.0146   -0.0120   -0.0674   -0.0306   -0.0305    0.0506   -0.0348    0.0369
          53   -0.0317   -0.0409   -0.0310   -0.0196   -0.0251    0.0085   -0.0312   -0.0017
          54    0.0392   -0.0029    0.1510    0.0714    0.1085    0.0083    0.0130   -0.0834
          55    0.0080   -0.0171   -0.0861   -0.0408    0.0264   -0.0631   -0.0045   -0.0753
          56    0.0034    0.0097   -0.0509   -0.0284    0.0157   -0.0370    0.0281   -0.0079
          57   -0.0344    0.0231    0.1411    0.0661   -0.0789    0.0054   -0.0130    0.0566


   Root No.      17        18        19        20        21        22        23        24

                17 A      18 A      19 A      20 A      21 A      22 A      23 A      24 A   

                 962.2     985.6    1001.6    1027.1    1032.0    1049.8    1066.0    1082.5
  
           1   -0.0004   -0.0032    0.0013   -0.0010   -0.0151    0.0192   -0.0012   -0.0153
           2    0.0008    0.0149   -0.0076    0.0075    0.0058    0.0002    0.0006   -0.0106
           3    0.0015   -0.0130    0.0088   -0.0094    0.0189    0.0124    0.0086    0.0210
           4    0.0008    0.0162   -0.0042    0.0041    0.0141   -0.0190    0.0032   -0.0024
           5    0.0023   -0.0177    0.0084    0.0421   -0.0079    0.0154   -0.0011   -0.0316
           6    0.0049    0.0227   -0.0034    0.0012   -0.0133   -0.0059    0.0003   -0.0204
           7   -0.0013    0.0154   -0.0050   -0.0360   -0.0075    0.0049    0.0081    0.0014
           8   -0.0030    0.0051   -0.0038   -0.0308    0.0067   -0.0077   -0.0024    0.0261
           9   -0.0083   -0.0238    0.0014   -0.0110    0.0201    0.0054    0.0061   -0.0035
          10   -0.0014   -0.0033    0.0063   -0.0075   -0.0038   -0.0034   -0.0011    0.0078
          11   -0.0016   -0.0019   -0.0027    0.0005    0.0083   -0.0053    0.0016    0.0020
          12   -0.0023    0.0092   -0.0211    0.0004    0.0162   -0.0021    0.0010   -0.0085
          13   -0.0022   -0.0117    0.0030    0.0081    0.0102   -0.0098   -0.0052    0.0122
          14   -0.0057    0.0015    0.0036   -0.0259   -0.0094    0.0061    0.0201   -0.0017
          15    0.0058    0.0225    0.0048    0.0172   -0.0299    0.0064   -0.0073    0.0189
          16    0.0154    0.0075    0.0086    0.0030    0.0161    0.0101    0.0119    0.0084
          17    0.0220   -0.0136    0.0157   -0.0076   -0.0184   -0.0029   -0.0218   -0.0009
          18   -0.0227   -0.0089   -0.0117    0.0015   -0.0242   -0.0248   -0.0061   -0.0118
          19    0.0127    0.0014   -0.0184    0.0118    0.0048   -0.0030   -0.0102   -0.0067
          20    0.0107   -0.0062    0.0017   -0.0106   -0.0084   -0.0016    0.0206    0.0066
          21   -0.0293    0.0064    0.0321    0.0026   -0.0024   -0.0010    0.0001    0.0045
          22   -0.0180   -0.0061   -0.0181    0.0008   -0.0068   -0.0103   -0.0050   -0.0032
          23   -0.0131   -0.0030   -0.0112   -0.0032   -0.0014    0.0004   -0.0375   -0.0080
          24    0.0226    0.0097    0.0258   -0.0039    0.0092    0.0069   -0.0148    0.0027
          25   -0.0021   -0.0021    0.0208   -0.0073   -0.0060    0.0126   -0.0327   -0.0066
          26   -0.0067    0.0069    0.0064    0.0046    0.0037   -0.0051    0.0207    0.0048
          27    0.0258   -0.0146   -0.0334   -0.0014   -0.0071   -0.0011   -0.0086   -0.0058
          28   -0.0291   -0.1179   -0.0113    0.0105   -0.0250    0.1893    0.0741    0.0433
          29   -0.0865    0.1626   -0.1073    0.0677    0.1511    0.1539   -0.0140   -0.0025
          30   -0.0223   -0.0331   -0.0112    0.0033    0.0364    0.0984    0.0336    0.0445
          31    0.0315    0.0656    0.0331    0.0879   -0.0059   -0.0360    0.0123   -0.1239
          32    0.0082   -0.0657    0.0532    0.1070    0.0222    0.0285    0.0037   -0.0763
          33   -0.0065   -0.0330    0.0073    0.0006    0.0159    0.0123    0.0009    0.0080
          34   -0.0293   -0.0675   -0.0214    0.0149    0.0404   -0.0140    0.0056    0.0874
          35    0.0002    0.0056   -0.0188    0.0708   -0.0388   -0.0104   -0.0152   -0.0136
          36   -0.0077   -0.0301    0.0052   -0.0111    0.0189    0.0115    0.0089    0.0104
          37    0.0122    0.0613   -0.0143   -0.0331   -0.1014    0.0640    0.0335   -0.0072
          38    0.0056    0.0259    0.0175   -0.0501    0.1429   -0.1643   -0.0659    0.0249
          39    0.0113    0.0398   -0.0033   -0.0142   -0.0518    0.0282    0.0166   -0.0142
          40   -0.0303   -0.0767    0.0161   -0.0820    0.0739    0.0120    0.0450   -0.0916
          41   -0.0004    0.0336   -0.0530    0.0430   -0.0664    0.0199   -0.0487    0.2532
          42    0.0015   -0.0003    0.0111   -0.0187    0.0155   -0.0060    0.0091   -0.0490
          43   -0.0832   -0.0008   -0.0442    0.0330   -0.0398   -0.0988    0.1145    0.0030
          44   -0.0275   -0.0182   -0.0104    0.0055   -0.0457   -0.0519    0.0187   -0.0056
          45    0.1491    0.0245    0.0599    0.0154    0.0420   -0.0144    0.1050    0.0448
          46   -0.0046   -0.0529    0.0431    0.2036    0.0273   -0.0541   -0.0485    0.1150
          47   -0.0074   -0.0239   -0.0014   -0.0297    0.0176   -0.0022    0.0223   -0.0056
          48   -0.0007   -0.0895   -0.0166    0.0140    0.0864   -0.0277   -0.0024   -0.0007
          49   -0.0660    0.0377    0.0402    0.0610   -0.0028   -0.0416    0.1386    0.0141
          50   -0.0207    0.0080    0.0255    0.0080   -0.0114   -0.0167    0.0806    0.0153
          51    0.1447   -0.0083   -0.1275    0.0314    0.0121   -0.0222    0.0699   -0.0071
          52    0.0632   -0.0303   -0.0559   -0.0046   -0.0130    0.0055   -0.0304   -0.0117
          53    0.0289    0.0116   -0.0447    0.0618    0.0299   -0.0126    0.0891   -0.0083
          54   -0.1147    0.0519    0.1301    0.0101    0.0157    0.0130    0.0036    0.0010
          55    0.0932    0.0122    0.0828   -0.0063   -0.0240   -0.0416    0.0384    0.0238
          56    0.0322    0.0263    0.0141   -0.0038    0.0486    0.0625   -0.0801   -0.0225
          57   -0.1304   -0.0436   -0.0932    0.0031   -0.0405   -0.0470   -0.0001   -0.0026


   Root No.      25        26        27        28        29        30        31        32

                25 A      26 A      27 A      28 A      29 A      30 A      31 A      32 A   

                1103.7    1118.3    1121.2    1144.2    1181.8    1201.2    1251.2    1267.3
  
           1    0.0037   -0.0209    0.0074    0.0064    0.0050    0.0385    0.0523   -0.0151
           2   -0.0003   -0.0013    0.0130   -0.0169    0.0201   -0.0277   -0.0048    0.0191
           3    0.0083    0.0163   -0.0105    0.0021    0.0134    0.0022    0.0184    0.0085
           4   -0.0048    0.0224   -0.0100   -0.0050    0.0168   -0.0106   -0.0119    0.0534
           5    0.0151    0.0043   -0.0081    0.0015    0.0041    0.0013    0.0200    0.0424
           6    0.0310   -0.0176    0.0090   -0.0024   -0.0094   -0.0045   -0.0090   -0.0033
           7    0.0030   -0.0007    0.0041    0.0002    0.0090    0.0028   -0.0122   -0.0026
           8   -0.0109   -0.0129    0.0080    0.0018   -0.0006    0.0243   -0.0212   -0.0249
           9   -0.0350    0.0027    0.0028   -0.0011    0.0056   -0.0005    0.0013    0.0065
          10   -0.0019    0.0025   -0.0057   -0.0012   -0.0208   -0.0018    0.0195    0.0049
          11   -0.0012   -0.0003    0.0049    0.0028    0.0065   -0.0264    0.0074   -0.0094
          12   -0.0077   -0.0062   -0.0079   -0.0001   -0.0101    0.0107    0.0065   -0.0017
          13   -0.0053   -0.0059    0.0002    0.0005   -0.0205   -0.0198    0.0325   -0.0147
          14    0.0043    0.0085   -0.0108   -0.0018    0.0035    0.0104   -0.0070    0.0068
          15    0.0041    0.0021    0.0021    0.0002   -0.0034   -0.0084    0.0078   -0.0029
          16    0.0033    0.0052    0.0064    0.0027    0.0065   -0.0019    0.0088   -0.0075
          17   -0.0033   -0.0032   -0.0101    0.0028    0.0004    0.0104   -0.0016   -0.0211
          18   -0.0030    0.0007    0.0058    0.0013    0.0090    0.0045    0.0105   -0.0128
          19   -0.0005    0.0008    0.0031    0.0014   -0.0059   -0.0059   -0.0144    0.0194
          20   -0.0026   -0.0095   -0.0146    0.0067   -0.0095    0.0110    0.0176   -0.0012
          21    0.0009    0.0006    0.0001    0.0002   -0.0040   -0.0057   -0.0024    0.0082
          22   -0.0023   -0.0001    0.0028    0.0030    0.0077   -0.0054   -0.0013   -0.0095
          23   -0.0022    0.0061    0.0024   -0.0065   -0.0083   -0.0053   -0.0277    0.0084
          24   -0.0009    0.0026   -0.0010   -0.0015    0.0011   -0.0064   -0.0113   -0.0029
          25    0.0016    0.0022    0.0002   -0.0023    0.0080    0.0010   -0.0183   -0.0028
          26    0.0001    0.0019    0.0026    0.0074   -0.0134    0.0035    0.0059    0.0168
          27   -0.0007   -0.0015   -0.0014    0.0031    0.0002    0.0029   -0.0064    0.0028
          28    0.0845   -0.1053    0.1018   -0.0391   -0.0652   -0.1031   -0.1007    0.0064
          29   -0.0219   -0.0268   -0.0760    0.0552   -0.0685    0.0754    0.0049   -0.0258
          30    0.0361   -0.0186    0.0102   -0.0034   -0.0262   -0.0325   -0.0356    0.0083
          31   -0.1309   -0.0103    0.0223   -0.0123   -0.0614   -0.0661   -0.0943   -0.1345
          32   -0.1528    0.0168   -0.0065    0.0052   -0.0379   -0.0247    0.0138   -0.0952
          33   -0.0126    0.0057   -0.0049    0.0030    0.0019    0.0048    0.0232    0.0004
          34    0.0886    0.1499   -0.1211    0.0188   -0.0187   -0.0612   -0.0420   -0.1323
          35    0.1602    0.0554   -0.0739    0.0179   -0.0509   -0.0390    0.0129   -0.1121
          36   -0.0114    0.0091   -0.0026   -0.0011    0.0063   -0.0040   -0.0167    0.0032
          37    0.0120    0.0352   -0.0208    0.0059    0.0264    0.0460   -0.0799   -0.0345
          38    0.1151   -0.1102    0.0596   -0.0047   -0.0382   -0.0477    0.0324   -0.0326
          39    0.0137    0.0138   -0.0094    0.0034    0.0135    0.0275   -0.0565   -0.0302
          40   -0.0334    0.0149   -0.0157    0.0067    0.0221    0.0526   -0.0866   -0.0417
          41   -0.1409    0.0038    0.0394   -0.0124    0.0129   -0.0518    0.0355    0.0079
          42    0.0211   -0.0083   -0.0010    0.0016   -0.0030    0.0088    0.0040    0.0064
          43   -0.0026    0.0712    0.0841   -0.0998   -0.1164    0.0740   -0.0184    0.0292
          44   -0.0061    0.0252    0.0231   -0.0427   -0.0516    0.0427   -0.0145   -0.0064
          45    0.0079    0.0694    0.0490   -0.0764   -0.1033    0.0602   -0.0243    0.0178
          46    0.0496   -0.0616    0.0005   -0.0099    0.0598    0.1863   -0.1282    0.0085
          47    0.0014    0.0042   -0.0108   -0.0031    0.0067    0.0184   -0.0134    0.0066
          48   -0.0073   -0.0176    0.0036   -0.0052    0.0128    0.0325   -0.0230   -0.0001
          49   -0.0033   -0.0888   -0.0806   -0.1324    0.1227   -0.0573   -0.0149   -0.0682
          50   -0.0036   -0.0443   -0.0470   -0.0432    0.0399   -0.0085    0.0200   -0.0358
          51   -0.0074   -0.0511   -0.0499   -0.0641    0.0599   -0.0172   -0.0064   -0.0368
          52    0.0014    0.0015    0.0032    0.0062    0.0119    0.0013   -0.0194   -0.0053
          53    0.0347    0.0783    0.1690    0.2380    0.1055   -0.0036    0.0077   -0.0813
          54    0.0101    0.0217    0.0407    0.0545    0.0298   -0.0012   -0.0099   -0.0209
          55   -0.0296   -0.0703   -0.0757    0.1877   -0.0521   -0.0344   -0.0728    0.0661
          56    0.0262    0.0738    0.0750   -0.1834    0.0477    0.0219    0.0370   -0.0644
          57   -0.0141   -0.0215   -0.0241    0.0661   -0.0193   -0.0166   -0.0371    0.0239


   Root No.      33        34        35        36        37        38        39        40

                33 A      34 A      35 A      36 A      37 A      38 A      39 A      40 A   

                1343.1    1375.0    1402.4    1411.8    1417.6    1500.9    1808.2    1832.2
  
           1   -0.0089    0.0131   -0.0109    0.0578   -0.0031   -0.0118    0.0049   -0.0171
           2    0.0234    0.0516    0.0086    0.0233    0.0169   -0.0925    0.0056   -0.0105
           3   -0.0004    0.0072   -0.0103    0.0362    0.0023   -0.0088    0.0024   -0.0155
           4    0.0096   -0.0144   -0.0222   -0.0340    0.0178    0.0106    0.0018    0.0016
           5   -0.0056   -0.0180    0.0090   -0.0028   -0.0419    0.0038    0.0004   -0.0039
           6    0.0032   -0.0019   -0.0002   -0.0057    0.0000    0.0020    0.0008   -0.0003
           7   -0.0403   -0.0091    0.0482    0.0201    0.0260    0.0203   -0.0068   -0.0032
           8    0.0762   -0.0043   -0.0106    0.0062    0.0180    0.0066    0.0001    0.0003
           9   -0.0169   -0.0029    0.0136    0.0037    0.0056    0.0031   -0.0020   -0.0002
          10    0.0085    0.0023    0.0066   -0.0318   -0.0036   -0.0591   -0.0299   -0.0545
          11    0.0016   -0.0153   -0.0283    0.0359   -0.0050    0.0948   -0.0324   -0.0378
          12    0.0014   -0.0002    0.0082   -0.0203   -0.0005   -0.0395    0.0040   -0.0036
          13    0.0362   -0.0190   -0.0232   -0.0154   -0.0123   -0.0266    0.0520    0.0531
          14   -0.0383   -0.0072    0.0198   -0.0179    0.0026   -0.0219    0.0264    0.0335
          15    0.0146   -0.0017   -0.0090    0.0011   -0.0030   -0.0015    0.0055    0.0038
          16    0.0070    0.0130    0.0094   -0.0205   -0.0017    0.0239   -0.0497    0.1447
          17   -0.0042   -0.0145    0.0090   -0.0381   -0.0073    0.0363    0.0105   -0.0097
          18    0.0039    0.0063    0.0099   -0.0249   -0.0041    0.0266   -0.0312    0.0951
          19    0.0044    0.0305    0.0028    0.0156    0.0017    0.0684   -0.1071   -0.0217
          20    0.0037    0.0054    0.0085   -0.0211   -0.0018   -0.0243   -0.1281   -0.0319
          21    0.0044    0.0134    0.0014    0.0027    0.0000    0.0271   -0.0725   -0.0173
          22    0.0032   -0.0006    0.0075   -0.0258   -0.0018    0.0140    0.0570   -0.1431
          23   -0.0123   -0.0304   -0.0187    0.0340    0.0035   -0.0451   -0.0548    0.0554
          24   -0.0018   -0.0106   -0.0012   -0.0065   -0.0000   -0.0040    0.0222   -0.0782
          25   -0.0112   -0.0216   -0.0090    0.0181    0.0022   -0.0210    0.0671    0.0368
          26    0.0078    0.0382    0.0116   -0.0001    0.0015    0.0546    0.1779    0.0245
          27   -0.0036   -0.0007   -0.0011    0.0082    0.0014    0.0013    0.0680    0.0229
          28    0.0079   -0.0077    0.0079   -0.0622    0.0136    0.0038   -0.0049    0.0013
          29   -0.0302   -0.0560   -0.0015   -0.0291   -0.0188    0.0458    0.0075   -0.0048
          30   -0.0027   -0.0167   -0.0037   -0.0170    0.0028    0.0165   -0.0033   -0.0001
          31    0.0180    0.0236    0.0994    0.0432   -0.0928   -0.0242   -0.0010    0.0024
          32   -0.0955    0.0440   -0.0369   -0.0192    0.1684   -0.0053   -0.0027   -0.0002
          33   -0.0506    0.0161   -0.0747   -0.0438    0.1591    0.0121    0.0008    0.0010
          34    0.0316    0.0369    0.0882    0.0880   -0.0903   -0.0398   -0.0007   -0.0035
          35   -0.0682    0.0459   -0.0478   -0.0178    0.1719   -0.0085    0.0005   -0.0029
          36    0.0433   -0.0139    0.0715    0.0496   -0.1490   -0.0121    0.0001   -0.0048
          37   -0.0153    0.0642   -0.0909   -0.0236   -0.0601    0.0007   -0.0061   -0.0071
          38   -0.1903    0.0439   -0.0205   -0.0202   -0.0777   -0.0226    0.0064    0.0069
          39   -0.0557    0.0868   -0.1349   -0.0481   -0.1085   -0.0262   -0.0009   -0.0049
          40   -0.0534    0.0982   -0.1488   -0.0527   -0.1100   -0.0198   -0.0051   -0.0037
          41   -0.1632    0.0351   -0.0127   -0.0132   -0.0639   -0.0204    0.0050    0.0068
          42    0.0595   -0.0447    0.0681    0.0295    0.0672    0.0232   -0.0032   -0.0005
          43   -0.0336   -0.0485   -0.0381    0.0766    0.0015   -0.0268   -0.0174    0.0073
          44   -0.0220   -0.0424   -0.0110    0.0016   -0.0060    0.0129    0.0343   -0.0976
          45   -0.0314   -0.0515   -0.0295    0.0504   -0.0019   -0.0110    0.0007   -0.0301
          46   -0.0038    0.0364    0.0497   -0.0111    0.0279   -0.0288   -0.0175   -0.0134
          47   -0.0402   -0.0069    0.0232   -0.0186    0.0048   -0.0232    0.0336    0.0419
          48    0.0133    0.0106    0.0038    0.0056    0.0060   -0.0038   -0.0073   -0.0162
          49   -0.0219   -0.0844   -0.0389    0.0359   -0.0026   -0.0025    0.0687    0.0229
          50   -0.0059   -0.0388   -0.0070   -0.0159   -0.0040   -0.0539   -0.0906   -0.0252
          51   -0.0126   -0.0433   -0.0165    0.0122   -0.0016   -0.0105    0.0057    0.0095
          52   -0.0129   -0.0262   -0.0106    0.0199    0.0023   -0.0250    0.0872    0.0415
          53   -0.0129   -0.0783   -0.0064   -0.0397   -0.0038   -0.0924   -0.0481   -0.0589
          54   -0.0096   -0.0312   -0.0059   -0.0006    0.0005   -0.0366    0.0264    0.0074
          55   -0.0175   -0.0220   -0.0281    0.0752    0.0113   -0.0601    0.0239   -0.0070
          56    0.0060   -0.0136    0.0142   -0.0610   -0.0089    0.0210   -0.0126   -0.1016
          57   -0.0093   -0.0199   -0.0139    0.0269    0.0046   -0.0284    0.0144   -0.0417


   Root No.      41        42        43        44        45        46        47        48

                41 A      42 A      43 A      44 A      45 A      46 A      47 A      48 A   

                1889.0    2853.9    2973.6    2994.0    3054.9    3055.2    3061.7    3070.9
  
           1   -0.0141    0.0238   -0.0004    0.0006    0.0003    0.0002   -0.0001   -0.0006
           2   -0.0098    0.0102   -0.0002    0.0002    0.0003    0.0001    0.0001    0.0002
           3   -0.0069   -0.0648    0.0007   -0.0015    0.0000    0.0002   -0.0001   -0.0003
           4   -0.0038    0.0010   -0.0005    0.0015    0.0022    0.0001   -0.0001   -0.0226
           5    0.0054   -0.0001    0.0007   -0.0019   -0.0038   -0.0001    0.0002    0.0295
           6   -0.0012    0.0033    0.0174   -0.0431    0.0004    0.0000   -0.0000   -0.0048
           7    0.0059   -0.0001    0.0097    0.0037   -0.0321   -0.0024    0.0002   -0.0038
           8    0.0015   -0.0001   -0.0040   -0.0017   -0.0138   -0.0010    0.0001   -0.0010
           9   -0.0001   -0.0002   -0.0422   -0.0166   -0.0035   -0.0003    0.0000   -0.0005
          10    0.1881    0.0003    0.0000    0.0002    0.0007   -0.0001   -0.0001    0.0005
          11    0.0980    0.0012    0.0001   -0.0000    0.0001   -0.0002   -0.0000   -0.0002
          12    0.0312   -0.0003   -0.0002   -0.0001    0.0002   -0.0001   -0.0000    0.0001
          13   -0.1341   -0.0005   -0.0002   -0.0000   -0.0006   -0.0000    0.0000    0.0000
          14   -0.0852   -0.0005   -0.0002   -0.0002    0.0014    0.0002   -0.0001    0.0006
          15   -0.0105   -0.0003   -0.0000   -0.0001   -0.0004   -0.0000    0.0000   -0.0002
          16    0.0435   -0.0009   -0.0001    0.0003    0.0006   -0.0070   -0.0064   -0.0005
          17   -0.0057   -0.0007   -0.0000   -0.0000   -0.0015    0.0169    0.0139    0.0007
          18    0.0288   -0.0010   -0.0000    0.0001   -0.0001    0.0009    0.0003   -0.0001
          19   -0.0794   -0.0001   -0.0000   -0.0000    0.0003   -0.0029    0.0087   -0.0003
          20   -0.0342   -0.0001   -0.0000   -0.0000   -0.0008    0.0062   -0.0208    0.0007
          21   -0.0395   -0.0002   -0.0000   -0.0000   -0.0000   -0.0002    0.0002    0.0000
          22   -0.0418    0.0008    0.0000   -0.0000    0.0013   -0.0149   -0.0047    0.0006
          23    0.0130   -0.0004   -0.0000    0.0000    0.0019   -0.0212   -0.0078    0.0006
          24   -0.0235    0.0001    0.0000   -0.0000    0.0015   -0.0170   -0.0057    0.0006
          25    0.0231   -0.0001   -0.0000    0.0000   -0.0017    0.0155   -0.0255   -0.0001
          26    0.0359    0.0003    0.0000    0.0000    0.0002   -0.0015    0.0032   -0.0000
          27    0.0184    0.0001    0.0000    0.0000   -0.0007    0.0068   -0.0110   -0.0001
          28    0.0206   -0.2915    0.0043   -0.0096    0.0003    0.0001   -0.0002   -0.0020
          29   -0.0073   -0.1210    0.0010   -0.0027   -0.0001    0.0006    0.0003   -0.0001
          30    0.0031    0.7964   -0.0079    0.0166   -0.0004   -0.0001    0.0005    0.0031
          31   -0.0024   -0.0049   -0.0462    0.1122   -0.0172   -0.0004    0.0012    0.1530
          32    0.0027    0.0140    0.0571   -0.1489    0.0205    0.0004   -0.0014   -0.2015
          33   -0.0060   -0.0220   -0.0923    0.2270   -0.0394   -0.0009    0.0026    0.3684
          34   -0.0011    0.0052    0.0542   -0.1310   -0.0136   -0.0002    0.0009    0.1193
          35   -0.0006   -0.0122   -0.0658    0.1718    0.0160    0.0008   -0.0007   -0.1550
          36    0.0042   -0.0208   -0.1174    0.2888    0.0339    0.0011   -0.0018   -0.3117
          37    0.0163   -0.0012   -0.2298   -0.0913    0.2973    0.0220   -0.0022    0.0360
          38   -0.0157   -0.0002   -0.0589   -0.0262    0.0698    0.0052   -0.0005    0.0098
          39    0.0132    0.0008    0.1844    0.0723   -0.2799   -0.0207    0.0021   -0.0343
          40    0.0098    0.0008    0.1154    0.0461    0.0865    0.0064   -0.0006    0.0105
          41   -0.0142    0.0001    0.1086    0.0462    0.0978    0.0073   -0.0007    0.0130
          42   -0.0010    0.0013    0.3245    0.1265    0.3231    0.0240   -0.0023    0.0393
          43    0.0012   -0.0001   -0.0002    0.0003   -0.0078    0.0896    0.0748    0.0028
          44   -0.0355    0.0028   -0.0001    0.0007    0.0176   -0.2022   -0.1667   -0.0076
          45   -0.0117   -0.0019    0.0001   -0.0001    0.0006   -0.0071   -0.0052   -0.0002
          46    0.0361   -0.0001    0.0007    0.0003   -0.0016   -0.0002    0.0002    0.0000
          47   -0.1113   -0.0034    0.0029    0.0003   -0.0153   -0.0011    0.0006   -0.0121
          48    0.0390   -0.0000   -0.0015   -0.0005    0.0031    0.0002    0.0000    0.0028
          49    0.0414    0.0004    0.0000    0.0000   -0.0041    0.0307   -0.0989    0.0033
          50    0.0081   -0.0006   -0.0001   -0.0001    0.0103   -0.0763    0.2511   -0.0085
          51    0.0039   -0.0001    0.0000   -0.0000    0.0000   -0.0000    0.0007   -0.0001
          52    0.0280   -0.0003    0.0001   -0.0001    0.0196   -0.1800    0.2994    0.0013
          53   -0.0142    0.0001   -0.0000    0.0000   -0.0024    0.0216   -0.0408   -0.0001
          54    0.0058   -0.0001    0.0001   -0.0001    0.0085   -0.0777    0.1278    0.0006
          55    0.0020    0.0018    0.0000   -0.0001   -0.0152    0.1697    0.0586   -0.0051
          56   -0.0374    0.0019    0.0000   -0.0001   -0.0225    0.2514    0.0918   -0.0074
          57   -0.0116    0.0005    0.0000   -0.0001   -0.0176    0.1974    0.0699   -0.0059


   Root No.      49        50        51

                49 A      50 A      51 A   

                3075.0    3082.2    3129.0
  
           1    0.0001   -0.0003    0.0005
           2   -0.0000    0.0001    0.0010
           3    0.0002   -0.0003   -0.0004
           4   -0.0006    0.0001   -0.0010
           5    0.0006    0.0000    0.0015
           6   -0.0001    0.0000   -0.0004
           7   -0.0000    0.0000   -0.0023
           8    0.0000    0.0000   -0.0008
           9   -0.0000   -0.0000    0.0001
          10   -0.0003   -0.0008    0.0058
          11    0.0001   -0.0005    0.0035
          12   -0.0001   -0.0003    0.0006
          13    0.0001    0.0002   -0.0054
          14   -0.0001    0.0000   -0.0740
          15    0.0000    0.0000    0.0158
          16    0.0149   -0.0080   -0.0000
          17   -0.0269    0.0139   -0.0000
          18    0.0011   -0.0008    0.0000
          19    0.0066    0.0075   -0.0003
          20   -0.0208   -0.0261    0.0002
          21   -0.0008   -0.0014   -0.0001
          22   -0.0114    0.0090   -0.0000
          23   -0.0116    0.0109    0.0001
          24   -0.0115    0.0096    0.0000
          25    0.0082    0.0225   -0.0001
          26    0.0010   -0.0004   -0.0002
          27    0.0039    0.0102   -0.0001
          28    0.0007   -0.0005   -0.0008
          29   -0.0004    0.0002    0.0000
          30   -0.0011    0.0008    0.0022
          31    0.0033   -0.0000    0.0042
          32   -0.0046    0.0002   -0.0050
          33    0.0084   -0.0003    0.0097
          34    0.0024    0.0001    0.0027
          35   -0.0041    0.0004   -0.0035
          36   -0.0074    0.0003   -0.0071
          37    0.0005   -0.0002    0.0188
          38    0.0001   -0.0001    0.0015
          39   -0.0004    0.0002   -0.0146
          40    0.0001   -0.0001    0.0035
          41    0.0002    0.0000    0.0022
          42    0.0004   -0.0001    0.0127
          43   -0.1417    0.0710    0.0002
          44    0.3114   -0.1555   -0.0005
          45    0.0084   -0.0041    0.0000
          46    0.0002    0.0002    0.0064
          47    0.0007    0.0007    0.8267
          48   -0.0001   -0.0001   -0.1885
          49   -0.0884   -0.1050    0.0003
          50    0.2295    0.2739   -0.0019
          51    0.0016    0.0022   -0.0003
          52   -0.0864   -0.2411    0.0001
          53    0.0087    0.0308    0.0001
          54   -0.0377   -0.1035   -0.0001
          55    0.1009   -0.0847   -0.0004
          56    0.1454   -0.1266   -0.0005
          57    0.1160   -0.0989   -0.0004


           MASS-WEIGHTED COORDINATE ANALYSIS (NORMAL COORDINATES)


   Root No.       1         2         3         4         5         6         7         8

                 1 A       2 A       3 A       4 A       5 A       6 A       7 A       8 A   

                 113.5     171.9     252.2     353.8     421.4     467.1     539.1     552.3
  
           1   -0.0805    0.0380    0.0458   -0.1954    0.0547    0.0417    0.1751   -0.2107
           2   -0.0090    0.0129   -0.0368    0.2797    0.0575   -0.1709    0.1391   -0.0296
           3    0.1136   -0.2344   -0.1900    0.0324   -0.3171    0.1443    0.1753    0.1157
           4   -0.0792    0.0265    0.0386   -0.2578    0.0544    0.0994    0.2799   -0.1678
           5   -0.0239    0.0185    0.0260   -0.1240    0.0485    0.0462   -0.0239    0.2288
           6    0.4268    0.2240    0.1645   -0.1414    0.0726    0.0144    0.0490   -0.0111
           7    0.0412   -0.0042    0.0781    0.0472    0.0933   -0.0413    0.2421    0.1753
           8   -0.0597    0.0279    0.0274   -0.2423    0.0651    0.1256   -0.0476    0.2048
           9   -0.3236    0.3116   -0.2093   -0.0330    0.0504   -0.0319    0.0653    0.0106
          10   -0.0465    0.1219    0.0184    0.0045    0.1641    0.0591   -0.0333    0.1834
          11   -0.0128    0.0061   -0.0005    0.2960    0.0611   -0.2569   -0.0110    0.0697
          12    0.0891   -0.3264   -0.0076   -0.1448   -0.3270   -0.1918    0.0048    0.3021
          13    0.0034    0.1248   -0.0846    0.1371    0.1033   -0.1376    0.0987    0.1887
          14   -0.0709   -0.0093    0.1091    0.1274    0.1267   -0.0517   -0.1368    0.1405
          15   -0.2037   -0.1762    0.4722    0.2155    0.0760    0.0929    0.0987   -0.0191
          16    0.1264    0.1100    0.0081    0.1379   -0.2839   -0.1735   -0.1049   -0.2689
          17    0.0797    0.0360   -0.0394    0.0747   -0.1665   -0.1118    0.4405   -0.0073
          18   -0.1742   -0.3218   -0.1464    0.0810    0.1925    0.2098    0.0443   -0.1218
          19   -0.1186    0.0186    0.1214   -0.0775   -0.1150    0.1641   -0.1824    0.2954
          20   -0.0108   -0.0061    0.0124    0.0007   -0.1073    0.0544   -0.3013   -0.2502
          21    0.2538   -0.0780   -0.2467   -0.1164    0.2996   -0.2526   -0.0976    0.0208
          22    0.1692   -0.1643   -0.2129    0.2272   -0.0370    0.1652   -0.1481   -0.2557
          23    0.1033   -0.0343   -0.0980   -0.1081   -0.0666    0.2168    0.0609   -0.2413
          24   -0.2369    0.1027    0.1908   -0.0992   -0.1968   -0.2444   -0.0892   -0.2632
          25   -0.0197   -0.2350   -0.0213   -0.0245    0.0572   -0.1904   -0.4254    0.0558
          26    0.0186   -0.0673   -0.0145   -0.2223   -0.0252    0.0591   -0.1018   -0.1470
          27    0.0683    0.3710   -0.0190    0.2149   -0.1063    0.2580   -0.2365    0.0913
          28   -0.0917   -0.0657   -0.0324   -0.0824   -0.0076    0.0535    0.1098   -0.0697
          29   -0.0321    0.0108   -0.0265    0.1608    0.1180    0.0172    0.0409   -0.0856
          30    0.0027   -0.0933   -0.0709    0.0108   -0.0803    0.0650    0.0711    0.0169
          31   -0.0882   -0.0686   -0.0598   -0.0774   -0.0757    0.0810    0.0977   -0.0021
          32    0.1368    0.0156    0.1058   -0.1133    0.0575    0.0363   -0.0289    0.0347
          33    0.2440    0.1074    0.1434   -0.0881    0.0926   -0.0073   -0.0070   -0.0483
          34    0.0326    0.0906    0.0872   -0.1540    0.1018    0.0208    0.0489   -0.1069
          35   -0.1675   -0.0010   -0.0947   -0.0252   -0.0331    0.0313   -0.0010    0.1100
          36    0.2419    0.1059    0.1425   -0.0857    0.0901   -0.0086   -0.0033   -0.0546
          37   -0.0569    0.0851   -0.1323   -0.0181    0.0227   -0.0637    0.0450    0.0525
          38   -0.1242    0.0045   -0.0212   -0.1042    0.0103    0.0653    0.0097    0.0058
          39   -0.2089    0.1928   -0.2574   -0.0591    0.0065   -0.0637   -0.0063   -0.0132
          40    0.1305   -0.1293    0.2591    0.1061    0.0423    0.0383    0.1027    0.0910
          41    0.0943    0.0237    0.0266   -0.1345    0.0171    0.0517   -0.0098    0.0602
          42   -0.1724    0.1301   -0.1507   -0.0212    0.0100   -0.0330    0.0064   -0.0117
          43    0.0721    0.0911    0.0136    0.1262   -0.2206   -0.1189   -0.0044   -0.0331
          44    0.0406    0.0408   -0.0052    0.0605   -0.1165   -0.0633    0.1393    0.0187
          45   -0.1028   -0.1929   -0.0746    0.0340    0.2735    0.0702   -0.0335   -0.0499
          46    0.0041    0.0573   -0.0674    0.1146    0.0221   -0.1195    0.0625    0.0464
          47   -0.0301   -0.0063    0.0718    0.0598    0.0699   -0.0017   -0.0419    0.0075
          48   -0.1019   -0.0653    0.3086    0.1673    0.1678    0.0803    0.0190   -0.1546
          49   -0.0665    0.0189    0.0841   -0.0963   -0.1557    0.1356   -0.0658    0.0912
          50   -0.0163    0.0035    0.0236   -0.0283   -0.0798    0.0496   -0.0917   -0.0689
          51    0.1502   -0.0322   -0.1817   -0.0541    0.3355   -0.1014    0.0051   -0.0629
          52   -0.0181   -0.1264    0.0079   -0.0683   -0.0046   -0.1548   -0.1205    0.0034
          53   -0.0082   -0.0347    0.0202   -0.1381   -0.0004   -0.0300   -0.0249    0.0584
          54    0.0452    0.2390   -0.0322    0.1819    0.0197    0.2958   -0.0735    0.0853
          55    0.0974   -0.0785   -0.1312    0.1538   -0.0394    0.1733    0.0630   -0.0573
          56    0.0561   -0.0035   -0.0510   -0.0197   -0.0199    0.1517   -0.0540   -0.0309
          57   -0.1434    0.0486    0.1435   -0.1175   -0.0313   -0.2925   -0.0265   -0.1396


   Root No.       9        10        11        12        13        14        15        16

                 9 A      10 A      11 A      12 A      13 A      14 A      15 A      16 A   

                 662.7     698.6     746.4     807.1     822.6     849.4     877.5     931.3
  
           1    0.1307   -0.1597    0.0496   -0.1374   -0.0114    0.0333    0.0774   -0.0796
           2    0.0544   -0.0473   -0.0029    0.0027   -0.0190    0.0813   -0.1949   -0.1193
           3   -0.2950   -0.0526    0.0596    0.1435    0.0658    0.1096    0.1134    0.3352
           4    0.2018   -0.0497   -0.0199   -0.0678    0.1417    0.2523    0.0960    0.1253
           5   -0.0760    0.3092   -0.0661    0.1380   -0.0383   -0.0837   -0.0639   -0.0473
           6   -0.0445    0.0330    0.0494   -0.1053   -0.0488    0.1855    0.2329   -0.0331
           7    0.0257    0.4146   -0.1352    0.2043   -0.0084   -0.0622   -0.0455    0.0280
           8   -0.0776    0.1159   -0.0314    0.0221   -0.0006   -0.0334   -0.0410    0.0190
           9   -0.0121    0.1532    0.0637   -0.2657   -0.0094    0.0390   -0.0604   -0.1078
          10   -0.2375   -0.1909    0.0078   -0.0532   -0.0647   -0.1045    0.0327    0.0850
          11    0.2693   -0.0269   -0.0118   -0.0806    0.0686   -0.0079    0.2594    0.0648
          12    0.4334   -0.0357    0.0669    0.0725    0.0130   -0.1171    0.1309   -0.2663
          13    0.0232    0.1339   -0.0773    0.0576   -0.0246   -0.0693    0.1321    0.0200
          14   -0.0080   -0.3818    0.0491   -0.1948   -0.0148   -0.1588    0.2963    0.1838
          15   -0.0042    0.0766    0.0474   -0.0353    0.0816   -0.1311   -0.1854    0.2613
          16   -0.1012    0.0653    0.1190    0.0428   -0.1690   -0.1308    0.0023   -0.0051
          17   -0.0673   -0.2524    0.1609    0.0759   -0.0839    0.2041   -0.2950   -0.1330
          18    0.0462   -0.0405   -0.1429   -0.0529    0.1255   -0.0775   -0.0499   -0.1162
          19   -0.1083   -0.2650    0.1281    0.0213    0.0117   -0.0981   -0.1144   -0.1597
          20    0.1341    0.2352   -0.0072    0.0407    0.2195    0.2694    0.0031    0.1133
          21   -0.1279   -0.0737   -0.1770   -0.0764   -0.2165    0.0933   -0.1172    0.0147
          22    0.0405    0.0786    0.0833    0.0341   -0.1811   -0.1546    0.0025    0.0311
          23   -0.0494    0.0254    0.0511   -0.0073   -0.1920   -0.2842    0.0875   -0.0087
          24   -0.1618    0.0528   -0.1188   -0.0696    0.0939   -0.2653    0.0706   -0.1717
          25   -0.0166   -0.0369    0.0601    0.0468    0.2356    0.3304   -0.1557   -0.0489
          26   -0.0890    0.0393    0.0232    0.0031    0.0367   -0.0744    0.0163   -0.0398
          27    0.1467   -0.0200   -0.1080   -0.0547   -0.1453    0.1926   -0.1299    0.1447
          28    0.1233   -0.0722   -0.0091   -0.0435    0.1037    0.0200   -0.0031   -0.0180
          29   -0.0903   -0.0668   -0.1085   -0.0435    0.0181    0.0942   -0.1874   -0.0033
          30   -0.0668   -0.0341   -0.0072    0.0337    0.0593    0.0431   -0.0007    0.0977
          31   -0.0832   -0.0016    0.0492   -0.0430    0.0260    0.2210    0.2693    0.2287
          32    0.0836   -0.0347   -0.0845    0.2164    0.0722   -0.1501   -0.1079    0.2036
          33    0.1268   -0.0798   -0.0540    0.0930    0.0486   -0.0990   -0.1051    0.0391
          34    0.2155   -0.0766   -0.0540   -0.0372    0.1036   -0.0275   -0.1120   -0.0685
          35   -0.1419    0.2074    0.0488   -0.1503   -0.0767    0.1322    0.1344   -0.1861
          36    0.1326   -0.0893   -0.0501    0.0798    0.0552   -0.0878   -0.0924    0.0484
          37    0.0599    0.0438   -0.1347    0.3106   -0.0181   -0.0748    0.0698    0.0334
          38    0.0344   -0.0138   -0.0411    0.1153    0.0816   -0.0296   -0.1797    0.1963
          39    0.0793   -0.0725   -0.1085    0.2683    0.0039   -0.0661    0.0294    0.0610
          40   -0.0877    0.2835    0.0989   -0.3311   -0.0120    0.0041   -0.0845   -0.0505
          41   -0.0477    0.0914    0.0063   -0.0578   -0.0380    0.1471    0.1214   -0.2023
          42    0.0417   -0.0334   -0.0396    0.0928    0.0145   -0.0518   -0.0367    0.0642
          43   -0.1493   -0.0236   -0.1890   -0.0218    0.2565   -0.0071   -0.1038   -0.0870
          44   -0.0800   -0.0932   -0.0644    0.0040    0.1258    0.0722   -0.1318   -0.0774
          45    0.2154    0.0326    0.2886    0.0765   -0.3817    0.0590   -0.1202   -0.0550
          46    0.1099    0.0584    0.0169   -0.1265    0.0464   -0.0727    0.1354    0.1764
          47   -0.0449   -0.1348   -0.0424    0.0489   -0.0396    0.0197    0.1729   -0.0328
          48   -0.1865   -0.0865   -0.2321    0.4501   -0.1316    0.2513    0.3155   -0.3075
          49   -0.0289   -0.1183   -0.0925   -0.0259   -0.2534   -0.0215   -0.1636   -0.0965
          50    0.0424    0.0519   -0.0544   -0.0015   -0.0375    0.0830   -0.0482    0.0152
          51   -0.2880    0.0003    0.2831    0.0636    0.3960   -0.1803   -0.0070   -0.0853
          52   -0.0350   -0.0244   -0.1882   -0.0834   -0.0767    0.1174   -0.0903    0.1001
          53   -0.0759   -0.0836   -0.0867   -0.0533   -0.0630    0.0196   -0.0810   -0.0046
          54    0.0939   -0.0058    0.4219    0.1944    0.2727    0.0193    0.0338   -0.2265
          55    0.0191   -0.0349   -0.2406   -0.1110    0.0665   -0.1463   -0.0116   -0.2047
          56    0.0080    0.0198   -0.1423   -0.0774    0.0395   -0.0859    0.0731   -0.0216
          57   -0.0824    0.0472    0.3943    0.1799   -0.1982    0.0126   -0.0338    0.1537


   Root No.      17        18        19        20        21        22        23        24

                17 A      18 A      19 A      20 A      21 A      22 A      23 A      24 A   

                 962.2     985.6    1001.6    1027.1    1032.0    1049.8    1066.0    1082.5
  
           1   -0.0032   -0.0297    0.0118   -0.0085   -0.1365    0.1645   -0.0105   -0.1265
           2    0.0070    0.1393   -0.0685    0.0638    0.0525    0.0017    0.0052   -0.0878
           3    0.0132   -0.1213    0.0790   -0.0797    0.1701    0.1063    0.0757    0.1736
           4    0.0072    0.1515   -0.0379    0.0349    0.1271   -0.1634    0.0287   -0.0201
           5    0.0198   -0.1654    0.0756    0.3586   -0.0714    0.1318   -0.0097   -0.2615
           6    0.0418    0.2127   -0.0309    0.0104   -0.1199   -0.0503    0.0027   -0.1687
           7   -0.0107    0.1445   -0.0446   -0.3068   -0.0675    0.0422    0.0713    0.0119
           8   -0.0259    0.0478   -0.0339   -0.2629    0.0608   -0.0663   -0.0216    0.2159
           9   -0.0711   -0.2229    0.0125   -0.0935    0.1809    0.0460    0.0540   -0.0291
          10   -0.0119   -0.0307    0.0564   -0.0639   -0.0347   -0.0289   -0.0101    0.0649
          11   -0.0135   -0.0174   -0.0241    0.0040    0.0745   -0.0453    0.0145    0.0166
          12   -0.0200    0.0858   -0.1893    0.0032    0.1458   -0.0184    0.0091   -0.0705
          13   -0.0190   -0.1092    0.0267    0.0687    0.0920   -0.0838   -0.0459    0.1006
          14   -0.0486    0.0143    0.0327   -0.2208   -0.0845    0.0521    0.1776   -0.0141
          15    0.0495    0.2102    0.0432    0.1464   -0.2702    0.0548   -0.0643    0.1562
          16    0.1314    0.0702    0.0768    0.0257    0.1453    0.0865    0.1049    0.0694
          17    0.1875   -0.1272    0.1409   -0.0651   -0.1660   -0.0251   -0.1924   -0.0078
[...]
 REDUCED MASS        2.0496         C  2 -- C  3         +12.6% ( 49.3%)     45.4%
 EFFECTIVE MASS      7.2860
 FORCE CONSTANT      2.1783

 VIBRATION         34   34A           ATOM PAIR      ENERGY CONTRIBUTION    RADIAL
 FREQUENCY          1375.01         C  8 -- C  9         +11.8% ( 48.6%)     97.4%
 TRANSITION DIPOLE   0.0655         C  1 -- C  4          +9.6% ( 43.9%)     70.3%
 TRAVEL (Ang.)       0.2286         C  1 -- C  6          +9.5% ( 43.7%)     48.9%
 REDUCED MASS        0.9386         C  1 -- C  2          +9.4% ( 43.4%)     13.3%
 EFFECTIVE MASS      7.5824
 FORCE CONSTANT      1.0456

 VIBRATION         35   35A           ATOM PAIR      ENERGY CONTRIBUTION    RADIAL
 FREQUENCY          1402.42         C  3 -- H 14         +15.1% ( 48.9%)      5.1%
 TRANSITION DIPOLE   0.0848         C  3 -- C  5         +15.0% ( 48.8%)     98.4%
 TRAVEL (Ang.)       0.2784         C  3 -- H 13         +14.9% ( 48.7%)      5.7%
 REDUCED MASS        0.6202         C  2 -- C  3         +10.1% ( 40.0%)      0.0%
 EFFECTIVE MASS      5.7042
 FORCE CONSTANT      0.7187

 VIBRATION         36   36A           ATOM PAIR      ENERGY CONTRIBUTION    RADIAL
 FREQUENCY          1411.82         C  1 -- C  6         +15.9% ( 60.8%)     91.9%
 TRANSITION DIPOLE   0.1800         C  1 -- C  4         +12.7% ( 54.4%)     21.7%
 TRAVEL (Ang.)       0.1816         C  1 -- C  2         +11.0% ( 50.6%)     77.6%
 REDUCED MASS        1.4476         C  1 -- H 10          +8.9% ( 45.5%)      0.8%
 EFFECTIVE MASS      9.6374
 FORCE CONSTANT      1.7000

 VIBRATION         37   37A           ATOM PAIR      ENERGY CONTRIBUTION    RADIAL
 FREQUENCY          1417.64         C  2 -- H 11         +25.1% ( 53.3%)      4.8%
 TRANSITION DIPOLE   0.0202         C  2 -- H 12         +24.6% ( 52.7%)      4.7%
 TRAVEL (Ang.)       0.3442         C  2 -- C  3         +11.5% ( 36.1%)     97.6%
 REDUCED MASS        0.4015         C  3 -- H 13          +9.7% ( 33.1%)      5.8%
 EFFECTIVE MASS      3.0992
 FORCE CONSTANT      0.4754

 VIBRATION         38   38A           ATOM PAIR      ENERGY CONTRIBUTION    RADIAL
 FREQUENCY          1500.95         C  1 -- C  4         +19.3% ( 67.3%)     98.0%
 TRANSITION DIPOLE   0.1431         C  4 -- C  7         +18.5% ( 65.9%)     73.9%
 TRAVEL (Ang.)       0.1377         C  4 -- C  5         +10.9% ( 50.5%)     12.5%
 REDUCED MASS        2.3686         C  1 -- C  6          +9.6% ( 47.5%)     81.8%
 EFFECTIVE MASS     11.4486
 FORCE CONSTANT      3.1439

 VIBRATION         39   39A           ATOM PAIR      ENERGY CONTRIBUTION    RADIAL
 FREQUENCY          1808.21         C  7 -- C  9         +37.2% ( 90.7%)     99.7%
 TRANSITION DIPOLE   0.1504         C  8 -- C  9         +16.0% ( 59.5%)     78.3%
 TRAVEL (Ang.)       0.0963         C  9 -- H 18         +12.3% ( 52.2%)      3.7%
 REDUCED MASS        4.0190         C  4 -- C  7         +10.3% ( 47.6%)     32.8%
 EFFECTIVE MASS     11.9405
 FORCE CONSTANT      7.7423

 VIBRATION         40   40A           ATOM PAIR      ENERGY CONTRIBUTION    RADIAL
 FREQUENCY          1832.20         C  6 -- C  8         +37.0% ( 89.8%)     99.9%
 TRANSITION DIPOLE   0.4278         C  8 -- C  9         +12.3% ( 51.8%)     22.2%
 TRAVEL (Ang.)       0.0980         C  1 -- C  6         +12.0% ( 51.2%)     47.6%
 REDUCED MASS        3.8345         C  6 -- H 15         +11.1% ( 49.1%)      5.0%
 EFFECTIVE MASS     11.8397         C  8 -- H 19         +10.9% ( 48.8%)      6.1%
 FORCE CONSTANT      7.5840

 VIBRATION         41   41A           ATOM PAIR      ENERGY CONTRIBUTION    RADIAL
 FREQUENCY          1889.03         C  4 -- C  5         +35.4% ( 88.4%)     97.3%
 TRANSITION DIPOLE   0.3764         C  4 -- C  7         +20.6% ( 67.4%)     66.3%
 TRAVEL (Ang.)       0.0919         C  1 -- C  4         +15.3% ( 58.2%)      3.0%
 REDUCED MASS        4.2295         C  3 -- C  5          +7.4% ( 40.4%)     21.4%
 EFFECTIVE MASS     11.9021
 FORCE CONSTANT      8.8923

 VIBRATION         42   42A           ATOM PAIR      ENERGY CONTRIBUTION    RADIAL
 FREQUENCY          2853.88         C  1 -- H 10         +96.9% ( 99.9%)    100.0%
 TRANSITION DIPOLE   0.1044         C  1 -- C  2          +1.0% ( 10.0%)      9.9%
 TRAVEL (Ang.)       0.1597         C  1 -- C  4          +1.0% ( 10.0%)      9.9%
 REDUCED MASS        0.9264         C  1 -- C  6          +1.0% ( 10.0%)      6.7%
 EFFECTIVE MASS      1.4319
 FORCE CONSTANT      4.4457

 VIBRATION         43   43A           ATOM PAIR      ENERGY CONTRIBUTION    RADIAL
 FREQUENCY          2973.57         C  3 -- H 14         +49.1% ( 72.8%)     97.4%
 TRANSITION DIPOLE   0.0191         C  3 -- H 13         +35.1% ( 61.5%)     95.5%
 TRAVEL (Ang.)       0.2364         C  2 -- H 12          +8.0% ( 29.4%)     97.1%
 REDUCED MASS        0.4057         C  2 -- H 11          +5.5% ( 24.4%)     94.9%
 EFFECTIVE MASS      1.5463
 FORCE CONSTANT      2.1136

 VIBRATION         44   44A           ATOM PAIR      ENERGY CONTRIBUTION    RADIAL
 FREQUENCY          2994.05         C  2 -- H 12         +50.1% ( 73.2%)     97.5%
 TRANSITION DIPOLE   0.0556         C  2 -- H 11         +34.4% ( 60.7%)     95.4%
 TRAVEL (Ang.)       0.2352         C  3 -- H 14          +7.7% ( 28.8%)     97.7%
 REDUCED MASS        0.4071         C  3 -- H 13          +5.6% ( 24.4%)     95.9%
 EFFECTIVE MASS      1.5323
 FORCE CONSTANT      2.1500

 VIBRATION         45   45A           ATOM PAIR      ENERGY CONTRIBUTION    RADIAL
 FREQUENCY          3054.88         C  3 -- H 13         +57.0% ( 74.5%)     98.4%
 TRANSITION DIPOLE   0.0872         C  3 -- H 14         +39.5% ( 62.1%)     96.2%
 TRAVEL (Ang.)       0.2150         C  2 -- H 11          +0.8% (  8.6%)     98.2%
 REDUCED MASS        0.4773         C  2 -- C  3          +0.7% (  8.2%)     26.8%
 EFFECTIVE MASS      1.2871
 FORCE CONSTANT      2.6246

 VIBRATION         46   46A           ATOM PAIR      ENERGY CONTRIBUTION    RADIAL
 FREQUENCY          3055.18         C  8 -- H 19         +56.2% ( 76.2%)    100.0%
 TRANSITION DIPOLE   0.1668         C  6 -- H 15         +21.0% ( 46.5%)    100.0%
 TRAVEL (Ang.)       0.2407         C  9 -- H 18         +16.7% ( 41.6%)    100.0%
 REDUCED MASS        0.3809         C  7 -- H 17          +2.9% ( 17.3%)     99.9%
 EFFECTIVE MASS      1.4776
 FORCE CONSTANT      2.0950

 VIBRATION         47   47A           ATOM PAIR      ENERGY CONTRIBUTION    RADIAL
 FREQUENCY          3061.67         C  9 -- H 18         +45.5% ( 68.5%)    100.0%
 TRANSITION DIPOLE   0.3482         C  7 -- H 17         +30.8% ( 56.3%)    100.0%
 TRAVEL (Ang.)       0.2624         C  6 -- H 15         +14.1% ( 38.1%)    100.0%
 REDUCED MASS        0.3200         C  8 -- H 19          +7.0% ( 26.9%)     99.9%
 EFFECTIVE MASS      1.4627
 FORCE CONSTANT      1.7672

 VIBRATION         48   48A           ATOM PAIR      ENERGY CONTRIBUTION    RADIAL
 FREQUENCY          3070.89         C  2 -- H 11         +58.5% ( 75.4%)     98.5%
 TRANSITION DIPOLE   0.0805         C  2 -- H 12         +38.8% ( 61.4%)     96.0%
 TRAVEL (Ang.)       0.2123         C  3 -- H 13          +0.7% (  8.5%)     98.7%
 REDUCED MASS        0.4871         C  2 -- C  3          +0.7% (  8.1%)     46.5%
 EFFECTIVE MASS      1.2822
 FORCE CONSTANT      2.7065

 VIBRATION         49   49A           ATOM PAIR      ENERGY CONTRIBUTION    RADIAL
 FREQUENCY          3075.00         C  6 -- H 15         +48.7% ( 70.9%)    100.0%
 TRANSITION DIPOLE   0.4581         C  7 -- H 17         +25.2% ( 51.0%)    100.0%
 TRAVEL (Ang.)       0.2549         C  8 -- H 19         +18.7% ( 43.9%)     99.8%
 REDUCED MASS        0.3375         C  9 -- H 18          +3.8% ( 19.7%)     99.4%
 EFFECTIVE MASS      1.5691
 FORCE CONSTANT      1.8802

 VIBRATION         50   50A           ATOM PAIR      ENERGY CONTRIBUTION    RADIAL
 FREQUENCY          3082.22         C  7 -- H 17         +38.0% ( 62.6%)     99.9%
 TRANSITION DIPOLE   0.2994         C  9 -- H 18         +30.8% ( 56.3%)     99.9%
 TRAVEL (Ang.)       0.2801         C  8 -- H 19         +14.5% ( 38.7%)    100.0%
 REDUCED MASS        0.2788         C  6 -- H 15         +12.9% ( 36.5%)     99.9%
 EFFECTIVE MASS      1.6084
 FORCE CONSTANT      1.5607

 VIBRATION         51   51A           ATOM PAIR      ENERGY CONTRIBUTION    RADIAL
 FREQUENCY          3129.03         C  5 -- H 16         +96.4% ( 99.9%)    100.0%
 TRANSITION DIPOLE   0.4194         C  4 -- C  5          +1.8% ( 13.6%)     49.3%
 TRAVEL (Ang.)       0.1525         C  3 -- C  5          +1.6% ( 13.0%)     25.2%
 REDUCED MASS        0.9272
 EFFECTIVE MASS      1.5538
 FORCE CONSTANT      5.3485

      SYMMETRY NUMBER FOR POINT-GROUP C1  =  1


          SYSTEM IS A GROUND STATE



 InChI=1S/C9H10/c1-2-5-9-7-3-6-8(9)4-1/h1-2,4-6,9H,3,7H2


          MOLECULE IS NOT LINEAR

          THERE ARE 51 GENUINE VIBRATIONS IN THIS SYSTEM
          THIS THERMODYNAMICS CALCULATION IS LIMITED TO
          MOLECULES WHICH HAVE NO INTERNAL ROTATIONS




                    CALCULATED THERMODYNAMIC PROPERTIES
                                          *
   TEMP. (K)   PARTITION FUNCTION   H.O.F.    ENTHALPY  HEAT CAPACITY ENTROPY
                                   KCAL/MOL   CAL/MOLE    CAL/K/MOL  CAL/K/MOL


 298.00  VIB.     0.1438D+02                  2636.2866    22.7750    14.1448
         ROT.     0.3545D+06                   888.2803     2.9808    28.3743
         INT.     0.5100D+07                  3524.5669    25.7558    42.5192
         TRA.     0.1242D+28                  1480.4672     4.9680    40.2136
         TOT.                       38.001    5005.0341    30.7238    82.7328

 200.00  VIB.     0.3852D+01                   944.7788    12.0736     7.4037
         ROT.     0.1949D+06                   596.1613     2.9808    27.1857
         INT.     0.7508D+06                  1540.9401    15.0544    34.5893
         TRA.     0.6829D+27                   993.6021     4.9680    38.2325
         TOT.                       35.530    2534.5423    20.0224    72.8218

 210.00  VIB.     0.4345D+01                  1070.3903    13.0546     8.0164
         ROT.     0.2097D+06                   625.9693     2.9808    27.3311
         INT.     0.9112D+06                  1696.3596    16.0354    35.3474
         TRA.     0.7347D+27                  1043.2822     4.9680    38.4749
         TOT.                       35.735    2739.6419    21.0034    73.8223

 220.00  VIB.     0.4917D+01                  1205.9854    14.0699     8.6470
         ROT.     0.2249D+06                   655.7774     2.9808    27.4698
         INT.     0.1106D+07                  1861.7628    17.0507    36.1167
         TRA.     0.7878D+27                  1092.9623     4.9680    38.7060
         TOT.                       35.950    2954.7252    22.0187    74.8227

 230.00  VIB.     0.5583D+01                  1351.8914    15.1163     9.2954
         ROT.     0.2404D+06                   685.5855     2.9808    27.6023
         INT.     0.1342D+07                  2037.4769    18.0971    36.8976
         TRA.     0.8422D+27                  1142.6424     4.9680    38.9268
         TOT.                       36.176    3180.1193    23.0651    75.8245

 240.00  VIB.     0.6360D+01                  1508.4035    16.1905     9.9613
         ROT.     0.2562D+06                   715.3935     2.9808    27.7291
         INT.     0.1630D+07                  2223.7970    19.1713    37.6904
         TRA.     0.8977D+27                  1192.3226     4.9680    39.1383
         TOT.                       36.412    3416.1196    24.1393    76.8287

 250.00  VIB.     0.7267D+01                  1675.7811    17.2888    10.6444
         ROT.     0.2724D+06                   745.2016     2.9808    27.8508
         INT.     0.1980D+07                  2420.9827    20.2696    38.4952
         TRA.     0.9544D+27                  1242.0027     4.9680    39.3411
         TOT.                       36.658    3662.9854    25.2376    77.8363

 260.00  VIB.     0.8330D+01                  1854.2462    18.4073    11.3442
         ROT.     0.2889D+06                   775.0097     2.9808    27.9677
         INT.     0.2407D+07                  2629.2558    21.3881    39.3120
         TRA.     0.1012D+28                  1291.6828     4.9680    39.5359
         TOT.                       36.916    3920.9386    26.3561    78.8479

 270.00  VIB.     0.9577D+01                  2043.9817    19.5422    12.0602
         ROT.     0.3057D+06                   804.8177     2.9808    28.0802
         INT.     0.2928D+07                  2848.7995    22.5230    40.1404
         TRA.     0.1071D+28                  1341.3629     4.9680    39.7234
         TOT.                       37.186    4190.1623    27.4910    79.8638

 280.00  VIB.     0.1105D+02                  2245.1323    20.6897    12.7916
         ROT.     0.3229D+06                   834.6258     2.9808    28.1886
         INT.     0.3566D+07                  3079.7580    23.6705    40.9802
         TRA.     0.1131D+28                  1391.0430     4.9680    39.9041
         TOT.                       37.466    4470.8010    28.6385    80.8843

 290.00  VIB.     0.1278D+02                  2457.8045    21.8460    13.5378
         ROT.     0.3403D+06                   864.4339     2.9808    28.2932
         INT.     0.4348D+07                  3322.2384    24.8268    41.8310
         TRA.     0.1192D+28                  1440.7231     4.9680    40.0784
         TOT.                       37.758    4762.9615    29.7948    81.9094

 300.00  VIB.     0.1482D+02                  2682.0691    23.0076    14.2979
         ROT.     0.3581D+06                   894.2419     2.9808    28.3943
         INT.     0.5308D+07                  3576.3111    25.9884    42.6922
         TRA.     0.1255D+28                  1490.4032     4.9680    40.2469
         TOT.                       38.062    5066.7143    30.9564    82.9391

 310.00  VIB.     0.1724D+02                  2917.9626    24.1712    15.0713
         ROT.     0.3761D+06                   924.0500     2.9808    28.4920
         INT.     0.6486D+07                  3842.0126    27.1520    43.5633
         TRA.     0.1318D+28                  1540.0833     4.9680    40.4098
         TOT.                       38.378    5382.0959    32.1200    83.9731

 320.00  VIB.     0.2012D+02                  3165.4896    25.3338    15.8571
         ROT.     0.3945D+06                   953.8580     2.9808    28.5866
         INT.     0.7937D+07                  4119.3477    28.3146    44.4437
         TRA.     0.1382D+28                  1589.7634     4.9680    40.5675
         TOT.                       38.705    5709.1111    33.2826    85.0112

 330.00  VIB.     0.2354D+02                  3424.6259    26.4926    16.6544
         ROT.     0.4131D+06                   983.6661     2.9808    28.6784
         INT.     0.9724D+07                  4408.2920    29.4734    45.3328
         TRA.     0.1447D+28                  1639.4435     4.9680    40.7204
         TOT.                       39.043    6047.7355    34.4414    86.0531

 340.00  VIB.     0.2761D+02                  3695.3207    27.6451    17.4624
         ROT.     0.4320D+06                  1013.4742     2.9808    28.7674
         INT.     0.1193D+08                  4708.7949    30.6259    46.2298
         TRA.     0.1514D+28                  1689.1236     4.9680    40.8687
         TOT.                       39.393    6397.9185    35.5939    87.0985

 350.00  VIB.     0.3247D+02                  3977.4998    28.7891    18.2803
         ROT.     0.4513D+06                  1043.2822     2.9808    28.8538
         INT.     0.1465D+08                  5020.7820    31.7699    47.1341
         TRA.     0.1581D+28                  1738.8037     4.9680    41.0127
         TOT.                       39.755    6759.5857    36.7379    88.1468

 360.00  VIB.     0.3828D+02                  4271.0678    29.9226    19.1072
         ROT.     0.4707D+06                  1073.0903     2.9808    28.9377
         INT.     0.1802D+08                  5344.1581    32.9034    48.0450
         TRA.     0.1649D+28                  1788.4838     4.9680    41.1526
         TOT.                       40.128    7132.6419    37.8714    89.1976

 370.00  VIB.     0.4524D+02                  4575.9112    31.0439    19.9424
         ROT.     0.4905D+06                  1102.8984     2.9808    29.0194
         INT.     0.2219D+08                  5678.8096    34.0247    48.9618
         TRA.     0.1718D+28                  1838.1639     4.9680    41.2888
         TOT.                       40.512    7516.9735    38.9927    90.2506

 380.00  VIB.     0.5359D+02                  4891.9008    32.1516    20.7850
         ROT.     0.5105D+06                  1132.7064     2.9808    29.0989
         INT.     0.2736D+08                  6024.6073    35.1324    49.8839
         TRA.     0.1788D+28                  1887.8440     4.9680    41.4213
         TOT.                       40.908    7912.4513    40.1004    91.3052

 390.00  VIB.     0.6362D+02                  5218.8939    33.2444    21.6344
         ROT.     0.5308D+06                  1162.5145     2.9808    29.1763
         INT.     0.3377D+08                  6381.4084    36.2252    50.8107
         TRA.     0.1860D+28                  1937.5242     4.9680    41.5503
         TOT.                       41.314    8318.9326    41.1933    92.3610

 400.00  VIB.     0.7569D+02                  5556.7366    34.3214    22.4896
         ROT.     0.5513D+06                  1192.3226     2.9808    29.2518
         INT.     0.4173D+08                  6749.0592    37.3022    51.7414
         TRA.     0.1932D+28                  1987.2043     4.9680    41.6761
         TOT.                       41.732    8736.2634    42.2702    93.4175

   *: NOTE: HEATS OF FORMATION ARE RELATIVE TO THE
            ELEMENTS IN THEIR STANDARD STATE AT 298K
              (=  Standard Enthalpy of Formation).

            Hvib:  Zero-point energy is not included.
                   frequencies of less than zero cm-1 are not included.
            Hrot = (3/2)RT
            Htra = (3/2)RT + pV = (5/2)RT

            Heat capacity is Cp, not Cv

          For more information, see: HTTP://OpenMOPAC.net/Manual/thermochemistry.html


           FORCE CONSTANT IN CARTESIAN COORDINATES (Millidynes/A)

    ATOM   CHEMICAL       X               Y               Z
   NUMBER   SYMBOL  FORCE CONSTANT  FORCE CONSTANT  FORCE CONSTANT

      1       C        8.494130        9.452749        8.041936
      2       C        7.710624        8.323354        8.431351
      3       C        9.580074        7.452189        8.089266
      4       C       14.743255       10.527783        3.771901
      5       C       11.411843       12.766118        2.926614
      6       C       11.169231        9.586893        6.226072
      7       C       10.199124       13.023555        4.319691
      8       C       11.105393        9.930949        6.281163
      9       C       10.334542       12.320979        4.604373
     10       H        1.117302        0.679045        3.979999
     11       H        1.277145        1.695220        3.552522
     12       H        1.255578        1.610639        3.625648
     13       H        3.055875        0.849502        2.513135
     14       H        1.019330        1.066293        4.267505
     15       H        1.377100        4.394519        0.492743
     16       H        0.687671        5.124320        0.601005
     17       H        1.250002        4.593903        0.408689
     18       H        4.361349        0.801105        1.105503
     19       H        1.605509        2.850746        1.799075

 **********************
 *                    *
 * JOB ENDED NORMALLY *
 *                    *
 **********************



 TOTAL JOB TIME:             1.87 SECONDS

 == MOPAC DONE ==
