 *******************************************************************************
 **                                                                           **
 **                              MOPAC v23.1.2                                **
 **                                                                           **
 *******************************************************************************
 **          Digital Object Identifier (DOI): 10.5281/zenodo.6511958          **
 **    Visit the DOI location for information on how to cite this program.    **
 *******************************************************************************

                              PM3 CALCULATION RESULTS

 *******************************************************************************
 *  CALCULATION DONE: (MAX THREADS = 1)              Tue Jun  3 16:37:51 2025  *
 *  PM3        - The PM3 Hamiltonian to be used
 *  PRECISE    - TIGHTER CRITERIA TO BE USED
 *  NOSYM      - POINT-GROUP SYMMETRY SET TO C1
 *  THREADS=1  - MULTI-THREADING NOT USED
 *  T=         - A TIME OF 172800.0 SECONDS REQUESTED
 *  DUMP=N     - RESTART FILE WRITTEN EVERY 7200.0 SECONDS REQUESTED
 *******************************************************************************
pm3  precise nosym THREADS=1
 InChI=1S/C12H22/c1-3-5-6-7-8-12-10-9-11(12)4-2/h5-6,11-12H,3-4,7-10H2,1-2H3

   ATOM   CHEMICAL          X               Y               Z
  NUMBER   SYMBOL      (ANGSTROMS)     (ANGSTROMS)     (ANGSTROMS)

     1       C          2.21130000  *   0.78120000  *   0.28030000  *
     2       C          1.47230000  *   0.22030000  *  -0.94540000  *
     3       C          2.65160000  *   1.98950000  *  -0.54710000  *
     4       C          1.92510000  *   1.43030000  *  -1.76350000  *
     5       C         -0.05700000  *   0.15140000  *  -0.78080000  *
     6       C          3.39650000  *  -0.08130000  *   0.75080000  *
     7       C         -0.47130000  *  -1.02210000  *   0.11510000  *
     8       C         -4.19700000  *  -0.36570000  *   0.98300000  *
     9       C          2.92470000  *  -1.32330000  *   1.50120000  *
    10       C         -4.87380000  *  -0.06870000  *  -0.35230000  *
    11       C         -2.70260000  *  -0.24010000  *   0.87770000  *
    12       C         -1.96800000  *  -1.13610000  *   0.20080000  *
    13       H          1.54220000  *   1.08270000  *   1.11800000  *
    14       H          1.90320000  *  -0.72590000  *  -1.34450000  *
    15       H          4.02460000  *  -0.39230000  *  -0.11320000  *
    16       H          4.03020000  *   0.52420000  *   1.43430000  *
    17       H          3.75040000  *   2.06060000  *  -0.70750000  *
    18       H          2.19580000  *   2.93690000  *  -0.18460000  *
    19       H         -0.44070000  *   1.10560000  *  -0.35560000  *
    20       H         -0.51310000  *   0.01610000  *  -1.78610000  *
    21       H          2.62680000  *   1.14870000  *  -2.57900000  *
    22       H          1.09700000  *   2.09200000  *  -2.10180000  *
    23       H         -4.56710000  *   0.35920000  *   1.73940000  *
    24       H         -4.46800000  *  -1.38810000  *   1.32500000  *
    25       H         -0.05340000  *  -0.89660000  *   1.13700000  *
    26       H         -0.06860000  *  -1.96700000  *  -0.30980000  *
    27       H          2.29650000  *  -1.03440000  *   2.37050000  *
    28       H          2.34100000  *  -1.98530000  *   0.82810000  *
    29       H          3.80520000  *  -1.88880000  *   1.87240000  *
    30       H         -5.97590000  *  -0.12730000  *  -0.23060000  *
    31       H         -4.60790000  *   0.95260000  *  -0.69960000  *
    32       H         -4.56380000  *  -0.80920000  *  -1.11990000  *
    33       H         -2.21350000  *   0.58430000  *   1.38970000  *
    34       H         -2.45270000  *  -1.98340000  *  -0.27680000  *



          CARTESIAN COORDINATES 

    NO.       ATOM           X           Y           Z

     1         C          2.2113      0.7812      0.2803
     2         C          1.4723      0.2203     -0.9454
     3         C          2.6516      1.9895     -0.5471
     4         C          1.9251      1.4303     -1.7635
     5         C         -0.0570      0.1514     -0.7808
     6         C          3.3965     -0.0813      0.7508
     7         C         -0.4713     -1.0221      0.1151
     8         C         -4.1970     -0.3657      0.9830
     9         C          2.9247     -1.3233      1.5012
    10         C         -4.8738     -0.0687     -0.3523
    11         C         -2.7026     -0.2401      0.8777
    12         C         -1.9680     -1.1361      0.2008
    13         H          1.5422      1.0827      1.1180
    14         H          1.9032     -0.7259     -1.3445
    15         H          4.0246     -0.3923     -0.1132
    16         H          4.0302      0.5242      1.4343
    17         H          3.7504      2.0606     -0.7075
    18         H          2.1958      2.9369     -0.1846
    19         H         -0.4407      1.1056     -0.3556
    20         H         -0.5131      0.0161     -1.7861
    21         H          2.6268      1.1487     -2.5790
    22         H          1.0970      2.0920     -2.1018
    23         H         -4.5671      0.3592      1.7394
    24         H         -4.4680     -1.3881      1.3250
    25         H         -0.0534     -0.8966      1.1370
    26         H         -0.0686     -1.9670     -0.3098
    27         H          2.2965     -1.0344      2.3705
    28         H          2.3410     -1.9853      0.8281
    29         H          3.8052     -1.8888      1.8724
    30         H         -5.9759     -0.1273     -0.2306
    31         H         -4.6079      0.9526     -0.6996
    32         H         -4.5638     -0.8092     -1.1199
    33         H         -2.2135      0.5843      1.3897
    34         H         -2.4527     -1.9834     -0.2768

  H: (PM3): J. J. P. STEWART, J. COMP. CHEM. 10, 209 (1989).
  C: (PM3): J. J. P. STEWART, J. COMP. CHEM. 10, 209 (1989).

           Empirical Formula: C12 H22  =    34 atoms



      MOLECULAR POINT GROUP   :   C1  


      RHF CALCULATION, NO. OF DOUBLY OCCUPIED LEVELS = 35


          Geometry optimization using L-BFGS
 CYCLE:     1 TIME:   0.012 TIME LEFT:  2.00D  GRAD.:    85.921 HEAT: -16.92064
 CYCLE:     2 TIME:   0.008 TIME LEFT:  2.00D  GRAD.:    84.506 HEAT: -16.99385
 CYCLE:     3 TIME:   0.012 TIME LEFT:  2.00D  GRAD.:    33.830 HEAT: -19.91083
 CYCLE:     4 TIME:   0.008 TIME LEFT:  2.00D  GRAD.:    84.509 HEAT: -16.99391
 CYCLE:     5 TIME:   0.012 TIME LEFT:  2.00D  GRAD.:    33.833 HEAT: -19.91083
 CYCLE:     6 TIME:   0.008 TIME LEFT:  2.00D  GRAD.:    32.730 HEAT: -20.45275
 CYCLE:     7 TIME:   0.012 TIME LEFT:  2.00D  GRAD.:    23.406 HEAT: -21.12065
 CYCLE:     8 TIME:   0.008 TIME LEFT:  2.00D  GRAD.:    22.716 HEAT: -21.61787
 CYCLE:     9 TIME:   0.012 TIME LEFT:  2.00D  GRAD.:    17.768 HEAT: -21.85378
 CYCLE:    10 TIME:   0.012 TIME LEFT:  2.00D  GRAD.:     6.123 HEAT: -21.94998
 CYCLE:    11 TIME:   0.008 TIME LEFT:  2.00D  GRAD.:     3.691 HEAT: -21.96788
 CYCLE:    12 TIME:   0.012 TIME LEFT:  2.00D  GRAD.:     3.144 HEAT: -21.98341
 CYCLE:    13 TIME:   0.008 TIME LEFT:  2.00D  GRAD.:     2.975 HEAT: -21.99720
 CYCLE:    14 TIME:   0.012 TIME LEFT:  2.00D  GRAD.:     6.931 HEAT: -21.99646
 CYCLE:    15 TIME:   0.008 TIME LEFT:  2.00D  GRAD.:     1.700 HEAT: -22.00855
 CYCLE:    16 TIME:   0.012 TIME LEFT:  2.00D  GRAD.:     1.412 HEAT: -22.01058
 CYCLE:    17 TIME:   0.012 TIME LEFT:  2.00D  GRAD.:     1.848 HEAT: -22.01560
 CYCLE:    18 TIME:   0.008 TIME LEFT:  2.00D  GRAD.:     2.033 HEAT: -22.02091
 CYCLE:    19 TIME:   0.012 TIME LEFT:  2.00D  GRAD.:     5.241 HEAT: -22.01983
 CYCLE:    20 TIME:   0.008 TIME LEFT:  2.00D  GRAD.:     1.380 HEAT: -22.02762
 CYCLE:    21 TIME:   0.012 TIME LEFT:  2.00D  GRAD.:     1.210 HEAT: -22.02931
 CYCLE:    22 TIME:   0.008 TIME LEFT:  2.00D  GRAD.:     1.951 HEAT: -22.03329
 CYCLE:    23 TIME:   0.012 TIME LEFT:  2.00D  GRAD.:     5.897 HEAT: -22.03621
 CYCLE:    24 TIME:   0.008 TIME LEFT:  2.00D  GRAD.:     3.078 HEAT: -22.04208
 CYCLE:    25 TIME:   0.012 TIME LEFT:  2.00D  GRAD.:     2.197 HEAT: -22.04804
 CYCLE:    26 TIME:   0.012 TIME LEFT:  2.00D  GRAD.:     2.708 HEAT: -22.05236
 CYCLE:    27 TIME:   0.008 TIME LEFT:  2.00D  GRAD.:     3.043 HEAT: -22.06073
 CYCLE:    28 TIME:   0.012 TIME LEFT:  2.00D  GRAD.:     3.105 HEAT: -22.07098
 CYCLE:    29 TIME:   0.012 TIME LEFT:  2.00D  GRAD.:     3.112 HEAT: -22.08033
 CYCLE:    30 TIME:   0.008 TIME LEFT:  2.00D  GRAD.:     3.065 HEAT: -22.08740
 CYCLE:    31 TIME:   0.012 TIME LEFT:  2.00D  GRAD.:     4.458 HEAT: -22.09039
 CYCLE:    32 TIME:   0.012 TIME LEFT:  2.00D  GRAD.:    14.566 HEAT: -22.06116
 CYCLE:    33 TIME:   0.008 TIME LEFT:  2.00D  GRAD.:     4.311 HEAT: -22.10891
 CYCLE:    34 TIME:   0.012 TIME LEFT:  2.00D  GRAD.:     7.068 HEAT: -22.09586
 CYCLE:    35 TIME:   0.008 TIME LEFT:  2.00D  GRAD.:     1.574 HEAT: -22.11560
 CYCLE:    36 TIME:   0.012 TIME LEFT:  2.00D  GRAD.:     4.157 HEAT: -22.11171
 CYCLE:    37 TIME:   0.012 TIME LEFT:  2.00D  GRAD.:     2.449 HEAT: -22.11930
 CYCLE:    38 TIME:   0.012 TIME LEFT:  2.00D  GRAD.:     2.592 HEAT: -22.12007
 CYCLE:    39 TIME:   0.008 TIME LEFT:  2.00D  GRAD.:     1.038 HEAT: -22.12372
 CYCLE:    40 TIME:   0.012 TIME LEFT:  2.00D  GRAD.:     1.189 HEAT: -22.12628
 CYCLE:    41 TIME:   0.012 TIME LEFT:  2.00D  GRAD.:     3.292 HEAT: -22.12932
 CYCLE:    42 TIME:   0.012 TIME LEFT:  2.00D  GRAD.:     2.138 HEAT: -22.13220
 CYCLE:    43 TIME:   0.008 TIME LEFT:  2.00D  GRAD.:     1.372 HEAT: -22.13357
 CYCLE:    44 TIME:   0.012 TIME LEFT:  2.00D  GRAD.:     1.234 HEAT: -22.13550
 CYCLE:    45 TIME:   0.008 TIME LEFT:  2.00D  GRAD.:     1.601 HEAT: -22.13754
 CYCLE:    46 TIME:   0.012 TIME LEFT:  2.00D  GRAD.:     1.562 HEAT: -22.14070
 CYCLE:    47 TIME:   0.012 TIME LEFT:  2.00D  GRAD.:     5.442 HEAT: -22.13727
 CYCLE:    48 TIME:   0.008 TIME LEFT:  2.00D  GRAD.:     1.163 HEAT: -22.14400
 CYCLE:    49 TIME:   0.012 TIME LEFT:  2.00D  GRAD.:     0.824 HEAT: -22.14494
 CYCLE:    50 TIME:   0.008 TIME LEFT:  2.00D  GRAD.:     1.331 HEAT: -22.14718
 CYCLE:    51 TIME:   0.012 TIME LEFT:  2.00D  GRAD.:     1.400 HEAT: -22.14909
 CYCLE:    52 TIME:   0.012 TIME LEFT:  2.00D  GRAD.:     3.671 HEAT: -22.14986
 CYCLE:    53 TIME:   0.012 TIME LEFT:  2.00D  GRAD.:     1.124 HEAT: -22.15382
 CYCLE:    54 TIME:   0.008 TIME LEFT:  2.00D  GRAD.:     1.053 HEAT: -22.15546
 CYCLE:    55 TIME:   0.012 TIME LEFT:  2.00D  GRAD.:     1.321 HEAT: -22.15840
 CYCLE:    56 TIME:   0.012 TIME LEFT:  2.00D  GRAD.:     2.433 HEAT: -22.16106
 CYCLE:    57 TIME:   0.012 TIME LEFT:  2.00D  GRAD.:     2.311 HEAT: -22.16321
 CYCLE:    58 TIME:   0.012 TIME LEFT:  2.00D  GRAD.:     1.264 HEAT: -22.16558
 CYCLE:    59 TIME:   0.008 TIME LEFT:  2.00D  GRAD.:     1.439 HEAT: -22.16792
 CYCLE:    60 TIME:   0.012 TIME LEFT:  2.00D  GRAD.:     1.713 HEAT: -22.17087
 CYCLE:    61 TIME:   0.012 TIME LEFT:  2.00D  GRAD.:     2.255 HEAT: -22.17432
 CYCLE:    62 TIME:   0.008 TIME LEFT:  2.00D  GRAD.:     1.471 HEAT: -22.17761
 CYCLE:    63 TIME:   0.012 TIME LEFT:  2.00D  GRAD.:     1.443 HEAT: -22.17997
 CYCLE:    64 TIME:   0.012 TIME LEFT:  2.00D  GRAD.:     2.009 HEAT: -22.18413
 CYCLE:    65 TIME:   0.008 TIME LEFT:  2.00D  GRAD.:     3.506 HEAT: -22.18730
 CYCLE:    66 TIME:   0.012 TIME LEFT:  2.00D  GRAD.:     1.902 HEAT: -22.19211
 CYCLE:    67 TIME:   0.008 TIME LEFT:  2.00D  GRAD.:     1.743 HEAT: -22.19768
 CYCLE:    68 TIME:   0.012 TIME LEFT:  2.00D  GRAD.:     1.933 HEAT: -22.20178
 CYCLE:    69 TIME:   0.012 TIME LEFT:  2.00D  GRAD.:     3.071 HEAT: -22.20683
 CYCLE:    70 TIME:   0.012 TIME LEFT:  2.00D  GRAD.:     2.412 HEAT: -22.21287
 CYCLE:    71 TIME:   0.008 TIME LEFT:  2.00D  GRAD.:     4.558 HEAT: -22.21801
 CYCLE:    72 TIME:   0.012 TIME LEFT:  2.00D  GRAD.:     5.556 HEAT: -22.22188
 CYCLE:    73 TIME:   0.012 TIME LEFT:  2.00D  GRAD.:     2.696 HEAT: -22.22898
 CYCLE:    74 TIME:   0.008 TIME LEFT:  2.00D  GRAD.:     2.270 HEAT: -22.23266
 CYCLE:    75 TIME:   0.012 TIME LEFT:  2.00D  GRAD.:     2.513 HEAT: -22.23587
 CYCLE:    76 TIME:   0.012 TIME LEFT:  2.00D  GRAD.:     2.694 HEAT: -22.24314
 CYCLE:    77 TIME:   0.012 TIME LEFT:  2.00D  GRAD.:     1.702 HEAT: -22.25018
 CYCLE:    78 TIME:   0.008 TIME LEFT:  2.00D  GRAD.:     2.228 HEAT: -22.25438
 CYCLE:    79 TIME:   0.012 TIME LEFT:  2.00D  GRAD.:     1.614 HEAT: -22.25872
 CYCLE:    80 TIME:   0.012 TIME LEFT:  2.00D  GRAD.:     1.775 HEAT: -22.26272
 CYCLE:    81 TIME:   0.012 TIME LEFT:  2.00D  GRAD.:     2.600 HEAT: -22.26823
 CYCLE:    82 TIME:   0.012 TIME LEFT:  2.00D  GRAD.:     4.212 HEAT: -22.27152
 CYCLE:    83 TIME:   0.008 TIME LEFT:  2.00D  GRAD.:     2.729 HEAT: -22.27947
 CYCLE:    84 TIME:   0.012 TIME LEFT:  2.00D  GRAD.:     2.952 HEAT: -22.29090
 CYCLE:    85 TIME:   0.012 TIME LEFT:  2.00D  GRAD.:     3.605 HEAT: -22.29575
 CYCLE:    86 TIME:   0.008 TIME LEFT:  2.00D  GRAD.:     5.305 HEAT: -22.30972
 CYCLE:    87 TIME:   0.012 TIME LEFT:  2.00D  GRAD.:     5.203 HEAT: -22.32469
 CYCLE:    88 TIME:   0.012 TIME LEFT:  2.00D  GRAD.:     3.823 HEAT: -22.33483
 CYCLE:    89 TIME:   0.012 TIME LEFT:  2.00D  GRAD.:     4.560 HEAT: -22.34630
 CYCLE:    90 TIME:   0.008 TIME LEFT:  2.00D  GRAD.:     3.360 HEAT: -22.36267
 CYCLE:    91 TIME:   0.012 TIME LEFT:  2.00D  GRAD.:     3.556 HEAT: -22.37788
 CYCLE:    92 TIME:   0.012 TIME LEFT:  2.00D  GRAD.:     4.298 HEAT: -22.38936
 CYCLE:    93 TIME:   0.012 TIME LEFT:  2.00D  GRAD.:     3.135 HEAT: -22.40309
 CYCLE:    94 TIME:   0.012 TIME LEFT:  2.00D  GRAD.:     4.309 HEAT: -22.42349
 CYCLE:    95 TIME:   0.012 TIME LEFT:  2.00D  GRAD.:     6.328 HEAT: -22.43137
 CYCLE:    96 TIME:   0.012 TIME LEFT:  2.00D  GRAD.:     6.306 HEAT: -22.45823
 CYCLE:    97 TIME:   0.012 TIME LEFT:  2.00D  GRAD.:     6.060 HEAT: -22.48214
 CYCLE:    98 TIME:   0.008 TIME LEFT:  2.00D  GRAD.:     3.754 HEAT: -22.50329
 CYCLE:    99 TIME:   0.012 TIME LEFT:  2.00D  GRAD.:     3.912 HEAT: -22.52890
 CYCLE:   100 TIME:   0.012 TIME LEFT:  2.00D  GRAD.:     5.666 HEAT: -22.55626
 CYCLE:   101 TIME:   0.012 TIME LEFT:  2.00D  GRAD.:     6.400 HEAT: -22.58300
 CYCLE:   102 TIME:   0.012 TIME LEFT:  2.00D  GRAD.:    18.936 HEAT: -22.49289
 CYCLE:   103 TIME:   0.008 TIME LEFT:  2.00D  GRAD.:     4.858 HEAT: -22.62408
 CYCLE:   104 TIME:   0.012 TIME LEFT:  2.00D  GRAD.:     5.904 HEAT: -22.62208
 CYCLE:   105 TIME:   0.012 TIME LEFT:  2.00D  GRAD.:     2.268 HEAT: -22.63796
 CYCLE:   106 TIME:   0.012 TIME LEFT:  2.00D  GRAD.:     3.510 HEAT: -22.64412
 CYCLE:   107 TIME:   0.008 TIME LEFT:  2.00D  GRAD.:     7.199 HEAT: -22.65433
 CYCLE:   108 TIME:   0.012 TIME LEFT:  2.00D  GRAD.:     4.070 HEAT: -22.66603
 CYCLE:   109 TIME:   0.012 TIME LEFT:  2.00D  GRAD.:     3.135 HEAT: -22.67701
 CYCLE:   110 TIME:   0.008 TIME LEFT:  2.00D  GRAD.:     3.172 HEAT: -22.68347
 CYCLE:   111 TIME:   0.012 TIME LEFT:  2.00D  GRAD.:     3.657 HEAT: -22.70206
 CYCLE:   112 TIME:   0.012 TIME LEFT:  2.00D  GRAD.:    12.443 HEAT: -22.69195
 CYCLE:   113 TIME:   0.012 TIME LEFT:  2.00D  GRAD.:     3.069 HEAT: -22.72387
 CYCLE:   114 TIME:   0.008 TIME LEFT:  2.00D  GRAD.:     3.424 HEAT: -22.72601
 CYCLE:   115 TIME:   0.012 TIME LEFT:  2.00D  GRAD.:     2.023 HEAT: -22.73609
 CYCLE:   116 TIME:   0.012 TIME LEFT:  2.00D  GRAD.:     2.507 HEAT: -22.75025
 CYCLE:   117 TIME:   0.012 TIME LEFT:  2.00D  GRAD.:     5.995 HEAT: -22.76340
 CYCLE:   118 TIME:   0.012 TIME LEFT:  2.00D  GRAD.:     3.459 HEAT: -22.77985
 CYCLE:   119 TIME:   0.012 TIME LEFT:  2.00D  GRAD.:     3.474 HEAT: -22.79568
 CYCLE:   120 TIME:   0.008 TIME LEFT:  2.00D  GRAD.:     5.434 HEAT: -22.80736
 CYCLE:   121 TIME:   0.012 TIME LEFT:  2.00D  GRAD.:     6.830 HEAT: -22.82734
 CYCLE:   122 TIME:   0.008 TIME LEFT:  2.00D  GRAD.:     5.846 HEAT: -22.85094
 CYCLE:   123 TIME:   0.012 TIME LEFT:  2.00D  GRAD.:     4.413 HEAT: -22.86955
 CYCLE:   124 TIME:   0.012 TIME LEFT:  2.00D  GRAD.:     3.738 HEAT: -22.88051
 CYCLE:   125 TIME:   0.008 TIME LEFT:  2.00D  GRAD.:     2.675 HEAT: -22.88885
 CYCLE:   126 TIME:   0.012 TIME LEFT:  2.00D  GRAD.:     3.116 HEAT: -22.89414
 CYCLE:   127 TIME:   0.012 TIME LEFT:  2.00D  GRAD.:     3.536 HEAT: -22.89979
 CYCLE:   128 TIME:   0.008 TIME LEFT:  2.00D  GRAD.:     2.118 HEAT: -22.90576
 CYCLE:   129 TIME:   0.012 TIME LEFT:  2.00D  GRAD.:     2.651 HEAT: -22.91481
 CYCLE:   130 TIME:   0.012 TIME LEFT:  2.00D  GRAD.:     2.880 HEAT: -22.92051
 CYCLE:   131 TIME:   0.012 TIME LEFT:  2.00D  GRAD.:     4.781 HEAT: -22.93171
 CYCLE:   132 TIME:   0.008 TIME LEFT:  2.00D  GRAD.:     4.394 HEAT: -22.94318
 CYCLE:   133 TIME:   0.012 TIME LEFT:  2.00D  GRAD.:     2.281 HEAT: -22.95126
 CYCLE:   134 TIME:   0.008 TIME LEFT:  2.00D  GRAD.:     2.576 HEAT: -22.95923
 CYCLE:   135 TIME:   0.012 TIME LEFT:  2.00D  GRAD.:     4.136 HEAT: -22.96740
 CYCLE:   136 TIME:   0.012 TIME LEFT:  2.00D  GRAD.:     3.211 HEAT: -22.97696
 CYCLE:   137 TIME:   0.012 TIME LEFT:  2.00D  GRAD.:     2.193 HEAT: -22.98597
 CYCLE:   138 TIME:   0.008 TIME LEFT:  2.00D  GRAD.:     3.287 HEAT: -22.98988
 CYCLE:   139 TIME:   0.012 TIME LEFT:  2.00D  GRAD.:     2.030 HEAT: -22.99228
 CYCLE:   140 TIME:   0.012 TIME LEFT:  2.00D  GRAD.:     1.603 HEAT: -22.99371
 CYCLE:   141 TIME:   0.008 TIME LEFT:  2.00D  GRAD.:     1.770 HEAT: -22.99689
 CYCLE:   142 TIME:   0.012 TIME LEFT:  2.00D  GRAD.:     1.715 HEAT: -22.99922
 CYCLE:   143 TIME:   0.012 TIME LEFT:  2.00D  GRAD.:     1.337 HEAT: -23.00174
 CYCLE:   144 TIME:   0.012 TIME LEFT:  2.00D  GRAD.:     1.661 HEAT: -23.00528
 CYCLE:   145 TIME:   0.008 TIME LEFT:  2.00D  GRAD.:     2.355 HEAT: -23.00791
 CYCLE:   146 TIME:   0.012 TIME LEFT:  2.00D  GRAD.:     1.545 HEAT: -23.01097
 CYCLE:   147 TIME:   0.012 TIME LEFT:  2.00D  GRAD.:     1.555 HEAT: -23.01476
 CYCLE:   148 TIME:   0.008 TIME LEFT:  2.00D  GRAD.:     1.704 HEAT: -23.01759
 CYCLE:   149 TIME:   0.012 TIME LEFT:  2.00D  GRAD.:     2.455 HEAT: -23.02276
 CYCLE:   150 TIME:   0.012 TIME LEFT:  2.00D  GRAD.:     3.242 HEAT: -23.02602
 CYCLE:   151 TIME:   0.012 TIME LEFT:  2.00D  GRAD.:     1.812 HEAT: -23.03025
 CYCLE:   152 TIME:   0.012 TIME LEFT:  2.00D  GRAD.:     2.004 HEAT: -23.03535
 CYCLE:   153 TIME:   0.008 TIME LEFT:  2.00D  GRAD.:     2.832 HEAT: -23.04179
 CYCLE:   154 TIME:   0.012 TIME LEFT:  2.00D  GRAD.:     6.493 HEAT: -23.04698
 CYCLE:   155 TIME:   0.012 TIME LEFT:  2.00D  GRAD.:     2.967 HEAT: -23.05736
 CYCLE:   156 TIME:   0.008 TIME LEFT:  2.00D  GRAD.:     2.439 HEAT: -23.06312
 CYCLE:   157 TIME:   0.012 TIME LEFT:  2.00D  GRAD.:     2.541 HEAT: -23.07192
 CYCLE:   158 TIME:   0.012 TIME LEFT:  2.00D  GRAD.:     3.249 HEAT: -23.08369
 CYCLE:   159 TIME:   0.008 TIME LEFT:  2.00D  GRAD.:     4.240 HEAT: -23.09283
 CYCLE:   160 TIME:   0.012 TIME LEFT:  2.00D  GRAD.:     2.535 HEAT: -23.10496
 CYCLE:   161 TIME:   0.012 TIME LEFT:  2.00D  GRAD.:     2.794 HEAT: -23.11589
 CYCLE:   162 TIME:   0.012 TIME LEFT:  2.00D  GRAD.:     3.038 HEAT: -23.12543
 CYCLE:   163 TIME:   0.012 TIME LEFT:  2.00D  GRAD.:     4.021 HEAT: -23.13660
 CYCLE:   164 TIME:   0.008 TIME LEFT:  2.00D  GRAD.:     3.159 HEAT: -23.14956
 CYCLE:   165 TIME:   0.012 TIME LEFT:  2.00D  GRAD.:     2.883 HEAT: -23.15969
 CYCLE:   166 TIME:   0.012 TIME LEFT:  2.00D  GRAD.:     3.411 HEAT: -23.16683
 CYCLE:   167 TIME:   0.008 TIME LEFT:  2.00D  GRAD.:     3.074 HEAT: -23.17602
 CYCLE:   168 TIME:   0.012 TIME LEFT:  2.00D  GRAD.:     2.417 HEAT: -23.18195
 CYCLE:   169 TIME:   0.012 TIME LEFT:  2.00D  GRAD.:     2.925 HEAT: -23.18669
 CYCLE:   170 TIME:   0.012 TIME LEFT:  2.00D  GRAD.:     2.559 HEAT: -23.19175
 CYCLE:   171 TIME:   0.008 TIME LEFT:  2.00D  GRAD.:     2.282 HEAT: -23.19829
 CYCLE:   172 TIME:   0.012 TIME LEFT:  2.00D  GRAD.:     3.299 HEAT: -23.20744
 CYCLE:   173 TIME:   0.012 TIME LEFT:  2.00D  GRAD.:     3.657 HEAT: -23.21328
 CYCLE:   174 TIME:   0.012 TIME LEFT:  2.00D  GRAD.:     1.930 HEAT: -23.21878
 CYCLE:   175 TIME:   0.008 TIME LEFT:  2.00D  GRAD.:     2.506 HEAT: -23.22269
 CYCLE:   176 TIME:   0.012 TIME LEFT:  2.00D  GRAD.:     2.077 HEAT: -23.22689
 CYCLE:   177 TIME:   0.012 TIME LEFT:  2.00D  GRAD.:     1.945 HEAT: -23.23265
 CYCLE:   178 TIME:   0.012 TIME LEFT:  2.00D  GRAD.:     2.292 HEAT: -23.23976
 CYCLE:   179 TIME:   0.008 TIME LEFT:  2.00D  GRAD.:     1.990 HEAT: -23.24512
 CYCLE:   180 TIME:   0.012 TIME LEFT:  2.00D  GRAD.:     1.808 HEAT: -23.25120
 CYCLE:   181 TIME:   0.012 TIME LEFT:  2.00D  GRAD.:     2.400 HEAT: -23.25623
 CYCLE:   182 TIME:   0.012 TIME LEFT:  2.00D  GRAD.:     2.172 HEAT: -23.26160
 CYCLE:   183 TIME:   0.008 TIME LEFT:  2.00D  GRAD.:     2.172 HEAT: -23.26828
 CYCLE:   184 TIME:   0.012 TIME LEFT:  2.00D  GRAD.:     3.333 HEAT: -23.27855
 CYCLE:   185 TIME:   0.008 TIME LEFT:  2.00D  GRAD.:     6.766 HEAT: -23.28262
 CYCLE:   186 TIME:   0.012 TIME LEFT:  2.00D  GRAD.:     2.736 HEAT: -23.29293
 CYCLE:   187 TIME:   0.012 TIME LEFT:  2.00D  GRAD.:     2.566 HEAT: -23.29976
 CYCLE:   188 TIME:   0.012 TIME LEFT:  2.00D  GRAD.:     3.451 HEAT: -23.30975
 CYCLE:   189 TIME:   0.008 TIME LEFT:  2.00D  GRAD.:     3.812 HEAT: -23.32401
 CYCLE:   190 TIME:   0.016 TIME LEFT:  2.00D  GRAD.:     4.908 HEAT: -23.33981
 CYCLE:   191 TIME:   0.008 TIME LEFT:  2.00D  GRAD.:     4.897 HEAT: -23.35506
 CYCLE:   192 TIME:   0.012 TIME LEFT:  2.00D  GRAD.:     3.248 HEAT: -23.36871
 CYCLE:   193 TIME:   0.008 TIME LEFT:  2.00D  GRAD.:     4.460 HEAT: -23.38062
 CYCLE:   194 TIME:   0.012 TIME LEFT:  2.00D  GRAD.:     4.031 HEAT: -23.39053
 CYCLE:   195 TIME:   0.012 TIME LEFT:  2.00D  GRAD.:     3.036 HEAT: -23.40185
 CYCLE:   196 TIME:   0.012 TIME LEFT:  2.00D  GRAD.:     2.308 HEAT: -23.41929
 CYCLE:   197 TIME:   0.008 TIME LEFT:  2.00D  GRAD.:     3.841 HEAT: -23.42841
 CYCLE:   198 TIME:   0.016 TIME LEFT:  2.00D  GRAD.:     2.629 HEAT: -23.43756
 CYCLE:   199 TIME:   0.008 TIME LEFT:  2.00D  GRAD.:     3.308 HEAT: -23.44412
 CYCLE:   200 TIME:   0.012 TIME LEFT:  2.00D  GRAD.:     2.055 HEAT: -23.44878
 CYCLE:   201 TIME:   0.012 TIME LEFT:  2.00D  GRAD.:     1.929 HEAT: -23.45245
 CYCLE:   202 TIME:   0.012 TIME LEFT:  2.00D  GRAD.:     2.021 HEAT: -23.45666
 CYCLE:   203 TIME:   0.008 TIME LEFT:  2.00D  GRAD.:     2.594 HEAT: -23.46395
 CYCLE:   204 TIME:   0.012 TIME LEFT:  2.00D  GRAD.:     5.185 HEAT: -23.46696
 CYCLE:   205 TIME:   0.012 TIME LEFT:  2.00D  GRAD.:     2.038 HEAT: -23.47384
 CYCLE:   206 TIME:   0.012 TIME LEFT:  2.00D  GRAD.:     1.726 HEAT: -23.47774
 CYCLE:   207 TIME:   0.008 TIME LEFT:  2.00D  GRAD.:     2.364 HEAT: -23.48249
 CYCLE:   208 TIME:   0.012 TIME LEFT:  2.00D  GRAD.:     3.368 HEAT: -23.49087
 CYCLE:   209 TIME:   0.012 TIME LEFT:  2.00D  GRAD.:     3.119 HEAT: -23.50173
 CYCLE:   210 TIME:   0.012 TIME LEFT:  2.00D  GRAD.:     2.448 HEAT: -23.51236
 CYCLE:   211 TIME:   0.012 TIME LEFT:  2.00D  GRAD.:     2.933 HEAT: -23.52114
 CYCLE:   212 TIME:   0.008 TIME LEFT:  2.00D  GRAD.:     2.385 HEAT: -23.52776
 CYCLE:   213 TIME:   0.012 TIME LEFT:  2.00D  GRAD.:     2.379 HEAT: -23.53312
 CYCLE:   214 TIME:   0.012 TIME LEFT:  2.00D  GRAD.:     3.711 HEAT: -23.53988
 CYCLE:   215 TIME:   0.008 TIME LEFT:  2.00D  GRAD.:     2.658 HEAT: -23.54612
 CYCLE:   216 TIME:   0.012 TIME LEFT:  2.00D  GRAD.:     2.677 HEAT: -23.55498
 CYCLE:   217 TIME:   0.012 TIME LEFT:  2.00D  GRAD.:     3.928 HEAT: -23.56441
 CYCLE:   218 TIME:   0.008 TIME LEFT:  2.00D  GRAD.:     2.603 HEAT: -23.57526
 CYCLE:   219 TIME:   0.012 TIME LEFT:  2.00D  GRAD.:     2.373 HEAT: -23.58571
 CYCLE:   220 TIME:   0.008 TIME LEFT:  2.00D  GRAD.:     3.676 HEAT: -23.59125
 CYCLE:   221 TIME:   0.012 TIME LEFT:  2.00D  GRAD.:     2.368 HEAT: -23.59799
 CYCLE:   222 TIME:   0.012 TIME LEFT:  2.00D  GRAD.:     2.313 HEAT: -23.60967
 CYCLE:   223 TIME:   0.012 TIME LEFT:  2.00D  GRAD.:     3.207 HEAT: -23.61605
 CYCLE:   224 TIME:   0.008 TIME LEFT:  2.00D  GRAD.:     5.846 HEAT: -23.61458
 CYCLE:   225 TIME:   0.012 TIME LEFT:  2.00D  GRAD.:     3.180 HEAT: -23.62969
 CYCLE:   226 TIME:   0.012 TIME LEFT:  2.00D  GRAD.:     1.838 HEAT: -23.63431
 CYCLE:   227 TIME:   0.008 TIME LEFT:  2.00D  GRAD.:     1.760 HEAT: -23.63762
 CYCLE:   228 TIME:   0.012 TIME LEFT:  2.00D  GRAD.:     2.071 HEAT: -23.64455
 CYCLE:   229 TIME:   0.012 TIME LEFT:  2.00D  GRAD.:     3.945 HEAT: -23.65231
 CYCLE:   230 TIME:   0.012 TIME LEFT:  2.00D  GRAD.:     3.631 HEAT: -23.65614
 CYCLE:   231 TIME:   0.008 TIME LEFT:  2.00D  GRAD.:     1.508 HEAT: -23.65926
 CYCLE:   232 TIME:   0.012 TIME LEFT:  2.00D  GRAD.:     1.267 HEAT: -23.66055
 CYCLE:   233 TIME:   0.012 TIME LEFT:  2.00D  GRAD.:     1.165 HEAT: -23.66249
 CYCLE:   234 TIME:   0.012 TIME LEFT:  2.00D  GRAD.:     2.024 HEAT: -23.66567
 CYCLE:   235 TIME:   0.008 TIME LEFT:  2.00D  GRAD.:     5.140 HEAT: -23.66385
 CYCLE:   236 TIME:   0.012 TIME LEFT:  2.00D  GRAD.:     1.327 HEAT: -23.66999
 CYCLE:   237 TIME:   0.012 TIME LEFT:  2.00D  GRAD.:     0.922 HEAT: -23.67126
 CYCLE:   238 TIME:   0.012 TIME LEFT:  2.00D  GRAD.:     1.347 HEAT: -23.67473
 CYCLE:   239 TIME:   0.008 TIME LEFT:  2.00D  GRAD.:     1.676 HEAT: -23.67692
 CYCLE:   240 TIME:   0.012 TIME LEFT:  2.00D  GRAD.:     1.827 HEAT: -23.67889
 CYCLE:   241 TIME:   0.012 TIME LEFT:  2.00D  GRAD.:     1.200 HEAT: -23.68066
 CYCLE:   242 TIME:   0.008 TIME LEFT:  2.00D  GRAD.:     1.163 HEAT: -23.68210
 CYCLE:   243 TIME:   0.012 TIME LEFT:  2.00D  GRAD.:     1.229 HEAT: -23.68358
 CYCLE:   244 TIME:   0.012 TIME LEFT:  2.00D  GRAD.:     2.141 HEAT: -23.68595
 CYCLE:   245 TIME:   0.012 TIME LEFT:  2.00D  GRAD.:     1.320 HEAT: -23.68845
 CYCLE:   246 TIME:   0.008 TIME LEFT:  2.00D  GRAD.:     1.306 HEAT: -23.69032
 CYCLE:   247 TIME:   0.012 TIME LEFT:  2.00D  GRAD.:     1.666 HEAT: -23.69327
 CYCLE:   248 TIME:   0.012 TIME LEFT:  2.00D  GRAD.:     3.880 HEAT: -23.69507
 CYCLE:   249 TIME:   0.008 TIME LEFT:  2.00D  GRAD.:     1.701 HEAT: -23.69891
 CYCLE:   250 TIME:   0.012 TIME LEFT:  2.00D  GRAD.:     1.848 HEAT: -23.70260
 CYCLE:   251 TIME:   0.008 TIME LEFT:  2.00D  GRAD.:     2.136 HEAT: -23.70626
 CYCLE:   252 TIME:   0.012 TIME LEFT:  2.00D  GRAD.:     3.389 HEAT: -23.71069
 CYCLE:   253 TIME:   0.012 TIME LEFT:  2.00D  GRAD.:     2.220 HEAT: -23.71401
 CYCLE:   254 TIME:   0.012 TIME LEFT:  2.00D  GRAD.:     1.134 HEAT: -23.71605
 CYCLE:   255 TIME:   0.008 TIME LEFT:  2.00D  GRAD.:     1.082 HEAT: -23.71765
 CYCLE:   256 TIME:   0.012 TIME LEFT:  2.00D  GRAD.:     1.476 HEAT: -23.71961
 CYCLE:   257 TIME:   0.012 TIME LEFT:  2.00D  GRAD.:     2.636 HEAT: -23.72079
 CYCLE:   258 TIME:   0.008 TIME LEFT:  2.00D  GRAD.:     0.988 HEAT: -23.72257
 CYCLE:   259 TIME:   0.012 TIME LEFT:  2.00D  GRAD.:     0.824 HEAT: -23.72334
 CYCLE:   260 TIME:   0.012 TIME LEFT:  2.00D  GRAD.:     1.108 HEAT: -23.72419
 CYCLE:   261 TIME:   0.008 TIME LEFT:  2.00D  GRAD.:     1.420 HEAT: -23.72573
 CYCLE:   262 TIME:   0.012 TIME LEFT:  2.00D  GRAD.:     2.158 HEAT: -23.72772
 CYCLE:   263 TIME:   0.012 TIME LEFT:  2.00D  GRAD.:     1.980 HEAT: -23.72979
 CYCLE:   264 TIME:   0.008 TIME LEFT:  2.00D  GRAD.:     0.966 HEAT: -23.73137
 CYCLE:   265 TIME:   0.012 TIME LEFT:  2.00D  GRAD.:     0.858 HEAT: -23.73234
 CYCLE:   266 TIME:   0.008 TIME LEFT:  2.00D  GRAD.:     1.191 HEAT: -23.73311
 CYCLE:   267 TIME:   0.012 TIME LEFT:  2.00D  GRAD.:     1.250 HEAT: -23.73425
 CYCLE:   268 TIME:   0.012 TIME LEFT:  2.00D  GRAD.:     0.773 HEAT: -23.73512
 CYCLE:   269 TIME:   0.008 TIME LEFT:  2.00D  GRAD.:     0.767 HEAT: -23.73585
 CYCLE:   270 TIME:   0.012 TIME LEFT:  2.00D  GRAD.:     0.930 HEAT: -23.73667
 CYCLE:   271 TIME:   0.012 TIME LEFT:  2.00D  GRAD.:     1.753 HEAT: -23.73720
 CYCLE:   272 TIME:   0.012 TIME LEFT:  2.00D  GRAD.:     0.762 HEAT: -23.73819
 CYCLE:   273 TIME:   0.012 TIME LEFT:  2.00D  GRAD.:     0.760 HEAT: -23.73890
 CYCLE:   274 TIME:   0.008 TIME LEFT:  2.00D  GRAD.:     1.006 HEAT: -23.73973
 CYCLE:   275 TIME:   0.012 TIME LEFT:  2.00D  GRAD.:     1.173 HEAT: -23.74132
 CYCLE:   276 TIME:   0.012 TIME LEFT:  2.00D  GRAD.:     2.624 HEAT: -23.74155
 CYCLE:   277 TIME:   0.008 TIME LEFT:  2.00D  GRAD.:     0.820 HEAT: -23.74372
 CYCLE:   278 TIME:   0.012 TIME LEFT:  2.00D  GRAD.:     0.672 HEAT: -23.74447
 CYCLE:   279 TIME:   0.008 TIME LEFT:  2.00D  GRAD.:     0.933 HEAT: -23.74574
 CYCLE:   280 TIME:   0.012 TIME LEFT:  2.00D  GRAD.:     1.685 HEAT: -23.74665
 CYCLE:   281 TIME:   0.012 TIME LEFT:  2.00D  GRAD.:     1.113 HEAT: -23.74797
 CYCLE:   282 TIME:   0.012 TIME LEFT:  2.00D  GRAD.:     1.019 HEAT: -23.74967
 CYCLE:   283 TIME:   0.008 TIME LEFT:  2.00D  GRAD.:     2.469 HEAT: -23.75008
 CYCLE:   284 TIME:   0.012 TIME LEFT:  2.00D  GRAD.:     1.047 HEAT: -23.75107
 CYCLE:   285 TIME:   0.012 TIME LEFT:  2.00D  GRAD.:     0.831 HEAT: -23.75170
 CYCLE:   286 TIME:   0.012 TIME LEFT:  2.00D  GRAD.:     1.063 HEAT: -23.75256
 CYCLE:   287 TIME:   0.008 TIME LEFT:  2.00D  GRAD.:     1.099 HEAT: -23.75357
 CYCLE:   288 TIME:   0.012 TIME LEFT:  2.00D  GRAD.:     1.989 HEAT: -23.75431
 CYCLE:   289 TIME:   0.012 TIME LEFT:  2.00D  GRAD.:     0.760 HEAT: -23.75589
 CYCLE:   290 TIME:   0.008 TIME LEFT:  2.00D  GRAD.:     0.678 HEAT: -23.75672
 CYCLE:   291 TIME:   0.012 TIME LEFT:  2.00D  GRAD.:     0.885 HEAT: -23.75770
 CYCLE:   292 TIME:   0.012 TIME LEFT:  2.00D  GRAD.:     2.005 HEAT: -23.75836
 CYCLE:   293 TIME:   0.008 TIME LEFT:  2.00D  GRAD.:     0.874 HEAT: -23.75971
 CYCLE:   294 TIME:   0.012 TIME LEFT:  2.00D  GRAD.:     0.849 HEAT: -23.76072
 CYCLE:   295 TIME:   0.012 TIME LEFT:  2.00D  GRAD.:     1.112 HEAT: -23.76183
 CYCLE:   296 TIME:   0.012 TIME LEFT:  2.00D  GRAD.:     1.750 HEAT: -23.76348
 CYCLE:   297 TIME:   0.012 TIME LEFT:  2.00D  GRAD.:     1.677 HEAT: -23.76513
 CYCLE:   298 TIME:   0.008 TIME LEFT:  2.00D  GRAD.:     1.213 HEAT: -23.76638
 CYCLE:   299 TIME:   0.012 TIME LEFT:  2.00D  GRAD.:     1.218 HEAT: -23.76740
 CYCLE:   300 TIME:   0.012 TIME LEFT:  2.00D  GRAD.:     1.362 HEAT: -23.76881
 CYCLE:   301 TIME:   0.012 TIME LEFT:  2.00D  GRAD.:     2.412 HEAT: -23.76998
 CYCLE:   302 TIME:   0.008 TIME LEFT:  2.00D  GRAD.:     0.915 HEAT: -23.77189
 CYCLE:   303 TIME:   0.012 TIME LEFT:  2.00D  GRAD.:     0.817 HEAT: -23.77254
 CYCLE:   304 TIME:   0.012 TIME LEFT:  2.00D  GRAD.:     0.920 HEAT: -23.77358
 CYCLE:   305 TIME:   0.012 TIME LEFT:  2.00D  GRAD.:     1.427 HEAT: -23.77537
 CYCLE:   306 TIME:   0.008 TIME LEFT:  2.00D  GRAD.:     1.685 HEAT: -23.77624
 CYCLE:   307 TIME:   0.012 TIME LEFT:  2.00D  GRAD.:     0.783 HEAT: -23.77717
 CYCLE:   308 TIME:   0.008 TIME LEFT:  2.00D  GRAD.:     0.719 HEAT: -23.77785
 CYCLE:   309 TIME:   0.012 TIME LEFT:  2.00D  GRAD.:     0.906 HEAT: -23.77867
 CYCLE:   310 TIME:   0.012 TIME LEFT:  2.00D  GRAD.:     1.299 HEAT: -23.77982
 CYCLE:   311 TIME:   0.008 TIME LEFT:  2.00D  GRAD.:     1.956 HEAT: -23.77994
 CYCLE:   312 TIME:   0.012 TIME LEFT:  2.00D  GRAD.:     0.809 HEAT: -23.78096
 CYCLE:   313 TIME:   0.012 TIME LEFT:  2.00D  GRAD.:     0.511 HEAT: -23.78126
 CYCLE:   314 TIME:   0.008 TIME LEFT:  2.00D  GRAD.:     0.522 HEAT: -23.78166
 CYCLE:   315 TIME:   0.012 TIME LEFT:  2.00D  GRAD.:     1.155 HEAT: -23.78248
 CYCLE:   316 TIME:   0.012 TIME LEFT:  2.00D  GRAD.:     0.894 HEAT: -23.78300
 CYCLE:   317 TIME:   0.012 TIME LEFT:  2.00D  GRAD.:     0.565 HEAT: -23.78334
 CYCLE:   318 TIME:   0.008 TIME LEFT:  2.00D  GRAD.:     0.647 HEAT: -23.78388
 CYCLE:   319 TIME:   0.012 TIME LEFT:  2.00D  GRAD.:     0.864 HEAT: -23.78441
 CYCLE:   320 TIME:   0.012 TIME LEFT:  2.00D  GRAD.:     1.158 HEAT: -23.78530
 CYCLE:   321 TIME:   0.008 TIME LEFT:  2.00D  GRAD.:     0.814 HEAT: -23.78621
 CYCLE:   322 TIME:   0.012 TIME LEFT:  2.00D  GRAD.:     0.683 HEAT: -23.78700
 CYCLE:   323 TIME:   0.016 TIME LEFT:  2.00D  GRAD.:     0.872 HEAT: -23.78791
 CYCLE:   324 TIME:   0.008 TIME LEFT:  2.00D  GRAD.:     1.190 HEAT: -23.78882
 CYCLE:   325 TIME:   0.012 TIME LEFT:  2.00D  GRAD.:     0.801 HEAT: -23.78979
 CYCLE:   326 TIME:   0.012 TIME LEFT:  2.00D  GRAD.:     0.820 HEAT: -23.79072
 CYCLE:   327 TIME:   0.012 TIME LEFT:  2.00D  GRAD.:     1.333 HEAT: -23.79184
 CYCLE:   328 TIME:   0.012 TIME LEFT:  2.00D  GRAD.:     1.187 HEAT: -23.79279
 CYCLE:   329 TIME:   0.008 TIME LEFT:  2.00D  GRAD.:     0.751 HEAT: -23.79357
 CYCLE:   330 TIME:   0.012 TIME LEFT:  2.00D  GRAD.:     0.567 HEAT: -23.79419
 CYCLE:   331 TIME:   0.012 TIME LEFT:  2.00D  GRAD.:     0.557 HEAT: -23.79461
 CYCLE:   332 TIME:   0.008 TIME LEFT:  2.00D  GRAD.:     0.783 HEAT: -23.79498
 CYCLE:   333 TIME:   0.012 TIME LEFT:  2.00D  GRAD.:     0.439 HEAT: -23.79524
 CYCLE:   334 TIME:   0.008 TIME LEFT:  2.00D  GRAD.:     0.387 HEAT: -23.79537
 CYCLE:   335 TIME:   0.012 TIME LEFT:  2.00D  GRAD.:     0.506 HEAT: -23.79566
 CYCLE:   336 TIME:   0.012 TIME LEFT:  2.00D  GRAD.:     0.960 HEAT: -23.79578
 CYCLE:   337 TIME:   0.012 TIME LEFT:  2.00D  GRAD.:     0.354 HEAT: -23.79603
 CYCLE:   338 TIME:   0.008 TIME LEFT:  2.00D  GRAD.:     0.317 HEAT: -23.79615
 CYCLE:   339 TIME:   0.012 TIME LEFT:  2.00D  GRAD.:     0.372 HEAT: -23.79632
 CYCLE:   340 TIME:   0.012 TIME LEFT:  2.00D  GRAD.:     0.454 HEAT: -23.79668
 CYCLE:   341 TIME:   0.008 TIME LEFT:  2.00D  GRAD.:     1.993 HEAT: -23.79622
 CYCLE:   342 TIME:   0.012 TIME LEFT:  2.00D  GRAD.:     0.418 HEAT: -23.79714
 CYCLE:   343 TIME:   0.012 TIME LEFT:  2.00D  GRAD.:     0.278 HEAT: -23.79726
 CYCLE:   344 TIME:   0.012 TIME LEFT:  2.00D  GRAD.:     0.533 HEAT: -23.79745
 CYCLE:   345 TIME:   0.008 TIME LEFT:  2.00D  GRAD.:     0.528 HEAT: -23.79759
 CYCLE:   346 TIME:   0.012 TIME LEFT:  2.00D  GRAD.:     0.333 HEAT: -23.79771
 CYCLE:   347 TIME:   0.012 TIME LEFT:  2.00D  GRAD.:     0.329 HEAT: -23.79791
 CYCLE:   348 TIME:   0.012 TIME LEFT:  2.00D  GRAD.:     0.402 HEAT: -23.79804
 CYCLE:   349 TIME:   0.008 TIME LEFT:  2.00D  GRAD.:     0.375 HEAT: -23.79826
 CYCLE:   350 TIME:   0.012 TIME LEFT:  2.00D  GRAD.:     0.358 HEAT: -23.79844
 CYCLE:   351 TIME:   0.012 TIME LEFT:  2.00D  GRAD.:     0.365 HEAT: -23.79862
 CYCLE:   352 TIME:   0.008 TIME LEFT:  2.00D  GRAD.:     0.655 HEAT: -23.79881
 CYCLE:   353 TIME:   0.012 TIME LEFT:  2.00D  GRAD.:     0.390 HEAT: -23.79903
 CYCLE:   354 TIME:   0.012 TIME LEFT:  2.00D  GRAD.:     0.378 HEAT: -23.79925
 CYCLE:   355 TIME:   0.008 TIME LEFT:  2.00D  GRAD.:     0.455 HEAT: -23.79946
 CYCLE:   356 TIME:   0.012 TIME LEFT:  2.00D  GRAD.:     0.798 HEAT: -23.79953
 CYCLE:   357 TIME:   0.008 TIME LEFT:  2.00D  GRAD.:     0.261 HEAT: -23.79971
 CYCLE:   358 TIME:   0.008 TIME LEFT:  2.00D  GRAD.:     0.210 HEAT: -23.79977
 CYCLE:   359 TIME:   0.012 TIME LEFT:  2.00D  GRAD.:     0.492 HEAT: -23.79981
 CYCLE:   360 TIME:   0.008 TIME LEFT:  2.00D  GRAD.:     0.380 HEAT: -23.79988
 CYCLE:   361 TIME:   0.012 TIME LEFT:  2.00D  GRAD.:     0.250 HEAT: -23.79994
 CYCLE:   362 TIME:   0.008 TIME LEFT:  2.00D  GRAD.:     0.206 HEAT: -23.80000
 CYCLE:   363 TIME:   0.012 TIME LEFT:  2.00D  GRAD.:     0.270 HEAT: -23.80007
 CYCLE:   364 TIME:   0.012 TIME LEFT:  2.00D  GRAD.:     0.206 HEAT: -23.80012
 CYCLE:   365 TIME:   0.008 TIME LEFT:  2.00D  GRAD.:     0.155 HEAT: -23.80015

 -------------------------------------------------------------------------------
 pm3  precise nosym THREADS=1
 InChI=1S/C12H22/c1-3-5-6-7-8-12-10-9-11(12)4-2/h5-6,11-12H,3-4,7-10H2,1-2H3



     HERBERTS TEST WAS SATISFIED IN BFGS                      
     SCF FIELD WAS ACHIEVED                                   


                              PM3 CALCULATION
                                                       MOPAC v23.1.2 MacOS
                                                       Tue Jun  3 16:37:55 2025




          FINAL HEAT OF FORMATION =        -23.80015 KCAL/MOL =     -99.57984 KJ/MOL


          COSMO AREA              =        246.64 SQUARE ANGSTROMS
          COSMO VOLUME            =        257.25 CUBIC ANGSTROMS

          GRADIENT NORM           =          0.15512          =       0.02660 PER ATOM
          IONIZATION POTENTIAL    =          9.730724 EV
          HOMO LUMO ENERGIES (EV) =         -9.731  1.116
          NO. OF FILLED LEVELS    =         35
          MOLECULAR WEIGHT        =        166.3058         POINT GROUP:  C1  

          MOLECULAR DIMENSIONS (Angstroms)

            Atom       Atom       Distance
            H    30    H    17    10.41872
            H    29    H    22     6.26850
            H    26    H    18     3.78557


          SCF CALCULATIONS        =        366

          WALL-CLOCK TIME         =      3.871 SECONDS
          COMPUTATION TIME        =      2.719 SECONDS




   ATOM   CHEMICAL          X               Y               Z
  NUMBER   SYMBOL      (ANGSTROMS)     (ANGSTROMS)     (ANGSTROMS)

     1       C          2.23240853  *   0.90255029  *   0.04514811  *
     2       C          1.69440283  *  -0.02268526  *  -1.08716195  *
     3       C          2.94657276  *   1.77192021  *  -1.01784439  *
     4       C          2.40336077  *   0.86663515  *  -2.13726006  *
     5       C          0.18781930  *  -0.07206048  *  -1.23476422  *
     6       C          3.16695693  *   0.24694807  *   1.04091151  *
     7       C         -0.46053920  *  -0.91666876  *  -0.14740839  *
     8       C         -4.27674044  *  -0.87413661  *   0.46299268  *
     9       C          2.42758892  *  -0.63816926  *   2.01877898  *
    10       C         -4.99764315  *   0.31872587  *   1.05318364  *
    11       C         -2.80414357  *  -0.76203258  *   0.64440472  *
    12       C         -1.93354939  *  -0.99457722  *  -0.33862993  *
    13       H          1.42246374  *   1.44142569  *   0.58286373  *
    14       H          2.10604978  *  -1.05378854  *  -1.03382502  *
    15       H          3.94079479  *  -0.34211229  *   0.50851916  *
    16       H          3.71834519  *   1.03826334  *   1.58676266  *
    17       H          4.04403106  *   1.79374619  *  -0.93188189  *
    18       H          2.60335475  *   2.81612889  *  -1.06009509  *
    19       H         -0.23464578  *   0.95272850  *  -1.21623554  *
    20       H         -0.06262380  *  -0.47996549  *  -2.23479444  *
    21       H          3.17338689  *   0.34994116  *  -2.72893964  *
    22       H          1.72728739  *   1.36556781  *  -2.84883519  *
    23       H         -4.61819761  *  -1.80796366  *   0.95366849  *
    24       H         -4.54076377  *  -0.98483109  *  -0.60791506  *
    25       H         -0.20106854  *  -0.50581170  *   0.85164798  *
    26       H         -0.04573620  *  -1.94592961  *  -0.16138177  *
    27       H          1.65907310  *  -0.08035175  *   2.57135550  *
    28       H          1.91912017  *  -1.46702879  *   1.50491974  *
    29       H          3.11176520  *  -1.07662933  *   2.75596523  *
    30       H         -6.08465311  *   0.22271632  *   0.93665042  *
    31       H         -4.79042944  *   0.42922931  *   2.12592944  *
    32       H         -4.69593890  *   1.25457491  *   0.56540324  *
    33       H         -2.46436783  *  -0.48044261  *   1.64947636  *
    34       H         -2.27374139  *  -1.26591670  *  -1.34640898  *

                             CARTESIAN COORDINATES

   1    C        2.232408530     0.902550290     0.045148113
   2    C        1.694402834    -0.022685257    -1.087161951
   3    C        2.946572761     1.771920213    -1.017844392
   4    C        2.403360769     0.866635153    -2.137260065
   5    C        0.187819304    -0.072060475    -1.234764220
   6    C        3.166956926     0.246948073     1.040911507
   7    C       -0.460539195    -0.916668755    -0.147408385
   8    C       -4.276740441    -0.874136607     0.462992675
   9    C        2.427588917    -0.638169263     2.018778976
  10    C       -4.997643149     0.318725870     1.053183637
  11    C       -2.804143566    -0.762032580     0.644404716
  12    C       -1.933549387    -0.994577218    -0.338629925
  13    H        1.422463739     1.441425685     0.582863730
  14    H        2.106049783    -1.053788535    -1.033825024
  15    H        3.940794792    -0.342112294     0.508519158
  16    H        3.718345195     1.038263335     1.586762657
  17    H        4.044031059     1.793746194    -0.931881894
  18    H        2.603354754     2.816128894    -1.060095088
  19    H       -0.234645781     0.952728498    -1.216235539
  20    H       -0.062623802    -0.479965490    -2.234794437
  21    H        3.173386890     0.349941157    -2.728939643
  22    H        1.727287390     1.365567810    -2.848835190
  23    H       -4.618197608    -1.807963659     0.953668493
  24    H       -4.540763774    -0.984831094    -0.607915056
  25    H       -0.201068538    -0.505811698     0.851647982
  26    H       -0.045736197    -1.945929609    -0.161381775
  27    H        1.659073104    -0.080351746     2.571355496
  28    H        1.919120165    -1.467028794     1.504919741
  29    H        3.111765198    -1.076629333     2.755965227
  30    H       -6.084653113     0.222716322     0.936650415
  31    H       -4.790429441     0.429229309     2.125929439
  32    H       -4.695938904     1.254574915     0.565403243
  33    H       -2.464367830    -0.480442608     1.649476359
  34    H       -2.273741387    -1.265916702    -1.346408977


           Empirical Formula: C12 H22  =    34 atoms



      MOLECULAR POINT GROUP   :   C1  


                  EIGENVALUES  
 -41.93973 -37.72857 -34.20875 -33.12559 -28.83234 -25.37059 -24.65659 -22.25504
 -21.49453 -20.81905 -19.59638 -18.74854 -16.75866 -16.42364 -15.94076 -15.75490
 -15.27416 -14.81392 -14.77301 -14.21519 -14.01459 -13.57891 -13.48170 -13.33403
 -12.91966 -12.52191 -12.43342 -12.04415 -11.99115 -11.95998 -11.79782 -11.40463
 -11.36115 -10.94167  -9.73072   1.11602   3.19751   3.30038   3.36913   3.54615
   3.66997   3.74476   3.85341   3.88290   3.90906   3.96086   3.98748   4.04276
   4.05941   4.10231   4.13478   4.24166   4.29409   4.31411   4.37981   4.40391
   4.52758   4.67373   4.71262   4.82884   4.86173   4.88874   4.93109   4.95239
   4.97163   5.04578   5.51382   5.64618   5.76035   6.00222


              NET ATOMIC CHARGES AND DIPOLE CONTRIBUTIONS

  ATOM NO.   TYPE          CHARGE      No. of ELECS.   s-Pop       p-Pop       
    1          C          -0.095780        4.0958     1.19475     2.90103
    2          C          -0.094819        4.0948     1.19435     2.90047
    3          C          -0.109538        4.1095     1.17371     2.93583
    4          C          -0.109482        4.1095     1.17375     2.93573
    5          C          -0.088418        4.0884     1.16043     2.92799
    6          C          -0.087984        4.0880     1.15702     2.93096
    7          C          -0.071598        4.0716     1.15092     2.92068
    8          C          -0.060902        4.0609     1.14559     2.91532
    9          C          -0.114856        4.1149     1.13964     2.97522
   10          C          -0.105932        4.1059     1.13771     2.96822
   11          C          -0.152016        4.1520     1.19750     2.95451
   12          C          -0.150713        4.1507     1.19664     2.95407
   13          H           0.077051        0.9229     0.92295
   14          H           0.075949        0.9241     0.92405
   15          H           0.051169        0.9488     0.94883
   16          H           0.049301        0.9507     0.95070
   17          H           0.057968        0.9420     0.94203
   18          H           0.055093        0.9449     0.94491
   19          H           0.055972        0.9440     0.94403
   20          H           0.051346        0.9487     0.94865
   21          H           0.054786        0.9452     0.94521
   22          H           0.058417        0.9416     0.94158
   23          H           0.052541        0.9475     0.94746
   24          H           0.051024        0.9490     0.94898
   25          H           0.059677        0.9403     0.94032
   26          H           0.055801        0.9442     0.94420
   27          H           0.038785        0.9612     0.96121
   28          H           0.042191        0.9578     0.95781
   29          H           0.037823        0.9622     0.96218
   30          H           0.036496        0.9635     0.96350
   31          H           0.037610        0.9624     0.96239
   32          H           0.039995        0.9600     0.96000
   33          H           0.101791        0.8982     0.89821
   34          H           0.101252        0.8987     0.89875
 DIPOLE           X         Y         Z       TOTAL
 POINT-CHG.    -0.001    -0.026     0.048     0.055
 HYBRID        -0.002    -0.005    -0.003     0.006
 SUM           -0.003    -0.031     0.045     0.054


          ATOMIC ORBITAL ELECTRON POPULATIONS

     Atom    s        px        py        pz   
    1  C   1.19475   0.98372   0.97109   0.94622
    2  C   1.19435   0.95298   0.98480   0.96269
    3  C   1.17371   0.99747   0.97576   0.96260
    4  C   1.17375   0.99924   0.98029   0.95621
    5  C   1.16043   0.94281   1.00319   0.98200
    6  C   1.15702   0.97189   0.98837   0.97070
    7  C   1.15092   0.93254   0.99600   0.99215
    8  C   1.14559   0.93270   0.97709   1.00553
    9  C   1.13964   0.99822   0.99293   0.98407
   10  C   1.13771   0.99113   0.97637   1.00071
   11  C   1.19750   0.95650   1.01140   0.98661
   12  C   1.19664   0.95593   1.01168   0.98646
   13  H   0.92295
   14  H   0.92405
   15  H   0.94883
   16  H   0.95070
   17  H   0.94203
   18  H   0.94491
   19  H   0.94403
   20  H   0.94865
   21  H   0.94521
   22  H   0.94158
   23  H   0.94746
   24  H   0.94898
   25  H   0.94032
   26  H   0.94420
   27  H   0.96121
   28  H   0.95781
   29  H   0.96218
   30  H   0.96350
   31  H   0.96239
   32  H   0.96000
   33  H   0.89821
   34  H   0.89875
 *******************************************************************************
 **                                                                           **
 **                              MOPAC v23.1.2                                **
 **                                                                           **
 *******************************************************************************
 **          Digital Object Identifier (DOI): 10.5281/zenodo.6511958          **
 **    Visit the DOI location for information on how to cite this program.    **
 *******************************************************************************

                              PM3 CALCULATION RESULTS

 *******************************************************************************
 *  CALCULATION DONE: (MAX THREADS = 1)              Tue Jun  3 16:37:55 2025  *
 *  PM3        - The PM3 Hamiltonian to be used
 *  OLDGEO     - PREVIOUS GEOMETRY TO BE USED
 *  PRECISE    - TIGHTER CRITERIA TO BE USED
 *  NOSYM      - POINT-GROUP SYMMETRY SET TO C1
 *  THREADS=1  - MULTI-THREADING NOT USED
 *  T=         - A TIME OF 172800.0 SECONDS REQUESTED
 *  DUMP=N     - RESTART FILE WRITTEN EVERY 7200.0 SECONDS REQUESTED
 *  THERMO     - THERMODYNAMIC QUANTITIES TO BE CALCULATED
 *******************************************************************************
oldgeo thermo nosym precise THREADS=1  pm3
 InChI=1S/C12H22/c1-3-5-6-7-8-12-10-9-11(12)4-2/h5-6,11-12H,3-4,7-10H2,1-2H3

   ATOM   CHEMICAL          X               Y               Z
  NUMBER   SYMBOL      (ANGSTROMS)     (ANGSTROMS)     (ANGSTROMS)

     1       C          2.23240853  *   0.90255029  *   0.04514811  *
     2       C          1.69440283  *  -0.02268526  *  -1.08716195  *
     3       C          2.94657276  *   1.77192021  *  -1.01784439  *
     4       C          2.40336077  *   0.86663515  *  -2.13726006  *
     5       C          0.18781930  *  -0.07206048  *  -1.23476422  *
     6       C          3.16695693  *   0.24694807  *   1.04091151  *
     7       C         -0.46053920  *  -0.91666876  *  -0.14740839  *
     8       C         -4.27674044  *  -0.87413661  *   0.46299268  *
     9       C          2.42758892  *  -0.63816926  *   2.01877898  *
    10       C         -4.99764315  *   0.31872587  *   1.05318364  *
    11       C         -2.80414357  *  -0.76203258  *   0.64440472  *
    12       C         -1.93354939  *  -0.99457722  *  -0.33862993  *
    13       H          1.42246374  *   1.44142569  *   0.58286373  *
    14       H          2.10604978  *  -1.05378854  *  -1.03382502  *
    15       H          3.94079479  *  -0.34211229  *   0.50851916  *
    16       H          3.71834519  *   1.03826334  *   1.58676266  *
    17       H          4.04403106  *   1.79374619  *  -0.93188189  *
    18       H          2.60335475  *   2.81612889  *  -1.06009509  *
    19       H         -0.23464578  *   0.95272850  *  -1.21623554  *
    20       H         -0.06262380  *  -0.47996549  *  -2.23479444  *
    21       H          3.17338689  *   0.34994116  *  -2.72893964  *
    22       H          1.72728739  *   1.36556781  *  -2.84883519  *
    23       H         -4.61819761  *  -1.80796366  *   0.95366849  *
    24       H         -4.54076377  *  -0.98483109  *  -0.60791506  *
    25       H         -0.20106854  *  -0.50581170  *   0.85164798  *
    26       H         -0.04573620  *  -1.94592961  *  -0.16138177  *
    27       H          1.65907310  *  -0.08035175  *   2.57135550  *
    28       H          1.91912017  *  -1.46702879  *   1.50491974  *
    29       H          3.11176520  *  -1.07662933  *   2.75596523  *
    30       H         -6.08465311  *   0.22271632  *   0.93665042  *
    31       H         -4.79042944  *   0.42922931  *   2.12592944  *
    32       H         -4.69593890  *   1.25457491  *   0.56540324  *
    33       H         -2.46436783  *  -0.48044261  *   1.64947636  *
    34       H         -2.27374139  *  -1.26591670  *  -1.34640898  *



          CARTESIAN COORDINATES 

    NO.       ATOM           X           Y           Z

     1         C          2.2324      0.9026      0.0451
     2         C          1.6944     -0.0227     -1.0872
     3         C          2.9466      1.7719     -1.0178
     4         C          2.4034      0.8666     -2.1373
     5         C          0.1878     -0.0721     -1.2348
     6         C          3.1670      0.2469      1.0409
     7         C         -0.4605     -0.9167     -0.1474
     8         C         -4.2767     -0.8741      0.4630
     9         C          2.4276     -0.6382      2.0188
    10         C         -4.9976      0.3187      1.0532
    11         C         -2.8041     -0.7620      0.6444
    12         C         -1.9335     -0.9946     -0.3386
    13         H          1.4225      1.4414      0.5829
    14         H          2.1060     -1.0538     -1.0338
    15         H          3.9408     -0.3421      0.5085
    16         H          3.7183      1.0383      1.5868
    17         H          4.0440      1.7937     -0.9319
    18         H          2.6034      2.8161     -1.0601
    19         H         -0.2346      0.9527     -1.2162
    20         H         -0.0626     -0.4800     -2.2348
    21         H          3.1734      0.3499     -2.7289
    22         H          1.7273      1.3656     -2.8488
    23         H         -4.6182     -1.8080      0.9537
    24         H         -4.5408     -0.9848     -0.6079
    25         H         -0.2011     -0.5058      0.8516
    26         H         -0.0457     -1.9459     -0.1614
    27         H          1.6591     -0.0804      2.5714
    28         H          1.9191     -1.4670      1.5049
    29         H          3.1118     -1.0766      2.7560
    30         H         -6.0847      0.2227      0.9367
    31         H         -4.7904      0.4292      2.1259
    32         H         -4.6959      1.2546      0.5654
    33         H         -2.4644     -0.4804      1.6495
    34         H         -2.2737     -1.2659     -1.3464

  H: (PM3): J. J. P. STEWART, J. COMP. CHEM. 10, 209 (1989).
  C: (PM3): J. J. P. STEWART, J. COMP. CHEM. 10, 209 (1989).

           Empirical Formula: C12 H22  =    34 atoms



      MOLECULAR POINT GROUP   :   C1  


      RHF CALCULATION, NO. OF DOUBLY OCCUPIED LEVELS = 35



          HEAT OF FORMATION =     -23.800152 KCALS/MOLE


          CARTESIAN COORDINATE DERIVATIVES

   NUMBER  ATOM         X            Y            Z

     1       C     -0.002728    -0.014699     0.012141
     2       C     -0.011245     0.003326    -0.017011
     3       C      0.002275    -0.009076    -0.007727
     4       C      0.003348    -0.010422     0.001507
     5       C      0.000354    -0.018706     0.000803
     6       C     -0.016365     0.009263     0.020556
     7       C      0.007538     0.012077     0.006520
     8       C     -0.036268     0.020301    -0.014259
     9       C      0.002632    -0.008430    -0.002596
    10       C      0.041364    -0.018197     0.013929
    11       C      0.016296     0.032428     0.003600
    12       C     -0.027761    -0.018656    -0.018813
    13       H      0.004468    -0.007733    -0.001581
    14       H      0.012075     0.025286    -0.008818
    15       H     -0.000706     0.007796     0.023141
    16       H     -0.014928     0.000449    -0.009581
    17       H     -0.008543    -0.003689    -0.016538
    18       H      0.011633    -0.003613     0.007263
    19       H      0.003388    -0.002906    -0.014738
    20       H     -0.000205    -0.033935     0.020548
    21       H     -0.002400     0.015487    -0.005927
    22       H      0.016379     0.025180     0.014410
    23       H     -0.001164     0.020059    -0.030594
    24       H     -0.009871     0.000366    -0.007759
    25       H      0.032245    -0.013684     0.046297
    26       H      0.015898    -0.009655    -0.008327
    27       H     -0.003086     0.015008    -0.013169
    28       H      0.000668     0.007589    -0.007446
    29       H     -0.007041     0.003030    -0.003341
    30       H     -0.001003     0.008336    -0.005974
    31       H      0.008003    -0.002648    -0.007324
    32       H     -0.018780    -0.029986     0.000615
    33       H      0.012712     0.000194     0.006589
    34       H     -0.029180    -0.000140     0.023604



          GRADIENT NORM =   0.15519

          MOLECULAR WEIGHT =  166.31



          ROTATIONAL CONSTANTS IN CM(-1)

          A =    0.05197646   B =    0.01132610   C =    0.01031591



           PRINCIPAL MOMENTS OF INERTIA IN UNITS OF 10**(-40)*GRAM-CM**2

          A =      538.5659   B =     2471.5263   C =     2713.5518


          ORIENTATION OF MOLECULE IN FORCE CALCULATION

    NO.       ATOM         X         Y         Z

     1          C      -1.3590    1.4785    1.2732
     2          C       0.1991    1.4785    1.2732
     3          C      -1.3493    3.0263    1.2732
     4          C       0.1893    3.0264    1.2586
     5          C       0.8559    0.8529    0.0603
     6          C      -2.0160    0.8617    2.4909
     7          C       0.7911   -0.6670    0.1018
     8          C       1.6400   -2.8285   -2.9878
     9          C      -1.9458   -0.6486    2.4725
    10          C       0.7517   -2.8909   -4.2117
    11          C       0.9331   -2.2062   -1.8358
    12          C       1.4850   -1.2635   -1.0709
    13          H      -1.7901    1.0408    0.3469
    14          H       0.6305    1.0499    2.2037
    15          H      -1.5465    1.2506    3.4169
    16          H      -3.0730    1.1923    2.5315
    17          H      -1.8037    3.4887    2.1632
    18          H      -1.8202    3.4864    0.3920
    19          H       0.3798    1.2238   -0.8696
    20          H       1.9114    1.1884    0.0094
    21          H       0.6603    3.4948    2.1354
    22          H       0.6436    3.4805    0.3643
    23          H       1.9559   -3.8495   -2.6926
    24          H       2.5752   -2.2828   -3.2256
    25          H      -0.2685   -0.9961    0.1583
    26          H       1.2693   -1.0471    1.0283
    27          H      -2.4132   -1.0665    1.5703
    28          H      -0.9045   -1.0024    2.4909
    29          H      -2.4574   -1.0823    3.3408
    30          H       1.2687   -3.3695   -5.0531
    31          H      -0.1651   -3.4642   -4.0200
    32          H       0.4462   -1.8891   -4.5403
    33          H      -0.0818   -2.5752   -1.6393
    34          H       2.4960   -0.8870   -1.2739


    FIRST DERIVATIVES WILL BE USED IN THE CALCULATION OF SECOND DERIVATIVES

          ESTIMATED TIME TO COMPLETE CALCULATION =        4.78 SECONDS

    FOR POINT-GROUP C1   THERE ARE   1 UNIQUE SYMMETRY FUNCTIONS.

 STEP:   1 TIME =     0.04 SECS, INTEGRAL =      0.04 TIME LEFT: 172799.95
 STEP:   2 TIME =     0.04 SECS, INTEGRAL =      0.08 TIME LEFT: 172799.91
 STEP:   3 TIME =     0.04 SECS, INTEGRAL =      0.12 TIME LEFT: 172799.87
 STEP:   4 TIME =     0.04 SECS, INTEGRAL =      0.16 TIME LEFT: 172799.83
 STEP:   5 TIME =     0.04 SECS, INTEGRAL =      0.20 TIME LEFT: 172799.79
 STEP:   6 TIME =     0.04 SECS, INTEGRAL =      0.23 TIME LEFT: 172799.76
 STEP:   7 TIME =     0.04 SECS, INTEGRAL =      0.27 TIME LEFT: 172799.72
 STEP:   8 TIME =     0.04 SECS, INTEGRAL =      0.31 TIME LEFT: 172799.68
 STEP:   9 TIME =     0.04 SECS, INTEGRAL =      0.35 TIME LEFT: 172799.64
 STEP:  10 TIME =     0.04 SECS, INTEGRAL =      0.39 TIME LEFT: 172799.60
 STEP:  11 TIME =     0.04 SECS, INTEGRAL =      0.43 TIME LEFT: 172799.56
 STEP:  12 TIME =     0.04 SECS, INTEGRAL =      0.47 TIME LEFT: 172799.52
 STEP:  13 TIME =     0.04 SECS, INTEGRAL =      0.51 TIME LEFT: 172799.48
 STEP:  14 TIME =     0.04 SECS, INTEGRAL =      0.55 TIME LEFT: 172799.44
 STEP:  15 TIME =     0.04 SECS, INTEGRAL =      0.59 TIME LEFT: 172799.40
 STEP:  16 TIME =     0.04 SECS, INTEGRAL =      0.63 TIME LEFT: 172799.36
 STEP:  17 TIME =     0.04 SECS, INTEGRAL =      0.67 TIME LEFT: 172799.32
 STEP:  18 TIME =     0.04 SECS, INTEGRAL =      0.71 TIME LEFT: 172799.28
 STEP:  19 TIME =     0.04 SECS, INTEGRAL =      0.75 TIME LEFT: 172799.24
 STEP:  20 TIME =     0.04 SECS, INTEGRAL =      0.78 TIME LEFT: 172799.21
 STEP:  21 TIME =     0.04 SECS, INTEGRAL =      0.82 TIME LEFT: 172799.17
 STEP:  22 TIME =     0.04 SECS, INTEGRAL =      0.86 TIME LEFT: 172799.13
 STEP:  23 TIME =     0.04 SECS, INTEGRAL =      0.89 TIME LEFT: 172799.09
 STEP:  24 TIME =     0.04 SECS, INTEGRAL =      0.93 TIME LEFT: 172799.05
 STEP:  25 TIME =     0.04 SECS, INTEGRAL =      0.98 TIME LEFT: 172799.01
 STEP:  26 TIME =     0.04 SECS, INTEGRAL =      1.02 TIME LEFT: 172798.97
 STEP:  27 TIME =     0.04 SECS, INTEGRAL =      1.06 TIME LEFT: 172798.93
 STEP:  28 TIME =     0.04 SECS, INTEGRAL =      1.10 TIME LEFT: 172798.89
 STEP:  29 TIME =     0.04 SECS, INTEGRAL =      1.14 TIME LEFT: 172798.85
 STEP:  30 TIME =     0.04 SECS, INTEGRAL =      1.18 TIME LEFT: 172798.81
 STEP:  31 TIME =     0.04 SECS, INTEGRAL =      1.21 TIME LEFT: 172798.77
 STEP:  32 TIME =     0.04 SECS, INTEGRAL =      1.25 TIME LEFT: 172798.73
 STEP:  33 TIME =     0.04 SECS, INTEGRAL =      1.29 TIME LEFT: 172798.70
 STEP:  34 TIME =     0.04 SECS, INTEGRAL =      1.33 TIME LEFT: 172798.66
 STEP:  35 TIME =     0.04 SECS, INTEGRAL =      1.37 TIME LEFT: 172798.62
 STEP:  36 TIME =     0.04 SECS, INTEGRAL =      1.41 TIME LEFT: 172798.58
 STEP:  37 TIME =     0.04 SECS, INTEGRAL =      1.45 TIME LEFT: 172798.54
 STEP:  38 TIME =     0.04 SECS, INTEGRAL =      1.49 TIME LEFT: 172798.50
 STEP:  39 TIME =     0.04 SECS, INTEGRAL =      1.53 TIME LEFT: 172798.46
 STEP:  40 TIME =     0.04 SECS, INTEGRAL =      1.57 TIME LEFT: 172798.42
 STEP:  41 TIME =     0.04 SECS, INTEGRAL =      1.61 TIME LEFT: 172798.38
 STEP:  42 TIME =     0.04 SECS, INTEGRAL =      1.65 TIME LEFT: 172798.34
 STEP:  43 TIME =     0.04 SECS, INTEGRAL =      1.69 TIME LEFT: 172798.30
 STEP:  44 TIME =     0.04 SECS, INTEGRAL =      1.72 TIME LEFT: 172798.27
 STEP:  45 TIME =     0.04 SECS, INTEGRAL =      1.76 TIME LEFT: 172798.23
 STEP:  46 TIME =     0.04 SECS, INTEGRAL =      1.80 TIME LEFT: 172798.19
 STEP:  47 TIME =     0.04 SECS, INTEGRAL =      1.84 TIME LEFT: 172798.15
 STEP:  48 TIME =     0.04 SECS, INTEGRAL =      1.88 TIME LEFT: 172798.11
 STEP:  49 TIME =     0.04 SECS, INTEGRAL =      1.92 TIME LEFT: 172798.07
 STEP:  50 TIME =     0.04 SECS, INTEGRAL =      1.96 TIME LEFT: 172798.03
 STEP:  51 TIME =     0.04 SECS, INTEGRAL =      2.00 TIME LEFT: 172797.99
 STEP:  52 TIME =     0.04 SECS, INTEGRAL =      2.04 TIME LEFT: 172797.95
 STEP:  53 TIME =     0.04 SECS, INTEGRAL =      2.07 TIME LEFT: 172797.91
 STEP:  54 TIME =     0.04 SECS, INTEGRAL =      2.11 TIME LEFT: 172797.88
 STEP:  55 TIME =     0.04 SECS, INTEGRAL =      2.15 TIME LEFT: 172797.84
 STEP:  56 TIME =     0.04 SECS, INTEGRAL =      2.19 TIME LEFT: 172797.80
 STEP:  57 TIME =     0.04 SECS, INTEGRAL =      2.23 TIME LEFT: 172797.76
 STEP:  58 TIME =     0.04 SECS, INTEGRAL =      2.27 TIME LEFT: 172797.72
 STEP:  59 TIME =     0.04 SECS, INTEGRAL =      2.30 TIME LEFT: 172797.68
 STEP:  60 TIME =     0.05 SECS, INTEGRAL =      2.35 TIME LEFT: 172797.64
 STEP:  61 TIME =     0.04 SECS, INTEGRAL =      2.39 TIME LEFT: 172797.60
 STEP:  62 TIME =     0.04 SECS, INTEGRAL =      2.43 TIME LEFT: 172797.56
 STEP:  63 TIME =     0.04 SECS, INTEGRAL =      2.47 TIME LEFT: 172797.52
 STEP:  64 TIME =     0.04 SECS, INTEGRAL =      2.51 TIME LEFT: 172797.48
 STEP:  65 TIME =     0.04 SECS, INTEGRAL =      2.55 TIME LEFT: 172797.44
 STEP:  66 TIME =     0.04 SECS, INTEGRAL =      2.59 TIME LEFT: 172797.40
 STEP:  67 TIME =     0.04 SECS, INTEGRAL =      2.63 TIME LEFT: 172797.36
 STEP:  68 TIME =     0.04 SECS, INTEGRAL =      2.67 TIME LEFT: 172797.32
 STEP:  69 TIME =     0.04 SECS, INTEGRAL =      2.71 TIME LEFT: 172797.28
 STEP:  70 TIME =     0.04 SECS, INTEGRAL =      2.75 TIME LEFT: 172797.24
 STEP:  71 TIME =     0.04 SECS, INTEGRAL =      2.79 TIME LEFT: 172797.20
 STEP:  72 TIME =     0.04 SECS, INTEGRAL =      2.83 TIME LEFT: 172797.16
 STEP:  73 TIME =     0.04 SECS, INTEGRAL =      2.87 TIME LEFT: 172797.12
 STEP:  74 TIME =     0.04 SECS, INTEGRAL =      2.91 TIME LEFT: 172797.07
 STEP:  75 TIME =     0.05 SECS, INTEGRAL =      2.96 TIME LEFT: 172797.03
 STEP:  76 TIME =     0.04 SECS, INTEGRAL =      3.00 TIME LEFT: 172796.98
 STEP:  77 TIME =     0.04 SECS, INTEGRAL =      3.04 TIME LEFT: 172796.95
 STEP:  78 TIME =     0.04 SECS, INTEGRAL =      3.08 TIME LEFT: 172796.91
 STEP:  79 TIME =     0.04 SECS, INTEGRAL =      3.12 TIME LEFT: 172796.87
 STEP:  80 TIME =     0.04 SECS, INTEGRAL =      3.16 TIME LEFT: 172796.83
 STEP:  81 TIME =     0.04 SECS, INTEGRAL =      3.20 TIME LEFT: 172796.79
 STEP:  82 TIME =     0.04 SECS, INTEGRAL =      3.24 TIME LEFT: 172796.75
 STEP:  83 TIME =     0.04 SECS, INTEGRAL =      3.28 TIME LEFT: 172796.71
 STEP:  84 TIME =     0.04 SECS, INTEGRAL =      3.32 TIME LEFT: 172796.67
 STEP:  85 TIME =     0.04 SECS, INTEGRAL =      3.36 TIME LEFT: 172796.63
 STEP:  86 TIME =     0.04 SECS, INTEGRAL =      3.40 TIME LEFT: 172796.59
 STEP:  87 TIME =     0.04 SECS, INTEGRAL =      3.44 TIME LEFT: 172796.55
 STEP:  88 TIME =     0.04 SECS, INTEGRAL =      3.48 TIME LEFT: 172796.51
 STEP:  89 TIME =     0.04 SECS, INTEGRAL =      3.51 TIME LEFT: 172796.48
 STEP:  90 TIME =     0.04 SECS, INTEGRAL =      3.55 TIME LEFT: 172796.44
 STEP:  91 TIME =     0.04 SECS, INTEGRAL =      3.59 TIME LEFT: 172796.40
 STEP:  92 TIME =     0.04 SECS, INTEGRAL =      3.63 TIME LEFT: 172796.36
 STEP:  93 TIME =     0.04 SECS, INTEGRAL =      3.67 TIME LEFT: 172796.32
 STEP:  94 TIME =     0.04 SECS, INTEGRAL =      3.71 TIME LEFT: 172796.28
 STEP:  95 TIME =     0.04 SECS, INTEGRAL =      3.75 TIME LEFT: 172796.24
 STEP:  96 TIME =     0.04 SECS, INTEGRAL =      3.79 TIME LEFT: 172796.20
 STEP:  97 TIME =     0.04 SECS, INTEGRAL =      3.83 TIME LEFT: 172796.16
 STEP:  98 TIME =     0.04 SECS, INTEGRAL =      3.87 TIME LEFT: 172796.12
 STEP:  99 TIME =     0.04 SECS, INTEGRAL =      3.91 TIME LEFT: 172796.08
 STEP: 100 TIME =     0.04 SECS, INTEGRAL =      3.95 TIME LEFT: 172796.04
 STEP: 101 TIME =     0.04 SECS, INTEGRAL =      4.00 TIME LEFT: 172795.99
 STEP: 102 TIME =     0.04 SECS, INTEGRAL =      4.04 TIME LEFT: 172795.95

(To convert to Hartree/Bohr^2, multiply by (10^(-21) x N x a0^2)/(4.184 x 627.51) =  0.0642)


           FORCE MATRIX IN MILLIDYNES/ANGSTROM


                  C  1       C  2       C  3       C  4       C  5       C  6
 ------------------------------------------------------------------------------
     C    1  14.407067
     C    2   3.152747  14.410610
     C    3   3.478425   1.813742  14.450414
     C    4   1.813791   3.474499   3.774426  14.447334
     C    5   0.524708   4.303684   0.041326   0.552683  14.434500
     C    6   4.297994   0.524364   0.551721   0.041203   0.035805  14.488264
     C    7   0.031016   0.638152   0.004508   0.049823   4.121788   0.002273
     C    8   0.000331   0.003330   0.000104   0.000668   0.019205   0.000359
     C    9   0.653445   0.029196   0.050918   0.004852   0.002019   4.472085
     C   10   0.000175   0.001077   0.000097   0.000392   0.003775   0.000143
     C   11   0.000960   0.007843   0.000266   0.001518   0.041091   0.000425
     C   12   0.002404   0.054809   0.000630   0.009823   0.701006   0.001055
     H   13   4.390634   0.437547   0.427255   0.026754   0.030657   0.429860
     H   14   0.437275   4.389298   0.026819   0.427350   0.430454   0.030559
     H   15   0.450731   0.022952   0.021547   0.001968   0.001272   4.436078
     H   16   0.432232   0.046297   0.019633   0.003577   0.006404   4.451416
     H   17   0.452652   0.029923   4.669511   0.445365   0.001772   0.032263
     H   18   0.442880   0.030287   4.706636   0.445555   0.003720   0.033867
     H   19   0.023276   0.449906   0.001976   0.021137   4.444231   0.001365
     H   20   0.045904   0.432159   0.003530   0.020017   4.436229   0.006279
     H   21   0.030315   0.442939   0.445469   4.705673   0.033773   0.003728
     H   22   0.029916   0.452668   0.445298   4.669433   0.032542   0.001795
     H   23   0.000114   0.000226   0.000070   0.000122   0.002340   0.000121
     H   24   0.000067   0.000130   0.000033   0.000074   0.000448   0.000079
     H   25   0.008151   0.024771   0.000578   0.001677   0.440627   0.003468
     H   26   0.002296   0.028278   0.000431   0.001574   0.453258   0.000726
     H   27   0.025031   0.002409   0.001741   0.000430   0.000742   0.464459
     H   28   0.017942   0.007557   0.001841   0.000516   0.002498   0.463233
     H   29   0.052470   0.002294   0.008847   0.000619   0.000373   0.451231
     H   30   0.000052   0.000270   0.000035   0.000120   0.000799   0.000061
     H   31   0.000029   0.000099   0.000025   0.000061   0.000164   0.000041
     H   32   0.000035   0.000100   0.000037   0.000068   0.000230   0.000044
     H   33   0.000336   0.001914   0.000204   0.000505   0.008478   0.000477
     H   34   0.000484   0.001998   0.000221   0.000631   0.028632   0.000251


                  C  7       C  8       C  9       C 10       C 11       C 12
 ------------------------------------------------------------------------------
     C    7  14.643784
     C    8   0.145590  14.692591
     C    9   0.023418   0.000252  14.350422
     C   10   0.019013   4.415840   0.000141  14.353169
     C   11   0.826575   4.964982   0.000338   0.714739  18.198804
     C   12   4.979339   0.823685   0.001944   0.042482  10.699850  18.206422
     H   13   0.009496   0.000176   0.030610   0.000114   0.000336   0.000978
     H   14   0.032678   0.000167   0.008407   0.000100   0.000631   0.001758
     H   15   0.000359   0.000105   0.436711   0.000031   0.000135   0.000290
     H   16   0.000603   0.000098   0.439924   0.000044   0.000120   0.000498
     H   17   0.000540   0.000021   0.002911   0.000034   0.000056   0.000171
     H   18   0.000770   0.000035   0.006361   0.000031   0.000086   0.000240
     H   19   0.441228   0.000671   0.000395   0.000238   0.002339   0.021450
     H   20   0.447746   0.000598   0.000429   0.000173   0.001835   0.033552
     H   21   0.006020   0.000118   0.000770   0.000119   0.000322   0.001455
     H   22   0.003056   0.000069   0.000487   0.000060   0.000175   0.001102
     H   23   0.020506   4.419234   0.000116   0.445804   0.409212   0.030614
     H   24   0.003565   4.440449   0.000059   0.434886   0.459760   0.049941
     H   25   4.366588   0.003526   0.007723   0.000632   0.049196   0.458322
     H   26   4.387769   0.019921   0.005781   0.002000   0.031029   0.410486
     H   27   0.006791   0.000123   4.707463   0.000088   0.000196   0.000588
     H   28   0.009305   0.000224   4.672056   0.000157   0.000256   0.000882
     H   29   0.001567   0.000083   4.757980   0.000048   0.000092   0.000474
     H   30   0.003168   0.449646   0.000052   4.749505   0.052812   0.007319
     H   31   0.000670   0.464723   0.000030   4.724638   0.026967   0.002045
     H   32   0.000795   0.461312   0.000039   4.747408   0.015901   0.002427
     H   33   0.084770   0.431295   0.000440   0.027742   4.762144   0.469041
     H   34   0.430822   0.084630   0.000416   0.008474   0.469114   4.759649


                  H 13       H 14       H 15       H 16       H 17       H 18
 ------------------------------------------------------------------------------
     H   13   4.899724
     H   14   0.029008   4.899204
     H   15   0.043044   0.024854   5.053299
     H   16   0.025620   0.003081   0.571330   5.060093
     H   17   0.031067   0.002684   0.017455   0.011868   5.300151
     H   18   0.026664   0.001221   0.001284   0.001889   0.557257   5.327271
     H   19   0.025368   0.042932   0.000531   0.000445   0.000558   0.001000
     H   20   0.003096   0.024708   0.000407   0.001355   0.000591   0.000675
     H   21   0.001218   0.026639   0.001017   0.000671   0.023164   0.033582
     H   22   0.002681   0.031109   0.000546   0.000587   0.032875   0.023193
     H   23   0.000077   0.000068   0.000031   0.000039   0.000020   0.000021
     H   24   0.000057   0.000047   0.000022   0.000025   0.000011   0.000012
     H   25   0.014704   0.002061   0.000391   0.000377   0.000323   0.000262
     H   26   0.000532   0.025187   0.000233   0.000231   0.000090   0.000180
     H   27   0.023018   0.000514   0.048272   0.023009   0.000470   0.000357
     H   28   0.001948   0.012243   0.025724   0.049116   0.000413   0.000405
     H   29   0.001980   0.000566   0.029263   0.030252   0.000685   0.001226
     H   30   0.000046   0.000040   0.000016   0.000016   0.000009   0.000012
     H   31   0.000044   0.000019   0.000011   0.000008   0.000011   0.000007
     H   32   0.000054   0.000040   0.000013   0.000011   0.000012   0.000014
     H   33   0.000304   0.000193   0.000144   0.000137   0.000053   0.000074
     H   34   0.000364   0.000663   0.000056   0.000123   0.000083   0.000095


                  H 19       H 20       H 21       H 22       H 23       H 24
 ------------------------------------------------------------------------------
     H   19   5.058965
     H   20   0.569780   5.050980
     H   21   0.001288   0.001944   5.326630
     H   22   0.016798   0.012323   0.557419   5.299948
     H   23   0.000211   0.000138   0.000058   0.000031   5.017431
     H   24   0.000151   0.000183   0.000024   0.000028   0.567470   5.051760
     H   25   0.024716   0.046132   0.000381   0.000425   0.000910   0.000487
     H   26   0.046625   0.022881   0.000335   0.000455   0.003446   0.000810
     H   27   0.000261   0.000216   0.000194   0.000101   0.000061   0.000038
     H   28   0.000295   0.000289   0.000241   0.000283   0.000119   0.000037
     H   29   0.000153   0.000139   0.000130   0.000105   0.000036   0.000017
     H   30   0.000079   0.000063   0.000031   0.000019   0.028444   0.030441
     H   31   0.000041   0.000046   0.000024   0.000014   0.024054   0.047939
     H   32   0.000066   0.000034   0.000025   0.000021   0.049310   0.024249
     H   33   0.000486   0.000621   0.000122   0.000091   0.016124   0.038824
     H   34   0.002671   0.023685   0.000127   0.000295   0.010156   0.030110


                  H 25       H 26       H 27       H 28       H 29       H 30
 ------------------------------------------------------------------------------
     H   25   4.983801
     H   26   0.565827   4.993203
     H   27   0.011225   0.000304   5.450439
     H   28   0.023126   0.008656   0.578304   5.409680
     H   29   0.000779   0.000330   0.569889   0.566026   5.489677
     H   30   0.000166   0.000254   0.000032   0.000057   0.000014   5.487530
     H   31   0.000211   0.000140   0.000026   0.000031   0.000013   0.573902
     H   32   0.000182   0.000207   0.000028   0.000035   0.000013   0.574263
     H   33   0.030041   0.009827   0.000181   0.000273   0.000115   0.002127
     H   34   0.038290   0.016792   0.000188   0.000270   0.000145   0.001670


                  H 31       H 32       H 33       H 34
 ------------------------------------------------------
     H   31   5.470344
     H   32   0.578944   5.485668
     H   33   0.020787   0.002751   5.143341
     H   34   0.000597   0.000492   0.106285   5.141799


          HEAT OF FORMATION =     -23.800152 KCALS/MOLE

          ZERO POINT ENERGY     194.764 KCAL/MOL


           NORMAL COORDINATE ANALYSIS (Total motion = 1 Angstrom)


   Root No.       1         2         3         4         5         6         7         8

                 1 A       2 A       3 A       4 A       5 A       6 A       7 A       8 A   

                  29.7      34.6      63.1      82.5      89.4     109.0     129.7     178.9
  
           1   -0.0012   -0.0039   -0.0017    0.0058   -0.0055   -0.0125   -0.0045    0.0011
           2   -0.0053    0.0113   -0.0033   -0.0038   -0.0008    0.0156   -0.0030   -0.0034
           3   -0.0005    0.0168    0.0000   -0.0065   -0.0063   -0.0059   -0.0006   -0.0043
           4   -0.0012   -0.0040   -0.0017    0.0058   -0.0054   -0.0126   -0.0042    0.0011
           5   -0.0014    0.0005   -0.0074    0.0071   -0.0102   -0.0046   -0.0063   -0.0017
           6   -0.0071   -0.0051    0.0062    0.0088    0.0079   -0.0081    0.0001   -0.0037
           7   -0.0052    0.0067    0.0022   -0.0051    0.0037    0.0079   -0.0010   -0.0001
           8   -0.0053    0.0112   -0.0033   -0.0038   -0.0008    0.0157   -0.0030   -0.0035
           9   -0.0181    0.0266   -0.0179   -0.0065   -0.0148    0.0227   -0.0017   -0.0071
          10   -0.0052    0.0065    0.0023   -0.0048    0.0041    0.0078   -0.0009    0.0003
          11   -0.0016    0.0007   -0.0073    0.0070   -0.0100   -0.0046   -0.0063   -0.0021
          12   -0.0240    0.0022   -0.0028    0.0096    0.0214    0.0035    0.0187    0.0194
          13   -0.0045   -0.0240    0.0013    0.0201   -0.0005   -0.0213   -0.0062   -0.0054
          14   -0.0126    0.0010   -0.0126    0.0093    0.0003   -0.0086    0.0075    0.0097
          15   -0.0030   -0.0162    0.0106    0.0153    0.0049   -0.0107   -0.0092   -0.0137
          16    0.0060    0.0092   -0.0063   -0.0006   -0.0171   -0.0202   -0.0064    0.0052
          17    0.0067    0.0075    0.0137   -0.0096    0.0130   -0.0010    0.0045   -0.0003
          18    0.0095    0.0219    0.0062   -0.0129   -0.0054   -0.0189    0.0026   -0.0004
          19   -0.0038   -0.0321   -0.0054   -0.0211   -0.0036    0.0047    0.0268    0.0095
          20   -0.0123    0.0012   -0.0125    0.0105   -0.0000   -0.0094    0.0068    0.0093
          21    0.0103   -0.0212    0.0083   -0.0067   -0.0138    0.0102   -0.0019   -0.0020
          22   -0.0062    0.0178    0.0090   -0.0102    0.0082   -0.0005   -0.0103   -0.0096
          23   -0.0065   -0.0124    0.0307   -0.0078   -0.0077    0.0043   -0.0148   -0.0122
          24    0.0051    0.0018   -0.0189    0.0102   -0.0061   -0.0007    0.0032    0.0111
          25    0.0100   -0.0021   -0.0036    0.0303    0.0117    0.0382   -0.0093   -0.0006
          26    0.0067    0.0071    0.0136   -0.0084    0.0140    0.0015    0.0045   -0.0006
          27    0.0260    0.0094    0.0281   -0.0014    0.0281   -0.0060    0.0120    0.0007
          28    0.0177    0.0395    0.0020    0.0110   -0.0005   -0.0026    0.0042    0.0071
          29    0.0474   -0.0180   -0.0251   -0.0113    0.0106   -0.0002   -0.0126   -0.0000
          30   -0.0151   -0.0136   -0.0108   -0.0048   -0.0009    0.0010   -0.0072   -0.0012
          31   -0.0091   -0.0021   -0.0029   -0.0207    0.0129   -0.0003   -0.0034   -0.0124
          32   -0.0022   -0.0080    0.0223    0.0122   -0.0249    0.0032    0.0200    0.0086
          33    0.0010   -0.0127   -0.0215   -0.0071    0.0063   -0.0000   -0.0116   -0.0020
          34   -0.0001   -0.0167    0.0038   -0.0154   -0.0096    0.0073    0.0158    0.0028
          35   -0.0198   -0.0007   -0.0081    0.0026    0.0128   -0.0119    0.0066   -0.0025
          36    0.0162   -0.0111    0.0112    0.0011   -0.0240    0.0131   -0.0086    0.0010
          37   -0.0041   -0.0198    0.0001    0.0176   -0.0011   -0.0176   -0.0061   -0.0004
          38   -0.0170    0.0203   -0.0139   -0.0063   -0.0059    0.0381   -0.0051   -0.0069
          39    0.0064    0.0199    0.0043   -0.0107   -0.0058   -0.0141    0.0013   -0.0019
          40    0.0038    0.0056   -0.0058   -0.0004   -0.0148   -0.0178   -0.0044    0.0032
          41    0.0097   -0.0061   -0.0044    0.0096   -0.0226   -0.0139   -0.0187   -0.0144
          42   -0.0043   -0.0125    0.0094    0.0128    0.0064   -0.0097   -0.0055   -0.0104
          43    0.0092    0.0256   -0.0106   -0.0225   -0.0405   -0.0579   -0.0061    0.0119
          44    0.0183   -0.0028    0.0278    0.0058    0.0411    0.0225    0.0092   -0.0012
          45    0.0030    0.0179    0.0025   -0.0082   -0.0053   -0.0096    0.0005   -0.0034
          46    0.0053    0.0122   -0.0069   -0.0079   -0.0237   -0.0334   -0.0058    0.0066
          47    0.0044    0.0150    0.0128   -0.0308   -0.0053   -0.0402    0.0068    0.0035
          48    0.0107    0.0399   -0.0028   -0.0311   -0.0313   -0.0479    0.0000    0.0054
          49   -0.0030    0.0242   -0.0059   -0.0178   -0.0156    0.0262   -0.0129   -0.0177
          50    0.0037    0.0084    0.0087   -0.0067    0.0082    0.0045   -0.0002   -0.0007
          51   -0.0217    0.0370   -0.0284   -0.0114   -0.0295    0.0380   -0.0093   -0.0176
          52   -0.0097   -0.0043    0.0125    0.0011    0.0285    0.0022    0.0128    0.0165
          53   -0.0166    0.0203   -0.0130   -0.0073   -0.0041    0.0395   -0.0035   -0.0071
          54   -0.0216    0.0373   -0.0285   -0.0116   -0.0298    0.0382   -0.0095   -0.0180
          55   -0.0071   -0.0334    0.0082    0.0511    0.0054   -0.0411   -0.0273   -0.0225
          56   -0.0211    0.0074   -0.0104    0.0343    0.0121   -0.0279   -0.0049    0.0016
          57   -0.0051   -0.0088    0.0079    0.0094    0.0065   -0.0082   -0.0032   -0.0080
          58   -0.0047   -0.0227    0.0032    0.0296    0.0006   -0.0274   -0.0141   -0.0101
          59   -0.0128   -0.0047   -0.0177   -0.0166   -0.0015    0.0076    0.0300    0.0213
          60   -0.0089   -0.0279    0.0163    0.0450    0.0145   -0.0309   -0.0250   -0.0294
          61   -0.0030    0.0237   -0.0056   -0.0175   -0.0149    0.0260   -0.0127   -0.0172
          62    0.0093   -0.0065   -0.0038    0.0096   -0.0218   -0.0168   -0.0192   -0.0171
          63   -0.0310   -0.0032   -0.0004    0.0150    0.0380    0.0002    0.0321    0.0371
          64   -0.0099   -0.0047    0.0126    0.0016    0.0291    0.0019    0.0132    0.0175
          65   -0.0102    0.0015   -0.0131    0.0109   -0.0036   -0.0049    0.0046    0.0134
[...]
 REDUCED MASS        0.3168         C  7 -- H 25          +2.6% ( 16.6%)     97.5%
 EFFECTIVE MASS      1.5195
 FORCE CONSTANT      1.6282

 VIBRATION         81   81A           ATOM PAIR      ENERGY CONTRIBUTION    RADIAL
 FREQUENCY          3009.30         C  7 -- H 26         +53.7% ( 72.2%)     98.3%
 TRANSITION DIPOLE   0.0587         C  7 -- H 25         +44.0% ( 65.3%)     97.2%
 TRAVEL (Ang.)       0.2165         C  5 -- C  7          +0.6% (  7.9%)     30.0%
 REDUCED MASS        0.4781         C  7 -- C 12          +0.6% (  7.8%)     31.3%
 EFFECTIVE MASS      1.2757
 FORCE CONSTANT      2.5511

 VIBRATION         82   82A           ATOM PAIR      ENERGY CONTRIBUTION    RADIAL
 FREQUENCY          3024.23         C  8 -- H 24         +51.4% ( 70.7%)     98.1%
 TRANSITION DIPOLE   0.0406         C  8 -- H 23         +44.5% ( 65.8%)     97.3%
 TRAVEL (Ang.)       0.2200         C 11 -- H 33          +1.8% ( 13.2%)     99.8%
 REDUCED MASS        0.4607         C  8 -- C 11          +0.7% (  8.1%)     29.1%
 EFFECTIVE MASS      1.2856
 FORCE CONSTANT      2.4827

 VIBRATION         83   83A           ATOM PAIR      ENERGY CONTRIBUTION    RADIAL
 FREQUENCY          3028.73         C  4 -- H 22         +26.9% ( 54.2%)     97.3%
 TRANSITION DIPOLE   0.0021         C  3 -- H 17         +26.4% ( 53.7%)     97.3%
 TRAVEL (Ang.)       0.2945         C  4 -- H 21         +21.4% ( 48.3%)     95.9%
 REDUCED MASS        0.2568         C  3 -- H 18         +20.8% ( 47.7%)     95.9%
 EFFECTIVE MASS      1.5510
 FORCE CONSTANT      1.3878

 VIBRATION         84   84A           ATOM PAIR      ENERGY CONTRIBUTION    RADIAL
 FREQUENCY          3029.38         C  5 -- H 19         +49.7% ( 69.4%)     97.9%
 TRANSITION DIPOLE   0.0476         C  5 -- H 20         +47.0% ( 67.5%)     97.6%
 TRAVEL (Ang.)       0.2189         C  2 -- C  5          +0.6% (  7.6%)     30.0%
 REDUCED MASS        0.4644         C  5 -- C  7          +0.6% (  7.5%)     30.5%
 EFFECTIVE MASS      1.2737
 FORCE CONSTANT      2.5109

 VIBRATION         85   85A           ATOM PAIR      ENERGY CONTRIBUTION    RADIAL
 FREQUENCY          3030.27         C  6 -- H 16         +51.0% ( 70.4%)     98.0%
 TRANSITION DIPOLE   0.0189         C  6 -- H 15         +46.5% ( 67.2%)     97.4%
 TRAVEL (Ang.)       0.2167         C  6 -- C  9          +0.6% (  7.8%)     25.9%
 REDUCED MASS        0.4739         C  1 -- C  6          +0.6% (  7.6%)     29.0%
 EFFECTIVE MASS      1.2758
 FORCE CONSTANT      2.5638

 VIBRATION         86   86A           ATOM PAIR      ENERGY CONTRIBUTION    RADIAL
 FREQUENCY          3035.52         C 12 -- H 34         +64.7% ( 81.2%)    100.0%
 TRANSITION DIPOLE   0.3340         C 11 -- H 33         +32.8% ( 57.8%)    100.0%
 TRAVEL (Ang.)       0.2088         C  7 -- C 12          +0.8% (  9.2%)     19.0%
 REDUCED MASS        0.5093         C 11 -- C 12          +0.8% (  9.1%)     39.8%
 EFFECTIVE MASS      1.4364
 FORCE CONSTANT      2.7649

 VIBRATION         87   87A           ATOM PAIR      ENERGY CONTRIBUTION    RADIAL
 FREQUENCY          3037.56         C 11 -- H 33         +62.2% ( 80.2%)    100.0%
 TRANSITION DIPOLE   0.0535         C 12 -- H 34         +31.7% ( 57.2%)     99.9%
 TRAVEL (Ang.)       0.2133         C 11 -- C 12          +2.1% ( 14.9%)     39.9%
 REDUCED MASS        0.4879         C  8 -- H 24          +1.7% ( 13.2%)     99.4%
 EFFECTIVE MASS      1.5787
 FORCE CONSTANT      2.6524

 VIBRATION         88   88A           ATOM PAIR      ENERGY CONTRIBUTION    RADIAL
 FREQUENCY          3043.32         C  3 -- H 17         +28.0% ( 54.9%)     97.7%
 TRANSITION DIPOLE   0.0895         C  4 -- H 22         +27.3% ( 54.3%)     97.7%
 TRAVEL (Ang.)       0.2905         C  3 -- H 18         +20.8% ( 47.3%)     96.0%
 REDUCED MASS        0.2626         C  4 -- H 21         +20.4% ( 46.9%)     96.0%
 EFFECTIVE MASS      1.5310
 FORCE CONSTANT      1.4329

 VIBRATION         89   89A           ATOM PAIR      ENERGY CONTRIBUTION    RADIAL
 FREQUENCY          3065.76         C  9 -- H 28         +64.3% ( 82.7%)     98.6%
 TRANSITION DIPOLE   0.0303         C  9 -- H 27         +31.3% ( 57.7%)     93.4%
 TRAVEL (Ang.)       0.2020         C  9 -- H 29          +3.0% ( 18.0%)     38.9%
 REDUCED MASS        0.5389         C  6 -- C  9          +1.0% ( 10.2%)      0.0%
 EFFECTIVE MASS      1.4999
 FORCE CONSTANT      2.9844

 VIBRATION         90   90A           ATOM PAIR      ENERGY CONTRIBUTION    RADIAL
 FREQUENCY          3081.26         C 10 -- H 31         +64.7% ( 83.0%)     98.8%
 TRANSITION DIPOLE   0.0109         C 10 -- H 32         +26.8% ( 53.4%)     91.5%
 TRAVEL (Ang.)       0.2045         C 10 -- H 30          +7.3% ( 27.8%)     65.9%
 REDUCED MASS        0.5234         C  8 -- C 10          +1.0% ( 10.2%)      0.0%
 EFFECTIVE MASS      1.5011
 FORCE CONSTANT      2.9279

 VIBRATION         91   91A           ATOM PAIR      ENERGY CONTRIBUTION    RADIAL
 FREQUENCY          3082.83         C  9 -- H 29         +55.1% ( 76.5%)     98.3%
 TRANSITION DIPOLE   0.0038         C  9 -- H 27         +35.2% ( 61.2%)     94.0%
 TRAVEL (Ang.)       0.2174         C  9 -- H 28          +8.1% ( 29.4%)     67.8%
 REDUCED MASS        0.4629         C  6 -- C  9          +1.0% ( 10.3%)      0.0%
 EFFECTIVE MASS      1.5024
 FORCE CONSTANT      2.5922

 VIBRATION         92   92A           ATOM PAIR      ENERGY CONTRIBUTION    RADIAL
 FREQUENCY          3086.07         C 10 -- H 30         +57.5% ( 78.2%)     98.2%
 TRANSITION DIPOLE   0.0106         C 10 -- H 32         +37.9% ( 63.5%)     95.0%
 TRAVEL (Ang.)       0.2083         C 10 -- H 31          +3.2% ( 18.4%)     38.6%
 REDUCED MASS        0.5038         C  8 -- C 10          +1.0% ( 10.3%)      0.1%
 EFFECTIVE MASS      1.5041
 FORCE CONSTANT      2.8268

 VIBRATION         93   93A           ATOM PAIR      ENERGY CONTRIBUTION    RADIAL
 FREQUENCY          3103.23         C  4 -- H 21         +30.3% ( 54.6%)     98.0%
 TRANSITION DIPOLE   0.0659         C  3 -- H 18         +26.5% ( 51.0%)     98.0%
 TRAVEL (Ang.)       0.2957         C  4 -- H 22         +22.1% ( 46.6%)     96.0%
 REDUCED MASS        0.2485         C  3 -- H 17         +19.1% ( 43.4%)     95.9%
 EFFECTIVE MASS      1.2810
 FORCE CONSTANT      1.4102

 VIBRATION         94   94A           ATOM PAIR      ENERGY CONTRIBUTION    RADIAL
 FREQUENCY          3104.82         C  3 -- H 18         +29.6% ( 53.9%)     97.9%
 TRANSITION DIPOLE   0.0726         C  4 -- H 21         +25.6% ( 50.2%)     97.9%
 TRAVEL (Ang.)       0.2968         C  3 -- H 17         +22.8% ( 47.3%)     96.2%
 REDUCED MASS        0.2466         C  4 -- H 22         +19.9% ( 44.2%)     96.3%
 EFFECTIVE MASS      1.2889
 FORCE CONSTANT      1.4004

 VIBRATION         95   95A           ATOM PAIR      ENERGY CONTRIBUTION    RADIAL
 FREQUENCY          3173.64         C  9 -- H 29         +41.8% ( 62.3%)     98.1%
 TRANSITION DIPOLE   0.0169         C  9 -- H 27         +32.4% ( 54.8%)     96.8%
 TRAVEL (Ang.)       0.2508         C  9 -- H 28         +25.5% ( 48.6%)     95.4%
 REDUCED MASS        0.3378         C  6 -- C  9          +0.3% (  5.2%)     96.8%
 EFFECTIVE MASS      1.1399
 FORCE CONSTANT      2.0043

 VIBRATION         96   96A           ATOM PAIR      ENERGY CONTRIBUTION    RADIAL
 FREQUENCY          3183.24         C 10 -- H 32         +34.6% ( 56.6%)     97.4%
 TRANSITION DIPOLE   0.0189         C 10 -- H 30         +34.3% ( 56.3%)     97.3%
 TRAVEL (Ang.)       0.2542         C 10 -- H 31         +30.9% ( 53.4%)     96.7%
 REDUCED MASS        0.3277         C  8 -- C 10          +0.3% (  5.1%)     99.8%
 EFFECTIVE MASS      1.1361
 FORCE CONSTANT      1.9565

      SYMMETRY NUMBER FOR POINT-GROUP C1  =  1


          SYSTEM IS A GROUND STATE



 InChI=1S/C12H22/c1-3-5-6-7-8-12-10-9-11(12)4-2/h5-6,11-12H,3-4,7-10H2,1-2H3


          MOLECULE IS NOT LINEAR

          THERE ARE 96 GENUINE VIBRATIONS IN THIS SYSTEM
          THIS THERMODYNAMICS CALCULATION IS LIMITED TO
          MOLECULES WHICH HAVE NO INTERNAL ROTATIONS




                    CALCULATED THERMODYNAMIC PROPERTIES
                                          *
   TEMP. (K)   PARTITION FUNCTION   H.O.F.    ENTHALPY  HEAT CAPACITY ENTROPY
                                   KCAL/MOL   CAL/MOLE    CAL/K/MOL  CAL/K/MOL


 298.00  VIB.     0.2958D+06                  7260.7968    47.0661    49.3987
         ROT.     0.2144D+07                   888.2803     2.9808    31.9506
         INT.     0.6342D+12                  8149.0771    50.0469    81.3493
         TRA.     0.2073D+28                  1480.4672     4.9680    41.2320
         TOT.                      -23.800    9629.5443    55.0149   122.5813

 200.00  VIB.     0.4795D+04                  3459.3582    31.2733    34.1388
         ROT.     0.1179D+07                   596.1613     2.9808    30.7619
         INT.     0.5652D+10                  4055.5195    34.2541    64.9007
         TRA.     0.1140D+28                   993.6021     4.9680    39.2509
         TOT.                      -28.381    5049.1216    39.2221   104.1516

 210.00  VIB.     0.7394D+04                  3778.9782    32.6597    35.6980
         ROT.     0.1268D+07                   625.9693     2.9808    30.9073
         INT.     0.9378D+10                  4404.9476    35.6405    66.6053
         TRA.     0.1227D+28                  1043.2822     4.9680    39.4932
         TOT.                      -27.981    5448.2298    40.6085   106.0985

 220.00  VIB.     0.1136D+05                  4112.7368    34.1014    37.2503
         ROT.     0.1360D+07                   655.7774     2.9808    31.0460
         INT.     0.1545D+11                  4768.5142    37.0822    68.2963
         TRA.     0.1315D+28                  1092.9623     4.9680    39.7244
         TOT.                      -27.568    5861.4765    42.0502   108.0207

 230.00  VIB.     0.1739D+05                  4461.1930    35.5992    38.7990
         ROT.     0.1454D+07                   685.5855     2.9808    31.1785
         INT.     0.2528D+11                  5146.7784    38.5800    69.9776
         TRA.     0.1406D+28                  1142.6424     4.9680    39.9452
         TOT.                      -27.140    6289.4209    43.5481   109.9228

 240.00  VIB.     0.2655D+05                  4824.9063    37.1525    40.3468
         ROT.     0.1550D+07                   715.3935     2.9808    31.3054
         INT.     0.4114D+11                  5540.2998    40.1333    71.6521
         TRA.     0.1499D+28                  1192.3226     4.9680    40.1566
         TOT.                      -26.697    6732.6224    45.1013   111.8088

 250.00  VIB.     0.4041D+05                  5204.4193    38.7587    41.8958
         ROT.     0.1647D+07                   745.2016     2.9808    31.4270
         INT.     0.6658D+11                  5949.6209    41.7395    73.3228
         TRA.     0.1593D+28                  1242.0027     4.9680    40.3594
         TOT.                      -26.238    7191.6236    46.7075   113.6823

 260.00  VIB.     0.6138D+05                  5600.2437    40.4141    43.4480
         ROT.     0.1747D+07                   775.0097     2.9808    31.5440
         INT.     0.1072D+12                  6375.2533    43.3949    74.9920
         TRA.     0.1690D+28                  1291.6828     4.9680    40.5543
         TOT.                      -25.763    7666.9361    48.3629   115.5463

 270.00  VIB.     0.9304D+05                  6012.8496    42.1141    45.0050
         ROT.     0.1849D+07                   804.8177     2.9808    31.6565
         INT.     0.1720D+12                  6817.6673    45.0949    76.6615
         TRA.     0.1788D+28                  1341.3629     4.9680    40.7418
         TOT.                      -25.271    8159.0302    50.0630   117.4033

 280.00  VIB.     0.1408D+06                  6442.6580    43.8537    46.5679
         ROT.     0.1953D+07                   834.6258     2.9808    31.7649
         INT.     0.2749D+12                  7277.2838    46.8345    78.3328
         TRA.     0.1888D+28                  1391.0430     4.9680    40.9225
         TOT.                      -24.761    8668.3268    51.8025   119.2553

 290.00  VIB.     0.2128D+06                  6890.0354    45.6270    48.1377
         ROT.     0.2058D+07                   864.4339     2.9808    31.8695
         INT.     0.4379D+12                  7754.4692    48.6078    80.0071
         TRA.     0.1990D+28                  1440.7231     4.9680    41.0968
         TOT.                      -24.235    9195.1923    53.5758   121.1039

 300.00  VIB.     0.3212D+06                  7355.2911    47.4283    49.7148
         ROT.     0.2166D+07                   894.2419     2.9808    31.9705
         INT.     0.6955D+12                  8249.5331    50.4092    81.6853
         TRA.     0.2094D+28                  1490.4032     4.9680    41.2652
         TOT.                      -23.690    9739.9362    55.3772   122.9505

 310.00  VIB.     0.4843D+06                  7838.6764    49.2519    51.2996
         ROT.     0.2275D+07                   924.0500     2.9808    32.0683
         INT.     0.1102D+13                  8762.7264    52.2327    83.3679
         TRA.     0.2200D+28                  1540.0833     4.9680    41.4281
         TOT.                      -23.127   10302.8097    57.2007   124.7960

 320.00  VIB.     0.7299D+06                  8340.3848    51.0920    52.8923
         ROT.     0.2386D+07                   953.8580     2.9808    32.1629
         INT.     0.1741D+13                  9294.2429    54.0729    85.0552
         TRA.     0.2307D+28                  1589.7634     4.9680    41.5859
         TOT.                      -22.546   10884.0063    59.0409   126.6411

 330.00  VIB.     0.1099D+07                  8860.5543    52.9433    54.4928
         ROT.     0.2498D+07                   983.6661     2.9808    32.2546
         INT.     0.2747D+13                  9844.2204    55.9241    86.7474
         TRA.     0.2416D+28                  1639.4435     4.9680    41.7387
         TOT.                      -21.946   11483.6639    60.8921   128.4862

 340.00  VIB.     0.1656D+07                  9399.2697    54.8004    56.1009
         ROT.     0.2613D+07                  1013.4742     2.9808    32.3436
         INT.     0.4326D+13                 10412.7438    57.7812    88.4445
         TRA.     0.2527D+28                  1689.1236     4.9680    41.8870
         TOT.                      -21.328   12101.8675    62.7492   130.3316

 350.00  VIB.     0.2492D+07                  9956.5663    56.6587    57.7163
         ROT.     0.2729D+07                  1043.2822     2.9808    32.4300
         INT.     0.6801D+13                 10999.8485    59.6395    90.1463
         TRA.     0.2639D+28                  1738.8037     4.9680    42.0310
         TOT.                      -20.691   12738.6522    64.6075   132.1773

 360.00  VIB.     0.3752D+07                 10532.4336    58.5138    59.3384
         ROT.     0.2847D+07                  1073.0903     2.9808    32.5140
         INT.     0.1068D+14                 11605.5239    61.4947    91.8524
         TRA.     0.2753D+28                  1788.4838     4.9680    42.1710
         TOT.                      -20.036   13394.0077    66.4627   134.0234

 370.00  VIB.     0.5647D+07                 11126.8193    60.3618    60.9668
         ROT.     0.2966D+07                  1102.8984     2.9808    32.5957
         INT.     0.1675D+14                 12229.7176    63.3426    93.5625
         TRA.     0.2869D+28                  1838.1639     4.9680    42.3071
         TOT.                      -19.362   14067.8816    68.3106   135.8696

 380.00  VIB.     0.8501D+07                 11739.6335    62.1990    62.6010
         ROT.     0.3087D+07                  1132.7064     2.9808    32.6751
         INT.     0.2624D+14                 12872.3400    65.1798    95.2761
         TRA.     0.2986D+28                  1887.8440     4.9680    42.4396
         TOT.                      -18.670   14760.1840    70.1478   137.7158

 390.00  VIB.     0.1280D+08                 12370.7532    64.0224    64.2403
         ROT.     0.3210D+07                  1162.5145     2.9808    32.7526
         INT.     0.4108D+14                 13533.2677    67.0032    96.9928
         TRA.     0.3104D+28                  1937.5242     4.9680    42.5687
         TOT.                      -17.959   15470.7919    71.9712   139.5615

 400.00  VIB.     0.1927D+08                 13020.0258    65.8292    65.8840
         ROT.     0.3334D+07                  1192.3226     2.9808    32.8280
         INT.     0.6426D+14                 14212.3483    68.8100    98.7120
         TRA.     0.3224D+28                  1987.2043     4.9680    42.6944
         TOT.                      -17.230   16199.5526    73.7780   141.4065

   *: NOTE: HEATS OF FORMATION ARE RELATIVE TO THE
            ELEMENTS IN THEIR STANDARD STATE AT 298K
              (=  Standard Enthalpy of Formation).

            Hvib:  Zero-point energy is not included.
                   frequencies of less than zero cm-1 are not included.
            Hrot = (3/2)RT
            Htra = (3/2)RT + pV = (5/2)RT

            Heat capacity is Cp, not Cv

          For more information, see: HTTP://OpenMOPAC.net/Manual/thermochemistry.html


           FORCE CONSTANT IN CARTESIAN COORDINATES (Millidynes/A)

    ATOM   CHEMICAL       X               Y               Z
   NUMBER   SYMBOL  FORCE CONSTANT  FORCE CONSTANT  FORCE CONSTANT

      1       C        7.715276        8.176994        8.672280
      2       C        7.719196        8.169698        8.682080
      3       C        8.114538        7.859648        8.598989
      4       C        8.113929        7.856982        8.596827
      5       C        8.312652        8.313074        8.373150
      6       C        8.295265        8.512981        8.283912
      7       C        8.438690        8.212625        8.658955
      8       C        8.560933        8.184189        8.674039
      9       C        8.201570        8.305459        8.344765
     10       C        8.225973        8.234808        8.397228
     11       C        9.220675        8.842363        9.110848
     12       C        9.136655        9.089265        8.970566
     13       H        1.366145        1.357041        3.535728
     14       H        1.364762        1.331649        3.560430
     15       H        1.543631        1.218352        3.632452
     16       H        4.609654        1.067546        0.693502
     17       H        1.429667        1.489396        3.702086
     18       H        1.494322        1.459344        3.675660
     19       H        1.567224        1.169776        3.658120
     20       H        4.582061        1.097043        0.697141
     21       H        1.494319        1.487977        3.646462
     22       H        1.429337        1.461855        3.730000
     23       H        0.966220        4.319457        0.987711
     24       H        3.624376        1.813489        0.957840
     25       H        4.530775        1.079413        0.738704
     26       H        1.546979        1.179978        3.539800
     27       H        1.554120        1.337543        3.876166
     28       H        4.895454        1.145178        0.689097
     29       H        1.717087        1.386110        3.685033
     30       H        1.832673        1.578203        3.379695
     31       H        3.903883        1.976774        0.902632
     32       H        1.019930        4.690884        1.071785
     33       H        4.389687        1.045324        0.779312
     34       H        4.360982        1.072347        0.781245

 **********************
 *                    *
 * JOB ENDED NORMALLY *
 *                    *
 **********************



 TOTAL JOB TIME:            12.05 SECONDS

 == MOPAC DONE ==
