 *******************************************************************************
 **                                                                           **
 **                              MOPAC v23.1.2                                **
 **                                                                           **
 *******************************************************************************
 **          Digital Object Identifier (DOI): 10.5281/zenodo.6511958          **
 **    Visit the DOI location for information on how to cite this program.    **
 *******************************************************************************

                              PM3 CALCULATION RESULTS

 *******************************************************************************
 *  CALCULATION DONE: (MAX THREADS = 1)              Tue Jun  3 16:28:14 2025  *
 *  PM3        - The PM3 Hamiltonian to be used
 *  PRECISE    - TIGHTER CRITERIA TO BE USED
 *  NOSYM      - POINT-GROUP SYMMETRY SET TO C1
 *  THREADS=1  - MULTI-THREADING NOT USED
 *  T=         - A TIME OF 172800.0 SECONDS REQUESTED
 *  DUMP=N     - RESTART FILE WRITTEN EVERY 7200.0 SECONDS REQUESTED
 *******************************************************************************
pm3  precise nosym THREADS=1
 InChI=1S/C7H8/c1-7-5-3-2-4-6-7/h2-5H,1,6H2

   ATOM   CHEMICAL          X               Y               Z
  NUMBER   SYMBOL      (ANGSTROMS)     (ANGSTROMS)     (ANGSTROMS)

     1       C          0.54430000  *   1.11740000  *   0.15890000  *
     2       C          0.86430000  *  -0.32250000  *  -0.17680000  *
     3       C         -0.92400000  *   1.36680000  *   0.39820000  *
     4       C         -0.21340000  *  -1.33050000  *  -0.24490000  *
     5       C         -1.84480000  *   0.40080000  *   0.31860000  *
     6       C         -1.47990000  *  -0.98600000  *  -0.01200000  *
     7       C          2.12790000  *  -0.68130000  *  -0.41230000  *
     8       H          1.10220000  *   1.41080000  *   1.07380000  *
     9       H          0.87780000  *   1.76910000  *  -0.67690000  *
    10       H         -1.24010000  *   2.37270000  *   0.64450000  *
    11       H          0.01750000  *  -2.36170000  *  -0.48550000  *
    12       H         -2.25750000  *  -1.73730000  *  -0.06610000  *
    13       H         -2.88470000  *   0.63990000  *   0.50080000  *
    14       H          2.38260000  *  -1.70580000  *  -0.65460000  *
    15       H          2.92780000  *   0.04760000  *  -0.36570000  *



          CARTESIAN COORDINATES 

    NO.       ATOM           X           Y           Z

     1         C          0.5443      1.1174      0.1589
     2         C          0.8643     -0.3225     -0.1768
     3         C         -0.9240      1.3668      0.3982
     4         C         -0.2134     -1.3305     -0.2449
     5         C         -1.8448      0.4008      0.3186
     6         C         -1.4799     -0.9860     -0.0120
     7         C          2.1279     -0.6813     -0.4123
     8         H          1.1022      1.4108      1.0738
     9         H          0.8778      1.7691     -0.6769
    10         H         -1.2401      2.3727      0.6445
    11         H          0.0175     -2.3617     -0.4855
    12         H         -2.2575     -1.7373     -0.0661
    13         H         -2.8847      0.6399      0.5008
    14         H          2.3826     -1.7058     -0.6546
    15         H          2.9278      0.0476     -0.3657

  H: (PM3): J. J. P. STEWART, J. COMP. CHEM. 10, 209 (1989).
  C: (PM3): J. J. P. STEWART, J. COMP. CHEM. 10, 209 (1989).

           Empirical Formula: C7 H8  =    15 atoms



      MOLECULAR POINT GROUP   :   C1  


      RHF CALCULATION, NO. OF DOUBLY OCCUPIED LEVELS = 18


          Geometry optimization using EF

          DIAGONAL MATRIX USED AS START HESSIAN

 CYCLE:     1 TIME:   0.004 TIME LEFT:  2.00D  GRAD.:    66.945 HEAT:  41.34989
 CYCLE:     2 TIME:   0.004 TIME LEFT:  2.00D  GRAD.:    72.389 HEAT:  41.01362
 CYCLE:     3 TIME:   0.004 TIME LEFT:  2.00D  GRAD.:    60.694 HEAT:  40.59218
 CYCLE:     4 TIME:   0.008 TIME LEFT:  2.00D  GRAD.:    34.719 HEAT:  39.97100
 CYCLE:     5 TIME:   0.004 TIME LEFT:  2.00D  GRAD.:    21.152 HEAT:  39.71956
 CYCLE:     6 TIME:   0.004 TIME LEFT:  2.00D  GRAD.:    16.138 HEAT:  39.61575
 CYCLE:     7 TIME:   0.004 TIME LEFT:  2.00D  GRAD.:    18.851 HEAT:  39.53671
 CYCLE:     8 TIME:   0.004 TIME LEFT:  2.00D  GRAD.:    14.566 HEAT:  39.41717
 CYCLE:     9 TIME:   0.004 TIME LEFT:  2.00D  GRAD.:    15.844 HEAT:  39.37871
 CYCLE:    10 TIME:   0.004 TIME LEFT:  2.00D  GRAD.:    13.538 HEAT:  39.37156
 CYCLE:    11 TIME:   0.004 TIME LEFT:  2.00D  GRAD.:    14.354 HEAT:  39.36020
 CYCLE:    12 TIME:   0.004 TIME LEFT:  2.00D  GRAD.:     5.442 HEAT:  39.31718
 CYCLE:    13 TIME:   0.008 TIME LEFT:  2.00D  GRAD.:     4.947 HEAT:  39.31343
 CYCLE:    14 TIME:   0.004 TIME LEFT:  2.00D  GRAD.:     3.729 HEAT:  39.31132
 CYCLE:    15 TIME:   0.004 TIME LEFT:  2.00D  GRAD.:     2.360 HEAT:  39.30817
 CYCLE:    16 TIME:   0.004 TIME LEFT:  2.00D  GRAD.:     1.463 HEAT:  39.30642
 CYCLE:    17 TIME:   0.004 TIME LEFT:  2.00D  GRAD.:     1.648 HEAT:  39.30571
 CYCLE:    18 TIME:   0.000 TIME LEFT:  2.00D  GRAD.:     0.849 HEAT:  39.30442
 CYCLE:    19 TIME:   0.004 TIME LEFT:  2.00D  GRAD.:     0.939 HEAT:  39.30389
 CYCLE:    20 TIME:   0.004 TIME LEFT:  2.00D  GRAD.:     0.413 HEAT:  39.30360
 CYCLE:    21 TIME:   0.004 TIME LEFT:  2.00D  GRAD.:     0.413 HEAT:  39.30354
 CYCLE:    22 TIME:   0.004 TIME LEFT:  2.00D  GRAD.:     0.262 HEAT:  39.30344
 CYCLE:    23 TIME:   0.004 TIME LEFT:  2.00D  GRAD.:     0.249 HEAT:  39.30334
 CYCLE:    24 TIME:   0.004 TIME LEFT:  2.00D  GRAD.:     0.270 HEAT:  39.30326
 CYCLE:    25 TIME:   0.004 TIME LEFT:  2.00D  GRAD.:     0.166 HEAT:  39.30321
 CYCLE:    26 TIME:   0.004 TIME LEFT:  2.00D  GRAD.:     0.131 HEAT:  39.30316
 CYCLE:    27 TIME:   0.008 TIME LEFT:  2.00D  GRAD.:     0.174 HEAT:  39.30312
 CYCLE:    28 TIME:   0.004 TIME LEFT:  2.00D  GRAD.:     0.101 HEAT:  39.30311
 CYCLE:    29 TIME:   0.004 TIME LEFT:  2.00D  GRAD.:     0.068 HEAT:  39.30309
 CYCLE:    30 TIME:   0.004 TIME LEFT:  2.00D  GRAD.:     0.053 HEAT:  39.30309
 CYCLE:    31 TIME:   0.004 TIME LEFT:  2.00D  GRAD.:     0.028 HEAT:  39.30308

     GRADIENT =  0.02778 IS LESS THAN CUTOFF =  0.05000



 -------------------------------------------------------------------------------
 pm3  precise nosym THREADS=1
 InChI=1S/C7H8/c1-7-5-3-2-4-6-7/h2-5H,1,6H2



     GEOMETRY OPTIMISED USING EIGENVECTOR FOLLOWING (EF).     
     SCF FIELD WAS ACHIEVED                                   


                              PM3 CALCULATION
                                                       MOPAC v23.1.2 MacOS
                                                       Tue Jun  3 16:28:14 2025




          FINAL HEAT OF FORMATION =         39.30308 KCAL/MOL =     164.44411 KJ/MOL


          COSMO AREA              =        138.46 SQUARE ANGSTROMS
          COSMO VOLUME            =        130.25 CUBIC ANGSTROMS

          GRADIENT NORM           =          0.02778          =       0.00717 PER ATOM
          IONIZATION POTENTIAL    =          8.599104 EV
          HOMO LUMO ENERGIES (EV) =         -8.599 -0.197
          NO. OF FILLED LEVELS    =         18
          MOLECULAR WEIGHT        =         92.1402         POINT GROUP:  C1  

          MOLECULAR DIMENSIONS (Angstroms)

            Atom       Atom       Distance
            H    15    H    13     5.96009
            H    11    H    10     4.65577
            H     8    H     9     1.77043


          SCF CALCULATIONS        =         39

          WALL-CLOCK TIME         =      0.145 SECONDS
          COMPUTATION TIME        =      0.095 SECONDS




   ATOM   CHEMICAL          X               Y               Z
  NUMBER   SYMBOL      (ANGSTROMS)     (ANGSTROMS)     (ANGSTROMS)

     1       C          0.52251782  *   1.09343995  *   0.15792460  *
     2       C          0.86545008  *  -0.32402431  *  -0.17710193  *
     3       C         -0.91975292  *   1.35317463  *   0.39427302  *
     4       C         -0.21060175  *  -1.30523943  *  -0.23917956  *
     5       C         -1.85280537  *   0.39487214  *   0.31760962  *
     6       C         -1.48990572  *  -0.96844756  *  -0.00667592  *
     7       C          2.13350897  *  -0.68047475  *  -0.41418240  *
     8       H          1.08905256  *   1.40345553  *   1.06070428  *
     9       H          0.87113742  *   1.75766445  *  -0.66019201  *
    10       H         -1.18921703  *   2.38653375  *   0.63940088  *
    11       H          0.06753075  *  -2.33685747  *  -0.48517731  *
    12       H         -2.29185153  *  -1.71213966  *  -0.05552601  *
    13       H         -2.91080158  *   0.61194181  *   0.49654104  *
    14       H          2.42339717  *  -1.69772490  *  -0.66006054  *
    15       H          2.95606795  *   0.02725707  *  -0.37563411  *

                             CARTESIAN COORDINATES

   1    C        0.522517816     1.093439952     0.157924598
   2    C        0.865450085    -0.324024309    -0.177101929
   3    C       -0.919752918     1.353174632     0.394273019
   4    C       -0.210601747    -1.305239432    -0.239179564
   5    C       -1.852805374     0.394872138     0.317609618
   6    C       -1.489905716    -0.968447557    -0.006675917
   7    C        2.133508969    -0.680474752    -0.414182404
   8    H        1.089052557     1.403455530     1.060704278
   9    H        0.871137423     1.757664451    -0.660192011
  10    H       -1.189217033     2.386533748     0.639400881
  11    H        0.067530747    -2.336857473    -0.485177306
  12    H       -2.291851525    -1.712139657    -0.055526009
  13    H       -2.910801578     0.611941814     0.496541040
  14    H        2.423397169    -1.697724896    -0.660060539
  15    H        2.956067953     0.027257073    -0.375634107


           Empirical Formula: C7 H8  =    15 atoms



      MOLECULAR POINT GROUP   :   C1  


                  EIGENVALUES  
 -39.67644 -32.08680 -30.28732 -25.20390 -21.71959 -20.08319 -17.62326 -16.54225
 -15.80966 -14.99034 -14.65455 -14.26916 -13.39453 -12.58127 -11.86401 -11.73798
 -10.81303  -8.59910  -0.19696   1.29267   2.33350   3.18736   3.32047   3.38658
   3.72478   3.81364   3.94403   4.23695   4.38046   4.40003   4.81848   5.23724
   5.36386   5.61218   6.15101   6.25574


              NET ATOMIC CHARGES AND DIPOLE CONTRIBUTIONS

  ATOM NO.   TYPE          CHARGE      No. of ELECS.   s-Pop       p-Pop       
    1          C          -0.020834        4.0208     1.13282     2.88801
    2          C          -0.074319        4.0743     1.18239     2.89193
    3          C          -0.127911        4.1279     1.19576     2.93215
    4          C          -0.095756        4.0958     1.18136     2.91439
    5          C          -0.117341        4.1173     1.17813     2.93921
    6          C          -0.094101        4.0941     1.17963     2.91447
    7          C          -0.173614        4.1736     1.18323     2.99039
    8          H           0.065722        0.9343     0.93428
    9          H           0.065703        0.9343     0.93430
   10          H           0.098384        0.9016     0.90162
   11          H           0.102487        0.8975     0.89751
   12          H           0.101043        0.8990     0.89896
   13          H           0.102405        0.8976     0.89760
   14          H           0.085547        0.9145     0.91445
   15          H           0.082584        0.9174     0.91742
 DIPOLE           X         Y         Z       TOTAL
 POINT-CHG.    -0.046     0.316     0.071     0.328
 HYBRID         0.040     0.025     0.000     0.047
 SUM           -0.007     0.341     0.071     0.348


          ATOMIC ORBITAL ELECTRON POPULATIONS

     Atom    s        px        py        pz   
    1  C   1.13282   0.94456   0.93944   1.00402
    2  C   1.18239   0.94911   0.94914   0.99369
    3  C   1.19576   0.95536   0.98244   0.99435
    4  C   1.18136   0.93959   0.97206   1.00274
    5  C   1.17813   0.98017   0.94316   1.01587
    6  C   1.17963   0.96336   0.95771   0.99340
    7  C   1.18323   0.95396   1.01038   1.02605
    8  H   0.93428
    9  H   0.93430
   10  H   0.90162
   11  H   0.89751
   12  H   0.89896
   13  H   0.89760
   14  H   0.91445
   15  H   0.91742
 *******************************************************************************
 **                                                                           **
 **                              MOPAC v23.1.2                                **
 **                                                                           **
 *******************************************************************************
 **          Digital Object Identifier (DOI): 10.5281/zenodo.6511958          **
 **    Visit the DOI location for information on how to cite this program.    **
 *******************************************************************************

                              PM3 CALCULATION RESULTS

 *******************************************************************************
 *  CALCULATION DONE: (MAX THREADS = 1)              Tue Jun  3 16:28:14 2025  *
 *  PM3        - The PM3 Hamiltonian to be used
 *  OLDGEO     - PREVIOUS GEOMETRY TO BE USED
 *  PRECISE    - TIGHTER CRITERIA TO BE USED
 *  NOSYM      - POINT-GROUP SYMMETRY SET TO C1
 *  THREADS=1  - MULTI-THREADING NOT USED
 *  T=         - A TIME OF 172800.0 SECONDS REQUESTED
 *  DUMP=N     - RESTART FILE WRITTEN EVERY 7200.0 SECONDS REQUESTED
 *  THERMO     - THERMODYNAMIC QUANTITIES TO BE CALCULATED
 *******************************************************************************
oldgeo thermo nosym precise THREADS=1  pm3
 InChI=1S/C7H8/c1-7-5-3-2-4-6-7/h2-5H,1,6H2

   ATOM   CHEMICAL          X               Y               Z
  NUMBER   SYMBOL      (ANGSTROMS)     (ANGSTROMS)     (ANGSTROMS)

     1       C          0.52251782  *   1.09343995  *   0.15792460  *
     2       C          0.86545008  *  -0.32402431  *  -0.17710193  *
     3       C         -0.91975292  *   1.35317463  *   0.39427302  *
     4       C         -0.21060175  *  -1.30523943  *  -0.23917956  *
     5       C         -1.85280537  *   0.39487214  *   0.31760962  *
     6       C         -1.48990572  *  -0.96844756  *  -0.00667592  *
     7       C          2.13350897  *  -0.68047475  *  -0.41418240  *
     8       H          1.08905256  *   1.40345553  *   1.06070428  *
     9       H          0.87113742  *   1.75766445  *  -0.66019201  *
    10       H         -1.18921703  *   2.38653375  *   0.63940088  *
    11       H          0.06753075  *  -2.33685747  *  -0.48517731  *
    12       H         -2.29185153  *  -1.71213966  *  -0.05552601  *
    13       H         -2.91080158  *   0.61194181  *   0.49654104  *
    14       H          2.42339717  *  -1.69772490  *  -0.66006054  *
    15       H          2.95606795  *   0.02725707  *  -0.37563411  *



          CARTESIAN COORDINATES 

    NO.       ATOM           X           Y           Z

     1         C          0.5225      1.0934      0.1579
     2         C          0.8655     -0.3240     -0.1771
     3         C         -0.9198      1.3532      0.3943
     4         C         -0.2106     -1.3052     -0.2392
     5         C         -1.8528      0.3949      0.3176
     6         C         -1.4899     -0.9684     -0.0067
     7         C          2.1335     -0.6805     -0.4142
     8         H          1.0891      1.4035      1.0607
     9         H          0.8711      1.7577     -0.6602
    10         H         -1.1892      2.3865      0.6394
    11         H          0.0675     -2.3369     -0.4852
    12         H         -2.2919     -1.7121     -0.0555
    13         H         -2.9108      0.6119      0.4965
    14         H          2.4234     -1.6977     -0.6601
    15         H          2.9561      0.0273     -0.3756

  H: (PM3): J. J. P. STEWART, J. COMP. CHEM. 10, 209 (1989).
  C: (PM3): J. J. P. STEWART, J. COMP. CHEM. 10, 209 (1989).

           Empirical Formula: C7 H8  =    15 atoms



      MOLECULAR POINT GROUP   :   C1  


      RHF CALCULATION, NO. OF DOUBLY OCCUPIED LEVELS = 18



          HEAT OF FORMATION =      39.303084 KCALS/MOLE


          CARTESIAN COORDINATE DERIVATIVES

   NUMBER  ATOM         X            Y            Z

     1       C     -0.002169     0.001674     0.001216
     2       C     -0.004405    -0.006015    -0.004340
     3       C      0.000402    -0.001150     0.008217
     4       C     -0.007993    -0.002954     0.000370
     5       C      0.006108     0.004566    -0.007074
     6       C     -0.009552     0.003572     0.002070
     7       C     -0.007566    -0.011484     0.004296
     8       H      0.005868     0.005267    -0.001142
     9       H      0.008445    -0.001224    -0.002780
    10       H      0.000836     0.000176    -0.001657
    11       H     -0.000203     0.007393     0.000933
    12       H      0.003284    -0.000020    -0.001808
    13       H      0.002365    -0.000139     0.001736
    14       H      0.000683     0.003040    -0.001049
    15       H      0.003898    -0.002701     0.001012



          GRADIENT NORM =   0.03016

          MOLECULAR WEIGHT =   92.14



          ROTATIONAL CONSTANTS IN CM(-1)

          A =    0.17100685   B =    0.08967891   C =    0.05948416



           PRINCIPAL MOMENTS OF INERTIA IN UNITS OF 10**(-40)*GRAM-CM**2

          A =      163.6937   B =      312.1442   C =      470.5917


          ORIENTATION OF MOLECULE IN FORCE CALCULATION

    NO.       ATOM         X         Y         Z

     1          C      -0.9740   -0.8894    0.0009
     2          C       0.5223   -0.8894    0.0009
     3          C      -1.6035    0.4549    0.0009
     4          C       1.2191    0.3908   -0.0023
     5          C      -0.8924    1.5903   -0.0011
     6          C       0.5548    1.5582   -0.0032
     7          C       1.2037   -2.0414    0.0037
     8          H      -1.3400   -1.4500   -0.8845
     9          H      -1.3402   -1.4504    0.8859
    10          H      -2.6991    0.4737    0.0024
    11          H       2.3151    0.3631   -0.0037
    12          H       1.0864    2.5153   -0.0056
    13          H      -1.3806    2.5702   -0.0012
    14          H       2.2888   -2.0840    0.0036
    15          H       0.7131   -3.0101    0.0063


    FIRST DERIVATIVES WILL BE USED IN THE CALCULATION OF SECOND DERIVATIVES

          ESTIMATED TIME TO COMPLETE CALCULATION =        1.41 SECONDS

    FOR POINT-GROUP C1   THERE ARE   1 UNIQUE SYMMETRY FUNCTIONS.

 STEP:   1 TIME =     0.01 SECS, INTEGRAL =      0.01 TIME LEFT: 172799.98
 STEP:   2 TIME =     0.01 SECS, INTEGRAL =      0.02 TIME LEFT: 172799.98
 STEP:   3 TIME =     0.01 SECS, INTEGRAL =      0.03 TIME LEFT: 172799.96
 STEP:   4 TIME =     0.01 SECS, INTEGRAL =      0.04 TIME LEFT: 172799.95
 STEP:   5 TIME =     0.01 SECS, INTEGRAL =      0.05 TIME LEFT: 172799.94
 STEP:   6 TIME =     0.01 SECS, INTEGRAL =      0.06 TIME LEFT: 172799.93
 STEP:   7 TIME =     0.01 SECS, INTEGRAL =      0.07 TIME LEFT: 172799.92
 STEP:   8 TIME =     0.01 SECS, INTEGRAL =      0.08 TIME LEFT: 172799.91
 STEP:   9 TIME =     0.01 SECS, INTEGRAL =      0.09 TIME LEFT: 172799.90
 STEP:  10 TIME =     0.01 SECS, INTEGRAL =      0.10 TIME LEFT: 172799.89
 STEP:  11 TIME =     0.01 SECS, INTEGRAL =      0.11 TIME LEFT: 172799.88
 STEP:  12 TIME =     0.01 SECS, INTEGRAL =      0.12 TIME LEFT: 172799.87
 STEP:  13 TIME =     0.01 SECS, INTEGRAL =      0.14 TIME LEFT: 172799.86
 STEP:  14 TIME =     0.01 SECS, INTEGRAL =      0.14 TIME LEFT: 172799.85
 STEP:  15 TIME =     0.01 SECS, INTEGRAL =      0.16 TIME LEFT: 172799.84
 STEP:  16 TIME =     0.01 SECS, INTEGRAL =      0.17 TIME LEFT: 172799.82
 STEP:  17 TIME =     0.01 SECS, INTEGRAL =      0.18 TIME LEFT: 172799.81
 STEP:  18 TIME =     0.01 SECS, INTEGRAL =      0.19 TIME LEFT: 172799.80
 STEP:  19 TIME =     0.01 SECS, INTEGRAL =      0.20 TIME LEFT: 172799.79
 STEP:  20 TIME =     0.01 SECS, INTEGRAL =      0.21 TIME LEFT: 172799.78
 STEP:  21 TIME =     0.01 SECS, INTEGRAL =      0.23 TIME LEFT: 172799.77
 STEP:  22 TIME =     0.01 SECS, INTEGRAL =      0.24 TIME LEFT: 172799.75
 STEP:  23 TIME =     0.02 SECS, INTEGRAL =      0.26 TIME LEFT: 172799.73
 STEP:  24 TIME =     0.01 SECS, INTEGRAL =      0.27 TIME LEFT: 172799.73
 STEP:  25 TIME =     0.01 SECS, INTEGRAL =      0.28 TIME LEFT: 172799.71
 STEP:  26 TIME =     0.01 SECS, INTEGRAL =      0.29 TIME LEFT: 172799.70
 STEP:  27 TIME =     0.01 SECS, INTEGRAL =      0.30 TIME LEFT: 172799.70
 STEP:  28 TIME =     0.01 SECS, INTEGRAL =      0.30 TIME LEFT: 172799.69
 STEP:  29 TIME =     0.01 SECS, INTEGRAL =      0.32 TIME LEFT: 172799.68
 STEP:  30 TIME =     0.01 SECS, INTEGRAL =      0.33 TIME LEFT: 172799.66
 STEP:  31 TIME =     0.01 SECS, INTEGRAL =      0.34 TIME LEFT: 172799.65
 STEP:  32 TIME =     0.01 SECS, INTEGRAL =      0.35 TIME LEFT: 172799.64
 STEP:  33 TIME =     0.01 SECS, INTEGRAL =      0.36 TIME LEFT: 172799.63
 STEP:  34 TIME =     0.01 SECS, INTEGRAL =      0.38 TIME LEFT: 172799.62
 STEP:  35 TIME =     0.01 SECS, INTEGRAL =      0.39 TIME LEFT: 172799.61
 STEP:  36 TIME =     0.01 SECS, INTEGRAL =      0.40 TIME LEFT: 172799.59
 STEP:  37 TIME =     0.01 SECS, INTEGRAL =      0.41 TIME LEFT: 172799.58
 STEP:  38 TIME =     0.01 SECS, INTEGRAL =      0.42 TIME LEFT: 172799.57
 STEP:  39 TIME =     0.01 SECS, INTEGRAL =      0.43 TIME LEFT: 172799.56
 STEP:  40 TIME =     0.01 SECS, INTEGRAL =      0.45 TIME LEFT: 172799.55
 STEP:  41 TIME =     0.01 SECS, INTEGRAL =      0.46 TIME LEFT: 172799.54
 STEP:  42 TIME =     0.01 SECS, INTEGRAL =      0.47 TIME LEFT: 172799.52
 STEP:  43 TIME =     0.01 SECS, INTEGRAL =      0.48 TIME LEFT: 172799.51
 STEP:  44 TIME =     0.01 SECS, INTEGRAL =      0.49 TIME LEFT: 172799.50
 STEP:  45 TIME =     0.01 SECS, INTEGRAL =      0.50 TIME LEFT: 172799.49

(To convert to Hartree/Bohr^2, multiply by (10^(-21) x N x a0^2)/(4.184 x 627.51) =  0.0642)


           FORCE MATRIX IN MILLIDYNES/ANGSTROM


                  C  1       C  2       C  3       C  4       C  5       C  6
 ------------------------------------------------------------------------------
     C    1  15.016028
     C    2   4.669019  18.673540
     C    3   5.019638   0.691956  18.006713
     C    4   0.604512   5.409906   0.219526  18.357386
     C    5   0.865993   0.176627  10.198102   1.183283  18.353059
     C    6   0.140339   1.089046   1.201846   9.961301   5.688123  18.270798
     C    7   0.828465  10.307765   0.065067   1.112638   0.063055   0.150339
     H    8   4.370971   0.418639   0.416499   0.027134   0.041322   0.015717
     H    9   4.371664   0.418799   0.416655   0.027264   0.041395   0.015683
     H   10   0.422773   0.049568   4.830171   0.011089   0.444835   0.125421
     H   11   0.041317   0.447548   0.011494   4.805688   0.125055   0.440594
     H   12   0.004206   0.123387   0.048463   0.439930   0.435178   4.860184
     H   13   0.123501   0.002672   0.444687   0.048733   4.859098   0.436674
     H   14   0.114895   0.474343   0.007801   0.091899   0.007311   0.006982
     H   15   0.083110   0.475422   0.002679   0.127051   0.008357   0.010234


                  C  7       H  8       H  9       H 10       H 11       H 12
 ------------------------------------------------------------------------------
     C    7  17.849029
     H    8   0.036890   4.957649
     H    9   0.037046   0.568508   4.958432
     H   10   0.009217   0.029673   0.029785   5.205504
     H   11   0.045227   0.004588   0.004605   0.009783   5.179254
     H   12   0.009354   0.000987   0.000984   0.007746   0.064833   5.222523
     H   13   0.001239   0.016322   0.016299   0.066129   0.007253   0.031531
     H   14   5.096633   0.012796   0.012730   0.003795   0.028316   0.006049
     H   15   5.101128   0.013132   0.013200   0.002288   0.002267   0.009802


                  H 13       H 14       H 15
 ------------------------------------------
     H   13   5.224553
     H   14   0.000569   5.488817
     H   15   0.000314   0.413214   5.489864


          HEAT OF FORMATION =      39.303084 KCALS/MOLE

          ZERO POINT ENERGY      78.951 KCAL/MOL


           NORMAL COORDINATE ANALYSIS (Total motion = 1 Angstrom)


   Root No.       1         2         3         4         5         6         7         8

                 1 A       2 A       3 A       4 A       5 A       6 A       7 A       8 A   

                  51.6     247.0     396.8     417.6     505.8     517.3     589.0     616.6
  
           1   -0.0000    0.0000   -0.0426   -0.0000    0.0470   -0.0005   -0.0038   -0.0000
           2   -0.0001    0.0000   -0.0040    0.0000    0.0513   -0.0006   -0.0704   -0.0001
           3   -0.0596   -0.0208   -0.0000    0.0003    0.0002    0.0113    0.0001   -0.0031
           4   -0.0000    0.0000   -0.0414   -0.0000    0.0478   -0.0006   -0.0217   -0.0000
           5   -0.0000    0.0000   -0.0271    0.0000   -0.0625    0.0009   -0.0285   -0.0001
           6   -0.0114    0.0284    0.0000    0.0561    0.0019    0.0652    0.0003   -0.0203
           7    0.0000    0.0001   -0.0043   -0.0001    0.0001   -0.0001    0.1052    0.0002
           8   -0.0000    0.0000    0.0231    0.0000    0.0468   -0.0006   -0.0195   -0.0000
           9    0.0229    0.0491    0.0001   -0.0495   -0.0001   -0.0013   -0.0000   -0.0135
          10   -0.0000    0.0001   -0.0268   -0.0001   -0.0399    0.0005   -0.0906   -0.0002
          11   -0.0001    0.0001   -0.0356   -0.0000   -0.0203    0.0002    0.0244    0.0001
          12   -0.0422    0.0539    0.0002    0.0137   -0.0010   -0.0298   -0.0001    0.0201
          13    0.0001   -0.0001    0.0162    0.0001   -0.0497    0.0006    0.0196    0.0000
          14    0.0000   -0.0000    0.0116    0.0001    0.0753   -0.0010    0.0410    0.0001
          15    0.0437   -0.0279   -0.0002    0.0599   -0.0005   -0.0137   -0.0001    0.0091
          16   -0.0000   -0.0001    0.0130   -0.0001   -0.0539    0.0007    0.0091   -0.0000
          17   -0.0000   -0.0001   -0.0175   -0.0001   -0.0202    0.0002    0.0876    0.0001
          18   -0.0131   -0.0479    0.0001   -0.0438    0.0010    0.0264   -0.0000   -0.0194
          19   -0.0000   -0.0001    0.0683    0.0001    0.0440   -0.0005   -0.0109   -0.0000
          20    0.0002   -0.0001    0.0371   -0.0001   -0.0745    0.0009   -0.0247   -0.0001
          21    0.0601   -0.0221   -0.0001   -0.0159   -0.0002   -0.0138    0.0000    0.0009
          22    0.0323    0.0375   -0.0577    0.0344    0.0313    0.0869   -0.0288    0.0052
          23    0.0734    0.0843    0.0065   -0.0469    0.0709    0.0821   -0.0607   -0.0130
          24   -0.1198   -0.0909    0.0002    0.0165   -0.0049   -0.0803    0.0029    0.0031
          25   -0.0323   -0.0374   -0.0578   -0.0343    0.0260   -0.0873   -0.0292   -0.0052
          26   -0.0735   -0.0842    0.0060    0.0469    0.0657   -0.0837   -0.0608    0.0127
          27   -0.1198   -0.0909   -0.0007    0.0165   -0.0002   -0.0804   -0.0031    0.0031
          28    0.0001    0.0002   -0.0039   -0.0002   -0.0011   -0.0002    0.1043    0.0002
          29   -0.0000    0.0001    0.0538   -0.0000   -0.0120    0.0001   -0.0107   -0.0000
          30    0.0610    0.1371    0.0002   -0.1153   -0.0017   -0.0541    0.0000    0.0168
          31   -0.0001    0.0002   -0.0262   -0.0001   -0.0382    0.0003   -0.0908    0.0000
          32   -0.0001    0.0002   -0.0557   -0.0002    0.0386   -0.0008    0.0023    0.0003
          33   -0.0815    0.1231    0.0004   -0.0430   -0.0044   -0.1391   -0.0010    0.1578
          34   -0.0001   -0.0002    0.0433   -0.0002   -0.0149    0.0002    0.0493    0.0001
          35   -0.0001   -0.0001   -0.0347   -0.0004   -0.0408    0.0005    0.0647    0.0001
          36   -0.0300   -0.1031    0.0003   -0.1914    0.0016    0.0440   -0.0000    0.0034
          37    0.0001   -0.0001    0.0373    0.0003   -0.0326    0.0003   -0.0634    0.0000
          38    0.0001   -0.0000    0.0222    0.0002    0.0831   -0.0012   -0.0006    0.0001
          39    0.1026   -0.0343   -0.0004    0.1793   -0.0031   -0.0935   -0.0004    0.0989
          40   -0.0000   -0.0001    0.0765    0.0002    0.0442   -0.0006   -0.0117   -0.0001
          41    0.0002   -0.0002    0.1750    0.0001   -0.0829    0.0006   -0.0265   -0.0008
          42    0.0889   -0.0121   -0.0004   -0.0186   -0.0048   -0.1714    0.0009   -0.2894
          43   -0.0000   -0.0002    0.1971    0.0003    0.0406   -0.0005   -0.0115    0.0001
          44    0.0003   -0.0002   -0.0254   -0.0003   -0.0734    0.0010   -0.0258    0.0007
          45    0.0946   -0.0811    0.0001   -0.0922    0.0018    0.0469   -0.0011    0.3189


   Root No.       9        10        11        12        13        14        15        16

                 9 A      10 A      11 A      12 A      13 A      14 A      15 A      16 A   

                 753.1     808.9     859.3     905.8     930.3     957.7     971.2     992.7
  
           1    0.0000    0.0000   -0.0303    0.0001    0.0412   -0.0372    0.0000   -0.0000
           2    0.0000    0.0000    0.0142    0.0000    0.0406   -0.0315    0.0000   -0.0001
           3   -0.0120    0.0333    0.0001    0.0520   -0.0001    0.0001    0.0189    0.0048
           4    0.0000    0.0000    0.0249   -0.0001   -0.0169    0.0086   -0.0000    0.0000
           5    0.0001   -0.0000   -0.0332   -0.0000   -0.0046   -0.0082   -0.0000    0.0000
           6    0.0367   -0.0004   -0.0001   -0.0310    0.0000    0.0001   -0.0026    0.0086
           7   -0.0001   -0.0000   -0.0729    0.0001    0.0001    0.0169   -0.0001   -0.0001
           8   -0.0000   -0.0000    0.0094   -0.0000   -0.0143    0.0075   -0.0000    0.0000
           9   -0.0224    0.0037   -0.0000   -0.0206    0.0000   -0.0000   -0.0356   -0.0181
          10   -0.0000   -0.0001   -0.0149    0.0000   -0.0132    0.0659   -0.0000    0.0001
          11   -0.0001   -0.0000    0.0358   -0.0000   -0.0005    0.0278   -0.0001    0.0000
          12   -0.0215   -0.0330    0.0001    0.0192    0.0000   -0.0001   -0.0427    0.0136
          13   -0.0001    0.0001    0.0303   -0.0001    0.0064   -0.0156    0.0000    0.0000
          14   -0.0000   -0.0000   -0.0534    0.0000   -0.0234    0.0260    0.0000    0.0001
          15   -0.0305    0.0130   -0.0001   -0.0338    0.0000   -0.0000    0.0181    0.0295
          16   -0.0000   -0.0000    0.0370   -0.0000    0.0109   -0.0144    0.0001   -0.0000
          17   -0.0000    0.0000    0.0734   -0.0001    0.0165   -0.0050    0.0001   -0.0000
          18   -0.0033   -0.0333   -0.0001    0.0165   -0.0001   -0.0000    0.0389   -0.0249
          19    0.0000    0.0000    0.0345   -0.0001   -0.0482   -0.0170   -0.0000   -0.0000
          20   -0.0000   -0.0000   -0.0536    0.0001   -0.0203   -0.0322   -0.0000   -0.0001
          21    0.0012   -0.0006    0.0001   -0.0125    0.0000    0.0001    0.0012   -0.0440
          22    0.0164    0.0467   -0.0455    0.0474    0.0671   -0.0836    0.0659    0.0639
          23   -0.0660    0.0749    0.0256    0.1177    0.0422   -0.0206    0.0076   -0.0275
          24    0.0248   -0.0359    0.0009   -0.0454   -0.0106    0.0107   -0.0139   -0.0041
          25   -0.0161   -0.0467   -0.0454   -0.0472    0.0674   -0.0835   -0.0655   -0.0636
          26    0.0659   -0.0748    0.0251   -0.1177    0.0425   -0.0210   -0.0078    0.0271
          27    0.0248   -0.0359   -0.0011   -0.0454    0.0108   -0.0107   -0.0140   -0.0042
          28    0.0003   -0.0003   -0.0727    0.0002   -0.0009    0.0173    0.0002    0.0001
          29    0.0002   -0.0000    0.0935   -0.0001   -0.0801    0.0527    0.0002    0.0002
          30    0.2408   -0.1519    0.0003    0.0213   -0.0000   -0.0002    0.1742    0.0896
          31    0.0000    0.0002   -0.0150   -0.0001   -0.0138    0.0692    0.0003   -0.0000
          32   -0.0000    0.0004    0.0414   -0.0002   -0.0177    0.1161    0.0004   -0.0001
          33    0.0166    0.2141   -0.0008   -0.0918   -0.0001   -0.0003    0.2012   -0.0530
          34    0.0003    0.0003   -0.0212   -0.0000   -0.0013   -0.0981   -0.0003    0.0001
          35    0.0003    0.0004    0.1083   -0.0003    0.0233    0.0433   -0.0002    0.0002
          36    0.1886    0.1758   -0.0006   -0.0745    0.0001    0.0002   -0.1896    0.0968
          37    0.0003    0.0001    0.0289    0.0002   -0.0298   -0.0266   -0.0002   -0.0001
          38    0.0002   -0.0000   -0.0533    0.0002   -0.0430    0.0225   -0.0001   -0.0000
          39    0.2015    0.0400    0.0006    0.2031    0.0001    0.0002   -0.0995   -0.1197
          40    0.0000    0.0000    0.0347   -0.0001   -0.0344   -0.0086   -0.0000    0.0000
          41   -0.0001    0.0000   -0.0971    0.0004    0.2363    0.0967    0.0002    0.0005
          42   -0.0145    0.0550    0.0005    0.0952   -0.0005   -0.0004    0.0145    0.1804
          43   -0.0000   -0.0000    0.0328   -0.0001    0.1808    0.1269    0.0002    0.0001
          44   -0.0002   -0.0002   -0.0559    0.0003   -0.1314   -0.1039   -0.0002    0.0004
          45   -0.0657   -0.0554    0.0005    0.0589    0.0004    0.0001   -0.0277    0.1782


   Root No.      17        18        19        20        21        22        23        24

                17 A      18 A      19 A      20 A      21 A      22 A      23 A      24 A   

                1023.8    1044.5    1073.1    1084.2    1148.3    1157.4    1224.4    1314.8
  
           1   -0.0000   -0.0068    0.0000    0.0116   -0.0062   -0.0019   -0.0175    0.0299
           2   -0.0000    0.0402   -0.0002    0.0019   -0.0012    0.0031    0.0123   -0.0210
           3   -0.0250   -0.0000   -0.0064   -0.0000    0.0000   -0.0000   -0.0000   -0.0000
           4    0.0000   -0.0052    0.0000    0.0051    0.0108    0.0115   -0.0200    0.0211
           5    0.0001   -0.0058    0.0002    0.0040    0.0029    0.0066   -0.0141   -0.0175
           6    0.0288    0.0002    0.0404    0.0002   -0.0000   -0.0000    0.0001    0.0000
           7    0.0000    0.0432   -0.0003    0.0169   -0.0058    0.0006   -0.0015   -0.0210
           8    0.0000   -0.0207    0.0000    0.0022   -0.0120    0.0006    0.0197    0.0081
           9    0.0382   -0.0002   -0.0297   -0.0001    0.0000   -0.0000   -0.0000    0.0000
          10   -0.0000    0.0016    0.0001   -0.0335   -0.0077   -0.0024   -0.0000   -0.0049
          11   -0.0000   -0.0037   -0.0000    0.0019    0.0098   -0.0048   -0.0175   -0.0161
          12   -0.0269   -0.0001   -0.0133   -0.0000   -0.0000    0.0000    0.0000    0.0000
          13   -0.0001    0.0079   -0.0002    0.0393   -0.0001   -0.0017    0.0196   -0.0068
          14   -0.0000   -0.0275    0.0003   -0.0294   -0.0045   -0.0057    0.0075    0.0097
          15   -0.0317    0.0001    0.0076   -0.0000    0.0000    0.0000   -0.0000    0.0000
          16    0.0000   -0.0116    0.0003   -0.0391    0.0017   -0.0028    0.0176    0.0215
          17    0.0000   -0.0092    0.0002   -0.0262   -0.0009   -0.0063   -0.0070    0.0052
          18    0.0283    0.0000    0.0019    0.0001    0.0000    0.0000   -0.0000   -0.0000
          19    0.0000    0.0125   -0.0000   -0.0089   -0.0042   -0.0044    0.0079    0.0011
          20   -0.0001    0.0078   -0.0001    0.0040   -0.0015   -0.0008    0.0037   -0.0087
          21   -0.0340   -0.0002   -0.0193   -0.0001    0.0000   -0.0000   -0.0000    0.0000
          22    0.0075   -0.1468   -0.2853    0.0291   -0.0818    0.0421    0.0846   -0.0841
          23   -0.0694    0.1549    0.1604    0.0007    0.0431   -0.0189   -0.0630   -0.0016
          24    0.0170   -0.0132    0.0100   -0.0046    0.0020   -0.0022    0.0040    0.0300
          25   -0.0075   -0.1451    0.2857    0.0316   -0.0825    0.0424    0.0850   -0.0841
          26    0.0692    0.1540   -0.1616   -0.0006    0.0435   -0.0190   -0.0632   -0.0015
          27    0.0171    0.0132    0.0097    0.0047   -0.0021    0.0022   -0.0040   -0.0300
          28   -0.0002    0.0423   -0.0003    0.0246   -0.0102    0.0061   -0.0049   -0.0224
          29   -0.0000   -0.0290   -0.0012    0.1958   -0.1486    0.2639   -0.1443    0.0290
          30   -0.1146    0.0003    0.0423   -0.0000    0.0001   -0.0003    0.0001    0.0000
          31    0.0002    0.0010    0.0002   -0.0331   -0.0032    0.0002    0.0038   -0.0031
          32    0.0002    0.0120   -0.0010    0.1926    0.2190    0.0812    0.2104    0.0130
          33    0.0908    0.0002    0.0453   -0.0001   -0.0004   -0.0001   -0.0004    0.0000
          34   -0.0002   -0.0969    0.0015   -0.1205    0.2345    0.1747   -0.0909   -0.0463
          35   -0.0001    0.0366   -0.0005    0.0177   -0.1297   -0.1072    0.0542    0.0447
          36   -0.0912    0.0001   -0.0014    0.0001   -0.0002   -0.0001    0.0001    0.0000
          37    0.0002   -0.1230   -0.0001    0.1916    0.0878   -0.2539   -0.1150   -0.0287
          38    0.0001   -0.0957    0.0004    0.0453    0.0374   -0.1323   -0.0601    0.0008
          39    0.1008    0.0001   -0.0090   -0.0003   -0.0002    0.0005    0.0002    0.0000
          40    0.0000    0.0100    0.0000   -0.0090   -0.0039   -0.0036    0.0053    0.0041
          41    0.0003   -0.0401    0.0000    0.0376    0.0248    0.0234   -0.0159    0.2790
          42    0.1210    0.0005    0.0536    0.0001   -0.0001   -0.0000    0.0001   -0.0007
          43    0.0000   -0.0388    0.0003   -0.0119   -0.0033    0.0047   -0.0408   -0.2252
          44    0.0003    0.0338   -0.0000    0.0066   -0.0012   -0.0047    0.0280    0.1159
          45    0.1252    0.0004    0.0733    0.0003   -0.0000    0.0000   -0.0001   -0.0002


   Root No.      25        26        27        28        29        30        31        32

                25 A      26 A      27 A      28 A      29 A      30 A      31 A      32 A   

                1339.2    1387.7    1406.7    1508.9    1827.0    1838.5    1872.1    2925.9
  
           1   -0.0185    0.0532   -0.0253   -0.0885    0.0100   -0.0120    0.0161   -0.0000
           2   -0.0302   -0.0452   -0.0461    0.0390   -0.0115   -0.0106   -0.0233   -0.0000
           3   -0.0000    0.0000    0.0000    0.0000    0.0000    0.0000    0.0000   -0.0611
           4   -0.0206   -0.0027    0.0565    0.1089   -0.0367    0.0705   -0.0534   -0.0000
           5   -0.0198    0.0163    0.0321    0.0657    0.0266   -0.1079    0.1196    0.0000
           6    0.0001   -0.0000   -0.0001   -0.0002   -0.0001    0.0003   -0.0003   -0.0000
           7    0.0008   -0.0288   -0.0133    0.0244    0.0383    0.0455    0.0366   -0.0000
           8   -0.0153    0.0099    0.0470   -0.0532    0.0759    0.1105    0.0882   -0.0000
           9    0.0000    0.0000   -0.0000    0.0000   -0.0001   -0.0002   -0.0001   -0.0001
          10    0.0167   -0.0149   -0.0249   -0.0497   -0.0634    0.0134    0.0214   -0.0000
          11   -0.0002   -0.0313    0.0103   -0.0683    0.1537   -0.0233   -0.0898   -0.0000
          12   -0.0000    0.0001    0.0000    0.0002   -0.0002    0.0000    0.0001   -0.0002
          13   -0.0247   -0.0078    0.0585   -0.0575   -0.0866   -0.0736   -0.0513    0.0000
          14    0.0074    0.0171    0.0002    0.0118   -0.0571   -0.0925   -0.0727    0.0000
          15    0.0000   -0.0000   -0.0001    0.0001    0.0002    0.0002    0.0001   -0.0003
          16    0.0149    0.0371   -0.0323    0.0711    0.1242   -0.0068   -0.0326   -0.0000
          17    0.0110   -0.0053   -0.0222   -0.0055   -0.1312    0.0382    0.0589    0.0000
          18   -0.0000   -0.0000    0.0001   -0.0001    0.0000   -0.0000   -0.0000    0.0001
          19    0.0072   -0.0188   -0.0107   -0.0128    0.0229   -0.0556    0.0474    0.0000
          20   -0.0019    0.0269   -0.0072   -0.0049   -0.0444    0.0939   -0.0804   -0.0000
          21    0.0000   -0.0001    0.0000    0.0000    0.0001   -0.0002    0.0002   -0.0001
          22    0.1385   -0.0781    0.0197    0.0320    0.0036    0.0166   -0.0106    0.1566
          23    0.1823    0.0647    0.0715   -0.0220   -0.0074   -0.0227    0.0017    0.2408
          24   -0.1714   -0.0126   -0.0790   -0.0082    0.0023    0.0008   -0.0035    0.3696
          25    0.1386   -0.0784    0.0195    0.0319    0.0036    0.0168   -0.0108   -0.1563
          26    0.1822    0.0649    0.0715   -0.0220   -0.0074   -0.0229    0.0016   -0.2404
          27    0.1715    0.0126    0.0790    0.0081   -0.0023   -0.0007    0.0035    0.3684
          28    0.0012   -0.0309   -0.0180    0.0249    0.0503    0.0602    0.0511    0.0000
          29    0.0475    0.0392   -0.1345    0.0298   -0.0061   -0.0333   -0.0286    0.0000
          30   -0.0000    0.0000    0.0001   -0.0001   -0.0001   -0.0001   -0.0001   -0.0016
          31    0.0194   -0.0136   -0.0296   -0.0492   -0.0935    0.0223    0.0342   -0.0000
          32    0.0459    0.0988   -0.1006    0.0357   -0.0213   -0.0088    0.0475   -0.0000
          33   -0.0001   -0.0002    0.0002   -0.0000    0.0002    0.0000   -0.0002   -0.0003
          34    0.0107   -0.0668   -0.0217   -0.0829   -0.0588    0.0506    0.0518   -0.0000
          35    0.0160    0.0539   -0.0337    0.0827   -0.0583    0.0143    0.0230   -0.0000
          36   -0.0000    0.0000    0.0001    0.0000    0.0002   -0.0001   -0.0001    0.0000
          37    0.0375   -0.0457   -0.0853    0.0454   -0.0048    0.0634    0.0570   -0.0000
          38    0.0408    0.0015   -0.0744    0.0674   -0.0308   -0.0438   -0.0343    0.0000
          39   -0.0001    0.0001    0.0002   -0.0001    0.0000   -0.0001   -0.0001   -0.0007
          40    0.0064   -0.0226   -0.0072   -0.0074    0.0303   -0.0751    0.0663    0.0000
          41    0.0344   -0.1329    0.0539    0.0477    0.0138   -0.0306    0.0282   -0.0000
          42   -0.0001    0.0003   -0.0002   -0.0001   -0.0001    0.0001   -0.0001   -0.0006
          43   -0.0640    0.1289    0.0221    0.0534   -0.0344    0.0664   -0.0509   -0.0000
          44    0.0353   -0.0512   -0.0220   -0.0351   -0.0257    0.0490   -0.0453   -0.0000
          45   -0.0001    0.0001    0.0001    0.0001    0.0001   -0.0001    0.0001    0.0001


   Root No.      33        34        35        36        37        38        39

                33 A      34 A      35 A      36 A      37 A      38 A      39 A   

                3006.2    3044.7    3051.1    3065.1    3076.0    3142.4    3144.4
  
           1    0.0219    0.0004   -0.0013   -0.0006    0.0008    0.0003    0.0004
           2    0.0337    0.0005   -0.0018   -0.0010    0.0013   -0.0000   -0.0005
           3   -0.0001   -0.0000    0.0000    0.0000   -0.0000    0.0000    0.0000
           4    0.0008    0.0000    0.0003    0.0000   -0.0002    0.0029   -0.0014
           5   -0.0002    0.0003   -0.0004    0.0004    0.0006   -0.0052    0.0012
           6    0.0000   -0.0000    0.0000   -0.0000   -0.0000    0.0000   -0.0000
           7   -0.0046   -0.0035   -0.0366   -0.0185    0.0180   -0.0001    0.0001
           8    0.0007   -0.0000    0.0001   -0.0019    0.0027   -0.0000    0.0001
           9    0.0000    0.0000    0.0001    0.0000   -0.0000    0.0000   -0.0000
          10    0.0004   -0.0460    0.0074   -0.0155   -0.0109    0.0007   -0.0003
          11   -0.0001    0.0022   -0.0006    0.0029    0.0024   -0.0003    0.0008
          12   -0.0000    0.0001   -0.0000    0.0000    0.0000   -0.0000   -0.0000
          13   -0.0003    0.0025    0.0127   -0.0059    0.0111    0.0001   -0.0000
          14   -0.0002   -0.0049   -0.0233    0.0173   -0.0271    0.0000   -0.0000
          15    0.0000    0.0000    0.0000   -0.0000    0.0000   -0.0000    0.0000
          16    0.0002    0.0122    0.0011   -0.0115   -0.0107   -0.0001    0.0001
          17   -0.0001    0.0183    0.0033   -0.0260   -0.0220    0.0003   -0.0002
          18    0.0000   -0.0000   -0.0000    0.0001    0.0001   -0.0000    0.0000
          19   -0.0001   -0.0003    0.0000   -0.0001    0.0000   -0.0389   -0.0489
          20    0.0001    0.0001    0.0000   -0.0000   -0.0001    0.0311   -0.0442
          21   -0.0000    0.0000   -0.0000    0.0000    0.0000   -0.0001    0.0001
          22   -0.1317   -0.0011    0.0058    0.0028   -0.0032    0.0000    0.0009
          23   -0.2017   -0.0014    0.0130    0.0060   -0.0065   -0.0003   -0.0001
          24   -0.3715   -0.0029    0.0210    0.0097   -0.0108   -0.0003    0.0009
          25   -0.1322   -0.0011    0.0059    0.0028   -0.0032    0.0001    0.0009
          26   -0.2024   -0.0014    0.0131    0.0060   -0.0065   -0.0003   -0.0001
          27    0.3723    0.0029   -0.0211   -0.0097    0.0108    0.0003   -0.0009
          28    0.0507    0.0398    0.4301    0.2062   -0.1893    0.0000   -0.0004
          29    0.0022   -0.0013   -0.0118   -0.0035    0.0027    0.0000    0.0000
          30   -0.0001   -0.0001   -0.0006   -0.0003    0.0003   -0.0000    0.0000
          31   -0.0090    0.5337   -0.0862    0.1665    0.1106   -0.0082    0.0020
          32   -0.0001   -0.0086    0.0019   -0.0051   -0.0035    0.0013    0.0015
          33    0.0000   -0.0007    0.0001   -0.0002   -0.0001    0.0000   -0.0000
          34    0.0007   -0.1338   -0.0149    0.1525    0.1313   -0.0004    0.0003
          35    0.0011   -0.2344   -0.0315    0.2777    0.2327   -0.0008    0.0005
          36   -0.0000    0.0006    0.0001   -0.0007   -0.0006    0.0000   -0.0000
          37    0.0010   -0.0264   -0.1447    0.0868   -0.1431   -0.0002   -0.0000
          38   -0.0031    0.0558    0.2841   -0.1802    0.2847    0.0004    0.0001
          39    0.0000   -0.0000   -0.0000    0.0000   -0.0000   -0.0000   -0.0000
          40    0.0001    0.0046   -0.0011    0.0021    0.0012    0.5931    0.3285
          41   -0.0002   -0.0015    0.0002   -0.0005   -0.0003   -0.0132   -0.0243
          42    0.0000    0.0000   -0.0000    0.0000    0.0000   -0.0001   -0.0000
          43    0.0017   -0.0020    0.0005   -0.0010   -0.0007   -0.1657    0.2653
          44    0.0011   -0.0042    0.0011   -0.0019   -0.0015   -0.2955    0.5325
          45   -0.0000    0.0000   -0.0000    0.0000    0.0000    0.0008   -0.0014


           MASS-WEIGHTED COORDINATE ANALYSIS (NORMAL COORDINATES)


   Root No.       1         2         3         4         5         6         7         8

                 1 A       2 A       3 A       4 A       5 A       6 A       7 A       8 A   

                  51.6     247.0     396.8     417.6     505.8     517.3     589.0     616.6
  
           1   -0.0001    0.0004   -0.2894   -0.0001    0.2429   -0.0044   -0.0186   -0.0001
           2   -0.0004    0.0003   -0.0274    0.0002    0.2647   -0.0045   -0.3498   -0.0010
           3   -0.4391   -0.1579   -0.0003    0.0020    0.0013    0.0914    0.0003   -0.0223
           4   -0.0001    0.0003   -0.2811   -0.0001    0.2470   -0.0046   -0.1079   -0.0003
           5   -0.0001    0.0004   -0.1840    0.0003   -0.3227    0.0075   -0.1419   -0.0008
           6   -0.0843    0.2160    0.0002    0.3976    0.0098    0.5274    0.0016   -0.1438
           7    0.0003    0.0004   -0.0293   -0.0005    0.0004   -0.0008    0.5229    0.0014
           8   -0.0001    0.0003    0.1571    0.0002    0.2416   -0.0047   -0.0968   -0.0003
           9    0.1690    0.3731    0.0005   -0.3502   -0.0005   -0.0101   -0.0001   -0.0952
          10   -0.0003    0.0004   -0.1822   -0.0005   -0.2062    0.0041   -0.4505   -0.0012
          11   -0.0005    0.0008   -0.2418   -0.0003   -0.1048    0.0015    0.1212    0.0005
          12   -0.3113    0.4095    0.0010    0.0970   -0.0049   -0.2411   -0.0004    0.1419
          13    0.0005   -0.0005    0.1099    0.0006   -0.2567    0.0048    0.0974    0.0003
          14    0.0001   -0.0002    0.0789    0.0009    0.3886   -0.0081    0.2037    0.0007
          15    0.3222   -0.2118   -0.0010    0.4240   -0.0026   -0.1110   -0.0007    0.0644
          16   -0.0001   -0.0007    0.0886   -0.0005   -0.2784    0.0058    0.0452   -0.0002
          17   -0.0003   -0.0004   -0.1191   -0.0007   -0.1043    0.0020    0.4357    0.0010
          18   -0.0965   -0.3640    0.0005   -0.3103    0.0049    0.2136   -0.0000   -0.1369
          19   -0.0002   -0.0004    0.4645    0.0010    0.2270   -0.0043   -0.0542   -0.0001
          20    0.0012   -0.0010    0.2520   -0.0004   -0.3844    0.0071   -0.1228   -0.0004
          21    0.4426   -0.1679   -0.0007   -0.1126   -0.0012   -0.1117    0.0002    0.0064
          22    0.0689    0.0824   -0.1136    0.0705    0.0468    0.2037   -0.0415    0.0106
          23    0.1567    0.1854    0.0128   -0.0962    0.1059    0.1924   -0.0874   -0.0265
          24   -0.2557   -0.1998    0.0004    0.0339   -0.0074   -0.1883    0.0042    0.0063
          25   -0.0689   -0.0822   -0.1138   -0.0704    0.0389   -0.2046   -0.0420   -0.0107
          26   -0.1569   -0.1852    0.0119    0.0962    0.0983   -0.1961   -0.0876    0.0260
          27   -0.2558   -0.1999   -0.0014    0.0339   -0.0003   -0.1886   -0.0044    0.0063
          28    0.0002    0.0004   -0.0077   -0.0003   -0.0016   -0.0004    0.1503    0.0005
          29   -0.0000    0.0002    0.1059   -0.0000   -0.0180    0.0002   -0.0154   -0.0000
          30    0.1302    0.3014    0.0004   -0.2365   -0.0026   -0.1269    0.0000    0.0345
          31   -0.0002    0.0003   -0.0515   -0.0003   -0.0571    0.0008   -0.1308    0.0000
          32   -0.0003    0.0005   -0.1098   -0.0003    0.0577   -0.0018    0.0033    0.0006
          33   -0.1741    0.2708    0.0007   -0.0883   -0.0066   -0.3261   -0.0014    0.3232
          34   -0.0001   -0.0004    0.0852   -0.0005   -0.0223    0.0005    0.0711    0.0002
          35   -0.0001   -0.0003   -0.0683   -0.0007   -0.0610    0.0013    0.0932    0.0003
          36   -0.0640   -0.2269    0.0006   -0.3926    0.0024    0.1032   -0.0001    0.0071
          37    0.0003   -0.0001    0.0734    0.0007   -0.0487    0.0007   -0.0914    0.0000
          38    0.0001   -0.0000    0.0436    0.0005    0.1242   -0.0027   -0.0009    0.0002
          39    0.2191   -0.0753   -0.0007    0.3679   -0.0047   -0.2192   -0.0006    0.2026
          40   -0.0000   -0.0001    0.1506    0.0003    0.0661   -0.0013   -0.0169   -0.0001
          41    0.0005   -0.0005    0.3445    0.0003   -0.1240    0.0014   -0.0382   -0.0016
          42    0.1897   -0.0267   -0.0007   -0.0381   -0.0072   -0.4017    0.0012   -0.5928
          43   -0.0000   -0.0003    0.3881    0.0006    0.0607   -0.0011   -0.0165    0.0002
          44    0.0005   -0.0005   -0.0500   -0.0007   -0.1098    0.0024   -0.0371    0.0015
          45    0.2019   -0.1785    0.0001   -0.1892    0.0026    0.1100   -0.0016    0.6533


   Root No.       9        10        11        12        13        14        15        16

                 9 A      10 A      11 A      12 A      13 A      14 A      15 A      16 A   

                 753.1     808.9     859.3     905.8     930.3     957.7     971.2     992.7
  
           1    0.0001    0.0001   -0.1789    0.0007    0.3016   -0.2800    0.0001   -0.0002
           2    0.0002    0.0003    0.0841    0.0000    0.2971   -0.2370    0.0000   -0.0005
           3   -0.0951    0.2809    0.0004    0.4274   -0.0005    0.0005    0.1499    0.0420
           4    0.0002    0.0001    0.1470   -0.0004   -0.1236    0.0646   -0.0001    0.0001
           5    0.0007   -0.0002   -0.1957   -0.0001   -0.0339   -0.0618   -0.0001    0.0002
           6    0.2906   -0.0034   -0.0005   -0.2549    0.0000    0.0005   -0.0207    0.0748
           7   -0.0006   -0.0003   -0.4300    0.0008    0.0008    0.1276   -0.0006   -0.0004
           8   -0.0000   -0.0000    0.0553   -0.0004   -0.1046    0.0564   -0.0001    0.0001
           9   -0.1774    0.0316   -0.0001   -0.1693    0.0003   -0.0002   -0.2820   -0.1577
          10   -0.0001   -0.0009   -0.0878    0.0003   -0.0965    0.4966   -0.0003    0.0005
          11   -0.0004   -0.0002    0.2115   -0.0002   -0.0039    0.2097   -0.0004    0.0004
          12   -0.1702   -0.2783    0.0005    0.1579    0.0003   -0.0010   -0.3384    0.1183
          13   -0.0005    0.0006    0.1791   -0.0007    0.0469   -0.1175    0.0002    0.0003
          14   -0.0003   -0.0004   -0.3152    0.0004   -0.1711    0.1957    0.0001    0.0006
          15   -0.2414    0.1099   -0.0006   -0.2779    0.0001   -0.0002    0.1434    0.2575
          16   -0.0001   -0.0000    0.2184   -0.0002    0.0796   -0.1082    0.0006   -0.0004
          17   -0.0003    0.0003    0.4332   -0.0006    0.1208   -0.0377    0.0007   -0.0004
          18   -0.0264   -0.2815   -0.0004    0.1357   -0.0005   -0.0000    0.3079   -0.2175
          19    0.0002    0.0002    0.2035   -0.0007   -0.3531   -0.1281   -0.0003   -0.0002
          20   -0.0001   -0.0003   -0.3165    0.0006   -0.1487   -0.2427   -0.0003   -0.0010
          21    0.0096   -0.0049    0.0006   -0.1025    0.0002    0.0008    0.0098   -0.3838
          22    0.0376    0.1142   -0.0778    0.1129    0.1422   -0.1825    0.1511    0.1614
          23   -0.1515    0.1832    0.0438    0.2803    0.0895   -0.0451    0.0175   -0.0696
          24    0.0569   -0.0878    0.0016   -0.1081   -0.0225    0.0233   -0.0320   -0.0105
          25   -0.0371   -0.1141   -0.0776   -0.1123    0.1429   -0.1822   -0.1502   -0.1606
          26    0.1512   -0.1828    0.0429   -0.2802    0.0901   -0.0459   -0.0179    0.0686
          27    0.0570   -0.0879   -0.0019   -0.1081    0.0228   -0.0234   -0.0320   -0.0105
          28    0.0007   -0.0006   -0.1243    0.0004   -0.0019    0.0377    0.0005    0.0003
          29    0.0005   -0.0001    0.1598   -0.0003   -0.1699    0.1150    0.0005    0.0005
          30    0.5526   -0.3714    0.0006    0.0506   -0.0001   -0.0004    0.3997    0.2264
          31    0.0001    0.0006   -0.0256   -0.0003   -0.0293    0.1510    0.0007   -0.0001
          32   -0.0000    0.0010    0.0708   -0.0006   -0.0374    0.2534    0.0009   -0.0001
          33    0.0381    0.5235   -0.0014   -0.2185   -0.0002   -0.0007    0.4617   -0.1339
          34    0.0007    0.0007   -0.0363   -0.0001   -0.0027   -0.2141   -0.0008    0.0003
          35    0.0006    0.0010    0.1853   -0.0007    0.0494    0.0946   -0.0006    0.0004
          36    0.4327    0.4298   -0.0010   -0.1774    0.0003    0.0005   -0.4351    0.2446
          37    0.0008    0.0002    0.0495    0.0006   -0.0633   -0.0580   -0.0004   -0.0002
          38    0.0004   -0.0001   -0.0912    0.0005   -0.0912    0.0492   -0.0002   -0.0000
          39    0.4625    0.0979    0.0010    0.4836    0.0002    0.0004   -0.2284   -0.3025
          40    0.0000    0.0001    0.0593   -0.0001   -0.0730   -0.0187   -0.0001    0.0001
          41   -0.0002    0.0001   -0.1660    0.0011    0.5012    0.2109    0.0005    0.0013
          42   -0.0334    0.1345    0.0008    0.2267   -0.0010   -0.0009    0.0332    0.4559
          43   -0.0000   -0.0001    0.0561   -0.0002    0.3834    0.2769    0.0004    0.0001
          44   -0.0004   -0.0004   -0.0955    0.0006   -0.2787   -0.2266   -0.0005    0.0011
          45   -0.1509   -0.1356    0.0008    0.1403    0.0009    0.0002   -0.0635    0.4505


   Root No.      17        18        19        20        21        22        23        24

                17 A      18 A      19 A      20 A      21 A      22 A      23 A      24 A   

                1023.8    1044.5    1073.1    1084.2    1148.3    1157.4    1224.4    1314.8
  
           1   -0.0003   -0.0527    0.0001    0.0873   -0.0509   -0.0140   -0.1562    0.2270
           2   -0.0003    0.3136   -0.0016    0.0146   -0.0099    0.0234    0.1101   -0.1592
           3   -0.2161   -0.0003   -0.0429   -0.0003    0.0001   -0.0001   -0.0000   -0.0000
           4    0.0001   -0.0402    0.0003    0.0384    0.0894    0.0866   -0.1785    0.1601
           5    0.0005   -0.0452    0.0010    0.0301    0.0239    0.0502   -0.1261   -0.1324
           6    0.2493    0.0016    0.2706    0.0012   -0.0001   -0.0000    0.0005    0.0004
           7    0.0003    0.3373   -0.0022    0.1277   -0.0482    0.0048   -0.0130   -0.1589
           8    0.0004   -0.1617    0.0002    0.0165   -0.0990    0.0047    0.1757    0.0613
           9    0.3306   -0.0016   -0.1990   -0.0011    0.0003   -0.0000   -0.0001    0.0002
          10   -0.0001    0.0121    0.0006   -0.2523   -0.0633   -0.0181   -0.0000   -0.0369
          11   -0.0003   -0.0292   -0.0002    0.0143    0.0809   -0.0361   -0.1566   -0.1218
          12   -0.2326   -0.0005   -0.0891   -0.0001   -0.0000    0.0001    0.0003    0.0002
          13   -0.0005    0.0618   -0.0016    0.2965   -0.0012   -0.0130    0.1747   -0.0514
          14   -0.0002   -0.2143    0.0021   -0.2219   -0.0373   -0.0430    0.0665    0.0737
          15   -0.2744    0.0005    0.0507   -0.0001    0.0001    0.0001   -0.0003    0.0000
          16    0.0004   -0.0904    0.0018   -0.2951    0.0140   -0.0209    0.1573    0.1634
          17    0.0004   -0.0721    0.0012   -0.1976   -0.0072   -0.0479   -0.0625    0.0395
          18    0.2445    0.0003    0.0130    0.0009    0.0001    0.0001   -0.0002   -0.0003
          19    0.0001    0.0976   -0.0002   -0.0673   -0.0348   -0.0333    0.0703    0.0084
          20   -0.0009    0.0608   -0.0008    0.0304   -0.0125   -0.0061    0.0334   -0.0661
          21   -0.2945   -0.0012   -0.1294   -0.0006    0.0001   -0.0000   -0.0001    0.0001
          22    0.0189   -0.3317   -0.5543    0.0636   -0.1952    0.0921    0.2188   -0.1848
          23   -0.1739    0.3499    0.3116    0.0015    0.1029   -0.0414   -0.1629   -0.0035
          24    0.0427   -0.0297    0.0194   -0.0100    0.0049   -0.0047    0.0104    0.0659
          25   -0.0189   -0.3279    0.5552    0.0690   -0.1970    0.0929    0.2198   -0.1848
          26    0.1734    0.3479   -0.3140   -0.0014    0.1038   -0.0417   -0.1635   -0.0034
          27    0.0428    0.0299    0.0189    0.0102   -0.0049    0.0047   -0.0103   -0.0659
          28   -0.0005    0.0957   -0.0005    0.0536   -0.0243    0.0132   -0.0127   -0.0493
          29   -0.0001   -0.0656   -0.0023    0.4276   -0.3549    0.5773   -0.3730    0.0637
          30   -0.2875    0.0008    0.0821   -0.0001    0.0004   -0.0006    0.0003    0.0000
          31    0.0004    0.0023    0.0003   -0.0723   -0.0077    0.0004    0.0099   -0.0067
          32    0.0004    0.0272   -0.0019    0.4207    0.5229    0.1777    0.5440    0.0285
          33    0.2278    0.0005    0.0881   -0.0003   -0.0009   -0.0003   -0.0010    0.0000
          34   -0.0004   -0.2190    0.0028   -0.2631    0.5598    0.3822   -0.2349   -0.1018
          35   -0.0003    0.0827   -0.0010    0.0387   -0.3096   -0.2344    0.1401    0.0981
          36   -0.2288    0.0001   -0.0026    0.0003   -0.0004   -0.0002    0.0001    0.0000
          37    0.0004   -0.2779   -0.0002    0.4185    0.2097   -0.5553   -0.2972   -0.0632
          38    0.0003   -0.2162    0.0008    0.0989    0.0892   -0.2894   -0.1554    0.0018
          39    0.2528    0.0003   -0.0176   -0.0007   -0.0004    0.0011    0.0006    0.0001
          40    0.0001    0.0226    0.0000   -0.0197   -0.0093   -0.0079    0.0137    0.0091
          41    0.0006   -0.0905    0.0001    0.0821    0.0592    0.0511   -0.0411    0.6131
          42    0.3034    0.0012    0.1042    0.0002   -0.0002   -0.0001    0.0002   -0.0016
          43    0.0001   -0.0876    0.0005   -0.0260   -0.0078    0.0103   -0.1054   -0.4947
          44    0.0008    0.0764   -0.0001    0.0145   -0.0028   -0.0104    0.0723    0.2547
          45    0.3139    0.0009    0.1424    0.0006   -0.0000    0.0000   -0.0001   -0.0005


   Root No.      25        26        27        28        29        30        31        32

                25 A      26 A      27 A      28 A      29 A      30 A      31 A      32 A   

                1339.2    1387.7    1406.7    1508.9    1827.0    1838.5    1872.1    2925.9
  
           1   -0.1357    0.4101   -0.1736   -0.4050    0.0343   -0.0483    0.0665   -0.0001
           2   -0.2215   -0.3485   -0.3165    0.1784   -0.0395   -0.0426   -0.0962   -0.0002
           3   -0.0001    0.0000    0.0001    0.0001    0.0000    0.0000    0.0001   -0.3038
           4   -0.1507   -0.0211    0.3881    0.4983   -0.1258    0.2840   -0.2202   -0.0000
           5   -0.1453    0.1257    0.2206    0.3007    0.0914   -0.4344    0.4933    0.0000
           6    0.0004   -0.0002   -0.0006   -0.0008   -0.0002    0.0011   -0.0012   -0.0002
           7    0.0058   -0.2216   -0.0913    0.1118    0.1313    0.1833    0.1511   -0.0000
           8   -0.1121    0.0760    0.3225   -0.2435    0.2605    0.4449    0.3635   -0.0000
           9    0.0001    0.0003   -0.0001    0.0001   -0.0004   -0.0007   -0.0005   -0.0003
          10    0.1224   -0.1146   -0.1710   -0.2275   -0.2176    0.0538    0.0880   -0.0000
          11   -0.0015   -0.2411    0.0708   -0.3124    0.5272   -0.0938   -0.3703   -0.0000
          12   -0.0001    0.0006    0.0001    0.0008   -0.0006    0.0000    0.0005   -0.0009
          13   -0.1813   -0.0601    0.4016   -0.2631   -0.2971   -0.2964   -0.2116    0.0000
          14    0.0544    0.1314    0.0012    0.0541   -0.1958   -0.3723   -0.2996    0.0000
          15    0.0002   -0.0000   -0.0006    0.0003    0.0006    0.0008    0.0006   -0.0014
          16    0.1094    0.2858   -0.2221    0.3255    0.4262   -0.0273   -0.1343   -0.0000
          17    0.0804   -0.0407   -0.1524   -0.0253   -0.4502    0.1538    0.2427    0.0000
          18   -0.0003   -0.0004    0.0006   -0.0004    0.0001   -0.0002   -0.0002    0.0004
          19    0.0527   -0.1445   -0.0738   -0.0584    0.0786   -0.2239    0.1954    0.0000
          20   -0.0138    0.2073   -0.0491   -0.0226   -0.1524    0.3779   -0.3314   -0.0000
          21    0.0000   -0.0005    0.0001    0.0001    0.0004   -0.0009    0.0008   -0.0007
          22    0.2940   -0.1744    0.0391    0.0425    0.0036    0.0194   -0.0127    0.2256
          23    0.3871    0.1445    0.1423   -0.0292   -0.0073   -0.0265    0.0020    0.3470
          24   -0.3638   -0.0282   -0.1571   -0.0108    0.0023    0.0009   -0.0042    0.5327
          25    0.2943   -0.1750    0.0388    0.0423    0.0036    0.0196   -0.0129   -0.2252
          26    0.3868    0.1448    0.1422   -0.0292   -0.0074   -0.0267    0.0020   -0.3464
          27    0.3641    0.0282    0.1572    0.0108   -0.0023   -0.0009    0.0042    0.5309
          28    0.0026   -0.0690   -0.0359    0.0330    0.0500    0.0702    0.0611    0.0000
          29    0.1008    0.0876   -0.2677    0.0395   -0.0061   -0.0389   -0.0341    0.0000
          30   -0.0001    0.0001    0.0003   -0.0001   -0.0001   -0.0001   -0.0001   -0.0023
          31    0.0413   -0.0303   -0.0588   -0.0652   -0.0929    0.0260    0.0409   -0.0000
          32    0.0974    0.2205   -0.2001    0.0473   -0.0212   -0.0103    0.0567   -0.0000
          33   -0.0002   -0.0004    0.0004   -0.0000    0.0002    0.0000   -0.0002   -0.0004
          34    0.0227   -0.1490   -0.0432   -0.1099   -0.0585    0.0590    0.0619   -0.0000
          35    0.0341    0.1204   -0.0671    0.1096   -0.0580    0.0166    0.0275   -0.0000
          36   -0.0001    0.0000    0.0002    0.0000    0.0002   -0.0001   -0.0001    0.0000
          37    0.0797   -0.1019   -0.1698    0.0602   -0.0047    0.0740    0.0681   -0.0000
          38    0.0866    0.0032   -0.1481    0.0893   -0.0306   -0.0511   -0.0409    0.0000
          39   -0.0002    0.0002    0.0004   -0.0002    0.0000   -0.0001   -0.0001   -0.0011
          40    0.0136   -0.0505   -0.0143   -0.0099    0.0301   -0.0876    0.0791    0.0000
          41    0.0731   -0.2967    0.1073    0.0632    0.0137   -0.0357    0.0337   -0.0000
          42   -0.0002    0.0007   -0.0003   -0.0001   -0.0001    0.0001   -0.0001   -0.0009
          43   -0.1358    0.2876    0.0440    0.0708   -0.0342    0.0775   -0.0608   -0.0000
          44    0.0749   -0.1143   -0.0439   -0.0465   -0.0255    0.0572   -0.0541   -0.0000
          45   -0.0002    0.0003    0.0001    0.0001    0.0001   -0.0001    0.0001    0.0001


   Root No.      33        34        35        36        37        38        39

                33 A      34 A      35 A      36 A      37 A      38 A      39 A   

                3006.2    3044.7    3051.1    3065.1    3076.0    3142.4    3144.4
  
           1    0.1172    0.0024   -0.0082   -0.0041    0.0058    0.0014    0.0019
           2    0.1805    0.0029   -0.0112   -0.0070    0.0093   -0.0002   -0.0023
           3   -0.0004   -0.0000    0.0000    0.0000   -0.0000    0.0000    0.0000
           4    0.0044    0.0002    0.0015    0.0000   -0.0016    0.0142   -0.0068
           5   -0.0012    0.0017   -0.0024    0.0027    0.0041   -0.0256    0.0056
           6    0.0000   -0.0000    0.0000   -0.0000   -0.0000    0.0001   -0.0000
           7   -0.0247   -0.0191   -0.2225   -0.1325    0.1258   -0.0004    0.0003
           8    0.0035   -0.0002    0.0004   -0.0138    0.0189   -0.0002    0.0003
           9    0.0000    0.0000    0.0003    0.0002   -0.0002    0.0000   -0.0000
          10    0.0022   -0.2530    0.0453   -0.1109   -0.0763    0.0036   -0.0016
          11   -0.0003    0.0123   -0.0034    0.0211    0.0168   -0.0013    0.0039
          12   -0.0000    0.0003   -0.0001    0.0001    0.0001   -0.0000   -0.0000
          13   -0.0014    0.0136    0.0772   -0.0420    0.0775    0.0005   -0.0001
          14   -0.0011   -0.0267   -0.1416    0.1241   -0.1892    0.0001   -0.0001
          15    0.0000    0.0000    0.0000   -0.0000    0.0000   -0.0000    0.0000
          16    0.0008    0.0671    0.0067   -0.0824   -0.0747   -0.0006    0.0005
          17   -0.0007    0.1006    0.0201   -0.1864   -0.1535    0.0016   -0.0009
          18    0.0000   -0.0003   -0.0000    0.0004    0.0004   -0.0000    0.0000
          19   -0.0003   -0.0019    0.0001   -0.0005    0.0001   -0.1907   -0.2355
          20    0.0004    0.0003    0.0002   -0.0001   -0.0004    0.1524   -0.2126
          21   -0.0000    0.0000   -0.0000    0.0000    0.0000   -0.0004    0.0006
          22   -0.2044   -0.0018    0.0103    0.0058   -0.0065    0.0001    0.0013
          23   -0.3129   -0.0023    0.0229    0.0124   -0.0131   -0.0004   -0.0001
          24   -0.5765   -0.0047    0.0370    0.0201   -0.0218   -0.0004    0.0013
          25   -0.2051   -0.0018    0.0103    0.0058   -0.0065    0.0001    0.0013
          26   -0.3141   -0.0023    0.0230    0.0125   -0.0132   -0.0004   -0.0001
          27    0.5777    0.0047   -0.0371   -0.0202    0.0219    0.0004   -0.0013
          28    0.0786    0.0634    0.7580    0.4284   -0.3830    0.0000   -0.0005
          29    0.0034   -0.0020   -0.0208   -0.0073    0.0054    0.0000    0.0000
          30   -0.0001   -0.0001   -0.0011   -0.0006    0.0005   -0.0000    0.0000
          31   -0.0140    0.8493   -0.1519    0.3459    0.2238   -0.0117    0.0027
          32   -0.0002   -0.0138    0.0034   -0.0105   -0.0071    0.0018    0.0021
          33    0.0000   -0.0011    0.0002   -0.0004   -0.0003    0.0000   -0.0000
          34    0.0010   -0.2130   -0.0262    0.3168    0.2658   -0.0006    0.0004
          35    0.0017   -0.3731   -0.0555    0.5771    0.4710   -0.0012    0.0007
          36   -0.0000    0.0009    0.0001   -0.0014   -0.0012    0.0000   -0.0000
          37    0.0015   -0.0420   -0.2550    0.1804   -0.2897   -0.0003   -0.0000
          38   -0.0049    0.0888    0.5008   -0.3745    0.5761    0.0006    0.0001
          39    0.0000   -0.0000   -0.0000    0.0000   -0.0001   -0.0000   -0.0000
          40    0.0001    0.0073   -0.0019    0.0043    0.0024    0.8414    0.4580
          41   -0.0003   -0.0024    0.0004   -0.0010   -0.0006   -0.0188   -0.0338
          42    0.0000    0.0000   -0.0000    0.0000    0.0000   -0.0001   -0.0000
          43    0.0027   -0.0031    0.0009   -0.0021   -0.0014   -0.2350    0.3699
          44    0.0017   -0.0067    0.0019   -0.0040   -0.0030   -0.4193    0.7426
          45   -0.0000    0.0000   -0.0000    0.0000    0.0000    0.0011   -0.0020


          DESCRIPTION OF VIBRATIONS


 VIBRATION          1    1A           ATOM PAIR      ENERGY CONTRIBUTION    RADIAL
 FREQUENCY            51.57         C  1 -- C  3         +22.0% (950.7%)      0.0%
 TRANSITION DIPOLE   0.0614         C  1 -- C  2         +18.1% (862.7%)      0.0%
 TRAVEL (Ang.)       0.0000         C  1 -- H  9         +17.7% (852.8%)     97.9%
 REDUCED MASS        1.1858         C  1 -- H  8         +17.7% (852.4%)     97.8%
 EFFECTIVE MASS    715.8571
 FORCE CONSTANT      0.0019

 VIBRATION          2    2A           ATOM PAIR      ENERGY CONTRIBUTION    RADIAL
 FREQUENCY           247.04         C  4 -- C  6         +18.4% (150.1%)      0.0%
 TRANSITION DIPOLE   0.0935         C  1 -- C  3         +12.3% (122.8%)      0.0%
 TRAVEL (Ang.)       0.5571         C  1 -- H  8         +11.8% (120.2%)     17.7%
 REDUCED MASS        0.8794         C  1 -- H  9         +11.8% (120.2%)     17.8%
 EFFECTIVE MASS     28.0533         C  3 -- C  5         +11.3% (117.8%)      0.0%
 FORCE CONSTANT      0.0316

 VIBRATION          3    3A           ATOM PAIR      ENERGY CONTRIBUTION    RADIAL
 FREQUENCY           396.77         C  2 -- C  7         +24.9% (194.7%)      0.0%
 TRANSITION DIPOLE   0.0461         C  7 -- H 15         +13.3% (142.5%)     95.2%
 TRAVEL (Ang.)       0.3563         C  7 -- H 14         +12.8% (139.6%)     94.0%
 REDUCED MASS        1.3388         C  1 -- C  2          +6.9% (102.4%)      0.3%
 EFFECTIVE MASS     27.9183
 FORCE CONSTANT      0.1242

 VIBRATION          4    4A           ATOM PAIR      ENERGY CONTRIBUTION    RADIAL
 FREQUENCY           417.61         C  3 -- C  5         +20.4% ( 90.3%)      0.0%
 TRANSITION DIPOLE   0.1646         C  5 -- C  6         +18.3% ( 85.5%)      0.0%
 TRAVEL (Ang.)       0.3958         C  2 -- C  7         +10.8% ( 65.7%)      0.0%
 REDUCED MASS        1.0305         C  1 -- C  2          +8.3% ( 57.7%)      0.0%
 EFFECTIVE MASS     13.6749
 FORCE CONSTANT      0.1059

 VIBRATION          5    5A           ATOM PAIR      ENERGY CONTRIBUTION    RADIAL
 FREQUENCY           505.80         C  1 -- C  2         +12.7% (136.3%)      0.0%
 TRANSITION DIPOLE   0.1993         C  2 -- C  4         +10.9% (126.4%)      0.3%
 TRAVEL (Ang.)       0.2767         C  7 -- H 14         +10.2% (122.1%)     31.2%
 REDUCED MASS        1.7407         C  7 -- H 15         +10.1% (122.0%)     28.0%
 EFFECTIVE MASS     20.7685
 FORCE CONSTANT      0.2624

 VIBRATION          6    6A           ATOM PAIR      ENERGY CONTRIBUTION    RADIAL
 FREQUENCY           517.26         C  2 -- C  4         +18.4% ( 77.9%)      0.0%
 TRANSITION DIPOLE   0.3756         C  1 -- H  8         +15.3% ( 71.0%)      1.9%
 TRAVEL (Ang.)       0.3495         C  1 -- H  9         +15.2% ( 70.8%)      2.3%
 REDUCED MASS        1.0673         C  2 -- C  7         +14.0% ( 68.0%)      0.0%
 EFFECTIVE MASS      8.1589         C  1 -- C  2         +10.9% ( 60.0%)      0.0%
 FORCE CONSTANT      0.1683

 VIBRATION          7    7A           ATOM PAIR      ENERGY CONTRIBUTION    RADIAL
 FREQUENCY           588.96         C  1 -- C  3         +13.1% (116.9%)      0.0%
 TRANSITION DIPOLE   0.1194         C  4 -- C  6         +12.5% (114.3%)      0.2%
 TRAVEL (Ang.)       0.2281         C  5 -- C  6         +11.9% (111.4%)      5.8%
 REDUCED MASS        2.2009         C  3 -- C  5         +11.2% (108.0%)      0.3%
 EFFECTIVE MASS     20.3962         C  2 -- C  4         +11.1% (107.4%)      2.4%
 FORCE CONSTANT      0.4498

 VIBRATION          8    8A           ATOM PAIR      ENERGY CONTRIBUTION    RADIAL
 FREQUENCY           616.63         C  7 -- H 15         +40.6% ( 77.8%)      0.0%
 TRANSITION DIPOLE   0.1981         C  7 -- H 14         +34.3% ( 71.5%)      0.0%
 TRAVEL (Ang.)       0.5703         C  4 -- H 11          +6.7% ( 31.5%)      0.0%
 REDUCED MASS        0.3362         C  2 -- C  4          +3.6% ( 23.3%)      0.0%
 EFFECTIVE MASS      2.0509
 FORCE CONSTANT      0.0753

 VIBRATION          9    9A           ATOM PAIR      ENERGY CONTRIBUTION    RADIAL
 FREQUENCY           753.13         C  3 -- H 10         +28.5% ( 66.2%)      0.0%
 TRANSITION DIPOLE   0.5372         C  5 -- H 13         +24.2% ( 60.9%)      0.0%
 TRAVEL (Ang.)       0.5233         C  6 -- H 12         +13.3% ( 45.1%)      0.0%
 REDUCED MASS        0.3270         C  2 -- C  4          +6.5% ( 31.5%)      0.0%
 EFFECTIVE MASS      2.9821
 FORCE CONSTANT      0.1093

 VIBRATION         10   10A           ATOM PAIR      ENERGY CONTRIBUTION    RADIAL
 FREQUENCY           808.85         C  4 -- H 11         +24.7% ( 64.5%)      0.0%
 TRANSITION DIPOLE   0.2675         C  6 -- H 12         +18.8% ( 56.2%)      0.0%
 TRAVEL (Ang.)       0.4813         C  1 -- H  9         +11.5% ( 44.1%)     14.7%
 REDUCED MASS        0.3600         C  1 -- H  8         +11.5% ( 44.1%)     14.8%
 EFFECTIVE MASS      3.3438
 FORCE CONSTANT      0.1387

 VIBRATION         11   11A           ATOM PAIR      ENERGY CONTRIBUTION    RADIAL
 FREQUENCY           859.26         C  5 -- C  6         +16.1% ( 89.7%)      0.1%
 TRANSITION DIPOLE   0.1383         C  3 -- C  5         +12.5% ( 78.8%)      0.0%
 TRAVEL (Ang.)       0.2190         C  4 -- C  6          +9.0% ( 66.8%)      1.2%
 REDUCED MASS        1.6367         C  7 -- H 14          +7.6% ( 61.4%)     51.8%
 EFFECTIVE MASS     14.4863
 FORCE CONSTANT      0.7120

 VIBRATION         12   12A           ATOM PAIR      ENERGY CONTRIBUTION    RADIAL
 FREQUENCY           905.78         C  1 -- H  9         +16.9% ( 56.9%)     16.3%
 TRANSITION DIPOLE   0.2565         C  1 -- H  8         +16.9% ( 56.8%)     16.4%
 TRAVEL (Ang.)       0.3441         C  1 -- C  2         +16.3% ( 55.8%)      0.0%
 REDUCED MASS        0.6289         C  5 -- H 13         +15.4% ( 54.3%)      0.0%
 EFFECTIVE MASS      5.3135         C  1 -- C  3         +14.6% ( 52.8%)      0.0%
 FORCE CONSTANT      0.3040

 VIBRATION         13   13A           ATOM PAIR      ENERGY CONTRIBUTION    RADIAL
 FREQUENCY           930.32         C  7 -- H 14         +19.8% ( 74.4%)     12.9%
 TRANSITION DIPOLE   0.0420         C  7 -- H 15         +19.8% ( 74.3%)      8.4%
 TRAVEL (Ang.)       0.3034         C  1 -- C  2         +12.2% ( 58.3%)     62.3%
 REDUCED MASS        0.7875         C  1 -- C  3         +10.9% ( 55.1%)     22.2%
 EFFECTIVE MASS      7.2106
 FORCE CONSTANT      0.4016

 VIBRATION         14   14A           ATOM PAIR      ENERGY CONTRIBUTION    RADIAL
 FREQUENCY           957.68         C  4 -- C  6         +16.6% ( 71.4%)      1.7%
 TRANSITION DIPOLE   0.0209         C  2 -- C  4         +15.6% ( 69.1%)     76.1%
 TRAVEL (Ang.)       0.2265         C  4 -- H 11         +11.6% ( 59.6%)     99.0%
 REDUCED MASS        1.3721         C  7 -- H 15          +7.8% ( 48.9%)     23.7%
 EFFECTIVE MASS     10.0266
 FORCE CONSTANT      0.7414

 VIBRATION         15   15A           ATOM PAIR      ENERGY CONTRIBUTION    RADIAL
 FREQUENCY           971.19         C  4 -- H 11         +23.1% ( 52.0%)      0.0%
 TRANSITION DIPOLE   0.0757         C  6 -- H 12         +20.1% ( 48.5%)      0.0%
 TRAVEL (Ang.)       0.3868         C  3 -- H 10         +17.1% ( 44.8%)      0.0%
 REDUCED MASS        0.4641         C  4 -- C  6          +8.7% ( 31.9%)      0.0%
 EFFECTIVE MASS      3.6421
 FORCE CONSTANT      0.2579

 VIBRATION         16   16A           ATOM PAIR      ENERGY CONTRIBUTION    RADIAL
 FREQUENCY           992.70         C  7 -- H 14         +24.0% ( 50.8%)      0.0%
 TRANSITION DIPOLE   0.4571         C  7 -- H 15         +23.9% ( 50.7%)      0.0%
 TRAVEL (Ang.)       0.3875         C  5 -- H 13         +11.5% ( 35.1%)      0.0%
 REDUCED MASS        0.4525         C  6 -- H 12          +7.8% ( 28.9%)      0.0%
 EFFECTIVE MASS      3.3651
 FORCE CONSTANT      0.2627

 VIBRATION         17   17A           ATOM PAIR      ENERGY CONTRIBUTION    RADIAL
 FREQUENCY          1023.77         C  3 -- H 10         +10.7% ( 37.0%)      0.0%
 TRANSITION DIPOLE   0.3534         C  7 -- H 15          +9.8% ( 35.5%)      0.0%
 TRAVEL (Ang.)       0.3669         C  7 -- H 14          +9.3% ( 34.6%)      0.0%
 REDUCED MASS        0.4894         C  1 -- C  3          +8.1% ( 32.3%)      0.0%
 EFFECTIVE MASS      5.5641
 FORCE CONSTANT      0.3022

 VIBRATION         18   18A           ATOM PAIR      ENERGY CONTRIBUTION    RADIAL
 FREQUENCY          1044.48         C  1 -- C  3         +20.8% ( 63.4%)     93.9%
 TRANSITION DIPOLE   0.1147         C  1 -- H  8         +15.0% ( 53.8%)     11.8%
 TRAVEL (Ang.)       0.3527         C  1 -- H  9         +14.8% ( 53.5%)     12.2%
 REDUCED MASS        0.5190         C  3 -- C  5         +13.1% ( 50.3%)     46.3%
 EFFECTIVE MASS      5.9250
 FORCE CONSTANT      0.3336

 VIBRATION         19   19A           ATOM PAIR      ENERGY CONTRIBUTION    RADIAL
 FREQUENCY          1073.11         C  1 -- H  9         +40.2% ( 63.8%)      0.1%
 TRANSITION DIPOLE   0.1802         C  1 -- H  8         +40.0% ( 63.7%)      0.2%
 TRAVEL (Ang.)       0.3866         C  2 -- C  7          +3.6% ( 19.1%)      0.0%
 REDUCED MASS        0.4204         C  2 -- C  4          +3.2% ( 18.0%)      0.0%
 EFFECTIVE MASS      2.0904
 FORCE CONSTANT      0.2852

 VIBRATION         20   20A           ATOM PAIR      ENERGY CONTRIBUTION    RADIAL
 FREQUENCY          1084.16         C  5 -- C  6         +22.7% ( 66.7%)    100.0%
 TRANSITION DIPOLE   0.0095         C  5 -- H 13         +13.9% ( 52.2%)     46.0%
 TRAVEL (Ang.)       0.3279         C  4 -- H 11         +13.0% ( 50.5%)     14.6%
 REDUCED MASS        0.5784         C  4 -- C  6         +12.0% ( 48.6%)     56.9%
 EFFECTIVE MASS      6.4158         C  3 -- H 10         +11.0% ( 46.3%)      3.8%
 FORCE CONSTANT      0.4006

 VIBRATION         21   21A           ATOM PAIR      ENERGY CONTRIBUTION    RADIAL
 FREQUENCY          1148.32         C  6 -- H 12         +37.6% ( 62.7%)      0.0%
 TRANSITION DIPOLE   0.0394         C  4 -- H 11         +26.0% ( 52.2%)      1.0%
 TRAVEL (Ang.)       0.4647         C  3 -- H 10         +12.1% ( 35.6%)      1.2%
 REDUCED MASS        0.2720         C  5 -- H 13          +5.1% ( 23.2%)      0.6%
 EFFECTIVE MASS      1.5080
 FORCE CONSTANT      0.2113

 VIBRATION         22   22A           ATOM PAIR      ENERGY CONTRIBUTION    RADIAL
 FREQUENCY          1157.38         C  5 -- H 13         +36.9% ( 60.8%)      0.1%
 TRANSITION DIPOLE   0.0318         C  3 -- H 10         +32.1% ( 56.7%)      0.0%
 TRAVEL (Ang.)       0.4332         C  6 -- H 12         +19.3% ( 44.0%)      0.5%
 REDUCED MASS        0.3104         C  4 -- H 11          +3.6% ( 19.0%)      0.4%
 EFFECTIVE MASS      1.2526
 FORCE CONSTANT      0.2450

 VIBRATION         23   23A           ATOM PAIR      ENERGY CONTRIBUTION    RADIAL
 FREQUENCY          1224.41         C  4 -- H 11         +23.7% ( 57.3%)      0.0%
 TRANSITION DIPOLE   0.0407         C  3 -- H 10         +13.2% ( 42.8%)      0.0%
 TRAVEL (Ang.)       0.4947         C  5 -- H 13         +11.8% ( 40.5%)      0.1%
 REDUCED MASS        0.2250         C  6 -- H 12          +8.4% ( 34.2%)      0.1%
 EFFECTIVE MASS      2.4446
 FORCE CONSTANT      0.1988

 VIBRATION         24   24A           ATOM PAIR      ENERGY CONTRIBUTION    RADIAL
 FREQUENCY          1314.78         C  7 -- H 14         +23.8% ( 53.1%)      0.1%
 TRANSITION DIPOLE   0.0831         C  7 -- H 15         +18.6% ( 47.0%)      1.0%
 TRAVEL (Ang.)       0.3775         C  1 -- C  3          +9.3% ( 33.2%)     66.8%
 REDUCED MASS        0.3598         C  1 -- H  9          +8.3% ( 31.4%)      0.0%
 EFFECTIVE MASS      3.0888
 FORCE CONSTANT      0.3665

 VIBRATION         25   25A           ATOM PAIR      ENERGY CONTRIBUTION    RADIAL
 FREQUENCY          1339.24         C  1 -- H  9         +28.2% ( 54.2%)      3.7%
 TRANSITION DIPOLE   0.1546         C  1 -- H  8         +28.2% ( 54.2%)      3.7%
 TRAVEL (Ang.)       0.3654         C  5 -- C  6          +6.0% ( 25.0%)     98.8%
 REDUCED MASS        0.3770         C  1 -- C  2          +6.0% ( 25.0%)      3.8%
 EFFECTIVE MASS      2.9336
 FORCE CONSTANT      0.3984

 VIBRATION         26   26A           ATOM PAIR      ENERGY CONTRIBUTION    RADIAL
 FREQUENCY          1387.71         C  1 -- C  3         +15.0% ( 55.4%)     73.5%
 TRANSITION DIPOLE   0.0132         C  1 -- H  9         +13.2% ( 52.0%)      0.2%
 TRAVEL (Ang.)       0.1954         C  1 -- H  8         +13.2% ( 51.9%)      0.2%
 REDUCED MASS        1.2727         C  1 -- C  2         +11.4% ( 48.3%)     45.3%
 EFFECTIVE MASS      7.3339
 FORCE CONSTANT      1.4441

 VIBRATION         27   27A           ATOM PAIR      ENERGY CONTRIBUTION    RADIAL
 FREQUENCY          1406.67         C  1 -- C  2         +13.6% ( 52.9%)     52.2%
 TRANSITION DIPOLE   0.0616         C  5 -- C  6         +12.6% ( 50.9%)     93.2%
 TRAVEL (Ang.)       0.1968         C  1 -- C  3         +10.9% ( 47.4%)     71.2%
 REDUCED MASS        1.2376         C  2 -- C  4          +9.4% ( 43.8%)     47.5%
 EFFECTIVE MASS      8.8474
 FORCE CONSTANT      1.4429

 VIBRATION         28   28A           ATOM PAIR      ENERGY CONTRIBUTION    RADIAL
 FREQUENCY          1508.92         C  2 -- C  4         +19.3% ( 66.6%)     86.9%
 TRANSITION DIPOLE   0.0957         C  1 -- C  2         +18.7% ( 65.6%)     98.2%
 TRAVEL (Ang.)       0.1374         C  2 -- C  7          +9.6% ( 47.0%)      0.0%
 REDUCED MASS        2.3685         C  1 -- C  3          +9.5% ( 46.6%)     81.2%
 EFFECTIVE MASS     11.3575
 FORCE CONSTANT      3.1773

 VIBRATION         29   29A           ATOM PAIR      ENERGY CONTRIBUTION    RADIAL
 FREQUENCY          1827.05         C  4 -- C  6         +32.4% ( 84.9%)     99.6%
 TRANSITION DIPOLE   0.2508         C  5 -- C  6         +15.8% ( 59.3%)     90.3%
 TRAVEL (Ang.)       0.1051         C  6 -- H 12         +10.5% ( 48.3%)      3.0%
 REDUCED MASS        3.3418         C  2 -- C  4          +9.6% ( 46.3%)     57.9%
 EFFECTIVE MASS     11.9576
 FORCE CONSTANT      6.5725

 VIBRATION         30   30A           ATOM PAIR      ENERGY CONTRIBUTION    RADIAL
 FREQUENCY          1838.52         C  2 -- C  7         +22.4% ( 70.0%)     99.9%
 TRANSITION DIPOLE   0.5372         C  3 -- C  5         +21.4% ( 68.5%)     99.9%
 TRAVEL (Ang.)       0.1191         C  1 -- C  2          +8.2% ( 42.2%)     41.8%
 REDUCED MASS        2.5877         C  2 -- C  4          +7.9% ( 41.6%)     21.2%
 EFFECTIVE MASS     11.8369
 FORCE CONSTANT      5.1536

 VIBRATION         31   31A           ATOM PAIR      ENERGY CONTRIBUTION    RADIAL
 FREQUENCY          1872.06         C  2 -- C  7         +20.4% ( 66.4%)     99.5%
 TRANSITION DIPOLE   0.3398         C  2 -- C  4         +14.3% ( 55.7%)     44.4%
 TRAVEL (Ang.)       0.1304         C  3 -- C  5         +13.3% ( 53.6%)     99.7%
 REDUCED MASS        2.1179         C  4 -- C  6          +9.7% ( 46.0%)     97.2%
 EFFECTIVE MASS     11.8277
 FORCE CONSTANT      4.3731

 VIBRATION         32   32A           ATOM PAIR      ENERGY CONTRIBUTION    RADIAL
 FREQUENCY          2925.87         C  1 -- H  8         +49.0% ( 72.7%)     96.5%
 TRANSITION DIPOLE   0.0660         C  1 -- H  9         +48.8% ( 72.5%)     96.5%
 TRAVEL (Ang.)       0.2110         C  1 -- C  2          +1.1% ( 10.8%)      0.0%
 REDUCED MASS        0.5175         C  1 -- C  3          +1.1% ( 10.8%)      0.0%
 EFFECTIVE MASS      1.5343
 FORCE CONSTANT      2.6102

 VIBRATION         33   33A           ATOM PAIR      ENERGY CONTRIBUTION    RADIAL
 FREQUENCY          3006.17         C  1 -- H  9         +49.1% ( 69.0%)     97.8%
 TRANSITION DIPOLE   0.1205         C  1 -- H  8         +48.8% ( 68.9%)     97.8%
 TRAVEL (Ang.)       0.2168         C  3 -- H 10          +0.7% (  8.4%)    100.0%
 REDUCED MASS        0.4774         C  1 -- C  3          +0.7% (  8.0%)     19.5%
 EFFECTIVE MASS      1.2783
 FORCE CONSTANT      2.5418

 VIBRATION         34   34A           ATOM PAIR      ENERGY CONTRIBUTION    RADIAL
 FREQUENCY          3044.72         C  4 -- H 11         +76.4% ( 88.8%)    100.0%
 TRANSITION DIPOLE   0.2956         C  6 -- H 12         +19.5% ( 44.9%)     99.9%
 TRAVEL (Ang.)       0.1904         C  4 -- C  6          +1.2% ( 11.2%)      6.0%
 REDUCED MASS        0.6112         C  2 -- C  4          +1.1% ( 10.7%)     19.4%
 EFFECTIVE MASS      1.4823
 FORCE CONSTANT      3.3383

 VIBRATION         35   35A           ATOM PAIR      ENERGY CONTRIBUTION    RADIAL
 FREQUENCY          3051.11         C  3 -- H 10         +60.8% ( 79.2%)    100.0%
 TRANSITION DIPOLE   0.2547         C  5 -- H 13         +33.5% ( 58.7%)    100.0%
 TRAVEL (Ang.)       0.2164         C  4 -- H 11          +2.4% ( 15.8%)    100.0%
 REDUCED MASS        0.4720         C  3 -- C  5          +1.1% ( 10.6%)      1.4%
 EFFECTIVE MASS      1.4661
 FORCE CONSTANT      2.5890

 VIBRATION         36   36A           ATOM PAIR      ENERGY CONTRIBUTION    RADIAL
 FREQUENCY          3065.09         C  6 -- H 12         +45.9% ( 68.9%)     99.9%
 TRANSITION DIPOLE   0.3591         C  3 -- H 10         +19.4% ( 44.7%)     99.9%
 TRAVEL (Ang.)       0.2718         C  5 -- H 13         +18.4% ( 43.6%)     99.8%
 REDUCED MASS        0.2978         C  4 -- H 11         +12.7% ( 36.2%)     99.8%
 EFFECTIVE MASS      1.5671
 FORCE CONSTANT      1.6485

 VIBRATION         37   37A           ATOM PAIR      ENERGY CONTRIBUTION    RADIAL
 FREQUENCY          3076.01         C  5 -- H 13         +44.2% ( 67.4%)    100.0%
 TRANSITION DIPOLE   0.3911         C  6 -- H 12         +31.0% ( 56.5%)    100.0%
 TRAVEL (Ang.)       0.2619         C  3 -- H 10         +15.6% ( 40.1%)     99.8%
 REDUCED MASS        0.3195         C  4 -- H 11          +5.4% ( 23.5%)     99.7%
 EFFECTIVE MASS      1.6007
 FORCE CONSTANT      1.7814

 VIBRATION         38   38A           ATOM PAIR      ENERGY CONTRIBUTION    RADIAL
 FREQUENCY          3142.40         C  7 -- H 14         +74.8% ( 86.6%)     98.4%
 TRANSITION DIPOLE   0.3622         C  7 -- H 15         +23.7% ( 48.7%)     85.4%
 TRAVEL (Ang.)       0.1888         C  2 -- C  7          +1.4% ( 12.0%)     90.0%
 REDUCED MASS        0.6022
 EFFECTIVE MASS      1.3942
 FORCE CONSTANT      3.5036

 VIBRATION         39   39A           ATOM PAIR      ENERGY CONTRIBUTION    RADIAL
 FREQUENCY          3144.35         C  7 -- H 15         +73.8% ( 87.9%)     99.1%
 TRANSITION DIPOLE   0.2032         C  7 -- H 14         +24.9% ( 51.0%)     91.7%
 TRAVEL (Ang.)       0.1825         C  2 -- C  7          +1.3% ( 11.8%)      5.1%
 REDUCED MASS        0.6440
 EFFECTIVE MASS      1.5900
 FORCE CONSTANT      3.7515

      SYMMETRY NUMBER FOR POINT-GROUP C1  =  1


          SYSTEM IS A GROUND STATE



 InChI=1S/C7H8/c1-7-5-3-2-4-6-7/h2-5H,1,6H2


          MOLECULE IS NOT LINEAR

          THERE ARE 39 GENUINE VIBRATIONS IN THIS SYSTEM
          THIS THERMODYNAMICS CALCULATION IS LIMITED TO
          MOLECULES WHICH HAVE NO INTERNAL ROTATIONS




                    CALCULATED THERMODYNAMIC PROPERTIES
                                          *
   TEMP. (K)   PARTITION FUNCTION   H.O.F.    ENTHALPY  HEAT CAPACITY ENTROPY
                                   KCAL/MOL   CAL/MOLE    CAL/K/MOL  CAL/K/MOL


 298.00  VIB.     0.1375D+02                  2098.9227    17.8083    12.2524
         ROT.     0.1749D+06                   888.2803     2.9808    26.9706
         INT.     0.2406D+07                  2987.2030    20.7891    39.2230
         TRA.     0.8551D+27                  1480.4672     4.9680    39.4718
         TOT.                       39.303    4467.6702    25.7571    78.6948

 200.00  VIB.     0.4770D+01                   770.8173     9.4655     6.9588
         ROT.     0.9618D+05                   596.1613     2.9808    25.7819
         INT.     0.4588D+06                  1366.9786    12.4463    32.7407
         TRA.     0.4701D+27                   993.6021     4.9680    37.4906
         TOT.                       37.196    2360.5807    17.4143    70.2313

 210.00  VIB.     0.5262D+01                   869.3984    10.2545     7.4396
         ROT.     0.1035D+06                   625.9693     2.9808    25.9273
         INT.     0.5445D+06                  1495.3678    13.2353    33.3670
         TRA.     0.5058D+27                  1043.2822     4.9680    37.7330
         TOT.                       37.374    2538.6500    18.2034    71.1000

 220.00  VIB.     0.5817D+01                   975.9789    11.0649     7.9353
         ROT.     0.1110D+06                   655.7774     2.9808    26.0660
         INT.     0.6454D+06                  1631.7563    14.0457    34.0013
         TRA.     0.5424D+27                  1092.9623     4.9680    37.9641
         TOT.                       37.560    2724.7187    19.0137    71.9654

 230.00  VIB.     0.6446D+01                  1090.7581    11.8938     8.4454
         ROT.     0.1186D+06                   685.5855     2.9808    26.1985
         INT.     0.7645D+06                  1776.3436    14.8746    34.6439
         TRA.     0.5798D+27                  1142.6424     4.9680    38.1850
         TOT.                       37.754    2918.9861    19.8426    72.8288

 240.00  VIB.     0.7158D+01                  1213.9080    12.7386     8.9694
         ROT.     0.1264D+06                   715.3935     2.9808    26.3254
         INT.     0.9050D+06                  1929.3016    15.7194    35.2947
         TRA.     0.6180D+27                  1192.3226     4.9680    38.3964
         TOT.                       37.957    3121.6241    20.6874    73.6911

 250.00  VIB.     0.7968D+01                  1345.5724    13.5963     9.5067
         ROT.     0.1344D+06                   745.2016     2.9808    26.4471
         INT.     0.1071D+07                  2090.7740    16.5771    35.9538
         TRA.     0.6570D+27                  1242.0027     4.9680    38.5992
         TOT.                       38.168    3332.7767    21.5451    74.5530

 260.00  VIB.     0.8890D+01                  1485.8671    14.4641    10.0569
         ROT.     0.1426D+06                   775.0097     2.9808    26.5640
         INT.     0.1267D+07                  2260.8767    17.4449    36.6208
         TRA.     0.6968D+27                  1291.6828     4.9680    38.7941
         TOT.                       38.388    3552.5595    22.4130    75.4149

 270.00  VIB.     0.9941D+01                  1634.8800    15.3395    10.6191
         ROT.     0.1509D+06                   804.8177     2.9808    26.6765
         INT.     0.1500D+07                  2439.6978    18.3203    37.2956
         TRA.     0.7374D+27                  1341.3629     4.9680    38.9816
         TOT.                       38.616    3781.0606    23.2883    76.2772

 280.00  VIB.     0.1114D+02                  1792.6726    16.2196    11.1929
         ROT.     0.1593D+06                   834.6258     2.9808    26.7849
         INT.     0.1775D+07                  2627.2984    19.2004    37.9778
         TRA.     0.7788D+27                  1391.0430     4.9680    39.1622
         TOT.                       38.854    4018.3413    24.1684    77.1400

 290.00  VIB.     0.1251D+02                  1959.2805    17.1021    11.7774
         ROT.     0.1679D+06                   864.4339     2.9808    26.8895
         INT.     0.2101D+07                  2823.7143    20.0830    38.6669
         TRA.     0.8209D+27                  1440.7231     4.9680    39.3366
         TOT.                       39.100    4264.4374    25.0510    78.0035

 300.00  VIB.     0.1409D+02                  2134.7157    17.9847    12.3721
         ROT.     0.1767D+06                   894.2419     2.9808    26.9905
         INT.     0.2489D+07                  3028.9576    20.9655    39.3626
         TRA.     0.8637D+27                  1490.4032     4.9680    39.5050
         TOT.                       39.355    4519.3608    25.9335    78.8676

 310.00  VIB.     0.1589D+02                  2318.9681    18.8652    12.9762
         ROT.     0.1856D+06                   924.0500     2.9808    27.0883
         INT.     0.2949D+07                  3243.0181    21.8460    40.0645
         TRA.     0.9072D+27                  1540.0833     4.9680    39.6679
         TOT.                       39.619    4783.1014    26.8141    79.7324

 320.00  VIB.     0.1796D+02                  2512.0073    19.7418    13.5890
         ROT.     0.1947D+06                   953.8580     2.9808    27.1829
         INT.     0.3495D+07                  3465.8653    22.7226    40.7719
         TRA.     0.9515D+27                  1589.7634     4.9680    39.8256
         TOT.                       39.891    5055.6287    27.6906    80.5975

 330.00  VIB.     0.2034D+02                  2713.7846    20.6126    14.2098
         ROT.     0.2038D+06                   983.6661     2.9808    27.2746
         INT.     0.4145D+07                  3697.4507    23.5934    41.4845
         TRA.     0.9964D+27                  1639.4435     4.9680    39.9785
         TOT.                       40.172    5336.8942    28.5614    81.4630

 340.00  VIB.     0.2307D+02                  2924.2351    21.4762    14.8380
         ROT.     0.2132D+06                  1013.4742     2.9808    27.3636
         INT.     0.4919D+07                  3937.7093    24.4570    42.2016
         TRA.     0.1042D+28                  1689.1236     4.9680    40.1268
         TOT.                       40.462    5626.8329    29.4250    82.3284

 350.00  VIB.     0.2623D+02                  3143.2797    22.3312    15.4729
         ROT.     0.2227D+06                  1043.2822     2.9808    27.4500
         INT.     0.5841D+07                  4186.5620    25.3120    42.9229
         TRA.     0.1088D+28                  1738.8037     4.9680    40.2708
         TOT.                       40.761    5925.3657    30.2800    83.1938

 360.00  VIB.     0.2987D+02                  3370.8266    23.1765    16.1139
         ROT.     0.2323D+06                  1073.0903     2.9808    27.5340
         INT.     0.6939D+07                  4443.9169    26.1573    43.6479
         TRA.     0.1135D+28                  1788.4838     4.9680    40.4108
         TOT.                       41.068    6232.4007    31.1253    84.0586

 370.00  VIB.     0.3408D+02                  3606.7733    24.0110    16.7603
         ROT.     0.2420D+06                  1102.8984     2.9808    27.6157
         INT.     0.8248D+07                  4709.6716    26.9918    44.3760
         TRA.     0.1183D+28                  1838.1639     4.9680    40.5469
         TOT.                       41.383    6547.8356    31.9598    84.9229

 380.00  VIB.     0.3894D+02                  3851.0083    24.8340    17.4116
         ROT.     0.2519D+06                  1132.7064     2.9808    27.6951
         INT.     0.9809D+07                  4983.7147    27.8148    45.1067
         TRA.     0.1231D+28                  1887.8440     4.9680    40.6794
         TOT.                       41.707    6871.5588    32.7828    85.7861

 390.00  VIB.     0.4457D+02                  4103.4127    25.6448    18.0672
         ROT.     0.2619D+06                  1162.5145     2.9808    27.7726
         INT.     0.1167D+08                  5265.9272    28.6256    45.8397
         TRA.     0.1280D+28                  1937.5242     4.9680    40.8084
         TOT.                       42.039    7203.4513    33.5936    86.6482

 400.00  VIB.     0.5109D+02                  4363.8612    26.4428    18.7265
         ROT.     0.2720D+06                  1192.3226     2.9808    27.8480
         INT.     0.1390D+08                  5556.1837    29.4236    46.5746
         TRA.     0.1330D+28                  1987.2043     4.9680    40.9342
         TOT.                       42.379    7543.3880    34.3916    87.5088

   *: NOTE: HEATS OF FORMATION ARE RELATIVE TO THE
            ELEMENTS IN THEIR STANDARD STATE AT 298K
              (=  Standard Enthalpy of Formation).

            Hvib:  Zero-point energy is not included.
                   frequencies of less than zero cm-1 are not included.
            Hrot = (3/2)RT
            Htra = (3/2)RT + pV = (5/2)RT

            Heat capacity is Cp, not Cv

          For more information, see: HTTP://OpenMOPAC.net/Manual/thermochemistry.html


           FORCE CONSTANT IN CARTESIAN COORDINATES (Millidynes/A)

    ATOM   CHEMICAL       X               Y               Z
   NUMBER   SYMBOL  FORCE CONSTANT  FORCE CONSTANT  FORCE CONSTANT

      1       C        9.105368        9.181967        7.608194
      2       C       11.211374       14.361529        2.615187
      3       C       11.406688       13.230791        2.371698
      4       C       11.433257       13.838411        2.198044
      5       C       11.605160       13.794746        2.196832
      6       C       11.444682       13.860012        2.197506
      7       C       10.777875       13.624958        1.921498
      8       H        1.095293        1.630050        3.434731
      9       H        1.096549        1.631866        3.433237
     10       H        5.134564        0.770861        0.345044
     11       H        5.105525        0.792640        0.341694
     12       H        1.804817        4.111365        0.343369
     13       H        1.642715        4.275721        0.343536
     14       H        5.425929        0.720782        0.324853
     15       H        1.672773        4.458438        0.323660

 **********************
 *                    *
 * JOB ENDED NORMALLY *
 *                    *
 **********************



 TOTAL JOB TIME:             0.89 SECONDS

 == MOPAC DONE ==
