 *******************************************************************************
 **                                                                           **
 **                              MOPAC v23.1.2                                **
 **                                                                           **
 *******************************************************************************
 **          Digital Object Identifier (DOI): 10.5281/zenodo.6511958          **
 **    Visit the DOI location for information on how to cite this program.    **
 *******************************************************************************

                              PM3 CALCULATION RESULTS

 *******************************************************************************
 *  CALCULATION DONE: (MAX THREADS = 1)              Tue Jun  3 16:30:41 2025  *
 *  PM3        - The PM3 Hamiltonian to be used
 *  PRECISE    - TIGHTER CRITERIA TO BE USED
 *  NOSYM      - POINT-GROUP SYMMETRY SET TO C1
 *  THREADS=1  - MULTI-THREADING NOT USED
 *  T=         - A TIME OF 172800.0 SECONDS REQUESTED
 *  DUMP=N     - RESTART FILE WRITTEN EVERY 7200.0 SECONDS REQUESTED
 *******************************************************************************
pm3  precise nosym THREADS=1
 InChI=1S/C9H12/c1-7-6-8-4-2-3-5-9(7)8/h2-3,5,7-8H,4,6H2,1H3

   ATOM   CHEMICAL          X               Y               Z
  NUMBER   SYMBOL      (ANGSTROMS)     (ANGSTROMS)     (ANGSTROMS)

     1       C         -0.35850000  *  -0.75840000  *  -0.77440000  *
     2       C          1.55580000  *  -0.09420000  *  -0.39360000  *
     3       C          0.92610000  *  -1.46720000  *  -0.45350000  *
     4       C         -1.56210000  *  -0.88760000  *   0.18210000  *
     5       C          2.21970000  *   0.21110000  *   0.95090000  *
     6       C          0.22140000  *   0.60980000  *  -0.54750000  *
     7       C         -2.42180000  *   0.37620000  *   0.11480000  *
     8       C         -0.41120000  *   1.74320000  *  -0.29640000  *
     9       C         -1.86990000  *   1.59990000  *  -0.07410000  *
    10       H          2.23020000  *   0.11480000  *  -1.25390000  *
    11       H         -0.66460000  *  -0.88230000  *  -1.83810000  *
    12       H          0.89900000  *  -2.00680000  *   0.51940000  *
    13       H          1.30440000  *  -2.07580000  *  -1.30330000  *
    14       H         -1.21080000  *  -1.01620000  *   1.22910000  *
    15       H         -2.17000000  *  -1.77410000  *  -0.09620000  *
    16       H          2.55530000  *   1.26940000  *   0.96890000  *
    17       H          3.10550000  *  -0.44440000  *   1.08730000  *
    18       H          1.51350000  *   0.04570000  *   1.79360000  *
    19       H         -3.48860000  *   0.29470000  *   0.28000000  *
    20       H         -2.49150000  *   2.48460000  *  -0.02990000  *
    21       H          0.11790000  *   2.65760000  *  -0.06530000  *



          CARTESIAN COORDINATES 

    NO.       ATOM           X           Y           Z

     1         C         -0.3585     -0.7584     -0.7744
     2         C          1.5558     -0.0942     -0.3936
     3         C          0.9261     -1.4672     -0.4535
     4         C         -1.5621     -0.8876      0.1821
     5         C          2.2197      0.2111      0.9509
     6         C          0.2214      0.6098     -0.5475
     7         C         -2.4218      0.3762      0.1148
     8         C         -0.4112      1.7432     -0.2964
     9         C         -1.8699      1.5999     -0.0741
    10         H          2.2302      0.1148     -1.2539
    11         H         -0.6646     -0.8823     -1.8381
    12         H          0.8990     -2.0068      0.5194
    13         H          1.3044     -2.0758     -1.3033
    14         H         -1.2108     -1.0162      1.2291
    15         H         -2.1700     -1.7741     -0.0962
    16         H          2.5553      1.2694      0.9689
    17         H          3.1055     -0.4444      1.0873
    18         H          1.5135      0.0457      1.7936
    19         H         -3.4886      0.2947      0.2800
    20         H         -2.4915      2.4846     -0.0299
    21         H          0.1179      2.6576     -0.0653

  H: (PM3): J. J. P. STEWART, J. COMP. CHEM. 10, 209 (1989).
  C: (PM3): J. J. P. STEWART, J. COMP. CHEM. 10, 209 (1989).

           Empirical Formula: C9 H12  =    21 atoms



      MOLECULAR POINT GROUP   :   C1  


      RHF CALCULATION, NO. OF DOUBLY OCCUPIED LEVELS = 24


          Geometry optimization using EF

          DIAGONAL MATRIX USED AS START HESSIAN

 CYCLE:     1 TIME:   0.008 TIME LEFT:  2.00D  GRAD.:   147.954 HEAT:  43.39116
 CYCLE:     2 TIME:   0.012 TIME LEFT:  2.00D  GRAD.:    89.733 HEAT:  37.98782
 CYCLE:     3 TIME:   0.008 TIME LEFT:  2.00D  GRAD.:    66.311 HEAT:  36.42478
 CYCLE:     4 TIME:   0.008 TIME LEFT:  2.00D  GRAD.:    70.502 HEAT:  35.88278
 CYCLE:     5 TIME:   0.004 TIME LEFT:  2.00D  GRAD.:    61.948 HEAT:  35.45205
 CYCLE:     6 TIME:   0.012 TIME LEFT:  2.00D  GRAD.:    33.092 HEAT:  34.58481
 CYCLE:     7 TIME:   0.012 TIME LEFT:  2.00D  GRAD.:    22.752 HEAT:  34.27957
 CYCLE:     8 TIME:   0.008 TIME LEFT:  2.00D  GRAD.:    20.091 HEAT:  34.14365
 CYCLE:     9 TIME:   0.008 TIME LEFT:  2.00D  GRAD.:    18.642 HEAT:  33.96755
 CYCLE:    10 TIME:   0.004 TIME LEFT:  2.00D  GRAD.:    23.933 HEAT:  33.83914
 CYCLE:    11 TIME:   0.008 TIME LEFT:  2.00D  GRAD.:    27.805 HEAT:  33.76608
 CYCLE:    12 TIME:   0.008 TIME LEFT:  2.00D  GRAD.:    23.630 HEAT:  33.63604
 CYCLE:    13 TIME:   0.008 TIME LEFT:  2.00D  GRAD.:    15.065 HEAT:  33.52749
 CYCLE:    14 TIME:   0.008 TIME LEFT:  2.00D  GRAD.:    17.253 HEAT:  33.52457
 CYCLE:    15 TIME:   0.008 TIME LEFT:  2.00D  GRAD.:     9.220 HEAT:  33.44121
 CYCLE:    16 TIME:   0.008 TIME LEFT:  2.00D  GRAD.:     8.805 HEAT:  33.42270
 CYCLE:    17 TIME:   0.008 TIME LEFT:  2.00D  GRAD.:     6.974 HEAT:  33.39669
 CYCLE:    18 TIME:   0.004 TIME LEFT:  2.00D  GRAD.:    10.065 HEAT:  33.37992
 CYCLE:    19 TIME:   0.008 TIME LEFT:  2.00D  GRAD.:     5.959 HEAT:  33.34345
 CYCLE:    20 TIME:   0.008 TIME LEFT:  2.00D  GRAD.:     4.728 HEAT:  33.31228
 CYCLE:    21 TIME:   0.004 TIME LEFT:  2.00D  GRAD.:     5.521 HEAT:  33.27363
 CYCLE:    22 TIME:   0.008 TIME LEFT:  2.00D  GRAD.:     4.517 HEAT:  33.23393
 CYCLE:    23 TIME:   0.008 TIME LEFT:  2.00D  GRAD.:     8.772 HEAT:  33.21209
 CYCLE:    24 TIME:   0.004 TIME LEFT:  2.00D  GRAD.:     8.353 HEAT:  33.18567
 CYCLE:    25 TIME:   0.008 TIME LEFT:  2.00D  GRAD.:     6.469 HEAT:  33.15819
 CYCLE:    26 TIME:   0.008 TIME LEFT:  2.00D  GRAD.:     4.322 HEAT:  33.12756
 CYCLE:    27 TIME:   0.004 TIME LEFT:  2.00D  GRAD.:     4.697 HEAT:  33.08670
 CYCLE:    28 TIME:   0.008 TIME LEFT:  2.00D  GRAD.:     4.784 HEAT:  33.03661
 CYCLE:    29 TIME:   0.008 TIME LEFT:  2.00D  GRAD.:     6.692 HEAT:  33.00028
 CYCLE:    30 TIME:   0.008 TIME LEFT:  2.00D  GRAD.:     6.524 HEAT:  32.97533
 CYCLE:    31 TIME:   0.004 TIME LEFT:  2.00D  GRAD.:     4.174 HEAT:  32.94138
 CYCLE:    32 TIME:   0.008 TIME LEFT:  2.00D  GRAD.:     4.187 HEAT:  32.89396
 CYCLE:    33 TIME:   0.008 TIME LEFT:  2.00D  GRAD.:     5.488 HEAT:  32.86765
 CYCLE:    34 TIME:   0.004 TIME LEFT:  2.00D  GRAD.:     3.209 HEAT:  32.84276
 CYCLE:    35 TIME:   0.008 TIME LEFT:  2.00D  GRAD.:     2.605 HEAT:  32.82639
 CYCLE:    36 TIME:   0.008 TIME LEFT:  2.00D  GRAD.:     2.967 HEAT:  32.81597
 CYCLE:    37 TIME:   0.008 TIME LEFT:  2.00D  GRAD.:     2.219 HEAT:  32.80680
 CYCLE:    38 TIME:   0.004 TIME LEFT:  2.00D  GRAD.:     2.037 HEAT:  32.79846
 CYCLE:    39 TIME:   0.008 TIME LEFT:  2.00D  GRAD.:     1.836 HEAT:  32.79367
 CYCLE:    40 TIME:   0.004 TIME LEFT:  2.00D  GRAD.:     1.264 HEAT:  32.78963
 CYCLE:    41 TIME:   0.008 TIME LEFT:  2.00D  GRAD.:     0.922 HEAT:  32.78657
 CYCLE:    42 TIME:   0.008 TIME LEFT:  2.00D  GRAD.:     0.584 HEAT:  32.78575
 CYCLE:    43 TIME:   0.008 TIME LEFT:  2.00D  GRAD.:     0.386 HEAT:  32.78487
 CYCLE:    44 TIME:   0.004 TIME LEFT:  2.00D  GRAD.:     0.432 HEAT:  32.78428
 CYCLE:    45 TIME:   0.008 TIME LEFT:  2.00D  GRAD.:     0.418 HEAT:  32.78386
 CYCLE:    46 TIME:   0.008 TIME LEFT:  2.00D  GRAD.:     0.401 HEAT:  32.78365
 CYCLE:    47 TIME:   0.008 TIME LEFT:  2.00D  GRAD.:     0.247 HEAT:  32.78346
 CYCLE:    48 TIME:   0.004 TIME LEFT:  2.00D  GRAD.:     0.249 HEAT:  32.78328
 CYCLE:    49 TIME:   0.008 TIME LEFT:  2.00D  GRAD.:     0.271 HEAT:  32.78310
 CYCLE:    50 TIME:   0.008 TIME LEFT:  2.00D  GRAD.:     0.288 HEAT:  32.78289
 CYCLE:    51 TIME:   0.008 TIME LEFT:  2.00D  GRAD.:     0.273 HEAT:  32.78266
 CYCLE:    52 TIME:   0.008 TIME LEFT:  2.00D  GRAD.:     0.230 HEAT:  32.78249
 CYCLE:    53 TIME:   0.004 TIME LEFT:  2.00D  GRAD.:     0.203 HEAT:  32.78236
 CYCLE:    54 TIME:   0.008 TIME LEFT:  2.00D  GRAD.:     0.218 HEAT:  32.78223
 CYCLE:    55 TIME:   0.008 TIME LEFT:  2.00D  GRAD.:     0.232 HEAT:  32.78208
 CYCLE:    56 TIME:   0.008 TIME LEFT:  2.00D  GRAD.:     0.205 HEAT:  32.78194
 CYCLE:    57 TIME:   0.004 TIME LEFT:  2.00D  GRAD.:     0.146 HEAT:  32.78187
 CYCLE:    58 TIME:   0.008 TIME LEFT:  2.00D  GRAD.:     0.134 HEAT:  32.78180
 CYCLE:    59 TIME:   0.004 TIME LEFT:  2.00D  GRAD.:     0.163 HEAT:  32.78174
 CYCLE:    60 TIME:   0.008 TIME LEFT:  2.00D  GRAD.:     0.222 HEAT:  32.78164
 CYCLE:    61 TIME:   0.008 TIME LEFT:  2.00D  GRAD.:     0.219 HEAT:  32.78154
 CYCLE:    62 TIME:   0.004 TIME LEFT:  2.00D  GRAD.:     0.146 HEAT:  32.78147
 CYCLE:    63 TIME:   0.008 TIME LEFT:  2.00D  GRAD.:     0.132 HEAT:  32.78142
 CYCLE:    64 TIME:   0.004 TIME LEFT:  2.00D  GRAD.:     0.108 HEAT:  32.78140
 CYCLE:    65 TIME:   0.008 TIME LEFT:  2.00D  GRAD.:     0.122 HEAT:  32.78134
 CYCLE:    66 TIME:   0.008 TIME LEFT:  2.00D  GRAD.:     0.092 HEAT:  32.78132
 CYCLE:    67 TIME:   0.004 TIME LEFT:  2.00D  GRAD.:     0.088 HEAT:  32.78131
 CYCLE:    68 TIME:   0.008 TIME LEFT:  2.00D  GRAD.:     0.113 HEAT:  32.78129
 CYCLE:    69 TIME:   0.008 TIME LEFT:  2.00D  GRAD.:     0.092 HEAT:  32.78127
 CYCLE:    70 TIME:   0.004 TIME LEFT:  2.00D  GRAD.:     0.190 HEAT:  32.78121
 CYCLE:    71 TIME:   0.008 TIME LEFT:  2.00D  GRAD.:     0.150 HEAT:  32.78118
 CYCLE:    72 TIME:   0.008 TIME LEFT:  2.00D  GRAD.:     0.142 HEAT:  32.78101
 CYCLE:    73 TIME:   0.004 TIME LEFT:  2.00D  GRAD.:     0.115 HEAT:  32.78097
 CYCLE:    74 TIME:   0.008 TIME LEFT:  2.00D  GRAD.:     0.095 HEAT:  32.78093
 CYCLE:    75 TIME:   0.004 TIME LEFT:  2.00D  GRAD.:     0.081 HEAT:  32.78092
 CYCLE:    76 TIME:   0.008 TIME LEFT:  2.00D  GRAD.:     0.518 HEAT:  32.78157
 CYCLE:    77 TIME:   0.008 TIME LEFT:  2.00D  GRAD.:     0.055 HEAT:  32.78088
 CYCLE:    78 TIME:   0.004 TIME LEFT:  2.00D  GRAD.:     0.041 HEAT:  32.78088

     GRADIENT =  0.04095 IS LESS THAN CUTOFF =  0.05000



 -------------------------------------------------------------------------------
 pm3  precise nosym THREADS=1
 InChI=1S/C9H12/c1-7-6-8-4-2-3-5-9(7)8/h2-3,5,7-8H,4,6H2,1H3



     GEOMETRY OPTIMISED USING EIGENVECTOR FOLLOWING (EF).     
     SCF FIELD WAS ACHIEVED                                   


                              PM3 CALCULATION
                                                       MOPAC v23.1.2 MacOS
                                                       Tue Jun  3 16:30:41 2025




          FINAL HEAT OF FORMATION =         32.78088 KCAL/MOL =     137.15520 KJ/MOL


          COSMO AREA              =        166.36 SQUARE ANGSTROMS
          COSMO VOLUME            =        168.74 CUBIC ANGSTROMS

          GRADIENT NORM           =          0.04095          =       0.00894 PER ATOM
          IONIZATION POTENTIAL    =          8.906781 EV
          HOMO LUMO ENERGIES (EV) =         -8.907  0.299
          NO. OF FILLED LEVELS    =         24
          MOLECULAR WEIGHT        =        120.1938         POINT GROUP:  C1  

          MOLECULAR DIMENSIONS (Angstroms)

            Atom       Atom       Distance
            H    19    H    17     6.87552
            H    21    H    13     4.86081
            H    14    H    10     3.10175


          SCF CALCULATIONS        =         86

          WALL-CLOCK TIME         =      0.555 SECONDS
          COMPUTATION TIME        =      0.351 SECONDS




   ATOM   CHEMICAL          X               Y               Z
  NUMBER   SYMBOL      (ANGSTROMS)     (ANGSTROMS)     (ANGSTROMS)

     1       C         -0.43487955  *  -0.76198580  *  -0.76093500  *
     2       C          1.60516250  *  -0.05710902  *  -0.37278148  *
     3       C          0.89817701  *  -1.45687983  *  -0.37332535  *
     4       C         -1.68761456  *  -0.90864524  *   0.07672785  *
     5       C          2.36965422  *   0.28482182  *   0.87792348  *
     6       C          0.23942713  *   0.56610022  *  -0.49411318  *
     7       C         -2.44925674  *   0.38184935  *   0.07946681  *
     8       C         -0.40862795  *   1.68650704  *  -0.18305037  *
     9       C         -1.86033038  *   1.57970857  *  -0.06948990  *
    10       H          2.23595754  *   0.10447781  *  -1.27284259  *
    11       H         -0.67673970  *  -0.90586021  *  -1.83684401  *
    12       H          0.88697205  *  -1.95442117  *   0.60836674  *
    13       H          1.28186790  *  -2.17328179  *  -1.11192577  *
    14       H         -1.44678964  *  -1.18512462  *   1.12339162  *
    15       H         -2.32175737  *  -1.72678620  *  -0.31420633  *
    16       H          2.67675708  *   1.33855936  *   0.87747293  *
    17       H          3.27568259  *  -0.32864071  *   0.96265051  *
    18       H          1.77184515  *   0.11716574  *   1.78374819  *
    19       H         -3.53117127  *   0.30553421  *   0.22959938  *
    20       H         -2.43995857  *   2.50782441  *  -0.06564867  *
    21       H          0.08356174  *   2.63138500  *   0.05886409  *

                             CARTESIAN COORDINATES

   1    C       -0.434879548    -0.761985797    -0.760934995
   2    C        1.605162496    -0.057109024    -0.372781483
   3    C        0.898177006    -1.456879833    -0.373325349
   4    C       -1.687614564    -0.908645240     0.076727849
   5    C        2.369654223     0.284821819     0.877923483
   6    C        0.239427134     0.566100220    -0.494113182
   7    C       -2.449256736     0.381849352     0.079466807
   8    C       -0.408627949     1.686507044    -0.183050368
   9    C       -1.860330378     1.579708568    -0.069489898
  10    H        2.235957538     0.104477806    -1.272842592
  11    H       -0.676739699    -0.905860206    -1.836844012
  12    H        0.886972053    -1.954421173     0.608366737
  13    H        1.281867900    -2.173281794    -1.111925768
  14    H       -1.446789641    -1.185124619     1.123391622
  15    H       -2.321757368    -1.726786203    -0.314206331
  16    H        2.676757078     1.338559359     0.877472932
  17    H        3.275682588    -0.328640715     0.962650507
  18    H        1.771845148     0.117165740     1.783748192
  19    H       -3.531171273     0.305534212     0.229599385
  20    H       -2.439958569     2.507824406    -0.065648670
  21    H        0.083561741     2.631384999     0.058864094


           Empirical Formula: C9 H12  =    21 atoms



      MOLECULAR POINT GROUP   :   C1  


                  EIGENVALUES  
 -41.85828 -35.04116 -30.83878 -28.54725 -25.28614 -22.25106 -21.00086 -19.02450
 -17.71527 -17.32866 -16.06615 -15.19403 -14.91011 -14.40259 -13.98156 -13.61067
 -13.19527 -12.63370 -12.44438 -12.12214 -11.75481 -11.31078 -10.90286  -8.90678
   0.29949   2.00434   2.98086   3.24354   3.36705   3.52712   3.69183   3.82532
   3.88205   3.90595   3.95028   4.13774   4.22398   4.37668   4.44939   4.59761
   4.72693   4.80512   4.88408   5.18425   5.21911   5.72405   5.96377   6.34242


              NET ATOMIC CHARGES AND DIPOLE CONTRIBUTIONS

  ATOM NO.   TYPE          CHARGE      No. of ELECS.   s-Pop       p-Pop       
    1          C          -0.070619        4.0706     1.18137     2.88925
    2          C          -0.026582        4.0266     1.17446     2.85212
    3          C          -0.099993        4.1000     1.17991     2.92009
    4          C          -0.045120        4.0451     1.14400     2.90112
    5          C          -0.102512        4.1025     1.13572     2.96679
    6          C          -0.140862        4.1409     1.22130     2.91956
    7          C          -0.140348        4.1403     1.19920     2.94115
    8          C          -0.090908        4.0909     1.16881     2.92210
    9          C          -0.107983        4.1080     1.18079     2.92719
   10          H           0.075779        0.9242     0.92422
   11          H           0.080231        0.9198     0.91977
   12          H           0.063255        0.9367     0.93675
   13          H           0.056048        0.9440     0.94395
   14          H           0.059416        0.9406     0.94058
   15          H           0.054536        0.9455     0.94546
   16          H           0.042417        0.9576     0.95758
   17          H           0.040568        0.9594     0.95943
   18          H           0.044394        0.9556     0.95561
   19          H           0.097210        0.9028     0.90279
   20          H           0.100709        0.8993     0.89929
   21          H           0.110365        0.8896     0.88964
 DIPOLE           X         Y         Z       TOTAL
 POINT-CHG.     0.266    -0.470     0.239     0.591
 HYBRID        -0.077     0.056     0.036     0.102
 SUM            0.189    -0.414     0.275     0.532


          ATOMIC ORBITAL ELECTRON POPULATIONS

     Atom    s        px        py        pz   
    1  C   1.18137   0.93717   0.95292   0.99916
    2  C   1.17446   0.92939   0.94086   0.98187
    3  C   1.17991   0.95370   0.95081   1.01557
    4  C   1.14400   0.95282   0.95278   0.99552
    5  C   1.13572   0.99223   1.00700   0.96756
    6  C   1.22130   0.96791   0.95047   1.00119
    7  C   1.19920   0.98470   0.95042   1.00603
    8  C   1.16881   0.93927   0.97062   1.01221
    9  C   1.18079   0.94621   0.96772   1.01326
   10  H   0.92422
   11  H   0.91977
   12  H   0.93675
   13  H   0.94395
   14  H   0.94058
   15  H   0.94546
   16  H   0.95758
   17  H   0.95943
   18  H   0.95561
   19  H   0.90279
   20  H   0.89929
   21  H   0.88964
 *******************************************************************************
 **                                                                           **
 **                              MOPAC v23.1.2                                **
 **                                                                           **
 *******************************************************************************
 **          Digital Object Identifier (DOI): 10.5281/zenodo.6511958          **
 **    Visit the DOI location for information on how to cite this program.    **
 *******************************************************************************

                              PM3 CALCULATION RESULTS

 *******************************************************************************
 *  CALCULATION DONE: (MAX THREADS = 1)              Tue Jun  3 16:30:41 2025  *
 *  PM3        - The PM3 Hamiltonian to be used
 *  OLDGEO     - PREVIOUS GEOMETRY TO BE USED
 *  PRECISE    - TIGHTER CRITERIA TO BE USED
 *  NOSYM      - POINT-GROUP SYMMETRY SET TO C1
 *  THREADS=1  - MULTI-THREADING NOT USED
 *  T=         - A TIME OF 172800.0 SECONDS REQUESTED
 *  DUMP=N     - RESTART FILE WRITTEN EVERY 7200.0 SECONDS REQUESTED
 *  THERMO     - THERMODYNAMIC QUANTITIES TO BE CALCULATED
 *******************************************************************************
oldgeo thermo nosym precise THREADS=1  pm3
 InChI=1S/C9H12/c1-7-6-8-4-2-3-5-9(7)8/h2-3,5,7-8H,4,6H2,1H3

   ATOM   CHEMICAL          X               Y               Z
  NUMBER   SYMBOL      (ANGSTROMS)     (ANGSTROMS)     (ANGSTROMS)

     1       C         -0.43487955  *  -0.76198580  *  -0.76093500  *
     2       C          1.60516250  *  -0.05710902  *  -0.37278148  *
     3       C          0.89817701  *  -1.45687983  *  -0.37332535  *
     4       C         -1.68761456  *  -0.90864524  *   0.07672785  *
     5       C          2.36965422  *   0.28482182  *   0.87792348  *
     6       C          0.23942713  *   0.56610022  *  -0.49411318  *
     7       C         -2.44925674  *   0.38184935  *   0.07946681  *
     8       C         -0.40862795  *   1.68650704  *  -0.18305037  *
     9       C         -1.86033038  *   1.57970857  *  -0.06948990  *
    10       H          2.23595754  *   0.10447781  *  -1.27284259  *
    11       H         -0.67673970  *  -0.90586021  *  -1.83684401  *
    12       H          0.88697205  *  -1.95442117  *   0.60836674  *
    13       H          1.28186790  *  -2.17328179  *  -1.11192577  *
    14       H         -1.44678964  *  -1.18512462  *   1.12339162  *
    15       H         -2.32175737  *  -1.72678620  *  -0.31420633  *
    16       H          2.67675708  *   1.33855936  *   0.87747293  *
    17       H          3.27568259  *  -0.32864071  *   0.96265051  *
    18       H          1.77184515  *   0.11716574  *   1.78374819  *
    19       H         -3.53117127  *   0.30553421  *   0.22959938  *
    20       H         -2.43995857  *   2.50782441  *  -0.06564867  *
    21       H          0.08356174  *   2.63138500  *   0.05886409  *



          CARTESIAN COORDINATES 

    NO.       ATOM           X           Y           Z

     1         C         -0.4349     -0.7620     -0.7609
     2         C          1.6052     -0.0571     -0.3728
     3         C          0.8982     -1.4569     -0.3733
     4         C         -1.6876     -0.9086      0.0767
     5         C          2.3697      0.2848      0.8779
     6         C          0.2394      0.5661     -0.4941
     7         C         -2.4493      0.3818      0.0795
     8         C         -0.4086      1.6865     -0.1831
     9         C         -1.8603      1.5797     -0.0695
    10         H          2.2360      0.1045     -1.2728
    11         H         -0.6767     -0.9059     -1.8368
    12         H          0.8870     -1.9544      0.6084
    13         H          1.2819     -2.1733     -1.1119
    14         H         -1.4468     -1.1851      1.1234
    15         H         -2.3218     -1.7268     -0.3142
    16         H          2.6768      1.3386      0.8775
    17         H          3.2757     -0.3286      0.9627
    18         H          1.7718      0.1172      1.7837
    19         H         -3.5312      0.3055      0.2296
    20         H         -2.4400      2.5078     -0.0656
    21         H          0.0836      2.6314      0.0589

  H: (PM3): J. J. P. STEWART, J. COMP. CHEM. 10, 209 (1989).
  C: (PM3): J. J. P. STEWART, J. COMP. CHEM. 10, 209 (1989).

           Empirical Formula: C9 H12  =    21 atoms



      MOLECULAR POINT GROUP   :   C1  


      RHF CALCULATION, NO. OF DOUBLY OCCUPIED LEVELS = 24



          HEAT OF FORMATION =      32.780880 KCALS/MOLE


          CARTESIAN COORDINATE DERIVATIVES

   NUMBER  ATOM         X            Y            Z

     1       C      0.007274     0.002649     0.000390
     2       C      0.006633    -0.005955     0.001640
     3       C      0.006799     0.001082     0.004166
     4       C      0.008955     0.008521     0.004746
     5       C     -0.002015    -0.002822    -0.002124
     6       C      0.000673    -0.002988     0.003178
     7       C      0.003618     0.007729     0.002327
     8       C      0.002055     0.001204    -0.008787
     9       C     -0.001417     0.003831    -0.003528
    10       H     -0.009786     0.004227    -0.001116
    11       H     -0.000957     0.001641     0.000603
    12       H      0.003311    -0.008263     0.002134
    13       H     -0.022145    -0.003356    -0.001623
    14       H     -0.007094    -0.006069    -0.004464
    15       H      0.001139    -0.003421    -0.000527
    16       H      0.002762    -0.004000    -0.003923
    17       H     -0.006708     0.005861    -0.002538
    18       H      0.002260    -0.002180    -0.000281
    19       H      0.006441     0.005273     0.005233
    20       H      0.002735    -0.000279     0.002638
    21       H     -0.004532    -0.002687     0.001857



          GRADIENT NORM =   0.04139

          MOLECULAR WEIGHT =  120.19



          ROTATIONAL CONSTANTS IN CM(-1)

          A =    0.10164356   B =    0.04765475   C =    0.03688595



           PRINCIPAL MOMENTS OF INERTIA IN UNITS OF 10**(-40)*GRAM-CM**2

          A =      275.4011   B =      587.4074   C =      758.9001


          ORIENTATION OF MOLECULE IN FORCE CALCULATION

    NO.       ATOM         X         Y         Z

     1          C      -0.6563    0.6351    0.6646
     2          C       1.5367    0.6351    0.6646
     3          C       0.4291    1.7451    0.6646
     4          C      -1.7205    0.5555   -0.4095
     5          C       2.5792    0.7566   -0.4144
     6          C       0.4451   -0.3702    0.4075
     7          C      -2.0137   -0.8793   -0.7269
     8          C       0.2574   -1.5577   -0.1641
     9          C      -1.1072   -1.8603   -0.5858
    10          H       2.0162    0.5084    1.6587
    11          H      -1.1179    0.5104    1.6686
    12          H       0.4325    2.3826   -0.2327
    13          H       0.4250    2.4004    1.5458
    14          H      -1.4001    1.0700   -1.3383
    15          H      -2.6426    1.0711   -0.0805
    16          H       3.2035   -0.1448   -0.4638
    17          H       3.2398    1.6123   -0.2255
    18          H       2.1295    0.8996   -1.4061
    19          H      -3.0181   -1.0964   -1.1050
    20          H      -1.3474   -2.9011   -0.8230
    21          H       1.0618   -2.2601   -0.3946


    FIRST DERIVATIVES WILL BE USED IN THE CALCULATION OF SECOND DERIVATIVES

          ESTIMATED TIME TO COMPLETE CALCULATION =        0.98 SECONDS

    FOR POINT-GROUP C1   THERE ARE   1 UNIQUE SYMMETRY FUNCTIONS.

 STEP:   1 TIME =     0.02 SECS, INTEGRAL =      0.02 TIME LEFT: 172799.98
 STEP:   2 TIME =     0.02 SECS, INTEGRAL =      0.04 TIME LEFT: 172799.96
 STEP:   3 TIME =     0.02 SECS, INTEGRAL =      0.05 TIME LEFT: 172799.94
 STEP:   4 TIME =     0.02 SECS, INTEGRAL =      0.07 TIME LEFT: 172799.92
 STEP:   5 TIME =     0.02 SECS, INTEGRAL =      0.09 TIME LEFT: 172799.90
 STEP:   6 TIME =     0.02 SECS, INTEGRAL =      0.11 TIME LEFT: 172799.88
 STEP:   7 TIME =     0.02 SECS, INTEGRAL =      0.13 TIME LEFT: 172799.87
 STEP:   8 TIME =     0.02 SECS, INTEGRAL =      0.14 TIME LEFT: 172799.85
 STEP:   9 TIME =     0.02 SECS, INTEGRAL =      0.16 TIME LEFT: 172799.83
 STEP:  10 TIME =     0.02 SECS, INTEGRAL =      0.18 TIME LEFT: 172799.81
 STEP:  11 TIME =     0.02 SECS, INTEGRAL =      0.20 TIME LEFT: 172799.79
 STEP:  12 TIME =     0.02 SECS, INTEGRAL =      0.22 TIME LEFT: 172799.77
 STEP:  13 TIME =     0.02 SECS, INTEGRAL =      0.24 TIME LEFT: 172799.76
 STEP:  14 TIME =     0.02 SECS, INTEGRAL =      0.26 TIME LEFT: 172799.74
 STEP:  15 TIME =     0.02 SECS, INTEGRAL =      0.28 TIME LEFT: 172799.72
 STEP:  16 TIME =     0.02 SECS, INTEGRAL =      0.30 TIME LEFT: 172799.70
 STEP:  17 TIME =     0.02 SECS, INTEGRAL =      0.32 TIME LEFT: 172799.68
 STEP:  18 TIME =     0.02 SECS, INTEGRAL =      0.34 TIME LEFT: 172799.66
 STEP:  19 TIME =     0.02 SECS, INTEGRAL =      0.36 TIME LEFT: 172799.64
 STEP:  20 TIME =     0.02 SECS, INTEGRAL =      0.38 TIME LEFT: 172799.62
 STEP:  21 TIME =     0.02 SECS, INTEGRAL =      0.39 TIME LEFT: 172799.60
 STEP:  22 TIME =     0.02 SECS, INTEGRAL =      0.41 TIME LEFT: 172799.58
 STEP:  23 TIME =     0.02 SECS, INTEGRAL =      0.43 TIME LEFT: 172799.57
 STEP:  24 TIME =     0.02 SECS, INTEGRAL =      0.45 TIME LEFT: 172799.55
 STEP:  25 TIME =     0.02 SECS, INTEGRAL =      0.47 TIME LEFT: 172799.53
 STEP:  26 TIME =     0.02 SECS, INTEGRAL =      0.48 TIME LEFT: 172799.51
 STEP:  27 TIME =     0.02 SECS, INTEGRAL =      0.50 TIME LEFT: 172799.49
 STEP:  28 TIME =     0.02 SECS, INTEGRAL =      0.52 TIME LEFT: 172799.47
 STEP:  29 TIME =     0.02 SECS, INTEGRAL =      0.54 TIME LEFT: 172799.45
 STEP:  30 TIME =     0.02 SECS, INTEGRAL =      0.56 TIME LEFT: 172799.44
 STEP:  31 TIME =     0.02 SECS, INTEGRAL =      0.58 TIME LEFT: 172799.42
 STEP:  32 TIME =     0.02 SECS, INTEGRAL =      0.60 TIME LEFT: 172799.39
 STEP:  33 TIME =     0.02 SECS, INTEGRAL =      0.62 TIME LEFT: 172799.38
 STEP:  34 TIME =     0.02 SECS, INTEGRAL =      0.64 TIME LEFT: 172799.36
 STEP:  35 TIME =     0.02 SECS, INTEGRAL =      0.66 TIME LEFT: 172799.34
 STEP:  36 TIME =     0.02 SECS, INTEGRAL =      0.67 TIME LEFT: 172799.32
 STEP:  37 TIME =     0.02 SECS, INTEGRAL =      0.69 TIME LEFT: 172799.30
 STEP:  38 TIME =     0.02 SECS, INTEGRAL =      0.71 TIME LEFT: 172799.29
 STEP:  39 TIME =     0.02 SECS, INTEGRAL =      0.73 TIME LEFT: 172799.27
 STEP:  40 TIME =     0.02 SECS, INTEGRAL =      0.75 TIME LEFT: 172799.25
 STEP:  41 TIME =     0.02 SECS, INTEGRAL =      0.77 TIME LEFT: 172799.23
 STEP:  42 TIME =     0.02 SECS, INTEGRAL =      0.79 TIME LEFT: 172799.21
 STEP:  43 TIME =     0.02 SECS, INTEGRAL =      0.80 TIME LEFT: 172799.20
 STEP:  44 TIME =     0.02 SECS, INTEGRAL =      0.82 TIME LEFT: 172799.18
 STEP:  45 TIME =     0.02 SECS, INTEGRAL =      0.84 TIME LEFT: 172799.16
 STEP:  46 TIME =     0.02 SECS, INTEGRAL =      0.86 TIME LEFT: 172799.14
 STEP:  47 TIME =     0.02 SECS, INTEGRAL =      0.88 TIME LEFT: 172799.12
 STEP:  48 TIME =     0.02 SECS, INTEGRAL =      0.90 TIME LEFT: 172799.10
 STEP:  49 TIME =     0.02 SECS, INTEGRAL =      0.92 TIME LEFT: 172799.08
 STEP:  50 TIME =     0.02 SECS, INTEGRAL =      0.94 TIME LEFT: 172799.06
 STEP:  51 TIME =     0.02 SECS, INTEGRAL =      0.96 TIME LEFT: 172799.04
 STEP:  52 TIME =     0.02 SECS, INTEGRAL =      0.98 TIME LEFT: 172799.02
 STEP:  53 TIME =     0.02 SECS, INTEGRAL =      1.00 TIME LEFT: 172799.00
 STEP:  54 TIME =     0.02 SECS, INTEGRAL =      1.02 TIME LEFT: 172798.98
 STEP:  55 TIME =     0.02 SECS, INTEGRAL =      1.04 TIME LEFT: 172798.96
 STEP:  56 TIME =     0.02 SECS, INTEGRAL =      1.05 TIME LEFT: 172798.94
 STEP:  57 TIME =     0.02 SECS, INTEGRAL =      1.07 TIME LEFT: 172798.92
 STEP:  58 TIME =     0.02 SECS, INTEGRAL =      1.09 TIME LEFT: 172798.91
 STEP:  59 TIME =     0.02 SECS, INTEGRAL =      1.11 TIME LEFT: 172798.89
 STEP:  60 TIME =     0.02 SECS, INTEGRAL =      1.13 TIME LEFT: 172798.86
 STEP:  61 TIME =     0.02 SECS, INTEGRAL =      1.15 TIME LEFT: 172798.84
 STEP:  62 TIME =     0.02 SECS, INTEGRAL =      1.17 TIME LEFT: 172798.82
 STEP:  63 TIME =     0.02 SECS, INTEGRAL =      1.19 TIME LEFT: 172798.80

(To convert to Hartree/Bohr^2, multiply by (10^(-21) x N x a0^2)/(4.184 x 627.51) =  0.0642)


           FORCE MATRIX IN MILLIDYNES/ANGSTROM


                  C  1       C  2       C  3       C  4       C  5       C  6
 ------------------------------------------------------------------------------
     C    1  14.806441
     C    2   1.844337  14.660732
     C    3   3.326710   2.956766  14.025312
     C    4   4.329227   0.047603   0.429733  14.612673
     C    5   0.045589   4.613029   0.516785   0.008190  14.508683
     C    6   4.166855   4.324229   2.015246   0.671992   0.594379  19.489401
     C    7   0.726939   0.013477   0.046170   4.597005   0.002908   0.169570
     C    8   0.711583   0.464671   0.045045   0.111781   0.020600  10.521073
     C    9   0.133176   0.139620   0.007297   0.796456   0.017914   1.271483
     H   10   0.031577   4.399589   0.428116   0.002197   0.428085   0.419596
     H   11   4.369617   0.030859   0.430831   0.428149   0.001911   0.425427
     H   12   0.453410   0.452015   4.681822   0.015660   0.022610   0.031602
     H   13   0.436261   0.431755   4.759808   0.029158   0.029543   0.039238
     H   14   0.454877   0.005444   0.018838   4.405652   0.000952   0.017141
     H   15   0.441396   0.008685   0.008787   4.500272   0.001610   0.045972
     H   16   0.003027   0.455060   0.046397   0.001175   4.746989   0.014042
     H   17   0.006082   0.451511   0.010423   0.001449   4.748198   0.049690
     H   18   0.003080   0.468571   0.019813   0.000856   4.729863   0.014421
     H   19   0.045163   0.008818   0.006870   0.426890   0.001550   0.016267
     H   20   0.006791   0.009044   0.001047   0.120906   0.000978   0.048980
     H   21   0.119750   0.067903   0.007855   0.012976   0.010304   0.464473


                  C  7       C  8       C  9       H 10       H 11       H 12
 ------------------------------------------------------------------------------
     C    7  17.650390
     C    8   1.078190  18.369300
     C    9  10.092216   5.348883  18.074238
     H   10   0.001822   0.023036   0.017419   4.897590
     H   11   0.012887   0.023077   0.017075   0.003453   4.857460
     H   12   0.003149   0.002964   0.001322   0.034603   0.034926   5.303063
     H   13   0.005528   0.004824   0.001592   0.023748   0.027819   0.536183
     H   14   0.413545   0.020086   0.032286   0.000386   0.042542   0.021910
     H   15   0.442211   0.010393   0.047368   0.000537   0.034725   0.001215
     H   16   0.000640   0.002592   0.001046   0.027798   0.000541   0.003199
     H   17   0.000588   0.002738   0.003276   0.028874   0.000563   0.003354
     H   18   0.000493   0.003182   0.000739   0.045083   0.000484   0.020221
     H   19   4.849255   0.123389   0.441956   0.000890   0.003515   0.000567
     H   20   0.444110   0.431360   4.868772   0.001450   0.000701   0.000243
     H   21   0.045485   4.920453   0.435264   0.009044   0.015985   0.000470


                  H 13       H 14       H 15       H 16       H 17       H 18
 ------------------------------------------------------------------------------
     H   13   5.369971
     H   14   0.001929   5.009854
     H   15   0.000748   0.568837   5.092445
     H   16   0.005220   0.000124   0.000119   5.471570
     H   17   0.001760   0.000154   0.000360   0.564615   5.471330
     H   18   0.001502   0.001505   0.000127   0.573457   0.571040   5.462349
     H   19   0.001282   0.014437   0.035098   0.000248   0.000383   0.000216
     H   20   0.000287   0.017179   0.012250   0.000216   0.000207   0.000245
     H   21   0.001193   0.000893   0.001635   0.005026   0.002164   0.000652


                  H 19       H 20       H 21
 ------------------------------------------
     H   19   5.220936
     H   20   0.067452   5.238826
     H   21   0.008681   0.024440   5.298205


          HEAT OF FORMATION =      32.780880 KCALS/MOLE

          ZERO POINT ENERGY     115.442 KCAL/MOL


           NORMAL COORDINATE ANALYSIS (Total motion = 1 Angstrom)


   Root No.       1         2         3         4         5         6         7         8

                 1 A       2 A       3 A       4 A       5 A       6 A       7 A       8 A   

                 112.8     148.1     152.8     241.2     347.7     394.9     450.6     454.1
  
           1    0.0006    0.0018    0.0046    0.0097   -0.0021    0.0075    0.0126    0.0080
           2    0.0027   -0.0034   -0.0060   -0.0079    0.0190    0.0285   -0.0177   -0.0221
           3   -0.0037   -0.0141   -0.0107   -0.0059   -0.0317   -0.0287   -0.0299   -0.0199
           4   -0.0014    0.0011    0.0034    0.0074    0.0039    0.0074    0.0026   -0.0034
           5    0.0044   -0.0012   -0.0073   -0.0068    0.0037   -0.0285   -0.0020    0.0212
           6   -0.0012   -0.0037   -0.0012   -0.0140   -0.0060    0.0308    0.0377    0.0019
           7   -0.0009   -0.0004    0.0037    0.0066    0.0105    0.0402   -0.0050   -0.0288
           8    0.0055   -0.0025   -0.0074   -0.0082    0.0145    0.0007   -0.0106   -0.0004
           9   -0.0399    0.0103    0.0094   -0.0139    0.0454   -0.0082   -0.0138    0.0007
          10   -0.0323    0.0103    0.0109   -0.0161   -0.0334   -0.0145   -0.0134    0.0000
          11   -0.0089   -0.0014    0.0026    0.0029   -0.0027   -0.0040    0.0177    0.0154
          12    0.0304   -0.0224   -0.0170    0.0201   -0.0030   -0.0055   -0.0037   -0.0018
          13    0.0420    0.0152    0.0133    0.0188    0.0110   -0.0273   -0.0329   -0.0022
          14   -0.0113    0.0250    0.0284    0.0433   -0.0240    0.0188   -0.0034   -0.0092
          15    0.0406    0.0134    0.0131    0.0023   -0.0032    0.0039    0.0095    0.0007
          16    0.0006    0.0041    0.0048    0.0060   -0.0025   -0.0114    0.0247    0.0234
          17    0.0057    0.0003   -0.0052   -0.0109    0.0255   -0.0022   -0.0116   -0.0073
          18   -0.0155   -0.0226   -0.0193   -0.0090   -0.0387    0.0098   -0.0100   -0.0181
          19   -0.0166   -0.0145   -0.0155    0.0050    0.0034   -0.0102    0.0096   -0.0111
          20   -0.0095   -0.0069    0.0000    0.0120   -0.0137   -0.0146    0.0181    0.0142
          21    0.0209    0.0213    0.0170   -0.0333   -0.0058    0.0251   -0.0096    0.0344
          22    0.0034   -0.0047   -0.0084   -0.0206    0.0043   -0.0016    0.0236    0.0098
          23    0.0119   -0.0032   -0.0060   -0.0322    0.0029   -0.0025   -0.0038   -0.0279
          24   -0.0290   -0.0124   -0.0138    0.0436    0.0094    0.0067   -0.0225    0.0255
          25    0.0009   -0.0156   -0.0193   -0.0160    0.0074    0.0118   -0.0006    0.0119
          26    0.0021   -0.0080   -0.0037   -0.0021   -0.0078   -0.0022    0.0149    0.0245
          27   -0.0128    0.0228    0.0158    0.0053    0.0133   -0.0309    0.0370   -0.0291
          28   -0.0371   -0.0087   -0.0043    0.0028    0.0043    0.0126   -0.0044   -0.0072
          29    0.0125   -0.0226   -0.0226   -0.0141   -0.0341   -0.0464    0.0100    0.0425
          30    0.0178   -0.0012    0.0008   -0.0122   -0.0105    0.0242    0.0407    0.0063
          31    0.0298   -0.0063   -0.0017    0.0283    0.0022    0.0055    0.0209    0.0163
          32    0.0119   -0.0177   -0.0187   -0.0122   -0.0139    0.0619   -0.0375   -0.0692
          33    0.0111   -0.0195   -0.0150    0.0029   -0.0318   -0.0242   -0.0273   -0.0205
          34   -0.0003    0.0020    0.0095    0.0028    0.0300    0.0916    0.0203   -0.0388
          35   -0.0286    0.0145    0.0044   -0.0129    0.0823   -0.0080   -0.0348    0.0098
          36   -0.0643    0.0224    0.0179   -0.0177    0.0963   -0.0147   -0.0323    0.0081
          37   -0.0020   -0.0058    0.0000    0.0096    0.0031    0.0306   -0.0460   -0.0573
          38    0.0385   -0.0188   -0.0193   -0.0023   -0.0562    0.0108    0.0150   -0.0100
          39   -0.0647    0.0226    0.0183   -0.0183    0.0992   -0.0160   -0.0337    0.0080
          40   -0.0745    0.0344    0.0326   -0.0630   -0.0948   -0.0431   -0.0724    0.0093
          41    0.0089   -0.0372   -0.0267    0.0559    0.0288   -0.0253    0.0710   -0.0175
          42    0.0257   -0.0339   -0.0257    0.0337   -0.0052   -0.0268    0.0069   -0.0176
          43   -0.0320    0.0201    0.0215   -0.0224   -0.0454   -0.0116   -0.0144    0.0226
          44   -0.0315    0.0315    0.0335   -0.0410   -0.0523   -0.0042   -0.0237    0.0571
          45    0.0674   -0.0477   -0.0364    0.0736    0.0435    0.0036    0.0625   -0.0052
          46    0.0369   -0.0658    0.1330    0.0349    0.0036   -0.0034   -0.0403   -0.0237
          47   -0.0167   -0.0258    0.1065    0.0566   -0.0316    0.0398   -0.0066   -0.0259
          48    0.0732   -0.0831    0.1058   -0.0263    0.0286   -0.0550   -0.0176    0.0227
          49    0.0415    0.0920   -0.1036    0.0023    0.0175   -0.0472   -0.0233    0.0183
          50   -0.0155   -0.0554    0.1314    0.0467   -0.0247    0.0328   -0.0045   -0.0207
          51    0.0619    0.1102   -0.0435    0.0478   -0.0249    0.0111   -0.0228   -0.0224
          52    0.0843    0.0329    0.0184    0.0316    0.0179   -0.0691   -0.0789   -0.0013
          53   -0.0148    0.1752   -0.1153    0.0787   -0.0514    0.0436   -0.0054   -0.0249
          54    0.0211    0.0270   -0.0097    0.0017   -0.0098    0.0254    0.0289   -0.0019
          55   -0.0216   -0.0265   -0.0266    0.0270    0.0123   -0.0226    0.0121   -0.0264
          56   -0.0199   -0.0091    0.0023    0.0275   -0.0306   -0.0290    0.0050    0.0036
          57    0.0398    0.0551    0.0458   -0.1019   -0.0205    0.0659   -0.0093    0.0813
          58    0.0109   -0.0260   -0.0318   -0.0249    0.0136    0.0305   -0.0341    0.0127
          59    0.0025   -0.0131   -0.0068    0.0048   -0.0122    0.0040    0.0045    0.0408
          60   -0.0247    0.0563    0.0422   -0.0172    0.0257   -0.0778    0.1159   -0.1034
          61    0.0068   -0.0103   -0.0175   -0.0388    0.0056    0.0049    0.0068   -0.0148
          62    0.0205   -0.0069   -0.0134   -0.0682   -0.0093   -0.0088   -0.0131   -0.0840
          63   -0.0438   -0.0202   -0.0221    0.0897    0.0516    0.0479   -0.0515    0.1117


   Root No.       9        10        11        12        13        14        15        16

                 9 A      10 A      11 A      12 A      13 A      14 A      15 A      16 A   

                 516.8     555.1     681.6     752.2     789.2     858.4     890.0     915.7
  
           1   -0.0268   -0.0297    0.0191   -0.0070    0.0120    0.0166   -0.0012   -0.0027
           2    0.0175   -0.0156    0.0097   -0.0017   -0.0017   -0.0064    0.0116   -0.0086
           3    0.0136   -0.0141   -0.0230    0.0152    0.0052   -0.0146   -0.0065   -0.0008
           4   -0.0398    0.0195   -0.0148    0.0113   -0.0271   -0.0018    0.0103   -0.0090
           5   -0.0380   -0.0173    0.0174    0.0026   -0.0053   -0.0299   -0.0109    0.0121
           6   -0.0347   -0.0151   -0.0145    0.0082   -0.0230   -0.0086    0.0088   -0.0080
           7   -0.0072   -0.0073   -0.0035   -0.0034    0.0178   -0.0282   -0.0219    0.0189
           8   -0.0105   -0.0400    0.0189   -0.0053    0.0190    0.0022    0.0022   -0.0269
           9   -0.0094    0.0015   -0.0002    0.0057   -0.0075   -0.0114   -0.0150    0.0001
          10   -0.0020   -0.0393    0.0123    0.0086    0.0036    0.0382   -0.0077    0.0131
          11    0.0460    0.0126    0.0079    0.0034   -0.0259   -0.0128   -0.0009    0.0010
          12    0.0031   -0.0259   -0.0045   -0.0084    0.0107   -0.0028    0.0212   -0.0102
          13   -0.0093    0.0329   -0.0004    0.0097   -0.0220   -0.0058    0.0138   -0.0192
          14   -0.0014    0.0045    0.0039    0.0017   -0.0044   -0.0179   -0.0081    0.0100
          15    0.0061   -0.0185    0.0017   -0.0055    0.0092    0.0008   -0.0023    0.0009
          16   -0.0430    0.0005   -0.0012   -0.0050    0.0030   -0.0010   -0.0024   -0.0020
          17   -0.0065   -0.0089   -0.0357    0.0105   -0.0117    0.0201   -0.0047    0.0021
          18   -0.0296    0.0565    0.0425   -0.0021    0.0049    0.0017    0.0084    0.0105
          19    0.0589   -0.0174    0.0163    0.0103   -0.0337   -0.0015    0.0087    0.0005
          20    0.0246    0.0064    0.0043   -0.0013   -0.0033    0.0006    0.0035   -0.0018
          21    0.0308    0.0014    0.0081   -0.0215   -0.0285    0.0048    0.0085    0.0187
          22    0.0327    0.0207   -0.0082   -0.0125    0.0279   -0.0137    0.0020   -0.0029
          23   -0.0291    0.0160   -0.0197    0.0093   -0.0093    0.0326    0.0070    0.0264
          24   -0.0022    0.0116   -0.0096   -0.0001   -0.0010    0.0120   -0.0262   -0.0319
          25    0.0335    0.0179   -0.0101    0.0007    0.0129    0.0016    0.0007   -0.0031
          26   -0.0062    0.0394   -0.0223   -0.0098    0.0447    0.0082   -0.0067   -0.0052
          27    0.0119    0.0086   -0.0134   -0.0308   -0.0012    0.0072   -0.0083    0.0084
          28   -0.0605    0.0533   -0.0018    0.0192   -0.0355   -0.0201    0.0046    0.0310
          29   -0.0853    0.0081    0.0694    0.0041   -0.0122   -0.0636    0.0347    0.0461
          30   -0.0292   -0.0276   -0.0128    0.0037   -0.0177   -0.0047    0.0160   -0.0211
          31   -0.0238   -0.0732   -0.0058   -0.0085    0.0413    0.0149    0.0117   -0.0318
          32    0.0164    0.0063    0.0556   -0.0180    0.0273   -0.0466    0.0562   -0.0117
          33    0.0138   -0.0313   -0.0273    0.0122    0.0219   -0.0183    0.0064   -0.0147
          34   -0.0150   -0.0099   -0.0021   -0.0160    0.0116   -0.0377   -0.0011    0.0078
          35   -0.0157   -0.0150    0.0919   -0.0447    0.0698    0.0265    0.0683   -0.0359
          36   -0.0139    0.0208    0.0541   -0.0238    0.0307    0.0078    0.0354   -0.0071
          37    0.0398   -0.0069   -0.0156   -0.0003    0.0622   -0.0556   -0.0687    0.0557
          38   -0.0053   -0.0706   -0.0447    0.0314   -0.0266   -0.0320   -0.0614   -0.0248
          39   -0.0135    0.0246    0.0512   -0.0234    0.0290    0.0132    0.0350   -0.0017
          40    0.0055   -0.0543   -0.0695   -0.0175    0.0406   -0.0424    0.0447   -0.0432
          41    0.0570    0.0164    0.0582    0.0779   -0.0379    0.0380   -0.0529    0.0267
          42    0.0117   -0.0281   -0.0028    0.0260    0.0166   -0.0005    0.0085   -0.0141
          43   -0.0227   -0.0383    0.0074   -0.0148    0.0185    0.0534   -0.0027    0.0129
          44    0.0230    0.0102   -0.0434   -0.0584    0.0038   -0.0492    0.0418   -0.0294
          45   -0.0180   -0.0172    0.0697    0.0267    0.0010    0.1002   -0.0349    0.0405
          46    0.0192    0.0538   -0.0103    0.0072   -0.0111    0.0546    0.0495   -0.0566
          47    0.0186    0.0196   -0.0051    0.0003    0.0022    0.0283    0.0215   -0.0222
          48    0.0099   -0.0292    0.0342   -0.0141    0.0361   -0.0492   -0.0685    0.0915
          49   -0.0440    0.0160    0.0060    0.0170   -0.0457   -0.0688   -0.0106    0.0026
          50    0.0122    0.0123   -0.0038    0.0000    0.0010    0.0156    0.0125   -0.0136
          51    0.0696    0.0112    0.0169   -0.0235    0.0711    0.0755   -0.0065    0.0322
          52    0.0364    0.0505    0.0358   -0.0056    0.0321    0.0002   -0.0363    0.0670
          53    0.0194    0.0209    0.0014   -0.0024    0.0106    0.0261    0.0138   -0.0070
          54   -0.0111   -0.0233   -0.0140    0.0005   -0.0119    0.0046    0.0225   -0.0384
          55    0.0501   -0.0193   -0.0093   -0.0708   -0.0486   -0.0116    0.0333    0.0291
          56    0.0066   -0.0423    0.0178   -0.0299   -0.0338    0.0272    0.0262    0.0274
          57    0.0636    0.0344    0.0671    0.2105    0.0287    0.0182   -0.0692   -0.0734
          58   -0.0081    0.0279   -0.0421   -0.0481   -0.0045    0.0510   -0.0347    0.0224
          59    0.0018    0.0334   -0.0186   -0.0417    0.0213    0.0078   -0.0181   -0.0040
          60    0.0210    0.0238    0.0015    0.1593    0.1206   -0.0370    0.0782   -0.0216
          61    0.0573    0.0264   -0.0055   -0.0138    0.0057    0.0104   -0.0167   -0.0211
          62   -0.0069    0.0365    0.0072   -0.0298   -0.0502    0.0591   -0.0597   -0.0601
          63    0.0200   -0.0295   -0.0854    0.1164    0.0459    0.0209    0.1133    0.1733


   Root No.      17        18        19        20        21        22        23        24

                17 A      18 A      19 A      20 A      21 A      22 A      23 A      24 A   

                 926.5     950.6     966.9     980.2    1012.7    1035.6    1044.7    1055.4
  
           1    0.0060    0.0090    0.0047    0.0031   -0.0035   -0.0155    0.0039    0.0073
           2    0.0181   -0.0073   -0.0117   -0.0003    0.0150   -0.0105    0.0157    0.0076
           3    0.0058   -0.0162    0.0048   -0.0004    0.0035    0.0090    0.0021    0.0051
           4   -0.0014   -0.0035    0.0022   -0.0003    0.0108   -0.0054    0.0064    0.0075
           5   -0.0106   -0.0011    0.0014    0.0013    0.0026    0.0120    0.0042   -0.0104
           6    0.0041   -0.0002   -0.0037   -0.0058    0.0040    0.0044    0.0058   -0.0017
           7   -0.0191    0.0015    0.0113    0.0024   -0.0065    0.0146   -0.0080   -0.0142
           8    0.0335    0.0031    0.0223   -0.0052   -0.0198    0.0031   -0.0208    0.0019
           9    0.0377    0.0099    0.0013   -0.0003    0.0028   -0.0030    0.0084   -0.0059
          10    0.0065   -0.0115   -0.0230    0.0077   -0.0007    0.0136    0.0060    0.0002
          11   -0.0070    0.0084    0.0219   -0.0015   -0.0184   -0.0015    0.0224    0.0224
          12   -0.0146    0.0138   -0.0103   -0.0067    0.0019   -0.0135    0.0051   -0.0097
          13    0.0129   -0.0107   -0.0061    0.0059   -0.0186    0.0055   -0.0048   -0.0081
          14   -0.0076    0.0005   -0.0215    0.0054   -0.0127   -0.0117   -0.0083    0.0064
          15   -0.0161   -0.0113    0.0055    0.0110   -0.0005   -0.0048   -0.0013    0.0022
          16   -0.0002   -0.0027    0.0139   -0.0061    0.0231   -0.0099   -0.0021    0.0221
          17   -0.0165    0.0030   -0.0023    0.0025    0.0100    0.0037    0.0019   -0.0035
          18    0.0103    0.0079    0.0098   -0.0015   -0.0185   -0.0096   -0.0182    0.0005
          19   -0.0123    0.0043    0.0042   -0.0077    0.0177   -0.0190   -0.0273   -0.0137
          20   -0.0026   -0.0007   -0.0066   -0.0006    0.0120   -0.0057   -0.0176   -0.0173
          21    0.0076    0.0045   -0.0021    0.0209    0.0087    0.0242   -0.0177    0.0157
          22    0.0161   -0.0081   -0.0071   -0.0006   -0.0110    0.0093    0.0183   -0.0139
          23   -0.0154    0.0065    0.0072   -0.0036   -0.0006   -0.0114   -0.0140    0.0036
          24   -0.0202    0.0115   -0.0058    0.0130    0.0123    0.0076    0.0040    0.0047
          25   -0.0004    0.0045   -0.0029    0.0073    0.0025    0.0003   -0.0045    0.0092
          26    0.0102   -0.0093   -0.0173    0.0049    0.0108    0.0048   -0.0166   -0.0001
          27    0.0037   -0.0206    0.0008   -0.0274   -0.0109   -0.0136    0.0017   -0.0126
          28    0.0207    0.0411    0.0062   -0.0392    0.0597   -0.0054    0.0427    0.0086
          29   -0.0489   -0.0260    0.0754   -0.0144    0.0727    0.0965    0.1057   -0.0900
          30   -0.0135   -0.0253    0.0050    0.0116   -0.0095    0.0149    0.0013   -0.0123
          31   -0.0358    0.0386    0.0314   -0.0286   -0.0324   -0.0192   -0.0282    0.0223
          32    0.0239   -0.0744   -0.1168   -0.0201    0.0819   -0.0415    0.1310    0.0614
          33   -0.0132   -0.0096    0.0026   -0.0177   -0.0024    0.0030    0.0020    0.0177
          34   -0.0284    0.0719   -0.0885   -0.1028   -0.0412    0.1141   -0.0452   -0.0415
          35   -0.0824   -0.0374    0.0210   -0.0085   -0.0268    0.0154   -0.0364    0.0169
          36   -0.0498   -0.0205    0.0002   -0.0029   -0.0021    0.0061   -0.0035    0.0048
          37   -0.0295   -0.0764    0.1235    0.1004    0.0247   -0.0434   -0.0036   -0.0072
          38    0.1575    0.0400    0.0280   -0.0068   -0.0201   -0.0022   -0.0059   -0.0103
          39   -0.0585   -0.0203   -0.0026    0.0011    0.0035    0.0014   -0.0019    0.0035
          40   -0.0661    0.0164   -0.0025   -0.0706   -0.0239    0.0394   -0.0096    0.0541
          41   -0.0085   -0.0483    0.0121   -0.0366   -0.0642    0.1122    0.0394    0.1214
          42   -0.0390   -0.0094   -0.0095   -0.0522   -0.0313    0.0595    0.0087    0.0630
          43    0.0003    0.0239   -0.0202    0.0348   -0.0461   -0.0342    0.0823   -0.0336
          44   -0.0420    0.0807    0.0457    0.0115   -0.0724   -0.0862    0.1139   -0.0184
          45    0.0259   -0.0034   -0.0401    0.0511   -0.0416   -0.0118    0.0794   -0.0390
          46    0.0455   -0.0112    0.0631   -0.0148    0.0137    0.0498    0.0210   -0.0359
          47    0.0156   -0.0045    0.0329   -0.0074    0.0096    0.0234    0.0106   -0.0165
          48   -0.0341    0.0502   -0.0610   -0.0121    0.0165   -0.0548   -0.0092    0.0454
          49   -0.0094   -0.0187   -0.0779    0.0294   -0.0647   -0.0323   -0.0330    0.0114
          50    0.0031   -0.0070    0.0193    0.0004    0.0036    0.0120    0.0049   -0.0090
          51    0.0199    0.0569    0.0814   -0.0569    0.0952    0.0283    0.0439   -0.0019
          52    0.0396    0.0887   -0.0171   -0.0655    0.0477   -0.0018    0.0181    0.0132
          53    0.0120    0.0061    0.0329   -0.0143    0.0209    0.0215    0.0150   -0.0130
          54   -0.0251   -0.0534    0.0184    0.0391   -0.0237    0.0025   -0.0076   -0.0093
          55    0.0101    0.0181    0.0103    0.0269    0.0161    0.0097   -0.0388    0.0297
          56    0.0044    0.0105   -0.0409    0.0365    0.0181    0.0288    0.0089   -0.0778
          57   -0.0579   -0.0372    0.0019   -0.0930    0.0091   -0.0743   -0.0036   -0.0627
          58   -0.0210   -0.0150    0.0228   -0.0379   -0.0586   -0.0310    0.0665    0.0997
          59    0.0168   -0.0322   -0.0205   -0.0173    0.0177    0.0016   -0.0344   -0.0386
          60   -0.0044    0.0991   -0.0159    0.1176    0.0242    0.0334    0.0009    0.0579
          61   -0.0230    0.0271   -0.0168    0.0290   -0.0597    0.0316    0.0718   -0.0771
          62   -0.0781    0.0571   -0.0111    0.0417   -0.0271    0.0217    0.0431   -0.0532
          63    0.0309   -0.0184    0.0161   -0.0212   -0.0780   -0.0167    0.0112   -0.0461


   Root No.      25        26        27        28        29        30        31        32

                25 A      26 A      27 A      28 A      29 A      30 A      31 A      32 A   

                1086.9    1113.6    1134.0    1139.0    1148.4    1154.1    1188.8    1195.8
  
           1    0.0070    0.0136   -0.0043   -0.0242    0.0045   -0.0012    0.0026   -0.0118
           2    0.0042    0.0323   -0.0164    0.0094   -0.0067    0.0085    0.0219    0.0198
           3   -0.0063    0.0023    0.0426    0.0095   -0.0119    0.0208    0.0118   -0.0146
           4    0.0157    0.0030    0.0122    0.0155   -0.0031   -0.0043   -0.0025   -0.0083
           5   -0.0098   -0.0268    0.0072   -0.0171    0.0117    0.0018   -0.0319    0.0225
           6    0.0081    0.0051    0.0049    0.0174   -0.0495   -0.0152   -0.0238   -0.0012
           7   -0.0098   -0.0140    0.0055   -0.0093    0.0054   -0.0042   -0.0383   -0.0144
           8    0.0073   -0.0108    0.0104    0.0225    0.0002   -0.0060    0.0002   -0.0225
           9   -0.0056    0.0023   -0.0192   -0.0240    0.0123    0.0004    0.0046    0.0050
          10   -0.0063    0.0107   -0.0025    0.0061   -0.0008   -0.0066    0.0005   -0.0002
          11   -0.0030   -0.0000    0.0112   -0.0021   -0.0038    0.0101    0.0065   -0.0037
          12   -0.0040   -0.0095   -0.0285    0.0061    0.0069   -0.0141    0.0025   -0.0060
          13   -0.0080    0.0036   -0.0065   -0.0041   -0.0019   -0.0006   -0.0024    0.0033
          14    0.0052    0.0125   -0.0030    0.0072   -0.0087   -0.0020    0.0072   -0.0068
          15    0.0008    0.0027    0.0026    0.0012    0.0501    0.0081    0.0073    0.0006
          16    0.0034   -0.0373    0.0035   -0.0055   -0.0044    0.0185    0.0465    0.0007
          17   -0.0004   -0.0053    0.0057    0.0067   -0.0007   -0.0057   -0.0025    0.0106
          18    0.0032   -0.0046   -0.0051   -0.0034    0.0025    0.0029    0.0011    0.0136
          19   -0.0109   -0.0026   -0.0008   -0.0039    0.0030   -0.0060   -0.0043   -0.0022
          20    0.0023   -0.0008   -0.0026   -0.0059    0.0017    0.0027   -0.0049   -0.0154
          21    0.0027   -0.0006    0.0016   -0.0047    0.0014   -0.0023   -0.0034   -0.0009
          22    0.0188   -0.0088    0.0029    0.0145   -0.0046    0.0085   -0.0001    0.0174
          23   -0.0046   -0.0086   -0.0036   -0.0091    0.0025   -0.0005    0.0092    0.0090
          24    0.0004   -0.0040   -0.0003    0.0011   -0.0022    0.0024    0.0034    0.0042
          25   -0.0141    0.0077   -0.0021    0.0026    0.0017   -0.0059   -0.0066    0.0055
          26   -0.0092    0.0186   -0.0041   -0.0053    0.0034   -0.0097   -0.0073   -0.0092
          27   -0.0014    0.0070   -0.0033    0.0003    0.0007   -0.0028   -0.0041   -0.0014
          28    0.0708    0.0853    0.0485    0.1360    0.2339   -0.0119   -0.0579   -0.0047
          29   -0.0524    0.1752   -0.0698   -0.0055   -0.0115   -0.0141    0.0706   -0.0693
          30   -0.0240   -0.0103   -0.0226   -0.0403   -0.1697   -0.0135    0.0162   -0.0145
          31    0.0476    0.1871    0.0475   -0.1070   -0.0366    0.0959   -0.0629    0.1340
          32    0.0020   -0.1093    0.0440   -0.1169    0.0256   -0.0066   -0.0309   -0.0215
          33    0.0116    0.0679    0.0751   -0.0439   -0.0276    0.0646   -0.0255    0.0495
          34   -0.0924   -0.0226    0.0335    0.0276    0.0264    0.0667    0.1810    0.0383
          35    0.0186   -0.0101    0.0613    0.0672   -0.0450   -0.0019   -0.0100   -0.0428
          36    0.0026    0.0033    0.0200    0.0096   -0.0236    0.0039   -0.0024   -0.0099
          37    0.0345   -0.0106   -0.0793    0.0523   -0.0696   -0.0385    0.0885    0.0747
          38   -0.0045   -0.0124   -0.0371   -0.0255    0.0418   -0.0083    0.0130   -0.0203
          39    0.0032    0.0045    0.0173    0.0113   -0.0221    0.0028   -0.0048    0.0033
          40    0.0444   -0.0162   -0.1089   -0.0121    0.0351   -0.0850   -0.0142    0.0331
          41    0.0407   -0.0208   -0.0223    0.0003    0.0128   -0.0504    0.0011    0.0423
          42    0.0368   -0.0295   -0.0826    0.0020    0.0281   -0.0745   -0.0052    0.0302
          43   -0.0607   -0.0070    0.0404    0.0393   -0.0022   -0.0529    0.0011    0.0462
          44   -0.0601   -0.0438    0.0393    0.0346    0.0008   -0.0454    0.0115    0.0456
          45   -0.0663   -0.0001    0.0480    0.0471   -0.0051   -0.0523   -0.0011    0.0453
          46   -0.0274   -0.0258   -0.0027   -0.0218   -0.0078   -0.0037   -0.0366    0.0229
          47   -0.0121   -0.0107   -0.0008   -0.0089   -0.0067   -0.0025   -0.0172    0.0090
          48    0.0453    0.0276    0.0105    0.0350   -0.0265   -0.0070    0.0224   -0.0293
          49    0.0051    0.0420   -0.0175    0.0191   -0.0192   -0.0065    0.0129   -0.0116
          50   -0.0073   -0.0069    0.0006   -0.0084    0.0157    0.0035   -0.0019    0.0038
          51    0.0108   -0.0413    0.0255   -0.0059   -0.0076   -0.0007   -0.0178    0.0066
          52    0.0269    0.0055    0.0056    0.0270   -0.1582   -0.0337   -0.0314   -0.0100
          53   -0.0075   -0.0089    0.0016   -0.0071   -0.0112   -0.0031   -0.0145    0.0045
          54   -0.0152   -0.0010   -0.0013   -0.0137    0.1200    0.0225    0.0168    0.0076
          55   -0.0237    0.0244    0.0298   -0.0298    0.0107   -0.0565    0.0104   -0.0154
          56    0.0685   -0.1003   -0.1056    0.0867   -0.0296    0.1959   -0.0687    0.0476
          57   -0.0073   -0.0130   -0.0210    0.0099    0.0002    0.0154   -0.0071   -0.0041
          58   -0.0950    0.0307   -0.1071    0.0277   -0.0102    0.1414   -0.0823   -0.1171
          59    0.0172    0.0144    0.0246   -0.0127    0.0067   -0.0517    0.0129    0.0251
          60   -0.0333    0.0047   -0.0250    0.0048   -0.0005    0.0303   -0.0187   -0.0296
          61    0.1201   -0.0048    0.0160   -0.0587    0.0000    0.0062    0.0459   -0.0700
          62    0.0920    0.0022    0.0065   -0.0767    0.0042   -0.0059    0.0512   -0.0752
          63    0.0599   -0.0213    0.0148   -0.0557    0.0109    0.0051    0.0361   -0.0457


   Root No.      33        34        35        36        37        38        39        40

                33 A      34 A      35 A      36 A      37 A      38 A      39 A      40 A   

                1208.2    1237.7    1339.0    1348.0    1365.0    1396.2    1405.3    1407.1
  
           1    0.0112    0.0014   -0.0232   -0.0213   -0.0413    0.0044    0.0112   -0.0212
           2    0.0496    0.0159    0.0203    0.0285   -0.0086   -0.0005    0.0015    0.0003
           3    0.0129   -0.0015    0.0024    0.0083   -0.0184    0.0015    0.0063   -0.0114
           4    0.0094   -0.0083    0.0369   -0.0383   -0.0071    0.0118    0.0028   -0.0047
           5    0.0129    0.0400    0.0114   -0.0085   -0.0165    0.0035    0.0058   -0.0048
           6   -0.0153    0.0201   -0.0092    0.0079   -0.0042   -0.0069    0.0009    0.0003
           7    0.0231   -0.0192   -0.0016    0.0218    0.0144   -0.0032   -0.0042    0.0053
           8   -0.0216   -0.0132   -0.0003   -0.0029    0.0052   -0.0030   -0.0156   -0.0095
           9   -0.0066   -0.0097    0.0028   -0.0029    0.0040    0.0007   -0.0019    0.0019
          10    0.0080    0.0142   -0.0175   -0.0130    0.0095   -0.0037   -0.0096    0.0196
          11    0.0141    0.0064   -0.0317   -0.0240    0.0297    0.0008    0.0221   -0.0161
          12    0.0131    0.0124   -0.0209   -0.0155    0.0035   -0.0031   -0.0069    0.0159
          13   -0.0057    0.0036    0.0063   -0.0094    0.0010   -0.0346   -0.0029    0.0022
          14   -0.0032   -0.0102   -0.0006   -0.0014    0.0028    0.0084   -0.0146   -0.0139
          15    0.0027   -0.0035   -0.0108    0.0127    0.0005   -0.0191   -0.0003   -0.0085
          16    0.0050   -0.0017    0.0029    0.0439    0.0190   -0.0055   -0.0025    0.0067
          17   -0.0000   -0.0130   -0.0122   -0.0142    0.0126    0.0005   -0.0084    0.0050
          18    0.0096   -0.0012    0.0023   -0.0049    0.0070    0.0005   -0.0037    0.0025
          19   -0.0141   -0.0035    0.0128    0.0099   -0.0073    0.0003   -0.0016   -0.0005
          20   -0.0124    0.0123    0.0193    0.0056    0.0184    0.0004   -0.0216    0.0135
          21   -0.0101   -0.0022    0.0086    0.0052    0.0004    0.0003   -0.0038    0.0012
          22    0.0161   -0.0067   -0.0126   -0.0174    0.0336    0.0002   -0.0205    0.0148
          23   -0.0031   -0.0157   -0.0183   -0.0005    0.0083   -0.0013   -0.0012    0.0033
          24   -0.0008   -0.0075   -0.0105   -0.0024    0.0103   -0.0007   -0.0046    0.0043
          25   -0.0044   -0.0122   -0.0058    0.0008   -0.0333    0.0006    0.0254   -0.0186
          26   -0.0067    0.0053    0.0084    0.0055   -0.0202    0.0002    0.0075   -0.0052
          27   -0.0012   -0.0002    0.0003    0.0002   -0.0128    0.0002    0.0082   -0.0059
          28   -0.0754    0.0563   -0.0461    0.0431   -0.0019   -0.0161    0.0027    0.0036
          29   -0.0350   -0.1072   -0.0190    0.0002    0.0166   -0.0006   -0.0121   -0.0018
          30    0.0210   -0.0305    0.0287   -0.0304   -0.0019    0.0056   -0.0013   -0.0031
          31   -0.0826   -0.0159    0.0215    0.0084    0.0460   -0.0051   -0.0226    0.0298
          32   -0.1502   -0.0411   -0.0336   -0.0334    0.0198   -0.0009   -0.0031   -0.0029
          33   -0.0550   -0.0160    0.0174    0.0136    0.0259   -0.0028   -0.0100    0.0123
          34   -0.0857    0.0624    0.0048   -0.0638   -0.0385    0.0142    0.0097   -0.0141
          35   -0.0253   -0.0042    0.0157    0.0051    0.0115    0.0094    0.0807    0.0559
          36   -0.0103   -0.0036    0.0122    0.0019    0.0079    0.0083    0.0598    0.0436
          37   -0.1571    0.0981   -0.0061   -0.0590   -0.0213    0.0031    0.0047   -0.0030
          38   -0.0460   -0.0398    0.0267   -0.0084    0.0284    0.0137    0.0721    0.0628
          39    0.0098    0.0110   -0.0156    0.0019   -0.0134   -0.0110   -0.0603   -0.0474
          40   -0.0132   -0.0082    0.0670    0.0270    0.1321    0.0168    0.0766   -0.1022
          41   -0.0138   -0.0469    0.0208    0.0371   -0.1434   -0.0085   -0.0582    0.0577
          42   -0.0090   -0.0229    0.0393    0.0313   -0.0323    0.0006   -0.0113    0.0032
          43   -0.0314   -0.0246    0.0611    0.0502   -0.0148   -0.0006   -0.0150    0.0098
          44   -0.0246   -0.0526    0.0316    0.0481   -0.1436   -0.0083   -0.0553    0.0564
          45   -0.0350   -0.0091    0.0926    0.0512    0.1587    0.0152    0.0741   -0.0947
          46   -0.0121    0.0459   -0.0604    0.0656   -0.0069    0.2342    0.0283    0.0335
          47   -0.0060    0.0205   -0.0432    0.0468   -0.0032    0.1680    0.0112    0.0118
          48    0.0139   -0.0469    0.0733   -0.0764    0.0040    0.1214    0.0747    0.1188
          49   -0.0283   -0.0104   -0.0693    0.0677    0.0081    0.2395   -0.0145   -0.0066
          50    0.0062    0.0010    0.0258   -0.0279   -0.0012   -0.2251    0.0221    0.0156
          51    0.0313    0.0069    0.0954   -0.0956   -0.0090    0.1366   -0.0768   -0.0643
          52   -0.0241    0.0226   -0.0763    0.0808   -0.0028   -0.1324    0.0085   -0.0287
          53    0.0020    0.0105   -0.0023    0.0040   -0.0044   -0.0574    0.1329    0.1492
          54    0.0126   -0.0101    0.0328   -0.0342    0.0011    0.0413    0.0156    0.0330
          55   -0.0115    0.0215    0.0203    0.0098    0.0175   -0.0006   -0.0204    0.0149
          56   -0.0389   -0.0962    0.0004    0.0144   -0.0851    0.0041    0.0540   -0.0498
          57   -0.0057   -0.0047    0.0037    0.0029   -0.0081    0.0004    0.0014   -0.0020
          58   -0.0515    0.0825    0.0648    0.0106    0.0276    0.0022   -0.0363    0.0199
          59    0.0064   -0.0211   -0.0105    0.0031   -0.0404   -0.0001    0.0262   -0.0171
          60   -0.0158    0.0185    0.0159    0.0049    0.0001    0.0004   -0.0054    0.0032
          61   -0.0063    0.0571    0.0401    0.0356   -0.0080   -0.0004    0.0005    0.0002
          62   -0.0282    0.0454    0.0301    0.0511   -0.0332   -0.0021    0.0202   -0.0111
          63   -0.0083    0.0264    0.0209    0.0264   -0.0168   -0.0004    0.0091   -0.0060


   Root No.      41        42        43        44        45        46        47        48

                41 A      42 A      43 A      44 A      45 A      46 A      47 A      48 A   

                1410.3    1425.0    1459.3    1827.2    1946.2    2931.9    2945.8    2952.8
  
           1    0.0162    0.0241    0.0662    0.0004    0.0233    0.0207    0.0016    0.0057
           2   -0.0021   -0.0004    0.0054    0.0029   -0.0189    0.0051    0.0002    0.0013
           3    0.0074    0.0068    0.0267   -0.0014   -0.0063   -0.0439   -0.0022   -0.0120
           4    0.0101    0.0353   -0.0606   -0.0053   -0.0383    0.0007   -0.0265   -0.0010
           5   -0.0008    0.0063   -0.0074   -0.0026   -0.0291   -0.0003    0.0064    0.0002
           6   -0.0063   -0.0204    0.0257    0.0003   -0.0060    0.0022   -0.0535   -0.0018
           7   -0.0052   -0.0115   -0.0036    0.0007    0.0010    0.0006   -0.0008    0.0000
           8    0.0253   -0.0191   -0.0234   -0.0032   -0.0233    0.0002    0.0003    0.0003
           9    0.0005    0.0020   -0.0080    0.0005   -0.0013    0.0026    0.0037    0.0005
          10   -0.0147   -0.0145   -0.0358    0.0039   -0.0023   -0.0113   -0.0025    0.0310
          11   -0.0070   -0.0175   -0.0191   -0.0313    0.0072   -0.0009   -0.0003    0.0037
          12   -0.0130   -0.0120   -0.0291   -0.0039    0.0011    0.0121    0.0029   -0.0363
          13   -0.0109   -0.0321    0.0346    0.0004    0.0025   -0.0001    0.0023    0.0001
          14   -0.0152   -0.0024    0.0040    0.0001    0.0021    0.0000   -0.0002    0.0000
          15    0.0049    0.0349   -0.0307   -0.0003   -0.0009   -0.0000    0.0017    0.0000
          16   -0.0082   -0.0225   -0.0059    0.0097    0.0463    0.0005   -0.0005   -0.0001
          17    0.0050    0.0121    0.0142    0.0223    0.2510   -0.0004   -0.0003    0.0001
          18    0.0020    0.0049   -0.0045    0.0103    0.1051   -0.0002   -0.0003   -0.0002
          19    0.0027    0.0031    0.0051   -0.1390    0.0143    0.0004    0.0001   -0.0010
          20    0.0106    0.0210    0.0225    0.1957   -0.0255   -0.0001   -0.0000    0.0004
          21    0.0034    0.0049    0.0064   -0.0145   -0.0003    0.0000    0.0000   -0.0004
          22    0.0086    0.0228    0.0295   -0.0404   -0.0531    0.0002    0.0003   -0.0000
          23   -0.0021    0.0007    0.0185   -0.0152   -0.1870    0.0003    0.0003    0.0000
          24    0.0006    0.0041    0.0146   -0.0163   -0.0910   -0.0000    0.0000   -0.0000
          25   -0.0089   -0.0210   -0.0252    0.1898   -0.0099   -0.0002   -0.0001    0.0003
          26   -0.0034   -0.0075   -0.0129   -0.1465    0.0268   -0.0000    0.0000   -0.0000
          27   -0.0031   -0.0072   -0.0102    0.0349    0.0026    0.0001   -0.0001   -0.0001
          28   -0.0183   -0.0451    0.0590   -0.0002   -0.0148   -0.0149    0.3204    0.0105
          29    0.0046   -0.0034    0.0042    0.0005   -0.0006    0.0040   -0.0840   -0.0027
          30    0.0078    0.0175   -0.0327   -0.0008   -0.0101   -0.0298    0.6520    0.0215
          31   -0.0136   -0.0193   -0.0608    0.0036    0.0138   -0.2533   -0.0109   -0.0644
          32    0.0055   -0.0083   -0.0090   -0.0037    0.0031   -0.0650   -0.0026   -0.0171
          33   -0.0057   -0.0139   -0.0356   -0.0000   -0.0047    0.5357    0.0230    0.1458
          34    0.0193    0.0288   -0.0010   -0.0017   -0.0024   -0.0021    0.0028   -0.0011
          35   -0.1426    0.0710    0.0474   -0.0004   -0.0012    0.0113    0.0161    0.0003
          36   -0.1076    0.0601    0.0382    0.0027    0.0181   -0.0177   -0.0254   -0.0022
          37    0.0017    0.0080    0.0010    0.0001   -0.0021    0.0030   -0.0030    0.0006
          38   -0.1363    0.0773    0.0127    0.0009   -0.0048   -0.0096   -0.0135   -0.0038
          39    0.1088   -0.0633   -0.0299   -0.0028   -0.0215   -0.0152   -0.0208   -0.0060
          40    0.0413    0.0158    0.0576   -0.0059    0.0043    0.0425    0.0097   -0.1196
          41   -0.0047    0.0140    0.0066   -0.0038   -0.0007    0.0663    0.0156   -0.1958
          42    0.0101    0.0154    0.0208   -0.0007   -0.0013   -0.1173   -0.0283    0.3550
          43    0.0054    0.0086    0.0044   -0.0137   -0.0082    0.0904    0.0204   -0.2517
          44   -0.0065    0.0133    0.0062   -0.0493    0.0008   -0.0539   -0.0120    0.1468
          45    0.0337    0.0046    0.0336   -0.0140   -0.0086   -0.0335   -0.0069    0.0815
          46    0.0431    0.0203   -0.0193    0.0002   -0.0010    0.0002   -0.0056   -0.0002
          47    0.0253    0.0306   -0.0298    0.0001    0.0003   -0.0005    0.0125    0.0004
          48    0.0815   -0.1011    0.0485   -0.0001    0.0006    0.0001   -0.0017   -0.0001
          49    0.0017    0.0227   -0.0151    0.0007    0.0080    0.0002   -0.0068   -0.0002
          50    0.0127   -0.0115    0.0159   -0.0002   -0.0014    0.0004   -0.0125   -0.0004
          51   -0.1002   -0.0780    0.0514   -0.0010   -0.0108    0.0002   -0.0053   -0.0002
          52    0.0190    0.1173   -0.0830   -0.0006   -0.0043    0.0004   -0.0132   -0.0003
          53    0.1507   -0.0185   -0.0026    0.0000   -0.0006   -0.0001    0.0028    0.0000
          54    0.0138   -0.0476    0.0303    0.0001    0.0015    0.0005   -0.0195   -0.0002
          55    0.0065    0.0142    0.0128   -0.1086    0.0088   -0.0034   -0.0008    0.0118
          56   -0.0039   -0.0249   -0.0119   -0.0811    0.0174   -0.0001   -0.0000    0.0010
          57    0.0011    0.0015    0.0031   -0.0413    0.0049   -0.0008   -0.0001    0.0028
          58    0.0207    0.0351    0.0207   -0.0776    0.0512   -0.0001    0.0001   -0.0001
          59   -0.0121   -0.0243   -0.0273   -0.1054    0.0097   -0.0002    0.0002   -0.0003
          60    0.0027    0.0043   -0.0009   -0.0358    0.0172    0.0001    0.0002   -0.0007
          61   -0.0028   -0.0130   -0.0273   -0.0386    0.1396   -0.0010   -0.0011   -0.0007
          62   -0.0144   -0.0362   -0.0355   -0.0208   -0.0604    0.0014    0.0006    0.0007
          63   -0.0046   -0.0134   -0.0183   -0.0196   -0.0230   -0.0003    0.0006    0.0000


   Root No.      49        50        51        52        53        54        55        56

                49 A      50 A      51 A      52 A      53 A      54 A      55 A      56 A   

                3033.2    3047.4    3056.1    3074.8    3079.6    3084.8    3091.1    3108.0
  
           1   -0.0005    0.0011    0.0001    0.0001    0.0001   -0.0000    0.0000   -0.0001
           2    0.0000    0.0004    0.0002    0.0001    0.0000    0.0000   -0.0004   -0.0008
           3    0.0000   -0.0022    0.0003    0.0001   -0.0000    0.0000   -0.0003   -0.0004
           4   -0.0001   -0.0012    0.0000   -0.0000   -0.0009   -0.0001    0.0002    0.0003
           5    0.0000    0.0005   -0.0000    0.0000    0.0002   -0.0002    0.0002   -0.0009
           6   -0.0002   -0.0023    0.0000   -0.0000   -0.0017   -0.0002    0.0000   -0.0004
           7   -0.0000    0.0003   -0.0000    0.0000    0.0001   -0.0002   -0.0000   -0.0000
           8    0.0007    0.0062   -0.0001   -0.0000    0.0006    0.0001   -0.0003   -0.0412
           9   -0.0031   -0.0534    0.0006    0.0001   -0.0000    0.0008   -0.0001   -0.0105
          10   -0.0230    0.0012   -0.0029   -0.0020    0.0001   -0.0000    0.0006    0.0001
          11    0.0288   -0.0015    0.0025    0.0019   -0.0001    0.0000   -0.0006    0.0003
          12   -0.0108    0.0009   -0.0005   -0.0003    0.0001   -0.0000    0.0000   -0.0003
          13   -0.0001    0.0000    0.0000   -0.0005   -0.0344   -0.0034    0.0007   -0.0009
          14    0.0000   -0.0005   -0.0000    0.0005    0.0081   -0.0537   -0.0019   -0.0000
          15   -0.0001    0.0000    0.0000   -0.0004   -0.0334   -0.0095    0.0006   -0.0007
          16    0.0003   -0.0000   -0.0001    0.0001    0.0001    0.0003   -0.0013    0.0000
          17   -0.0000    0.0001   -0.0001   -0.0008    0.0000    0.0002   -0.0046    0.0014
          18    0.0001   -0.0002   -0.0001   -0.0003   -0.0001   -0.0001   -0.0022    0.0003
          19    0.0056   -0.0008   -0.0361   -0.0262    0.0005   -0.0005    0.0078    0.0000
          20    0.0016   -0.0002   -0.0071   -0.0018    0.0000   -0.0000    0.0000    0.0000
          21    0.0022   -0.0003   -0.0135   -0.0092    0.0002   -0.0002    0.0027    0.0000
          22   -0.0001    0.0000    0.0021   -0.0089   -0.0005    0.0011   -0.0373    0.0003
          23   -0.0000    0.0000   -0.0019    0.0092    0.0005   -0.0010    0.0367   -0.0006
          24   -0.0000   -0.0000   -0.0006    0.0033    0.0002   -0.0003    0.0122   -0.0002
          25   -0.0000    0.0001    0.0072   -0.0048    0.0001   -0.0001    0.0027   -0.0000
          26   -0.0004    0.0002    0.0267   -0.0354    0.0008   -0.0008    0.0151   -0.0001
          27   -0.0001    0.0001    0.0064   -0.0070    0.0002   -0.0002    0.0032   -0.0000
          28    0.0009    0.0153   -0.0002    0.0001    0.0066    0.0004    0.0004    0.0020
          29   -0.0004   -0.0062    0.0001    0.0000   -0.0026   -0.0015    0.0000   -0.0014
          30    0.0016    0.0252   -0.0003    0.0003    0.0220    0.0017    0.0004    0.0034
          31    0.0013   -0.0140    0.0006    0.0000   -0.0001    0.0001   -0.0007   -0.0025
          32    0.0009   -0.0060    0.0003    0.0000   -0.0000    0.0001   -0.0003   -0.0016
          33   -0.0053    0.0238   -0.0015   -0.0002    0.0002   -0.0002    0.0014    0.0041
          34   -0.0005   -0.0010   -0.0000   -0.0000    0.0006   -0.0003    0.0000    0.0010
          35   -0.0182   -0.2838    0.0029    0.0007   -0.0044    0.0026    0.0021    0.1975
          36    0.0244    0.3870   -0.0039   -0.0011    0.0052   -0.0033   -0.0032   -0.3155
          37   -0.0001   -0.0014   -0.0000    0.0000   -0.0000   -0.0002    0.0000   -0.0023
          38    0.0098    0.2059   -0.0022   -0.0002   -0.0047   -0.0034    0.0029    0.3023
          39    0.0118    0.2551   -0.0027   -0.0001   -0.0068   -0.0046    0.0042    0.4398
          40   -0.1219    0.0087   -0.0102   -0.0063    0.0006   -0.0001    0.0015   -0.0023
          41   -0.1438    0.0102   -0.0105   -0.0063    0.0006   -0.0001    0.0014   -0.0031
          42    0.2949   -0.0188    0.0214    0.0133   -0.0012    0.0003   -0.0031    0.0049
          43    0.3964   -0.0208    0.0427    0.0262   -0.0011    0.0005   -0.0070    0.0014
          44   -0.2035    0.0105   -0.0256   -0.0158    0.0006   -0.0003    0.0043   -0.0006
          45   -0.1621    0.0086   -0.0184   -0.0112    0.0005   -0.0002    0.0030   -0.0008
          46    0.0000   -0.0043   -0.0001    0.0034    0.1226   -0.2435   -0.0101    0.0028
          47   -0.0001    0.0061    0.0001   -0.0051   -0.2053    0.3346    0.0151   -0.0051
          48   -0.0000    0.0003    0.0000   -0.0004   -0.0237    0.0061    0.0008   -0.0004
          49    0.0002    0.0014   -0.0001   -0.0002    0.1034    0.2728    0.0067    0.0046
          50    0.0003    0.0017   -0.0001    0.0003    0.1652    0.3392    0.0077    0.0064
          51    0.0000    0.0003   -0.0000   -0.0002    0.0226    0.0858    0.0025    0.0012
          52    0.0004   -0.0007   -0.0001    0.0024    0.1846    0.0114   -0.0046    0.0035
          53   -0.0001    0.0002    0.0000   -0.0005   -0.0560   -0.0314    0.0005   -0.0014
          54    0.0011    0.0004   -0.0003    0.0052    0.4010    0.0220   -0.0100    0.0072
          55   -0.0643    0.0090    0.4218    0.2766   -0.0050    0.0045   -0.0734   -0.0000
          56   -0.0116    0.0019    0.0956    0.0590   -0.0011    0.0010   -0.0155    0.0000
          57   -0.0244    0.0034    0.1591    0.1039   -0.0019    0.0017   -0.0273   -0.0000
          58    0.0010   -0.0007   -0.0778    0.0864   -0.0021    0.0019   -0.0398    0.0002
          59    0.0014   -0.0025   -0.3236    0.3806   -0.0087    0.0080   -0.1592    0.0008
          60    0.0004   -0.0006   -0.0744    0.0858   -0.0020    0.0018   -0.0366    0.0002
          61    0.0000   -0.0001   -0.0229    0.1123    0.0064   -0.0121    0.4443   -0.0043
          62   -0.0000    0.0001    0.0221   -0.1003   -0.0057    0.0109   -0.3862    0.0037
          63   -0.0000    0.0000    0.0073   -0.0327   -0.0018    0.0034   -0.1247    0.0012


   Root No.      57

                57 A   

                3178.5
  
           1   -0.0000
           2   -0.0000
           3   -0.0000
           4    0.0005
           5    0.0000
           6   -0.0001
           7   -0.0001
           8   -0.0002
           9    0.0002
          10   -0.0000
          11   -0.0000
          12    0.0000
          13    0.0176
          14    0.0019
          15   -0.0171
          16   -0.0001
          17   -0.0001
          18   -0.0000
          19   -0.0000
          20   -0.0000
          21   -0.0000
          22   -0.0001
          23    0.0001
          24    0.0000
          25    0.0000
          26    0.0000
          27    0.0000
          28   -0.0004
          29    0.0004
          30   -0.0027
          31    0.0000
          32    0.0000
          33   -0.0001
          34    0.0004
          35    0.0018
          36   -0.0033
          37   -0.0000
          38    0.0005
          39    0.0009
          40    0.0001
          41    0.0001
          42   -0.0002
          43   -0.0000
          44    0.0000
          45    0.0000
          46   -0.1749
          47    0.2735
          48    0.0007
          49   -0.1848
          50   -0.2556
          51   -0.0709
          52    0.1461
          53   -0.0404
          54    0.2784
          55    0.0001
          56    0.0000
          57    0.0000
          58   -0.0000
          59   -0.0000
          60   -0.0000
          61    0.0012
          62   -0.0008
          63   -0.0003


           MASS-WEIGHTED COORDINATE ANALYSIS (NORMAL COORDINATES)


   Root No.       1         2         3         4         5         6         7         8

                 1 A       2 A       3 A       4 A       5 A       6 A       7 A       8 A   

                 112.8     148.1     152.8     241.2     347.7     394.9     450.6     454.1
  
           1    0.0052    0.0170    0.0417    0.0818   -0.0182    0.0657    0.1094    0.0694
           2    0.0231   -0.0317   -0.0546   -0.0663    0.1633    0.2487   -0.1535   -0.1928
           3   -0.0318   -0.1313   -0.0970   -0.0498   -0.2724   -0.2498   -0.2587   -0.1730
[...]

 VIBRATION         40   40A           ATOM PAIR      ENERGY CONTRIBUTION    RADIAL
 FREQUENCY          1407.11         C  5 -- H 18         +11.6% ( 39.1%)      0.6%
 TRANSITION DIPOLE   0.0284         C  4 -- H 14         +10.9% ( 37.8%)      4.9%
 TRAVEL (Ang.)       0.4245         C  1 -- C  4          +9.8% ( 36.0%)     83.2%
 REDUCED MASS        0.2659         C  4 -- H 15          +9.6% ( 35.5%)      8.1%
 EFFECTIVE MASS      3.9100
 FORCE CONSTANT      0.3102

 VIBRATION         41   41A           ATOM PAIR      ENERGY CONTRIBUTION    RADIAL
 FREQUENCY          1410.32         C  3 -- H 12         +17.8% ( 45.6%)      2.9%
 TRANSITION DIPOLE   0.0281         C  3 -- H 13         +16.5% ( 44.0%)      3.7%
 TRAVEL (Ang.)       0.4582         C  5 -- H 18         +11.4% ( 36.5%)      0.1%
 REDUCED MASS        0.2278         C  5 -- H 17          +5.4% ( 25.2%)     15.1%
 EFFECTIVE MASS      3.0397
 FORCE CONSTANT      0.2669

 VIBRATION         42   42A           ATOM PAIR      ENERGY CONTRIBUTION    RADIAL
 FREQUENCY          1424.99         C  2 -- C  5         +12.7% ( 52.3%)     98.6%
 TRANSITION DIPOLE   0.0848         C  5 -- H 18          +9.0% ( 43.9%)      4.0%
 TRAVEL (Ang.)       0.2537         C  5 -- H 16          +7.7% ( 40.7%)      4.1%
 REDUCED MASS        0.7350         C  5 -- H 17          +6.7% ( 37.9%)      3.3%
 EFFECTIVE MASS      7.4386
 FORCE CONSTANT      0.8794

 VIBRATION         43   43A           ATOM PAIR      ENERGY CONTRIBUTION    RADIAL
 FREQUENCY          1459.26         C  1 -- C  2         +12.1% ( 58.7%)     99.0%
 TRANSITION DIPOLE   0.2376         C  1 -- C  4         +10.6% ( 55.0%)     89.7%
 TRAVEL (Ang.)       0.1689         C  2 -- C  5          +9.5% ( 52.1%)     93.0%
 REDUCED MASS        1.6196         C  1 -- C  3          +6.8% ( 44.2%)     69.7%
 EFFECTIVE MASS     10.2604
 FORCE CONSTANT      2.0320

 VIBRATION         44   44A           ATOM PAIR      ENERGY CONTRIBUTION    RADIAL
 FREQUENCY          1827.16         C  7 -- C  9         +43.6% ( 97.7%)    100.0%
 TRANSITION DIPOLE   0.2602         C  8 -- C  9         +14.5% ( 56.4%)     56.4%
 TRAVEL (Ang.)       0.0834         C  4 -- C  7         +13.9% ( 55.1%)     48.6%
 REDUCED MASS        5.3018         C  9 -- H 20         +13.0% ( 53.3%)      4.8%
 EFFECTIVE MASS     11.8745         C  7 -- H 19         +12.9% ( 53.0%)      5.3%
 FORCE CONSTANT     10.4287

 VIBRATION         45   45A           ATOM PAIR      ENERGY CONTRIBUTION    RADIAL
 FREQUENCY          1946.19         C  6 -- C  8         +35.8% ( 96.6%)     99.5%
 TRANSITION DIPOLE   0.1924         C  2 -- C  6         +16.1% ( 64.7%)     72.9%
 TRAVEL (Ang.)       0.0785         C  1 -- C  6         +15.4% ( 63.3%)     38.4%
 REDUCED MASS        5.6172         C  3 -- C  6         +15.2% ( 62.9%)     91.5%
 EFFECTIVE MASS     11.9125
 FORCE CONSTANT     12.5355

 VIBRATION         46   46A           ATOM PAIR      ENERGY CONTRIBUTION    RADIAL
 FREQUENCY          2931.87         C  1 -- H 11         +87.0% ( 95.5%)    100.0%
 TRANSITION DIPOLE   0.1060         C  4 -- H 14          +5.2% ( 23.4%)     97.1%
 TRAVEL (Ang.)       0.1722         C  4 -- H 15          +3.4% ( 18.7%)     94.7%
 REDUCED MASS        0.7756         C  1 -- C  4          +1.1% ( 10.7%)      6.8%
 EFFECTIVE MASS      1.4503
 FORCE CONSTANT      3.9282

 VIBRATION         47   47A           ATOM PAIR      ENERGY CONTRIBUTION    RADIAL
 FREQUENCY          2945.85         C  2 -- H 10         +94.9% ( 99.5%)    100.0%
 TRANSITION DIPOLE   0.1005         C  2 -- C  3          +1.0% ( 10.4%)     12.7%
 TRAVEL (Ang.)       0.1584         C  2 -- C  5          +1.0% ( 10.3%)     10.4%
 REDUCED MASS        0.9127         C  1 -- C  2          +1.0% ( 10.3%)     22.8%
 EFFECTIVE MASS      1.4425
 FORCE CONSTANT      4.6666

 VIBRATION         48   48A           ATOM PAIR      ENERGY CONTRIBUTION    RADIAL
 FREQUENCY          2952.79         C  4 -- H 14         +58.1% ( 78.8%)     97.9%
 TRANSITION DIPOLE   0.0683         C  4 -- H 15         +31.5% ( 58.0%)     94.4%
 TRAVEL (Ang.)       0.2198         C  1 -- H 11          +7.9% ( 29.0%)    100.0%
 REDUCED MASS        0.4726         C  4 -- C  7          +1.0% ( 10.5%)      0.1%
 EFFECTIVE MASS      1.5215
 FORCE CONSTANT      2.4276

 VIBRATION         49   49A           ATOM PAIR      ENERGY CONTRIBUTION    RADIAL
 FREQUENCY          3033.20         C  4 -- H 15         +63.5% ( 78.7%)     99.0%
 TRANSITION DIPOLE   0.0693         C  4 -- H 14         +33.3% ( 57.0%)     95.0%
 TRAVEL (Ang.)       0.2097         C  7 -- H 19          +1.5% ( 12.1%)    100.0%
 REDUCED MASS        0.5057         C  4 -- C  7          +0.7% (  8.2%)     18.1%
 EFFECTIVE MASS      1.2898
 FORCE CONSTANT      2.7413

 VIBRATION         50   50A           ATOM PAIR      ENERGY CONTRIBUTION    RADIAL
 FREQUENCY          3047.37         C  3 -- H 12         +64.1% ( 83.2%)     98.4%
 TRANSITION DIPOLE   0.0824         C  3 -- H 13         +31.8% ( 58.6%)     94.3%
 TRAVEL (Ang.)       0.1983         C  3 -- C  6          +1.1% ( 11.0%)      0.0%
 REDUCED MASS        0.5628         C  1 -- C  3          +1.1% ( 11.0%)      0.5%
 EFFECTIVE MASS      1.5363
 FORCE CONSTANT      3.0795

 VIBRATION         51   51A           ATOM PAIR      ENERGY CONTRIBUTION    RADIAL
 FREQUENCY          3056.12         C  7 -- H 19         +62.2% ( 80.0%)    100.0%
 TRANSITION DIPOLE   0.2881         C  9 -- H 20         +34.1% ( 59.3%)    100.0%
 TRAVEL (Ang.)       0.2119         C  7 -- C  9          +1.1% ( 10.7%)      1.3%
 REDUCED MASS        0.4915         C  4 -- C  7          +0.8% (  9.3%)     25.1%
 EFFECTIVE MASS      1.4635
 FORCE CONSTANT      2.7049

 VIBRATION         52   52A           ATOM PAIR      ENERGY CONTRIBUTION    RADIAL
 FREQUENCY          3074.80         C  9 -- H 20         +56.0% ( 76.0%)     99.9%
 TRANSITION DIPOLE   0.2892         C  7 -- H 19         +31.7% ( 57.2%)     99.9%
 TRAVEL (Ang.)       0.2281         C  8 -- H 21          +8.3% ( 29.3%)     99.9%
 REDUCED MASS        0.4215         C  7 -- C  9          +1.8% ( 13.6%)     96.6%
 EFFECTIVE MASS      1.5711
 FORCE CONSTANT      2.3477

 VIBRATION         53   53A           ATOM PAIR      ENERGY CONTRIBUTION    RADIAL
 FREQUENCY          3079.58         C  5 -- H 18         +65.6% ( 83.6%)     98.9%
 TRANSITION DIPOLE   0.0310         C  5 -- H 16         +19.7% ( 45.9%)     87.1%
 TRAVEL (Ang.)       0.2060         C  5 -- H 17         +13.4% ( 37.8%)     80.2%
 REDUCED MASS        0.5158         C  2 -- C  5          +1.0% ( 10.3%)      0.0%
 EFFECTIVE MASS      1.5052
 FORCE CONSTANT      2.8821

 VIBRATION         54   54A           ATOM PAIR      ENERGY CONTRIBUTION    RADIAL
 FREQUENCY          3084.80         C  5 -- H 17         +52.2% ( 74.5%)     97.5%
 TRANSITION DIPOLE   0.0396         C  5 -- H 16         +45.5% ( 69.6%)     96.5%
 TRAVEL (Ang.)       0.2072         C  5 -- H 18          +1.2% ( 11.2%)      5.6%
 REDUCED MASS        0.5092         C  2 -- C  5          +1.0% ( 10.4%)      0.0%
 EFFECTIVE MASS      1.5083
 FORCE CONSTANT      2.8548

 VIBRATION         55   55A           ATOM PAIR      ENERGY CONTRIBUTION    RADIAL
 FREQUENCY          3091.08         C  8 -- H 21         +88.0% ( 95.3%)    100.0%
 TRANSITION DIPOLE   0.3836         C  9 -- H 20          +6.8% ( 26.5%)    100.0%
 TRAVEL (Ang.)       0.1677         C  6 -- C  8          +1.6% ( 12.8%)     44.9%
 REDUCED MASS        0.7753         C  7 -- H 19          +1.6% ( 12.7%)     99.7%
 EFFECTIVE MASS      1.5590
 FORCE CONSTANT      4.3643

 VIBRATION         56   56A           ATOM PAIR      ENERGY CONTRIBUTION    RADIAL
 FREQUENCY          3108.02         C  3 -- H 13         +66.7% ( 81.2%)     98.8%
 TRANSITION DIPOLE   0.0889         C  3 -- H 12         +31.2% ( 55.5%)     93.2%
 TRAVEL (Ang.)       0.2008         C  3 -- C  6          +0.7% (  8.3%)     98.4%
 REDUCED MASS        0.5381         C  1 -- C  3          +0.7% (  8.2%)     47.9%
 EFFECTIVE MASS      1.2887
 FORCE CONSTANT      3.0627

 VIBRATION         57   57A           ATOM PAIR      ENERGY CONTRIBUTION    RADIAL
 FREQUENCY          3178.53         C  5 -- H 16         +33.9% ( 56.1%)     97.2%
 TRANSITION DIPOLE   0.0378         C  5 -- H 17         +33.6% ( 55.8%)     97.2%
 TRAVEL (Ang.)       0.2546         C  5 -- H 18         +32.2% ( 54.6%)     96.9%
 REDUCED MASS        0.3272         C  2 -- C  5          +0.3% (  5.1%)     99.9%
 EFFECTIVE MASS      1.1362
 FORCE CONSTANT      1.9474

      SYMMETRY NUMBER FOR POINT-GROUP C1  =  1


          SYSTEM IS A GROUND STATE



 InChI=1S/C9H12/c1-7-6-8-4-2-3-5-9(7)8/h2-3,5,7-8H,4,6H2,1H3


          MOLECULE IS NOT LINEAR

          THERE ARE 57 GENUINE VIBRATIONS IN THIS SYSTEM
          THIS THERMODYNAMICS CALCULATION IS LIMITED TO
          MOLECULES WHICH HAVE NO INTERNAL ROTATIONS




                    CALCULATED THERMODYNAMIC PROPERTIES
                                          *
   TEMP. (K)   PARTITION FUNCTION   H.O.F.    ENTHALPY  HEAT CAPACITY ENTROPY
                                   KCAL/MOL   CAL/MOLE    CAL/K/MOL  CAL/K/MOL


 298.00  VIB.     0.3559D+02                  3217.0990    25.8569    17.8941
         ROT.     0.3953D+06                   888.2803     2.9808    28.5905
         INT.     0.1407D+08                  4105.3793    28.8377    46.4846
         TRA.     0.1274D+28                  1480.4672     4.9680    40.2640
         TOT.                       32.781    5585.8465    33.8057    86.7487

 200.00  VIB.     0.6730D+01                  1248.4928    14.6961    10.0313
         ROT.     0.2173D+06                   596.1613     2.9808    27.4018
         INT.     0.1463D+07                  1844.6541    17.6769    37.4332
         TRA.     0.7004D+27                   993.6021     4.9680    38.2829
         TOT.                       30.033    2838.2562    22.6449    75.7161

 210.00  VIB.     0.7886D+01                  1400.5175    15.7145    10.7729
         ROT.     0.2338D+06                   625.9693     2.9808    27.5473
         INT.     0.1844D+07                  2026.4868    18.6953    38.3201
         TRA.     0.7536D+27                  1043.2822     4.9680    38.5253
         TOT.                       30.265    3069.7690    23.6633    76.8454

 220.00  VIB.     0.9265D+01                  1562.8960    16.7667    11.5281
         ROT.     0.2507D+06                   655.7774     2.9808    27.6859
         INT.     0.2323D+07                  2218.6735    19.7475    39.2140
         TRA.     0.8081D+27                  1092.9623     4.9680    38.7564
         TOT.                       30.507    3311.6358    24.7155    77.9704

 230.00  VIB.     0.1091D+02                  1735.9595    17.8512    12.2972
         ROT.     0.2680D+06                   685.5855     2.9808    27.8184
         INT.     0.2925D+07                  2421.5450    20.8320    40.1156
         TRA.     0.8638D+27                  1142.6424     4.9680    38.9773
         TOT.                       30.759    3564.1874    25.8000    79.0929

 240.00  VIB.     0.1289D+02                  1920.0198    18.9657    13.0804
         ROT.     0.2857D+06                   715.3935     2.9808    27.9453
         INT.     0.3683D+07                  2635.4133    21.9465    41.0257
         TRA.     0.9207D+27                  1192.3226     4.9680    39.1887
         TOT.                       31.023    3827.7359    26.9145    80.2144

 250.00  VIB.     0.1526D+02                  2115.3633    20.1073    13.8776
         ROT.     0.3037D+06                   745.2016     2.9808    28.0670
         INT.     0.4636D+07                  2860.5649    23.0881    41.9446
         TRA.     0.9789D+27                  1242.0027     4.9680    39.3915
         TOT.                       31.298    4102.5676    28.0561    81.3361

 260.00  VIB.     0.1812D+02                  2322.2459    21.2729    14.6889
         ROT.     0.3221D+06                   775.0097     2.9808    28.1839
         INT.     0.5838D+07                  3097.2556    24.2537    42.8728
         TRA.     0.1038D+28                  1291.6828     4.9680    39.5863
         TOT.                       31.584    4388.9383    29.2217    82.4591

 270.00  VIB.     0.2157D+02                  2540.8895    22.4589    15.5139
         ROT.     0.3409D+06                   804.8177     2.9808    28.2964
         INT.     0.7353D+07                  3345.7072    25.4397    43.8103
         TRA.     0.1099D+28                  1341.3629     4.9680    39.7738
         TOT.                       31.882    4687.0701    30.4077    83.5842

 280.00  VIB.     0.2574D+02                  2771.4797    23.6616    16.3524
         ROT.     0.3600D+06                   834.6258     2.9808    28.4048
         INT.     0.9265D+07                  3606.1055    26.6424    44.7572
         TRA.     0.1160D+28                  1391.0430     4.9680    39.9545
         TOT.                       32.192    4997.1484    31.6104    84.7117

 290.00  VIB.     0.3079D+02                  3014.1653    24.8774    17.2039
         ROT.     0.3795D+06                   864.4339     2.9808    28.5094
         INT.     0.1168D+08                  3878.5992    27.8582    45.7133
         TRA.     0.1223D+28                  1440.7231     4.9680    40.1289
         TOT.                       32.514    5319.3223    32.8262    85.8421

 300.00  VIB.     0.3691D+02                  3269.0583    26.1025    18.0679
         ROT.     0.3992D+06                   894.2419     2.9808    28.6105
         INT.     0.1474D+08                  4163.3002    29.0833    46.6784
         TRA.     0.1287D+28                  1490.4032     4.9680    40.2973
         TOT.                       32.849    5653.7034    34.0513    86.9756

 310.00  VIB.     0.4437D+02                  3536.2347    27.3335    18.9439
         ROT.     0.4194D+06                   924.0500     2.9808    28.7082
         INT.     0.1861D+08                  4460.2846    30.3143    47.6520
         TRA.     0.1352D+28                  1540.0833     4.9680    40.4602
         TOT.                       33.195    6000.3679    35.2823    88.1122

 320.00  VIB.     0.5346D+02                  3815.7360    28.5670    19.8311
         ROT.     0.4398D+06                   953.8580     2.9808    28.8028
         INT.     0.2351D+08                  4769.5940    31.5478    48.6340
         TRA.     0.1418D+28                  1589.7634     4.9680    40.6179
         TOT.                       33.554    6359.3574    36.5158    89.2519

 330.00  VIB.     0.6456D+02                  4107.5716    29.7998    20.7291
         ROT.     0.4606D+06                   983.6661     2.9808    28.8946
         INT.     0.2974D+08                  5091.2377    32.7806    49.6236
         TRA.     0.1485D+28                  1639.4435     4.9680    40.7708
         TOT.                       33.926    6730.6813    37.7487    90.3944

 340.00  VIB.     0.7814D+02                  4411.7211    31.0292    21.6369
         ROT.     0.4817D+06                  1013.4742     2.9808    28.9835
         INT.     0.3764D+08                  5425.1952    34.0101    50.6205
         TRA.     0.1553D+28                  1689.1236     4.9680    40.9191
         TOT.                       34.309    7114.3189    38.9781    91.5396

 350.00  VIB.     0.9479D+02                  4728.1363    32.2526    22.5541
         ROT.     0.5031D+06                  1043.2822     2.9808    29.0699
         INT.     0.4769D+08                  5771.4186    35.2334    51.6240
         TRA.     0.1622D+28                  1738.8037     4.9680    41.0631
         TOT.                       34.705    7510.2223    40.2014    92.6871

 360.00  VIB.     0.1152D+03                  5056.7449    33.4675    23.4797
         ROT.     0.5248D+06                  1073.0903     2.9808    29.1539
         INT.     0.6048D+08                  6129.8352    36.4483    52.6336
         TRA.     0.1692D+28                  1788.4838     4.9680    41.2031
         TOT.                       35.113    7918.3190    41.4163    93.8367

 370.00  VIB.     0.1404D+03                  5397.4521    34.6720    24.4131
         ROT.     0.5468D+06                  1102.8984     2.9808    29.2356
         INT.     0.7677D+08                  6500.3504    37.6528    53.6487
         TRA.     0.1762D+28                  1838.1639     4.9680    41.3392
         TOT.                       35.534    8338.5144    42.6208    94.9879

 380.00  VIB.     0.1714D+03                  5750.1440    35.8642    25.3536
         ROT.     0.5692D+06                  1132.7064     2.9808    29.3151
         INT.     0.9753D+08                  6882.8504    38.8450    54.6687
         TRA.     0.1834D+28                  1887.8440     4.9680    41.4717
         TOT.                       35.966    8770.6945    43.8130    96.1404

 390.00  VIB.     0.2096D+03                  6114.6899    37.0426    26.3005
         ROT.     0.5918D+06                  1162.5145     2.9808    29.3925
         INT.     0.1240D+09                  7277.2044    40.0234    55.6930
         TRA.     0.1907D+28                  1937.5242     4.9680    41.6007
         TOT.                       36.410    9214.7285    44.9914    97.2937

 400.00  VIB.     0.2568D+03                  6490.9447    38.2058    27.2530
         ROT.     0.6147D+06                  1192.3226     2.9808    29.4680
         INT.     0.1579D+09                  7683.2673    41.1866    56.7210
         TRA.     0.1981D+28                  1987.2043     4.9680    41.7265
         TOT.                       36.866    9670.4716    46.1546    98.4475

   *: NOTE: HEATS OF FORMATION ARE RELATIVE TO THE
            ELEMENTS IN THEIR STANDARD STATE AT 298K
              (=  Standard Enthalpy of Formation).

            Hvib:  Zero-point energy is not included.
                   frequencies of less than zero cm-1 are not included.
            Hrot = (3/2)RT
            Htra = (3/2)RT + pV = (5/2)RT

            Heat capacity is Cp, not Cv

          For more information, see: HTTP://OpenMOPAC.net/Manual/thermochemistry.html


           FORCE CONSTANT IN CARTESIAN COORDINATES (Millidynes/A)

    ATOM   CHEMICAL       X               Y               Z
   NUMBER   SYMBOL  FORCE CONSTANT  FORCE CONSTANT  FORCE CONSTANT

      1       C       10.091454        6.774537        8.443434
      2       C       10.138369        6.152495        8.568305
      3       C        5.363676        9.587468        8.710760
      4       C        8.564789        8.621346        8.090253
      5       C        8.452812        8.345738        8.329613
      6       C        7.793922       15.466671        4.784821
      7       C       11.547634       11.592516        3.393057
      8       C        9.947345       12.983983        4.573098
      9       C       11.412175       12.734953        3.130269
     10       H        1.518198        0.680041        3.967716
     11       H        1.458321        0.667737        3.993911
     12       H        0.662435        2.211982        3.733710
     13       H        0.654553        2.306360        3.701701
     14       H        1.077443        1.497061        3.676514
     15       H        3.692478        1.545628        1.138485
     16       H        2.134653        3.913328        0.696807
     17       H        2.311158        3.563895        0.868493
     18       H        1.574032        0.744705        4.444205
     19       H        4.407723        0.937283        0.911581
     20       H        0.939723        4.739674        0.588405
     21       H        3.168168        2.509261        0.611686

 **********************
 *                    *
 * JOB ENDED NORMALLY *
 *                    *
 **********************



 TOTAL JOB TIME:             2.45 SECONDS

 == MOPAC DONE ==
