 *******************************************************************************
 **                                                                           **
 **                              MOPAC v23.1.2                                **
 **                                                                           **
 *******************************************************************************
 **          Digital Object Identifier (DOI): 10.5281/zenodo.6511958          **
 **    Visit the DOI location for information on how to cite this program.    **
 *******************************************************************************

                              PM3 CALCULATION RESULTS

 *******************************************************************************
 *  CALCULATION DONE: (MAX THREADS = 1)              Tue Jun  3 16:29:07 2025  *
 *  PM3        - The PM3 Hamiltonian to be used
 *  NONR       - DO NOT USE NEWTON-RAPHSON STEP IN EF
 *  PRECISE    - TIGHTER CRITERIA TO BE USED
 *  NOSYM      - POINT-GROUP SYMMETRY SET TO C1
 *  THREADS=1  - MULTI-THREADING NOT USED
 *  T=         - A TIME OF 172800.0 SECONDS REQUESTED
 *  DUMP=N     - RESTART FILE WRITTEN EVERY 7200.0 SECONDS REQUESTED
 *  GNORM      - EXIT WHEN GRADIENT NORM DROPS BELOW 0.000
 *******************************************************************************
pm3  precise nosym gnorm=0.0 nonr THREADS=1
 InChI=1S/C7H10/c1-6-3-4-7(2)5-6/h3-4H,5H2,1-2H3

   ATOM   CHEMICAL          X               Y               Z
  NUMBER   SYMBOL      (ANGSTROMS)     (ANGSTROMS)     (ANGSTROMS)

     1       C          0.06310000  *  -0.83140000  *  -0.30170000  *
     2       C         -2.55980000  *  -0.46270000  *  -0.23830000  *
     3       C          2.60720000  *  -0.16150000  *   0.01180000  *
     4       C         -1.15260000  *  -0.00440000  *  -0.03290000  *
     5       C          1.14310000  *   0.12940000  *   0.07830000  *
     6       C         -0.81770000  *   1.19720000  *   0.41470000  *
     7       C          0.62970000  *   1.28160000  *   0.48480000  *
     8       H          0.08390000  *  -1.73070000  *   0.34980000  *
     9       H          0.13080000  *  -1.10050000  *  -1.37720000  *
    10       H         -2.57140000  *  -1.50550000  *  -0.61920000  *
    11       H         -3.11090000  *  -0.42550000  *   0.72480000  *
    12       H         -3.06470000  *   0.19530000  *  -0.97650000  *
    13       H          3.10110000  *   0.55460000  *  -0.67790000  *
    14       H          3.05490000  *  -0.06620000  *   1.02330000  *
    15       H          2.77620000  *  -1.19380000  *  -0.36030000  *
    16       H         -1.51200000  *   1.98310000  *   0.68260000  *
    17       H          1.19920000  *   2.14110000  *   0.81390000  *



          CARTESIAN COORDINATES 

    NO.       ATOM           X           Y           Z

     1         C          0.0631     -0.8314     -0.3017
     2         C         -2.5598     -0.4627     -0.2383
     3         C          2.6072     -0.1615      0.0118
     4         C         -1.1526     -0.0044     -0.0329
     5         C          1.1431      0.1294      0.0783
     6         C         -0.8177      1.1972      0.4147
     7         C          0.6297      1.2816      0.4848
     8         H          0.0839     -1.7307      0.3498
     9         H          0.1308     -1.1005     -1.3772
    10         H         -2.5714     -1.5055     -0.6192
    11         H         -3.1109     -0.4255      0.7248
    12         H         -3.0647      0.1953     -0.9765
    13         H          3.1011      0.5546     -0.6779
    14         H          3.0549     -0.0662      1.0233
    15         H          2.7762     -1.1938     -0.3603
    16         H         -1.5120      1.9831      0.6826
    17         H          1.1992      2.1411      0.8139

  H: (PM3): J. J. P. STEWART, J. COMP. CHEM. 10, 209 (1989).
  C: (PM3): J. J. P. STEWART, J. COMP. CHEM. 10, 209 (1989).

           Empirical Formula: C7 H10  =    17 atoms



      MOLECULAR POINT GROUP   :   C1  


      RHF CALCULATION, NO. OF DOUBLY OCCUPIED LEVELS = 19


          Geometry optimization using EF

  GNORM HAS BEEN SET TOO LOW, RESET TO 0.01

  SPECIFY LET AS KEYWORD TO ALLOW GNORM LESS THAN 0.01

          DIAGONAL MATRIX USED AS START HESSIAN

 CYCLE:     1 TIME:   0.004 TIME LEFT:  2.00D  GRAD.:   129.357 HEAT:  16.46693
 CYCLE:     2 TIME:   0.012 TIME LEFT:  2.00D  GRAD.:    59.046 HEAT:  14.12680
 CYCLE:     3 TIME:   0.004 TIME LEFT:  2.00D  GRAD.:    31.431 HEAT:  13.21309
 CYCLE:     4 TIME:   0.008 TIME LEFT:  2.00D  GRAD.:    21.325 HEAT:  12.90699
 CYCLE:     5 TIME:   0.004 TIME LEFT:  2.00D  GRAD.:    26.574 HEAT:  12.76035
 CYCLE:     6 TIME:   0.004 TIME LEFT:  2.00D  GRAD.:    25.654 HEAT:  12.63287
 CYCLE:     7 TIME:   0.004 TIME LEFT:  2.00D  GRAD.:    17.148 HEAT:  12.46803
 CYCLE:     8 TIME:   0.008 TIME LEFT:  2.00D  GRAD.:    13.875 HEAT:  12.42322
 CYCLE:     9 TIME:   0.004 TIME LEFT:  2.00D  GRAD.:     9.614 HEAT:  12.37114
 CYCLE:    10 TIME:   0.004 TIME LEFT:  2.00D  GRAD.:    13.785 HEAT:  12.35130
 CYCLE:    11 TIME:   0.004 TIME LEFT:  2.00D  GRAD.:    12.458 HEAT:  12.30431
 CYCLE:    12 TIME:   0.004 TIME LEFT:  2.00D  GRAD.:    15.403 HEAT:  12.28701
 CYCLE:    13 TIME:   0.020 TIME LEFT:  2.00D  GRAD.:     9.147 HEAT:  12.22031
 CYCLE:    14 TIME:   0.008 TIME LEFT:  2.00D  GRAD.:    10.771 HEAT:  12.20913
 CYCLE:    15 TIME:   0.008 TIME LEFT:  2.00D  GRAD.:     8.018 HEAT:  12.18119
 CYCLE:    16 TIME:   0.004 TIME LEFT:  2.00D  GRAD.:     5.196 HEAT:  12.16492
 CYCLE:    17 TIME:   0.012 TIME LEFT:  2.00D  GRAD.:     4.967 HEAT:  12.14927
 CYCLE:    18 TIME:   0.004 TIME LEFT:  2.00D  GRAD.:     3.567 HEAT:  12.13476
 CYCLE:    19 TIME:   0.008 TIME LEFT:  2.00D  GRAD.:     3.526 HEAT:  12.10539
 CYCLE:    20 TIME:   0.004 TIME LEFT:  2.00D  GRAD.:     5.191 HEAT:  12.08573
 CYCLE:    21 TIME:   0.004 TIME LEFT:  2.00D  GRAD.:     4.119 HEAT:  12.06684
 CYCLE:    22 TIME:   0.008 TIME LEFT:  2.00D  GRAD.:     4.254 HEAT:  12.05342
 CYCLE:    23 TIME:   0.004 TIME LEFT:  2.00D  GRAD.:     2.843 HEAT:  12.04142
 CYCLE:    24 TIME:   0.008 TIME LEFT:  2.00D  GRAD.:     2.792 HEAT:  12.03845
 CYCLE:    25 TIME:   0.004 TIME LEFT:  2.00D  GRAD.:     1.859 HEAT:  12.03472
 CYCLE:    26 TIME:   0.004 TIME LEFT:  2.00D  GRAD.:     2.378 HEAT:  12.03144
 CYCLE:    27 TIME:   0.004 TIME LEFT:  2.00D  GRAD.:     1.009 HEAT:  12.02926
 CYCLE:    28 TIME:   0.004 TIME LEFT:  2.00D  GRAD.:     1.057 HEAT:  12.02906
 CYCLE:    29 TIME:   0.008 TIME LEFT:  2.00D  GRAD.:     0.359 HEAT:  12.02860
 CYCLE:    30 TIME:   0.004 TIME LEFT:  2.00D  GRAD.:     0.267 HEAT:  12.02844
 CYCLE:    31 TIME:   0.004 TIME LEFT:  2.00D  GRAD.:     0.249 HEAT:  12.02832
 CYCLE:    32 TIME:   0.004 TIME LEFT:  2.00D  GRAD.:     0.284 HEAT:  12.02815
 CYCLE:    33 TIME:   0.004 TIME LEFT:  2.00D  GRAD.:     0.215 HEAT:  12.02811
 CYCLE:    34 TIME:   0.004 TIME LEFT:  2.00D  GRAD.:     0.136 HEAT:  12.02807
 CYCLE:    35 TIME:   0.004 TIME LEFT:  2.00D  GRAD.:     0.101 HEAT:  12.02804
 CYCLE:    36 TIME:   0.004 TIME LEFT:  2.00D  GRAD.:     0.098 HEAT:  12.02801
 CYCLE:    37 TIME:   0.004 TIME LEFT:  2.00D  GRAD.:     0.161 HEAT:  12.02792
 CYCLE:    38 TIME:   0.004 TIME LEFT:  2.00D  GRAD.:     0.158 HEAT:  12.02788
 CYCLE:    39 TIME:   0.008 TIME LEFT:  2.00D  GRAD.:     0.117 HEAT:  12.02777
 CYCLE:    40 TIME:   0.004 TIME LEFT:  2.00D  GRAD.:     0.122 HEAT:  12.02771
 CYCLE:    41 TIME:   0.004 TIME LEFT:  2.00D  GRAD.:     0.084 HEAT:  12.02769
 CYCLE:    42 TIME:   0.004 TIME LEFT:  2.00D  GRAD.:     0.053 HEAT:  12.02767
 CYCLE:    43 TIME:   0.004 TIME LEFT:  2.00D  GRAD.:     0.038 HEAT:  12.02767
 CYCLE:    44 TIME:   0.004 TIME LEFT:  2.00D  GRAD.:     0.033 HEAT:  12.02766
 CYCLE:    45 TIME:   0.004 TIME LEFT:  2.00D  GRAD.:     0.037 HEAT:  12.02766
 CYCLE:    46 TIME:   0.004 TIME LEFT:  2.00D  GRAD.:     0.032 HEAT:  12.02765
 CYCLE:    47 TIME:   0.004 TIME LEFT:  2.00D  GRAD.:     0.027 HEAT:  12.02765
 CYCLE:    48 TIME:   0.008 TIME LEFT:  2.00D  GRAD.:     0.024 HEAT:  12.02765
 CYCLE:    49 TIME:   0.004 TIME LEFT:  2.00D  GRAD.:     0.023 HEAT:  12.02765
 CYCLE:    50 TIME:   0.004 TIME LEFT:  2.00D  GRAD.:     0.022 HEAT:  12.02765
 CYCLE:    51 TIME:   0.004 TIME LEFT:  2.00D  GRAD.:     0.028 HEAT:  12.02764
 CYCLE:    52 TIME:   0.004 TIME LEFT:  2.00D  GRAD.:     0.018 HEAT:  12.02764
 CYCLE:    53 TIME:   0.012 TIME LEFT:  2.00D  GRAD.:     0.016 HEAT:  12.02764
 CYCLE:    54 TIME:   0.004 TIME LEFT:  2.00D  GRAD.:     0.019 HEAT:  12.02764
 CYCLE:    55 TIME:   0.004 TIME LEFT:  2.00D  GRAD.:     0.023 HEAT:  12.02764
 CYCLE:    56 TIME:   0.004 TIME LEFT:  2.00D  GRAD.:     0.036 HEAT:  12.02763
 CYCLE:    57 TIME:   0.004 TIME LEFT:  2.00D  GRAD.:     0.037 HEAT:  12.02763
 CYCLE:    58 TIME:   0.000 TIME LEFT:  2.00D  GRAD.:     0.046 HEAT:  12.02763
 CYCLE:    59 TIME:   0.004 TIME LEFT:  2.00D  GRAD.:     0.064 HEAT:  12.02763
 CYCLE:    60 TIME:   0.004 TIME LEFT:  2.00D  GRAD.:     0.059 HEAT:  12.02763
 CYCLE:    61 TIME:   0.008 TIME LEFT:  2.00D  GRAD.:     0.068 HEAT:  12.02763
 CYCLE:    62 TIME:   0.004 TIME LEFT:  2.00D  GRAD.:     0.060 HEAT:  12.02762
 CYCLE:    63 TIME:   0.004 TIME LEFT:  2.00D  GRAD.:     0.064 HEAT:  12.02762
 CYCLE:    64 TIME:   0.004 TIME LEFT:  2.00D  GRAD.:     0.073 HEAT:  12.02762
 CYCLE:    65 TIME:   0.004 TIME LEFT:  2.00D  GRAD.:     0.083 HEAT:  12.02762
 CYCLE:    66 TIME:   0.004 TIME LEFT:  2.00D  GRAD.:     0.081 HEAT:  12.02761
 CYCLE:    67 TIME:   0.004 TIME LEFT:  2.00D  GRAD.:     0.085 HEAT:  12.02761
 CYCLE:    68 TIME:   0.004 TIME LEFT:  2.00D  GRAD.:     0.131 HEAT:  12.02758
 CYCLE:    69 TIME:   0.004 TIME LEFT:  2.00D  GRAD.:     0.093 HEAT:  12.02758
 CYCLE:    70 TIME:   0.004 TIME LEFT:  2.00D  GRAD.:     0.207 HEAT:  12.02756
 CYCLE:    71 TIME:   0.000 TIME LEFT:  2.00D  GRAD.:     0.140 HEAT:  12.02754
 CYCLE:    72 TIME:   0.004 TIME LEFT:  2.00D  GRAD.:     0.058 HEAT:  12.02751
 CYCLE:    73 TIME:   0.004 TIME LEFT:  2.00D  GRAD.:     0.066 HEAT:  12.02749
 CYCLE:    74 TIME:   0.004 TIME LEFT:  2.00D  GRAD.:     0.063 HEAT:  12.02743
 CYCLE:    75 TIME:   0.004 TIME LEFT:  2.00D  GRAD.:     0.125 HEAT:  12.02739
 CYCLE:    76 TIME:   0.004 TIME LEFT:  2.00D  GRAD.:     0.126 HEAT:  12.02729
 CYCLE:    77 TIME:   0.004 TIME LEFT:  2.00D  GRAD.:     0.149 HEAT:  12.02691
 CYCLE:    78 TIME:   0.004 TIME LEFT:  2.00D  GRAD.:     0.487 HEAT:  12.02517
 CYCLE:    79 TIME:   0.008 TIME LEFT:  2.00D  GRAD.:     0.839 HEAT:  12.02289
 CYCLE:    80 TIME:   0.004 TIME LEFT:  2.00D  GRAD.:     4.283 HEAT:  12.01380
 CYCLE:    81 TIME:   0.004 TIME LEFT:  2.00D  GRAD.:     1.868 HEAT:  11.97972
 CYCLE:    82 TIME:   0.016 TIME LEFT:  2.00D  GRAD.:     4.979 HEAT:  11.98834
 CYCLE:    83 TIME:   0.004 TIME LEFT:  2.00D  GRAD.:     4.982 HEAT:  11.98686
 CYCLE:    84 TIME:   0.004 TIME LEFT:  2.00D  GRAD.:     2.361 HEAT:  11.97088
 CYCLE:    85 TIME:   0.004 TIME LEFT:  2.00D  GRAD.:     1.374 HEAT:  11.96240
 CYCLE:    86 TIME:   0.004 TIME LEFT:  2.00D  GRAD.:     1.375 HEAT:  11.95547
 CYCLE:    87 TIME:   0.004 TIME LEFT:  2.00D  GRAD.:     5.160 HEAT:  11.94027
 CYCLE:    88 TIME:   0.004 TIME LEFT:  2.00D  GRAD.:     4.681 HEAT:  11.93382
 CYCLE:    89 TIME:   0.004 TIME LEFT:  2.00D  GRAD.:     4.551 HEAT:  11.92766
 CYCLE:    90 TIME:   0.000 TIME LEFT:  2.00D  GRAD.:     4.714 HEAT:  11.91169
 CYCLE:    91 TIME:   0.008 TIME LEFT:  2.00D  GRAD.:     8.146 HEAT:  11.87988
 CYCLE:    92 TIME:   0.000 TIME LEFT:  2.00D  GRAD.:    27.033 HEAT:  11.86655
 CYCLE:    93 TIME:   0.004 TIME LEFT:  2.00D  GRAD.:    11.047 HEAT:  11.67154
 CYCLE:    94 TIME:   0.012 TIME LEFT:  2.00D  GRAD.:     5.646 HEAT:  11.62298
 CYCLE:    95 TIME:   0.008 TIME LEFT:  2.00D  GRAD.:     5.366 HEAT:  11.60782
 CYCLE:    96 TIME:   0.000 TIME LEFT:  2.00D  GRAD.:     2.347 HEAT:  11.59468
 CYCLE:    97 TIME:   0.004 TIME LEFT:  2.00D  GRAD.:     2.474 HEAT:  11.59125
 CYCLE:    98 TIME:   0.020 TIME LEFT:  2.00D  GRAD.:     3.170 HEAT:  11.59110
 CYCLE:    99 TIME:   0.004 TIME LEFT:  2.00D  GRAD.:     3.161 HEAT:  11.59062
 CYCLE:   100 TIME:   0.000 TIME LEFT:  2.00D  GRAD.:     2.758 HEAT:  11.58795
 CYCLE:   101 TIME:   0.004 TIME LEFT:  2.00D  GRAD.:     2.356 HEAT:  11.58198
 CYCLE:   102 TIME:   0.004 TIME LEFT:  2.00D  GRAD.:     1.809 HEAT:  11.56683
 CYCLE:   103 TIME:   0.004 TIME LEFT:  2.00D  GRAD.:     2.777 HEAT:  11.53281
 CYCLE:   104 TIME:   0.004 TIME LEFT:  2.00D  GRAD.:     3.327 HEAT:  11.52200
 CYCLE:   105 TIME:   0.004 TIME LEFT:  2.00D  GRAD.:     5.189 HEAT:  11.48953
 CYCLE:   106 TIME:   0.004 TIME LEFT:  2.00D  GRAD.:     5.442 HEAT:  11.47251
 CYCLE:   107 TIME:   0.004 TIME LEFT:  2.00D  GRAD.:     4.164 HEAT:  11.46002
 CYCLE:   108 TIME:   0.008 TIME LEFT:  2.00D  GRAD.:     4.977 HEAT:  11.44492
 CYCLE:   109 TIME:   0.004 TIME LEFT:  2.00D  GRAD.:     1.798 HEAT:  11.43774
 CYCLE:   110 TIME:   0.000 TIME LEFT:  2.00D  GRAD.:     1.592 HEAT:  11.43330
 CYCLE:   111 TIME:   0.004 TIME LEFT:  2.00D  GRAD.:     1.970 HEAT:  11.42999
 CYCLE:   112 TIME:   0.004 TIME LEFT:  2.00D  GRAD.:     5.944 HEAT:  11.43148
 CYCLE:   113 TIME:   0.004 TIME LEFT:  2.00D  GRAD.:     1.632 HEAT:  11.41863
 CYCLE:   114 TIME:   0.004 TIME LEFT:  2.00D  GRAD.:     1.996 HEAT:  11.41665
 CYCLE:   115 TIME:   0.004 TIME LEFT:  2.00D  GRAD.:     1.591 HEAT:  11.41220
 CYCLE:   116 TIME:   0.004 TIME LEFT:  2.00D  GRAD.:     1.131 HEAT:  11.40952
 CYCLE:   117 TIME:   0.004 TIME LEFT:  2.00D  GRAD.:     1.091 HEAT:  11.40806
 CYCLE:   118 TIME:   0.004 TIME LEFT:  2.00D  GRAD.:     0.685 HEAT:  11.40744
 CYCLE:   119 TIME:   0.004 TIME LEFT:  2.00D  GRAD.:     0.658 HEAT:  11.40658
 CYCLE:   120 TIME:   0.004 TIME LEFT:  2.00D  GRAD.:     0.583 HEAT:  11.40626
 CYCLE:   121 TIME:   0.000 TIME LEFT:  2.00D  GRAD.:     0.522 HEAT:  11.40563
 CYCLE:   122 TIME:   0.004 TIME LEFT:  2.00D  GRAD.:     0.445 HEAT:  11.40537
 CYCLE:   123 TIME:   0.004 TIME LEFT:  2.00D  GRAD.:     0.362 HEAT:  11.40509
 CYCLE:   124 TIME:   0.004 TIME LEFT:  2.00D  GRAD.:     0.320 HEAT:  11.40497
 CYCLE:   125 TIME:   0.004 TIME LEFT:  2.00D  GRAD.:     0.299 HEAT:  11.40482
 CYCLE:   126 TIME:   0.004 TIME LEFT:  2.00D  GRAD.:     0.230 HEAT:  11.40473
 CYCLE:   127 TIME:   0.004 TIME LEFT:  2.00D  GRAD.:     0.178 HEAT:  11.40461
 CYCLE:   128 TIME:   0.004 TIME LEFT:  2.00D  GRAD.:     0.164 HEAT:  11.40455
 CYCLE:   129 TIME:   0.000 TIME LEFT:  2.00D  GRAD.:     0.187 HEAT:  11.40450
 CYCLE:   130 TIME:   0.004 TIME LEFT:  2.00D  GRAD.:     0.147 HEAT:  11.40446
 CYCLE:   131 TIME:   0.004 TIME LEFT:  2.00D  GRAD.:     0.123 HEAT:  11.40441
 CYCLE:   132 TIME:   0.004 TIME LEFT:  2.00D  GRAD.:     0.173 HEAT:  11.40434
 CYCLE:   133 TIME:   0.004 TIME LEFT:  2.00D  GRAD.:     0.204 HEAT:  11.40429
 CYCLE:   134 TIME:   0.004 TIME LEFT:  2.00D  GRAD.:     0.295 HEAT:  11.40413
 CYCLE:   135 TIME:   0.000 TIME LEFT:  2.00D  GRAD.:     0.626 HEAT:  11.40363
 CYCLE:   136 TIME:   0.004 TIME LEFT:  2.00D  GRAD.:     1.392 HEAT:  11.40442
 CYCLE:   137 TIME:   0.004 TIME LEFT:  2.00D  GRAD.:     0.623 HEAT:  11.40276
 CYCLE:   138 TIME:   0.004 TIME LEFT:  2.00D  GRAD.:     0.437 HEAT:  11.40229
 CYCLE:   139 TIME:   0.004 TIME LEFT:  2.00D  GRAD.:     0.382 HEAT:  11.40180
 CYCLE:   140 TIME:   0.004 TIME LEFT:  2.00D  GRAD.:     0.417 HEAT:  11.40121
 CYCLE:   141 TIME:   0.004 TIME LEFT:  2.00D  GRAD.:     0.538 HEAT:  11.40033
 CYCLE:   142 TIME:   0.004 TIME LEFT:  2.00D  GRAD.:     0.936 HEAT:  11.39925
 CYCLE:   143 TIME:   0.004 TIME LEFT:  2.00D  GRAD.:     0.687 HEAT:  11.39846
 CYCLE:   144 TIME:   0.004 TIME LEFT:  2.00D  GRAD.:     0.605 HEAT:  11.39778
 CYCLE:   145 TIME:   0.000 TIME LEFT:  2.00D  GRAD.:     0.643 HEAT:  11.39669
 CYCLE:   146 TIME:   0.004 TIME LEFT:  2.00D  GRAD.:     0.525 HEAT:  11.39653
 CYCLE:   147 TIME:   0.004 TIME LEFT:  2.00D  GRAD.:     0.340 HEAT:  11.39638
 CYCLE:   148 TIME:   0.004 TIME LEFT:  2.00D  GRAD.:     0.194 HEAT:  11.39629
 CYCLE:   149 TIME:   0.004 TIME LEFT:  2.00D  GRAD.:     0.164 HEAT:  11.39627
 CYCLE:   150 TIME:   0.004 TIME LEFT:  2.00D  GRAD.:     0.138 HEAT:  11.39625
 CYCLE:   151 TIME:   0.004 TIME LEFT:  2.00D  GRAD.:     0.063 HEAT:  11.39623
 CYCLE:   152 TIME:   0.004 TIME LEFT:  2.00D  GRAD.:     0.044 HEAT:  11.39624
 CYCLE:   153 TIME:   0.000 TIME LEFT:  2.00D  GRAD.:     0.022 HEAT:  11.39623
 CYCLE:   154 TIME:   0.004 TIME LEFT:  2.00D  GRAD.:     0.020 HEAT:  11.39623
 CYCLE:   155 TIME:   0.004 TIME LEFT:  2.00D  GRAD.:     0.017 HEAT:  11.39623
 CYCLE:   156 TIME:   0.004 TIME LEFT:  2.00D  GRAD.:     0.017 HEAT:  11.39623
 CYCLE:   157 TIME:   0.004 TIME LEFT:  2.00D  GRAD.:     0.010 HEAT:  11.39623
 CYCLE:   158 TIME:   0.000 TIME LEFT:  2.00D  GRAD.:     0.008 HEAT:  11.39623

     GRADIENT =  0.00784 IS LESS THAN CUTOFF =  0.01000



 -------------------------------------------------------------------------------
 pm3  precise nosym gnorm=0.0 nonr THREADS=1
 InChI=1S/C7H10/c1-6-3-4-7(2)5-6/h3-4H,5H2,1-2H3



     GEOMETRY OPTIMISED USING EIGENVECTOR FOLLOWING (EF).     
     SCF FIELD WAS ACHIEVED                                   


                              PM3 CALCULATION
                                                       MOPAC v23.1.2 MacOS
                                                       Tue Jun  3 16:29:07 2025




          FINAL HEAT OF FORMATION =         11.39623 KCAL/MOL =      47.68182 KJ/MOL


          COSMO AREA              =        148.20 SQUARE ANGSTROMS
          COSMO VOLUME            =        139.80 CUBIC ANGSTROMS

          GRADIENT NORM           =          0.00784          =       0.00190 PER ATOM
          IONIZATION POTENTIAL    =          8.760820 EV
          HOMO LUMO ENERGIES (EV) =         -8.761  0.283
          NO. OF FILLED LEVELS    =         19
          MOLECULAR WEIGHT        =         94.1560         POINT GROUP:  C1  

          MOLECULAR DIMENSIONS (Angstroms)

            Atom       Atom       Distance
            H    14    H    11     6.56401
            H    16    H     9     3.88782
            H    13    H     8     1.84791


          SCF CALCULATIONS        =        180

          WALL-CLOCK TIME         =      0.719 SECONDS
          COMPUTATION TIME        =      0.483 SECONDS




   ATOM   CHEMICAL          X               Y               Z
  NUMBER   SYMBOL      (ANGSTROMS)     (ANGSTROMS)     (ANGSTROMS)

     1       C          0.06331666  *  -0.73639771  *  -0.42073733  *
     2       C         -2.53159714  *  -0.47764705  *  -0.32027104  *
     3       C          2.58892332  *  -0.17920344  *  -0.07211669  *
     4       C         -1.17948484  *   0.01800633  *  -0.02480919  *
     5       C          1.16633212  *   0.15468992  *   0.08893750  *
     6       C         -0.83012975  *   1.16294548  *   0.61259835  *
     7       C          0.62684328  *   1.24782356  *   0.68327299  *
     8       H          0.09922372  *  -1.73868527  *   0.04315390  *
     9       H          0.12465907  *  -0.87910293  *  -1.51478502  *
    10       H         -2.70049900  *  -1.45485877  *   0.15196567  *
    11       H         -3.30574267  *   0.21008713  *   0.04312959  *
    12       H         -2.67324830  *  -0.60304495  *  -1.40224406  *
    13       H          2.84876901  *  -0.27630968  *  -1.13490543  *
    14       H          3.23942127  *   0.58922708  *   0.36457297  *
    15       H          2.82273241  *  -1.13531951  *   0.41535261  *
    16       H         -1.49806499  *   1.92001369  *   1.01934796  *
    17       H          1.16021516  *   2.07484683  *   1.14833878  *

                             CARTESIAN COORDINATES

   1    C        0.063316658    -0.736397706    -0.420737333
   2    C       -2.531597138    -0.477647054    -0.320271041
   3    C        2.588923322    -0.179203443    -0.072116691
   4    C       -1.179484838     0.018006330    -0.024809187
   5    C        1.166332122     0.154689918     0.088937497
   6    C       -0.830129748     1.162945483     0.612598350
   7    C        0.626843278     1.247823560     0.683272987
   8    H        0.099223724    -1.738685270     0.043153900
   9    H        0.124659068    -0.879102932    -1.514785023
  10    H       -2.700499004    -1.454858766     0.151965668
  11    H       -3.305742669     0.210087129     0.043129588
  12    H       -2.673248302    -0.603044952    -1.402244065
  13    H        2.848769013    -0.276309676    -1.134905428
  14    H        3.239421271     0.589227080     0.364572969
  15    H        2.822732413    -1.135319506     0.415352612
  16    H       -1.498064986     1.920013692     1.019347958
  17    H        1.160215160     2.074846829     1.148338783


           Empirical Formula: C7 H10  =    17 atoms



      MOLECULAR POINT GROUP   :   C1  


                  EIGENVALUES  
 -40.34886 -32.73691 -29.06457 -26.62493 -22.99090 -18.90323 -18.00619 -16.72126
 -15.65701 -14.43469 -14.18819 -14.18068 -13.75245 -13.19931 -12.81350 -12.72711
 -12.28018 -10.71979  -8.76082   0.28344   2.00504   3.23162   3.38331   3.78928
   3.84891   4.00130   4.09455   4.30967   4.32619   4.32757   4.44484   4.50998
   4.56820   4.62111   5.14559   5.87685   5.93887   6.29023


              NET ATOMIC CHARGES AND DIPOLE CONTRIBUTIONS

  ATOM NO.   TYPE          CHARGE      No. of ELECS.   s-Pop       p-Pop       
    1          C          -0.030849        4.0308     1.14269     2.88816
    2          C          -0.045661        4.0457     1.11568     2.92998
    3          C          -0.045659        4.0457     1.11568     2.92998
    4          C          -0.146030        4.1460     1.20844     2.93759
    5          C          -0.146028        4.1460     1.20844     2.93759
    6          C          -0.119323        4.1193     1.18901     2.93031
    7          C          -0.119325        4.1193     1.18901     2.93031
    8          H           0.080115        0.9199     0.91989
    9          H           0.080115        0.9199     0.91988
   10          H           0.043791        0.9562     0.95621
   11          H           0.043345        0.9567     0.95666
   12          H           0.043764        0.9562     0.95624
   13          H           0.043785        0.9562     0.95621
   14          H           0.043343        0.9567     0.95666
   15          H           0.043769        0.9562     0.95623
   16          H           0.115424        0.8846     0.88458
   17          H           0.115424        0.8846     0.88458
 DIPOLE           X         Y         Z       TOTAL
 POINT-CHG.     0.051    -0.605    -0.333     0.693
 HYBRID         0.002    -0.028    -0.015     0.032
 SUM            0.054    -0.634    -0.349     0.725


          ATOMIC ORBITAL ELECTRON POPULATIONS

     Atom    s        px        py        pz   
    1  C   1.14269   0.91600   0.97332   0.99884
    2  C   1.11568   0.93076   0.99840   1.00082
    3  C   1.11568   0.92262   1.00396   1.00340
    4  C   1.20844   0.95539   0.97575   1.00645
    5  C   1.20844   0.95561   0.97559   1.00639
    6  C   1.18901   0.95099   0.97155   1.00777
    7  C   1.18901   0.94480   0.97578   1.00973
    8  H   0.91989
    9  H   0.91988
   10  H   0.95621
   11  H   0.95666
   12  H   0.95624
   13  H   0.95621
   14  H   0.95666
   15  H   0.95623
   16  H   0.88458
   17  H   0.88458
 *******************************************************************************
 **                                                                           **
 **                              MOPAC v23.1.2                                **
 **                                                                           **
 *******************************************************************************
 **          Digital Object Identifier (DOI): 10.5281/zenodo.6511958          **
 **    Visit the DOI location for information on how to cite this program.    **
 *******************************************************************************

                              PM3 CALCULATION RESULTS

 *******************************************************************************
 *  CALCULATION DONE: (MAX THREADS = 1)              Tue Jun  3 16:29:07 2025  *
 *  PM3        - The PM3 Hamiltonian to be used
 *  OLDGEO     - PREVIOUS GEOMETRY TO BE USED
 *  PRECISE    - TIGHTER CRITERIA TO BE USED
 *  NOSYM      - POINT-GROUP SYMMETRY SET TO C1
 *  THREADS=1  - MULTI-THREADING NOT USED
 *  T=         - A TIME OF 172800.0 SECONDS REQUESTED
 *  DUMP=N     - RESTART FILE WRITTEN EVERY 7200.0 SECONDS REQUESTED
 *  THERMO     - THERMODYNAMIC QUANTITIES TO BE CALCULATED
 *******************************************************************************
oldgeo thermo nosym precise THREADS=1  pm3
 InChI=1S/C7H10/c1-6-3-4-7(2)5-6/h3-4H,5H2,1-2H3

   ATOM   CHEMICAL          X               Y               Z
  NUMBER   SYMBOL      (ANGSTROMS)     (ANGSTROMS)     (ANGSTROMS)

     1       C          0.06331666  *  -0.73639771  *  -0.42073733  *
     2       C         -2.53159714  *  -0.47764705  *  -0.32027104  *
     3       C          2.58892332  *  -0.17920344  *  -0.07211669  *
     4       C         -1.17948484  *   0.01800633  *  -0.02480919  *
     5       C          1.16633212  *   0.15468992  *   0.08893750  *
     6       C         -0.83012975  *   1.16294548  *   0.61259835  *
     7       C          0.62684328  *   1.24782356  *   0.68327299  *
     8       H          0.09922372  *  -1.73868527  *   0.04315390  *
     9       H          0.12465907  *  -0.87910293  *  -1.51478502  *
    10       H         -2.70049900  *  -1.45485877  *   0.15196567  *
    11       H         -3.30574267  *   0.21008713  *   0.04312959  *
    12       H         -2.67324830  *  -0.60304495  *  -1.40224406  *
    13       H          2.84876901  *  -0.27630968  *  -1.13490543  *
    14       H          3.23942127  *   0.58922708  *   0.36457297  *
    15       H          2.82273241  *  -1.13531951  *   0.41535261  *
    16       H         -1.49806499  *   1.92001369  *   1.01934796  *
    17       H          1.16021516  *   2.07484683  *   1.14833878  *



          CARTESIAN COORDINATES 

    NO.       ATOM           X           Y           Z

     1         C          0.0633     -0.7364     -0.4207
     2         C         -2.5316     -0.4776     -0.3203
     3         C          2.5889     -0.1792     -0.0721
     4         C         -1.1795      0.0180     -0.0248
     5         C          1.1663      0.1547      0.0889
     6         C         -0.8301      1.1629      0.6126
     7         C          0.6268      1.2478      0.6833
     8         H          0.0992     -1.7387      0.0432
     9         H          0.1247     -0.8791     -1.5148
    10         H         -2.7005     -1.4549      0.1520
    11         H         -3.3057      0.2101      0.0431
    12         H         -2.6732     -0.6030     -1.4022
    13         H          2.8488     -0.2763     -1.1349
    14         H          3.2394      0.5892      0.3646
    15         H          2.8227     -1.1353      0.4154
    16         H         -1.4981      1.9200      1.0193
    17         H          1.1602      2.0748      1.1483

  H: (PM3): J. J. P. STEWART, J. COMP. CHEM. 10, 209 (1989).
  C: (PM3): J. J. P. STEWART, J. COMP. CHEM. 10, 209 (1989).

           Empirical Formula: C7 H10  =    17 atoms



      MOLECULAR POINT GROUP   :   C1  


      RHF CALCULATION, NO. OF DOUBLY OCCUPIED LEVELS = 19



          HEAT OF FORMATION =      11.396227 KCALS/MOLE


          CARTESIAN COORDINATE DERIVATIVES

   NUMBER  ATOM         X            Y            Z

     1       C      0.000949     0.000985    -0.001188
     2       C     -0.002879    -0.000008     0.002338
     3       C     -0.001807    -0.000614    -0.003666
     4       C      0.001086    -0.002867     0.001169
     5       C     -0.000409     0.000150     0.001007
     6       C     -0.001456     0.001778    -0.004566
     7       C      0.004269     0.000965     0.004423
     8       H      0.001067    -0.000837    -0.000301
     9       H      0.000812    -0.000538     0.000849
    10       H      0.000533     0.000882    -0.002497
    11       H      0.001322     0.001458     0.000082
    12       H     -0.001676    -0.001686     0.000438
    13       H      0.000028     0.001896     0.000492
    14       H      0.000091    -0.001995    -0.000029
    15       H     -0.000096     0.000596     0.002067
    16       H     -0.001068    -0.000351     0.000253
    17       H     -0.000767     0.000188    -0.000873



          GRADIENT NORM =   0.01211

          MOLECULAR WEIGHT =   94.16



          ROTATIONAL CONSTANTS IN CM(-1)

          A =    0.21136174   B =    0.06351777   C =    0.05022648



           PRINCIPAL MOMENTS OF INERTIA IN UNITS OF 10**(-40)*GRAM-CM**2

          A =      132.4400   B =      440.7074   C =      557.3305


          ORIENTATION OF MOLECULE IN FORCE CALCULATION

    NO.       ATOM         X         Y         Z

     1          C      -0.1791   -0.9847   -0.0000
     2          C       2.4306   -0.9847   -0.0000
     3          C      -2.6217   -0.0658   -0.0000
     4          C       1.1467   -0.2686    0.0000
     5          C      -1.1679    0.1523   -0.0000
     6          C       0.9374    1.0713    0.0001
     7          C      -0.5002    1.3327    0.0000
     8          H      -0.2963   -1.6294   -0.8898
     9          H      -0.2963   -1.6294    0.8897
    10          H       2.5199   -1.6251   -0.8879
    11          H       3.2826   -0.2929    0.0030
    12          H       2.5174   -1.6299    0.8846
    13          H      -2.9306   -0.6349    0.8872
    14          H      -3.1755    0.8816   -0.0019
    15          H      -2.9302   -0.6381   -0.8853
    16          H       1.6923    1.8555    0.0001
    17          H      -0.9306    2.3325    0.0000


    FIRST DERIVATIVES WILL BE USED IN THE CALCULATION OF SECOND DERIVATIVES

          ESTIMATED TIME TO COMPLETE CALCULATION =        0.80 SECONDS

    FOR POINT-GROUP C1   THERE ARE   1 UNIQUE SYMMETRY FUNCTIONS.

 STEP:   1 TIME =     0.01 SECS, INTEGRAL =      0.01 TIME LEFT: 172799.99
 STEP:   2 TIME =     0.01 SECS, INTEGRAL =      0.02 TIME LEFT: 172799.98
 STEP:   3 TIME =     0.01 SECS, INTEGRAL =      0.04 TIME LEFT: 172799.96
 STEP:   4 TIME =     0.01 SECS, INTEGRAL =      0.05 TIME LEFT: 172799.95
 STEP:   5 TIME =     0.01 SECS, INTEGRAL =      0.06 TIME LEFT: 172799.94
 STEP:   6 TIME =     0.02 SECS, INTEGRAL =      0.07 TIME LEFT: 172799.93
 STEP:   7 TIME =     0.01 SECS, INTEGRAL =      0.09 TIME LEFT: 172799.91
 STEP:   8 TIME =     0.01 SECS, INTEGRAL =      0.10 TIME LEFT: 172799.90
 STEP:   9 TIME =     0.02 SECS, INTEGRAL =      0.11 TIME LEFT: 172799.89
 STEP:  10 TIME =     0.01 SECS, INTEGRAL =      0.12 TIME LEFT: 172799.88
 STEP:  11 TIME =     0.01 SECS, INTEGRAL =      0.14 TIME LEFT: 172799.86
 STEP:  12 TIME =     0.02 SECS, INTEGRAL =      0.15 TIME LEFT: 172799.85
 STEP:  13 TIME =     0.01 SECS, INTEGRAL =      0.16 TIME LEFT: 172799.84
 STEP:  14 TIME =     0.01 SECS, INTEGRAL =      0.18 TIME LEFT: 172799.82
 STEP:  15 TIME =     0.02 SECS, INTEGRAL =      0.19 TIME LEFT: 172799.81
 STEP:  16 TIME =     0.01 SECS, INTEGRAL =      0.20 TIME LEFT: 172799.80
 STEP:  17 TIME =     0.01 SECS, INTEGRAL =      0.21 TIME LEFT: 172799.79
 STEP:  18 TIME =     0.01 SECS, INTEGRAL =      0.23 TIME LEFT: 172799.77
 STEP:  19 TIME =     0.02 SECS, INTEGRAL =      0.24 TIME LEFT: 172799.76
 STEP:  20 TIME =     0.01 SECS, INTEGRAL =      0.25 TIME LEFT: 172799.75
 STEP:  21 TIME =     0.02 SECS, INTEGRAL =      0.27 TIME LEFT: 172799.73
 STEP:  22 TIME =     0.01 SECS, INTEGRAL =      0.28 TIME LEFT: 172799.72
 STEP:  23 TIME =     0.02 SECS, INTEGRAL =      0.30 TIME LEFT: 172799.70
 STEP:  24 TIME =     0.01 SECS, INTEGRAL =      0.31 TIME LEFT: 172799.69
 STEP:  25 TIME =     0.02 SECS, INTEGRAL =      0.32 TIME LEFT: 172799.68
 STEP:  26 TIME =     0.01 SECS, INTEGRAL =      0.34 TIME LEFT: 172799.66
 STEP:  27 TIME =     0.01 SECS, INTEGRAL =      0.35 TIME LEFT: 172799.65
 STEP:  28 TIME =     0.01 SECS, INTEGRAL =      0.36 TIME LEFT: 172799.64
 STEP:  29 TIME =     0.01 SECS, INTEGRAL =      0.37 TIME LEFT: 172799.63
 STEP:  30 TIME =     0.01 SECS, INTEGRAL =      0.38 TIME LEFT: 172799.62
 STEP:  31 TIME =     0.01 SECS, INTEGRAL =      0.39 TIME LEFT: 172799.61
 STEP:  32 TIME =     0.01 SECS, INTEGRAL =      0.41 TIME LEFT: 172799.59
 STEP:  33 TIME =     0.02 SECS, INTEGRAL =      0.42 TIME LEFT: 172799.58
 STEP:  34 TIME =     0.01 SECS, INTEGRAL =      0.43 TIME LEFT: 172799.57
 STEP:  35 TIME =     0.01 SECS, INTEGRAL =      0.45 TIME LEFT: 172799.55
 STEP:  36 TIME =     0.01 SECS, INTEGRAL =      0.46 TIME LEFT: 172799.54
 STEP:  37 TIME =     0.01 SECS, INTEGRAL =      0.47 TIME LEFT: 172799.53
 STEP:  38 TIME =     0.01 SECS, INTEGRAL =      0.48 TIME LEFT: 172799.52
 STEP:  39 TIME =     0.01 SECS, INTEGRAL =      0.49 TIME LEFT: 172799.51
 STEP:  40 TIME =     0.01 SECS, INTEGRAL =      0.50 TIME LEFT: 172799.50
 STEP:  41 TIME =     0.01 SECS, INTEGRAL =      0.52 TIME LEFT: 172799.48
 STEP:  42 TIME =     0.02 SECS, INTEGRAL =      0.53 TIME LEFT: 172799.47
 STEP:  43 TIME =     0.01 SECS, INTEGRAL =      0.54 TIME LEFT: 172799.46
 STEP:  44 TIME =     0.01 SECS, INTEGRAL =      0.55 TIME LEFT: 172799.45
 STEP:  45 TIME =     0.01 SECS, INTEGRAL =      0.57 TIME LEFT: 172799.43
 STEP:  46 TIME =     0.01 SECS, INTEGRAL =      0.58 TIME LEFT: 172799.42
 STEP:  47 TIME =     0.01 SECS, INTEGRAL =      0.59 TIME LEFT: 172799.41
 STEP:  48 TIME =     0.02 SECS, INTEGRAL =      0.61 TIME LEFT: 172799.39
 STEP:  49 TIME =     0.01 SECS, INTEGRAL =      0.62 TIME LEFT: 172799.38
 STEP:  50 TIME =     0.01 SECS, INTEGRAL =      0.63 TIME LEFT: 172799.37
 STEP:  51 TIME =     0.01 SECS, INTEGRAL =      0.64 TIME LEFT: 172799.36

(To convert to Hartree/Bohr^2, multiply by (10^(-21) x N x a0^2)/(4.184 x 627.51) =  0.0642)


           FORCE MATRIX IN MILLIDYNES/ANGSTROM


                  C  1       C  2       C  3       C  4       C  5       C  6
 ------------------------------------------------------------------------------
     C    1  14.777955
     C    2   0.487476  14.868579
     C    3   0.487332   0.014082  14.868743
     C    4   4.222170   5.532506   0.051664  18.454957
     C    5   4.221530   0.051744   5.532313   1.077966  18.453748
     C    6   1.199821   0.690860   0.113906   9.365702   1.615264  18.214648
     C    7   1.199331   0.113998   0.690893   1.614581   9.367788   5.212800
     H    8   4.524323   0.011033   0.011044   0.425102   0.425187   0.043117
     H    9   4.524292   0.011048   0.011034   0.425103   0.425179   0.043117
     H   10   0.012225   4.698777   0.001421   0.449416   0.005992   0.027755
     H   11   0.042951   4.751463   0.002151   0.472428   0.008303   0.024061
     H   12   0.012292   4.699230   0.001417   0.449603   0.005989   0.027904
     H   13   0.012221   0.001427   4.698887   0.005973   0.449668   0.015368
     H   14   0.042976   0.002159   4.751948   0.008356   0.472338   0.002000
     H   15   0.012264   0.001424   4.699258   0.005977   0.449746   0.015372
     H   16   0.108306   0.049581   0.006854   0.456002   0.049422   5.058403
     H   17   0.108283   0.006873   0.049580   0.049397   0.455814   0.418383


                  C  7       H  8       H  9       H 10       H 11       H 12
 ------------------------------------------------------------------------------
     C    7  18.222130
     H    8   0.043159   5.125747
     H    9   0.043158   0.543349   5.125721
     H   10   0.015411   0.003747   0.001555   5.409290
     H   11   0.002059   0.001309   0.001307   0.560013   5.453006
     H   12   0.015384   0.001545   0.003797   0.572467   0.559895   5.409657
     H   13   0.027880   0.001535   0.003743   0.000074   0.000213   0.000269
     H   14   0.024004   0.001312   0.001313   0.000214   0.000425   0.000215
     H   15   0.027947   0.003776   0.001534   0.000269   0.000214   0.000075
     H   16   0.418415   0.014716   0.014715   0.006176   0.010830   0.006148
     H   17   5.058662   0.014651   0.014651   0.000867   0.000612   0.000872


                  H 13       H 14       H 15       H 16       H 17
 ------------------------------------------------------------------
     H   13   5.409370
     H   14   0.559821   5.453341
     H   15   0.572460   0.559745   5.409677
     H   16   0.000863   0.000618   0.000868   5.455114
     H   17   0.006142   0.010807   0.006135   0.008873   5.455045


          HEAT OF FORMATION =      11.396227 KCALS/MOLE

          ZERO POINT ENERGY      93.009 KCAL/MOL


           NORMAL COORDINATE ANALYSIS (Total motion = 1 Angstrom)


   Root No.       1         2         3         4         5         6         7         8

                 1 A       2 A       3 A       4 A       5 A       6 A       7 A       8 A   

                  93.2      94.3     147.5     263.6     294.2     395.2     442.5     503.0
  
           1   -0.0000   -0.0000    0.0000   -0.0056   -0.0000    0.0395   -0.0000   -0.0000
           2   -0.0000    0.0000   -0.0000   -0.0304   -0.0000   -0.0072    0.0000   -0.0000
           3    0.0087    0.0121    0.0671   -0.0000    0.0000   -0.0000   -0.0094    0.0000
           4    0.0000   -0.0000   -0.0000    0.0392    0.0000   -0.0149   -0.0000   -0.0000
           5    0.0000   -0.0000    0.0000    0.0472    0.0000   -0.0261    0.0000    0.0000
           6    0.0004    0.0081   -0.0524    0.0000   -0.0257   -0.0000   -0.0047    0.0013
           7   -0.0000    0.0000   -0.0000   -0.0201    0.0000   -0.0048   -0.0000    0.0000
           8    0.0000   -0.0000    0.0000    0.0579    0.0000    0.0299   -0.0000    0.0000
           9    0.0073    0.0033   -0.0524   -0.0000    0.0257    0.0000   -0.0047   -0.0014
          10   -0.0000   -0.0000    0.0000   -0.0030   -0.0000    0.0198   -0.0000   -0.0000
          11   -0.0000    0.0000   -0.0000   -0.0259   -0.0000    0.0345   -0.0000   -0.0000
          12    0.0019    0.0009    0.0180   -0.0000    0.0513    0.0000    0.0524    0.0553
          13   -0.0000   -0.0000    0.0000   -0.0063    0.0000    0.0063   -0.0000    0.0000
          14   -0.0000    0.0000   -0.0000   -0.0251   -0.0000   -0.0394    0.0000   -0.0000
          15    0.0003    0.0019    0.0180    0.0000   -0.0514    0.0000    0.0524   -0.0553
          16   -0.0000    0.0000    0.0000   -0.0074   -0.0000   -0.0144    0.0000   -0.0000
          17   -0.0000    0.0000   -0.0000   -0.0267   -0.0000    0.0292   -0.0000   -0.0000
          18   -0.0084   -0.0149    0.0115   -0.0000    0.0549   -0.0000   -0.0185   -0.0411
          19    0.0000    0.0000    0.0000   -0.0024    0.0000   -0.0238    0.0000    0.0000
          20   -0.0000    0.0000   -0.0000   -0.0275   -0.0000   -0.0224    0.0000   -0.0000
          21   -0.0112   -0.0130    0.0115    0.0000   -0.0549   -0.0000   -0.0186    0.0411
          22   -0.0014   -0.0018   -0.0098   -0.0056    0.0384    0.0688    0.0253    0.0806
          23   -0.0074   -0.0103   -0.0538   -0.0300   -0.0071   -0.0125    0.1390   -0.0146
          24    0.0143    0.0199    0.1079    0.0001    0.0001   -0.0000   -0.1175   -0.0000
          25    0.0014    0.0018    0.0098   -0.0056   -0.0384    0.0688   -0.0253   -0.0806
          26    0.0074    0.0103    0.0538   -0.0300    0.0071   -0.0126   -0.1390    0.0146
          27    0.0143    0.0199    0.1079   -0.0001    0.0001   -0.0000   -0.1175   -0.0000
          28    0.1012    0.0200   -0.0438    0.0860   -0.0579   -0.0616   -0.0462   -0.0446
          29    0.1919    0.0283    0.0201    0.0549    0.0226   -0.0345    0.0246    0.0254
          30   -0.1283   -0.0104   -0.0716   -0.0003   -0.0485    0.0006   -0.0279   -0.0223
          31   -0.0004   -0.0001    0.0001   -0.0083    0.0002    0.0319    0.0001    0.0001
          32   -0.0006   -0.0001   -0.0001    0.1075   -0.0000   -0.0861   -0.0000   -0.0001
          33    0.2445    0.0488   -0.0795   -0.0000   -0.0649    0.0000   -0.0318   -0.0234
          34   -0.1007   -0.0199    0.0436    0.0863    0.0577   -0.0619    0.0461    0.0444
          35   -0.1912   -0.0282   -0.0200    0.0548   -0.0225   -0.0344   -0.0245   -0.0253
          36   -0.1296   -0.0106   -0.0716    0.0004   -0.0484   -0.0006   -0.0279   -0.0223
          37   -0.0013    0.0282   -0.0480   -0.0610    0.0621   -0.0458   -0.0519    0.0506
          38    0.0426   -0.2105   -0.0042    0.0814    0.0008    0.0542   -0.0069    0.0082
          39    0.0343   -0.1223   -0.0722    0.0003    0.0485    0.0006   -0.0280    0.0223
          40    0.0000   -0.0001    0.0001    0.0453   -0.0001    0.0603    0.0001   -0.0001
          41   -0.0001    0.0004    0.0000    0.0973    0.0000    0.0696   -0.0000    0.0000
          42   -0.0386    0.2433   -0.0786    0.0000    0.0650    0.0000   -0.0317    0.0232
          43    0.0013   -0.0281    0.0479   -0.0612   -0.0620   -0.0460    0.0518   -0.0505
          44   -0.0425    0.2100    0.0043    0.0814   -0.0007    0.0542    0.0068   -0.0081
          45    0.0344   -0.1231   -0.0722   -0.0004    0.0484   -0.0006   -0.0280    0.0223
          46   -0.0000    0.0000    0.0000   -0.0068   -0.0000   -0.0451    0.0000    0.0000
          47   -0.0000    0.0000    0.0000   -0.0269   -0.0000    0.0583   -0.0000    0.0000
          48   -0.0125   -0.0259   -0.0115   -0.0000    0.1066   -0.0000   -0.0854   -0.1854
          49    0.0000    0.0000    0.0000   -0.0029    0.0000   -0.0627    0.0000   -0.0000
          50   -0.0000    0.0000   -0.0000   -0.0274   -0.0000   -0.0387    0.0000   -0.0000
          51   -0.0203   -0.0203   -0.0115    0.0000   -0.1065   -0.0000   -0.0856    0.1853


   Root No.       9        10        11        12        13        14        15        16

                 9 A      10 A      11 A      12 A      13 A      14 A      15 A      16 A   

                 586.7     731.3     833.1     871.7     920.0     936.2     947.5     958.4
  
           1   -0.0088   -0.0034    0.0000   -0.0000    0.0000    0.0546    0.0075   -0.0000
           2   -0.0485    0.0006    0.0000   -0.0000    0.0000   -0.0100    0.0408   -0.0000
           3   -0.0000   -0.0000   -0.0211    0.0567   -0.0000    0.0000    0.0000    0.0000
           4   -0.0669   -0.0445    0.0000   -0.0000   -0.0000   -0.0260   -0.0189   -0.0000
           5    0.0352    0.0340   -0.0000   -0.0000   -0.0000   -0.0039   -0.0244   -0.0000
           6    0.0000    0.0000    0.0129   -0.0107    0.0208   -0.0000   -0.0000   -0.0151
           7    0.0750   -0.0537    0.0000   -0.0000   -0.0000   -0.0229    0.0091   -0.0000
           8    0.0094   -0.0161    0.0000    0.0000    0.0000    0.0129   -0.0295    0.0000
           9   -0.0000    0.0000    0.0129   -0.0107   -0.0209    0.0000    0.0000    0.0151
          10   -0.0541   -0.0119    0.0000   -0.0000    0.0000   -0.0085   -0.0056   -0.0000
          11    0.0012    0.0255   -0.0000    0.0000   -0.0000   -0.0137   -0.0065    0.0000
          12   -0.0000   -0.0000    0.0148   -0.0138   -0.0016   -0.0000   -0.0000    0.0070
          13    0.0510   -0.0201    0.0000   -0.0000   -0.0000   -0.0032    0.0029    0.0000
          14   -0.0180   -0.0197    0.0000   -0.0000    0.0000    0.0158   -0.0081    0.0000
          15    0.0000   -0.0000    0.0148   -0.0138    0.0017   -0.0000   -0.0000   -0.0070
          16   -0.0061    0.0793   -0.0000    0.0000   -0.0000   -0.0141    0.0036    0.0000
          17    0.0090    0.0270   -0.0000    0.0000   -0.0000   -0.0227   -0.0005    0.0000
          18    0.0000   -0.0000   -0.0277   -0.0151   -0.0365    0.0000   -0.0000   -0.0255
          19    0.0089    0.0647   -0.0000    0.0000   -0.0000   -0.0052   -0.0036    0.0000
          20    0.0063   -0.0532    0.0000   -0.0000    0.0000    0.0262    0.0008    0.0000
          21   -0.0000   -0.0000   -0.0277   -0.0151    0.0365   -0.0000    0.0000    0.0255
          22   -0.0096    0.0312   -0.0106    0.0262   -0.0449    0.1653    0.0098    0.1653
          23   -0.0527   -0.0057   -0.0582    0.1443    0.0081   -0.0300    0.0530   -0.0301
          24    0.0019    0.0000    0.0249   -0.0569    0.0000   -0.0000   -0.0083    0.0000
          25   -0.0095    0.0313    0.0106   -0.0262    0.0450    0.1652    0.0098   -0.1653
          26   -0.0527   -0.0056    0.0582   -0.1443   -0.0081   -0.0301    0.0530    0.0300
          27   -0.0019    0.0000    0.0249   -0.0569    0.0000   -0.0000    0.0083   -0.0000
          28   -0.0606   -0.0645   -0.0697    0.0474   -0.0928    0.0165    0.0946    0.0613
          29    0.0406    0.0379    0.0381   -0.0263    0.0519    0.0083   -0.0046   -0.0344
          30   -0.0025   -0.0036   -0.0233    0.0139   -0.0281   -0.0034   -0.0016    0.0170
          31   -0.0870   -0.0419    0.0002   -0.0002    0.0003   -0.0859   -0.1318   -0.0002
          32    0.0595    0.0301   -0.0001    0.0001   -0.0001    0.0703    0.1191    0.0001
          33    0.0000   -0.0000   -0.0285    0.0154   -0.0339    0.0000   -0.0000    0.0199
          34   -0.0605   -0.0644    0.0694   -0.0472    0.0924    0.0168    0.0953   -0.0610
          35    0.0405    0.0378   -0.0380    0.0262   -0.0517    0.0081   -0.0050    0.0343
          36    0.0025    0.0036   -0.0233    0.0139   -0.0281    0.0034    0.0016    0.0170
          37    0.0709   -0.0738   -0.0786    0.0536    0.1051    0.0128   -0.0902   -0.0695
          38    0.0167   -0.0127   -0.0111    0.0079    0.0159   -0.0137    0.0289   -0.0106
          39    0.0025   -0.0037   -0.0232    0.0139    0.0281   -0.0034    0.0015   -0.0170
          40    0.1024   -0.0498    0.0001   -0.0001   -0.0003   -0.1057    0.1649    0.0001
          41    0.0251   -0.0134    0.0000   -0.0000   -0.0000   -0.0357    0.0648    0.0000
          42   -0.0000   -0.0000   -0.0286    0.0155    0.0339   -0.0000    0.0000   -0.0200
          43    0.0709   -0.0737    0.0784   -0.0535   -0.1048    0.0132   -0.0907    0.0693
          44    0.0166   -0.0127    0.0111   -0.0079   -0.0159   -0.0136    0.0289    0.0106
          45   -0.0025    0.0036   -0.0233    0.0139    0.0281    0.0034   -0.0016   -0.0170
          46    0.0229    0.0967   -0.0000   -0.0000   -0.0000    0.0402    0.0115   -0.0000
          47   -0.0195    0.0113   -0.0000    0.0000   -0.0000   -0.0760   -0.0082    0.0000
          48    0.0001    0.0001    0.1760    0.1476    0.1418   -0.0001    0.0000    0.1199
          49   -0.0282    0.0864   -0.0000   -0.0000    0.0000    0.0640   -0.0136    0.0000
          50   -0.0102   -0.0446    0.0000   -0.0000    0.0000    0.0568   -0.0036    0.0000
          51   -0.0001    0.0001    0.1761    0.1475   -0.1418    0.0000   -0.0000   -0.1199


   Root No.      17        18        19        20        21        22        23        24

                17 A      18 A      19 A      20 A      21 A      22 A      23 A      24 A   

                 977.7    1022.7    1037.1    1056.1    1066.9    1174.1    1195.9    1309.8
  
           1    0.0096    0.0000    0.0123    0.0000   -0.0021   -0.0562    0.0007   -0.0000
           2   -0.0017   -0.0000    0.0680    0.0001   -0.0121    0.0102   -0.0001   -0.0002
           3    0.0000   -0.0278   -0.0000    0.0000   -0.0000   -0.0000    0.0000   -0.0000
           4    0.0065   -0.0000   -0.0160   -0.0000   -0.0094    0.0189    0.0029    0.0047
           5    0.0276    0.0000    0.0260    0.0000   -0.0021   -0.0022   -0.0105   -0.0091
           6    0.0000   -0.0283    0.0000   -0.0185   -0.0000    0.0000    0.0000   -0.0000
           7   -0.0036   -0.0000    0.0241    0.0000    0.0079    0.0185    0.0065   -0.0076
           8   -0.0281   -0.0000    0.0187    0.0000   -0.0054   -0.0046    0.0088   -0.0069
           9    0.0000   -0.0282   -0.0000    0.0185    0.0000    0.0000    0.0000    0.0000
          10    0.0005   -0.0000    0.0088   -0.0000    0.0091   -0.0264   -0.0009    0.0322
          11   -0.0076    0.0000   -0.0183   -0.0000    0.0027    0.0046    0.0300    0.0043
          12   -0.0000    0.0409   -0.0000    0.0371    0.0000   -0.0000   -0.0000    0.0000
          13    0.0031   -0.0000   -0.0147   -0.0000   -0.0075   -0.0263   -0.0114   -0.0286
          14    0.0069    0.0000   -0.0141   -0.0000    0.0059    0.0050   -0.0277    0.0153
          15   -0.0000    0.0409    0.0001   -0.0371   -0.0000   -0.0000   -0.0000   -0.0000
          16   -0.0104    0.0000   -0.0151   -0.0000   -0.0263    0.0052   -0.0165    0.0184
          17   -0.0207    0.0000   -0.0460   -0.0000   -0.0067    0.0099    0.0251   -0.0066
          18   -0.0000   -0.0123    0.0000   -0.0202   -0.0000    0.0000    0.0000   -0.0000
          19   -0.0025    0.0000   -0.0020   -0.0000    0.0224    0.0014   -0.0242   -0.0196
          20    0.0231    0.0000   -0.0484   -0.0000   -0.0153   -0.0111   -0.0177    0.0002
          21    0.0000   -0.0123   -0.0000    0.0202    0.0000   -0.0000   -0.0000   -0.0000
          22    0.0077   -0.0114    0.0200   -0.1817   -0.0028    0.2066   -0.0632   -0.0188
          23   -0.0013   -0.0639    0.1086    0.0332   -0.0172   -0.0376    0.0115   -0.1035
          24   -0.0000    0.0230   -0.0260   -0.0000    0.0036    0.0000    0.0000    0.0690
          25    0.0076    0.0116    0.0195    0.1817   -0.0028    0.2066   -0.0633   -0.0188
          26   -0.0013    0.0638    0.1088   -0.0330   -0.0172   -0.0376    0.0115   -0.1035
          27    0.0000    0.0230    0.0260    0.0000   -0.0036    0.0000   -0.0000   -0.0690
          28   -0.0998    0.1089   -0.0909    0.0698    0.0017    0.0402    0.0562   -0.0727
          29    0.0137   -0.0623    0.0293   -0.0404    0.0034   -0.0210   -0.0182    0.0408
          30   -0.0011    0.0300   -0.0079    0.0194   -0.0022    0.0122    0.0087   -0.0351
          31    0.0974   -0.0003    0.0087   -0.0002   -0.0353    0.0711    0.0037   -0.0771
          32   -0.0890    0.0001   -0.0090    0.0001    0.0287   -0.0625   -0.0069    0.0844
          33    0.0000    0.0362    0.0000    0.0237    0.0000   -0.0001   -0.0001    0.0002
          34   -0.1004   -0.1085   -0.0913   -0.0697    0.0018    0.0402    0.0565   -0.0728
          35    0.0140    0.0620    0.0294    0.0403    0.0033   -0.0209   -0.0183    0.0406
          36    0.0011    0.0300    0.0079    0.0194    0.0022   -0.0122   -0.0087    0.0351
          37   -0.0985    0.1235    0.0957   -0.0794   -0.0012    0.0450    0.0591    0.0823
          38    0.0223    0.0199   -0.0046   -0.0132    0.0038    0.0055   -0.0027    0.0125
          39   -0.0011    0.0300    0.0080   -0.0194    0.0021    0.0122    0.0087    0.0351
          40    0.1226   -0.0002   -0.0114    0.0001    0.0435    0.0886    0.0060    0.1019
          41    0.0490   -0.0000   -0.0054    0.0000    0.0145    0.0335    0.0052    0.0519
          42    0.0000    0.0362    0.0000   -0.0237   -0.0000   -0.0000   -0.0000   -0.0001
          43   -0.0989   -0.1234    0.0958    0.0794   -0.0013    0.0450    0.0592    0.0823
          44    0.0223   -0.0199   -0.0046    0.0132    0.0038    0.0055   -0.0027    0.0124
          45    0.0011    0.0300   -0.0079   -0.0194   -0.0021   -0.0122   -0.0087   -0.0351
          46    0.0499    0.0001   -0.0268    0.0000   -0.2862    0.0157    0.1752    0.0165
          47   -0.0800   -0.0001   -0.0396   -0.0001    0.2432    0.0002   -0.1584   -0.0031
          48    0.0000    0.0422   -0.0001    0.0500   -0.0000    0.0000    0.0000    0.0000
          49    0.0742    0.0001    0.0111   -0.0000    0.3528    0.0147    0.2209   -0.0165
          50    0.0570    0.0001   -0.0466   -0.0000    0.1268   -0.0057    0.0869    0.0029
          51   -0.0000    0.0422    0.0001   -0.0500    0.0000    0.0000    0.0000   -0.0000


   Root No.      25        26        27        28        29        30        31        32

                25 A      26 A      27 A      28 A      29 A      30 A      31 A      32 A   

                1350.6    1362.1    1390.2    1390.3    1391.2    1391.7    1402.5    1458.9
  
           1    0.0393   -0.0084    0.0000    0.0000    0.0017   -0.0095    0.0031   -0.0080
           2   -0.0072   -0.0461    0.0000   -0.0000    0.0076    0.0020    0.0171   -0.0437
           3    0.0000   -0.0000    0.0003    0.0003    0.0000    0.0000    0.0000   -0.0000
           4   -0.0197    0.0131    0.0001   -0.0000   -0.0114    0.0127   -0.0165   -0.0505
           5    0.0189   -0.0119    0.0002    0.0000   -0.0165    0.0149    0.0215    0.0182
           6    0.0000   -0.0000   -0.0417   -0.0024   -0.0001    0.0001   -0.0000   -0.0000
           7   -0.0251   -0.0164   -0.0000    0.0000    0.0045    0.0069    0.0231    0.0537
           8   -0.0107   -0.0065    0.0000   -0.0001   -0.0183   -0.0196    0.0143   -0.0007
           9    0.0000    0.0000    0.0023   -0.0417    0.0000    0.0000    0.0000    0.0000
          10   -0.0230    0.0047   -0.0000   -0.0000   -0.0067    0.0062   -0.0145    0.0671
          11   -0.0075   -0.0005    0.0000   -0.0000   -0.0012    0.0010   -0.0274    0.0307
          12   -0.0000    0.0000   -0.0009   -0.0000   -0.0000    0.0000   -0.0000    0.0000
          13   -0.0189   -0.0046   -0.0000   -0.0000    0.0055    0.0058    0.0039   -0.0520
          14    0.0151    0.0012    0.0000    0.0000   -0.0033   -0.0033   -0.0307    0.0523
          15   -0.0000   -0.0000    0.0001   -0.0009    0.0000    0.0000    0.0000    0.0000
          16    0.0072    0.0191   -0.0001    0.0001   -0.0003   -0.0013    0.1104    0.0017
          17   -0.0020    0.0056    0.0000   -0.0000   -0.0008    0.0006   -0.0194   -0.0256
          18    0.0000    0.0000   -0.0002   -0.0002    0.0000    0.0000    0.0000   -0.0000
          19    0.0074   -0.0159    0.0001   -0.0001    0.0001   -0.0014   -0.1102   -0.0106
          20   -0.0006    0.0119   -0.0000    0.0000   -0.0008   -0.0002    0.0206   -0.0234
          21   -0.0000   -0.0000   -0.0001   -0.0003   -0.0000    0.0000   -0.0000   -0.0000
          22   -0.0426    0.0292    0.0014   -0.0011   -0.0028    0.0096   -0.0021    0.0044
          23    0.0078    0.1605    0.0004    0.0010   -0.0136   -0.0022   -0.0115    0.0242
          24   -0.0000   -0.1373   -0.0003   -0.0005    0.0141    0.0004    0.0176   -0.0427
          25   -0.0426    0.0292   -0.0015    0.0010   -0.0028    0.0096   -0.0021    0.0044
          26    0.0078    0.1605   -0.0005   -0.0009   -0.0136   -0.0022   -0.0115    0.0242
          27    0.0000    0.1373   -0.0004   -0.0003   -0.0141   -0.0004   -0.0176    0.0427
          28    0.0826   -0.0480   -0.2107   -0.0119    0.0517   -0.0534    0.0302    0.0857
          29   -0.0570    0.0376   -0.1166   -0.0067    0.1385   -0.1299   -0.0223   -0.0098
          30    0.0534   -0.0347    0.0498    0.0029   -0.0981    0.0913    0.0301    0.0256
          31    0.0726   -0.0362   -0.0008   -0.0000    0.0600   -0.0586    0.0511    0.0122
          32   -0.0873    0.0449   -0.0008   -0.0001   -0.0825    0.0815   -0.0569   -0.0457
          33   -0.0003    0.0003    0.4086    0.0231    0.0004   -0.0002    0.0003    0.0000
          34    0.0826   -0.0479    0.2102    0.0119    0.0520   -0.0535    0.0305    0.0860
          35   -0.0568    0.0375    0.1150    0.0065    0.1383   -0.1296   -0.0219   -0.0097
          36   -0.0535    0.0348    0.0500    0.0028    0.0991   -0.0923   -0.0301   -0.0254
          37    0.0974    0.0580    0.0089   -0.1561    0.0004   -0.0044   -0.0362   -0.0837
          38    0.0243    0.0183   -0.0105    0.1825    0.1393    0.1492   -0.0102    0.0211
          39    0.0534    0.0347   -0.0029    0.0495    0.0927    0.0974   -0.0301   -0.0255
          40    0.0988    0.0496    0.0001    0.0000   -0.0801   -0.0886   -0.0680   -0.0276
          41    0.0562    0.0292    0.0000    0.0008   -0.0527   -0.0590   -0.0354   -0.0385
          42   -0.0002   -0.0002   -0.0231    0.4086    0.0002    0.0002   -0.0002   -0.0000
          43    0.0973    0.0579   -0.0089    0.1562    0.0005   -0.0043   -0.0363   -0.0839
          44    0.0242    0.0183    0.0102   -0.1826    0.1389    0.1488   -0.0098    0.0212
          45   -0.0535   -0.0348   -0.0028    0.0504   -0.0932   -0.0979    0.0301    0.0254
          46   -0.0242    0.0047    0.0000   -0.0000   -0.0050    0.0054   -0.0310    0.0187
          47    0.0278    0.0227   -0.0001    0.0001    0.0031   -0.0056    0.1232   -0.0440
          48   -0.0000    0.0000    0.0007    0.0003    0.0000   -0.0000   -0.0000   -0.0000
          49   -0.0325    0.0037   -0.0001   -0.0000    0.0054    0.0074    0.0728   -0.0330
          50   -0.0175    0.0230   -0.0001    0.0000    0.0010    0.0034    0.1045   -0.0347
          51   -0.0000    0.0000    0.0002    0.0007    0.0000    0.0000    0.0000   -0.0000


   Root No.      33        34        35        36        37        38        39        40

                33 A      34 A      35 A      36 A      37 A      38 A      39 A      40 A   

                1482.4    1809.5    1836.9    2986.7    3052.9    3066.6    3066.7    3077.4
  
           1   -0.0630   -0.0007    0.0096    0.0000   -0.0075   -0.0000    0.0000    0.0002
           2    0.0114   -0.0040   -0.0018    0.0000   -0.0411   -0.0000    0.0000   -0.0004
           3   -0.0000   -0.0000   -0.0000   -0.0610   -0.0000   -0.0000   -0.0001   -0.0000
           4   -0.0544    0.0376    0.0255    0.0000    0.0002   -0.0000   -0.0000   -0.0234
           5    0.0239   -0.0261   -0.0191    0.0000    0.0004   -0.0000   -0.0000   -0.0426
           6   -0.0000    0.0000    0.0000    0.0000    0.0000   -0.0363   -0.0215    0.0001
           7   -0.0593   -0.0442    0.0307   -0.0000   -0.0000    0.0000   -0.0000    0.0003
           8   -0.0033   -0.0111    0.0089   -0.0000    0.0004   -0.0000    0.0001   -0.0022
           9   -0.0000   -0.0000    0.0000    0.0000   -0.0000    0.0215   -0.0363   -0.0000
          10    0.0797   -0.0770   -0.0449    0.0000   -0.0005    0.0000    0.0000    0.0002
          11    0.0158    0.1483    0.1321    0.0000   -0.0007   -0.0000   -0.0000   -0.0004
          12   -0.0000    0.0000    0.0000   -0.0003    0.0000   -0.0001   -0.0000    0.0000
          13    0.0690    0.1239   -0.0889   -0.0000    0.0002   -0.0000    0.0000   -0.0000
          14   -0.0428    0.1112   -0.1082    0.0000   -0.0008   -0.0000    0.0000    0.0000
          15   -0.0000    0.0000   -0.0000   -0.0003   -0.0000    0.0000   -0.0001    0.0000
          16   -0.0093    0.0238    0.0256    0.0000   -0.0004   -0.0000   -0.0000   -0.0007
          17   -0.0332   -0.1111   -0.1161   -0.0000   -0.0000   -0.0000   -0.0000    0.0000
          18   -0.0000   -0.0000   -0.0000   -0.0002   -0.0000   -0.0001   -0.0001    0.0000
          19    0.0029   -0.0611    0.0650   -0.0000    0.0004    0.0000   -0.0000    0.0001
          20    0.0344   -0.0952    0.1000   -0.0000   -0.0002   -0.0000    0.0000   -0.0000
          21    0.0000   -0.0000    0.0000   -0.0002    0.0000    0.0000   -0.0001   -0.0000
          22    0.0397   -0.0017   -0.0412    0.0509    0.0446    0.0002    0.0000    0.0005
          23   -0.0072   -0.0087    0.0075    0.2797    0.2452    0.0001    0.0004    0.0018
          24   -0.0000    0.0084   -0.0000    0.3704    0.3820    0.0002    0.0004    0.0028
          25    0.0397   -0.0017   -0.0412   -0.0509    0.0446   -0.0002   -0.0000    0.0005
          26   -0.0072   -0.0087    0.0075   -0.2798    0.2452   -0.0000   -0.0004    0.0017
          27    0.0000   -0.0084    0.0000    0.3704   -0.3819    0.0000    0.0004   -0.0028
          28    0.0779    0.0069    0.0085   -0.0002    0.0001   -0.0171   -0.0101   -0.0251
          29   -0.0085   -0.0124   -0.0094   -0.0004   -0.0013    0.1736    0.1026    0.1185
          30    0.0280   -0.0067   -0.0040   -0.0005   -0.0021    0.2283    0.1349    0.2000
          31    0.0161   -0.0136   -0.0135   -0.0000   -0.0033    0.0011    0.0006    0.3267
          32   -0.0496    0.0348    0.0280   -0.0000   -0.0026    0.0009    0.0005    0.2684
          33    0.0000    0.0000    0.0000   -0.0000   -0.0000   -0.0184   -0.0109    0.0013
          34    0.0783    0.0069    0.0086    0.0002    0.0000    0.0163    0.0096   -0.0248
          35   -0.0083   -0.0125   -0.0095    0.0004   -0.0012   -0.1739   -0.1028    0.1217
          36   -0.0278    0.0066    0.0039   -0.0005    0.0020    0.2259    0.1335   -0.2021
          37    0.0759   -0.0108    0.0113   -0.0001   -0.0005    0.0456   -0.0770    0.0030
          38   -0.0196   -0.0092    0.0058    0.0004   -0.0012    0.0927   -0.1565    0.0047
          39    0.0279    0.0067   -0.0040   -0.0005    0.0021   -0.1348    0.2278   -0.0091
          40    0.0327    0.0250   -0.0226   -0.0000    0.0021   -0.0003    0.0005   -0.0096
          41    0.0408    0.0277   -0.0216    0.0000   -0.0036    0.0005   -0.0009    0.0167
          42    0.0000   -0.0000    0.0000   -0.0000    0.0000    0.0109   -0.0184   -0.0000
          43    0.0761   -0.0109    0.0114    0.0001   -0.0005   -0.0453    0.0765    0.0030
          44   -0.0197   -0.0093    0.0059   -0.0004   -0.0012   -0.0928    0.1568    0.0048
          45   -0.0278   -0.0066    0.0040   -0.0005   -0.0020   -0.1338    0.2261    0.0092
          46   -0.0187   -0.0663   -0.1025   -0.0000    0.0084    0.0000    0.0000    0.0036
          47   -0.0279   -0.0626   -0.0193   -0.0000    0.0091    0.0000    0.0000    0.0047
          48   -0.0000   -0.0000   -0.0000   -0.0007    0.0000    0.0003    0.0002   -0.0000
          49   -0.0077    0.0397   -0.0894    0.0000   -0.0047   -0.0000    0.0000   -0.0001
          50    0.0328   -0.0818    0.0545   -0.0000    0.0114    0.0000   -0.0000    0.0004
          51   -0.0000   -0.0000    0.0000   -0.0007   -0.0000   -0.0001    0.0003   -0.0000


   Root No.      41        42        43        44        45

                41 A      42 A      43 A      44 A      45 A   

                3077.5    3133.8    3142.0    3166.1    3166.1
  
           1   -0.0003   -0.0002    0.0004   -0.0001   -0.0001
           2   -0.0003    0.0000    0.0021   -0.0000    0.0000
           3    0.0000   -0.0000    0.0000   -0.0000   -0.0000
           4    0.0011   -0.0001    0.0002    0.0206    0.0021
           5    0.0019   -0.0003    0.0003   -0.0093   -0.0009
           6   -0.0000   -0.0000    0.0000    0.0000    0.0000
           7    0.0069    0.0000   -0.0001   -0.0022    0.0226
           8   -0.0481    0.0003    0.0003   -0.0001    0.0015
           9   -0.0001   -0.0000   -0.0000   -0.0000    0.0000
          10   -0.0000    0.0003   -0.0016    0.0001   -0.0000
          11    0.0000   -0.0025    0.0036   -0.0001   -0.0000
          12   -0.0000   -0.0000    0.0000    0.0000    0.0000
          13   -0.0003    0.0012    0.0028   -0.0000    0.0002
          14   -0.0003    0.0023    0.0028    0.0000    0.0001
          15   -0.0000    0.0000    0.0000   -0.0000   -0.0000
          16   -0.0000    0.0259   -0.0267   -0.0004    0.0000
          17    0.0000    0.0300   -0.0296   -0.0002    0.0000
          18   -0.0000    0.0000   -0.0000   -0.0000   -0.0000
          19    0.0006    0.0137    0.0145    0.0001   -0.0003
          20   -0.0002   -0.0373   -0.0370   -0.0001    0.0003
          21   -0.0000    0.0000    0.0000   -0.0000    0.0000
          22    0.0001   -0.0001   -0.0011    0.0001    0.0001
          23    0.0017    0.0000   -0.0059   -0.0000   -0.0000
          24    0.0025   -0.0000   -0.0091   -0.0000    0.0000
          25    0.0001   -0.0001   -0.0011    0.0001    0.0001
          26    0.0017    0.0000   -0.0059   -0.0000   -0.0000
          27   -0.0025    0.0000    0.0091    0.0000   -0.0000
          28    0.0011   -0.0004    0.0005   -0.0074   -0.0007
          29   -0.0054    0.0027   -0.0029    0.1598    0.0159
          30   -0.0091    0.0040   -0.0043    0.2342    0.0233
          31   -0.0149    0.0003    0.0000   -0.2316   -0.0230
          32   -0.0123    0.0008   -0.0005   -0.2098   -0.0209
          33   -0.0001    0.0000    0.0000   -0.0009   -0.0001
          34    0.0011   -0.0004    0.0005   -0.0067   -0.0007
          35   -0.0055    0.0027   -0.0029    0.1612    0.0161
          36    0.0092   -0.0040    0.0043   -0.2335   -0.0233
          37    0.0654   -0.0014   -0.0014    0.0063   -0.0632
          38    0.1027   -0.0024   -0.0025    0.0146   -0.1474
          39   -0.2004    0.0040    0.0042   -0.0233    0.2342
          40   -0.2114    0.0000   -0.0002    0.0142   -0.1431
          41    0.3665   -0.0008   -0.0004   -0.0277    0.2782
          42   -0.0008    0.0000   -0.0000    0.0001   -0.0005
          43    0.0660   -0.0014   -0.0014    0.0063   -0.0632
          44    0.1049   -0.0024   -0.0025    0.0147   -0.1483
          45    0.2021   -0.0040   -0.0042    0.0232   -0.2338
          46   -0.0001   -0.3083    0.3016    0.0042    0.0001
          47   -0.0001   -0.3226    0.3116    0.0038    0.0001
          48   -0.0000   -0.0000    0.0000    0.0000    0.0000
          49   -0.0017   -0.1753   -0.1722   -0.0004    0.0026
          50    0.0056    0.4114    0.3969    0.0008   -0.0050
          51    0.0000   -0.0000   -0.0000   -0.0000    0.0000


           MASS-WEIGHTED COORDINATE ANALYSIS (NORMAL COORDINATES)


   Root No.       1         2         3         4         5         6         7         8

                 1 A       2 A       3 A       4 A       5 A       6 A       7 A       8 A   

                  93.2      94.3     147.5     263.6     294.2     395.2     442.5     503.0
  
           1   -0.0000   -0.0000    0.0000   -0.0429   -0.0000    0.3387   -0.0001   -0.0000
           2   -0.0000    0.0000   -0.0000   -0.2329   -0.0001   -0.0620    0.0000   -0.0001
           3    0.0675    0.0945    0.5152   -0.0000    0.0002   -0.0000   -0.0781    0.0001
           4    0.0001   -0.0000   -0.0000    0.3002    0.0000   -0.1275   -0.0000   -0.0001
           5    0.0000   -0.0000    0.0000    0.3613    0.0001   -0.2245    0.0001    0.0001
           6    0.0030    0.0632   -0.4026    0.0001   -0.1937   -0.0000   -0.0390    0.0101
           7   -0.0000    0.0000   -0.0000   -0.1537    0.0000   -0.0411   -0.0000    0.0001
           8    0.0001   -0.0001    0.0000    0.4431    0.0001    0.2565   -0.0001    0.0001
           9    0.0564    0.0259   -0.4028   -0.0000    0.1936    0.0000   -0.0387   -0.0104
          10   -0.0000   -0.0000    0.0000   -0.0229   -0.0000    0.1701   -0.0001   -0.0001
          11   -0.0001    0.0000   -0.0000   -0.1980   -0.0001    0.2965   -0.0001   -0.0000
          12    0.0143    0.0074    0.1383   -0.0002    0.3873    0.0001    0.4343    0.4180
          13   -0.0000   -0.0000    0.0000   -0.0484    0.0000    0.0545   -0.0000    0.0001
          14   -0.0000    0.0001   -0.0000   -0.1923   -0.0001   -0.3380    0.0001   -0.0000
          15    0.0026    0.0152    0.1386    0.0002   -0.3877    0.0001    0.4340   -0.4178
          16   -0.0000    0.0000    0.0000   -0.0565   -0.0000   -0.1235    0.0001   -0.0000
          17   -0.0000    0.0000   -0.0000   -0.2041   -0.0001    0.2508   -0.0001   -0.0000
          18   -0.0652   -0.1171    0.0882   -0.0001    0.4144   -0.0000   -0.1537   -0.3101
          19    0.0000    0.0000    0.0000   -0.0183    0.0000   -0.2040    0.0001    0.0000
          20   -0.0000    0.0000   -0.0000   -0.2102   -0.0001   -0.1920    0.0000   -0.0000
          21   -0.0867   -0.1018    0.0883    0.0001   -0.4142   -0.0001   -0.1544    0.3102
          22   -0.0032   -0.0041   -0.0218   -0.0124    0.0840    0.1711    0.0607    0.1764
          23   -0.0166   -0.0234   -0.1198   -0.0665   -0.0155   -0.0311    0.3337   -0.0320
          24    0.0321    0.0451    0.2401    0.0002    0.0002   -0.0001   -0.2822   -0.0001
          25    0.0031    0.0041    0.0218   -0.0123   -0.0840    0.1711   -0.0608   -0.1764
          26    0.0165    0.0235    0.1198   -0.0666    0.0155   -0.0313   -0.3337    0.0319
          27    0.0321    0.0452    0.2401   -0.0003    0.0002   -0.0001   -0.2822   -0.0001
          28    0.2266    0.0454   -0.0974    0.1907   -0.1264   -0.1532   -0.1110   -0.0975
          29    0.4299    0.0643    0.0448    0.1216    0.0493   -0.0858    0.0592    0.0556
          30   -0.2873   -0.0237   -0.1594   -0.0007   -0.1059    0.0014   -0.0671   -0.0487
          31   -0.0008   -0.0002    0.0003   -0.0185    0.0004    0.0794    0.0003    0.0003
          32   -0.0014   -0.0002   -0.0001    0.2383   -0.0001   -0.2142   -0.0001   -0.0001
          33    0.5476    0.1109   -0.1769   -0.0000   -0.1419    0.0001   -0.0765   -0.0512
          34   -0.2256   -0.0452    0.0971    0.1914    0.1260   -0.1540    0.1107    0.0971
          35   -0.4283   -0.0641   -0.0446    0.1214   -0.0491   -0.0854   -0.0589   -0.0553
          36   -0.2903   -0.0242   -0.1594    0.0009   -0.1058   -0.0015   -0.0671   -0.0487
          37   -0.0029    0.0641   -0.1068   -0.1354    0.1358   -0.1139   -0.1247    0.1108
          38    0.0955   -0.4783   -0.0095    0.1805    0.0016    0.1348   -0.0165    0.0179
          39    0.0768   -0.2778   -0.1607    0.0007    0.1059    0.0014   -0.0671    0.0488
          40    0.0000   -0.0002    0.0002    0.1005   -0.0002    0.1499    0.0002   -0.0002
          41   -0.0002    0.0009    0.0000    0.2158    0.0001    0.1731   -0.0000    0.0000
          42   -0.0865    0.5527   -0.1749    0.0001    0.1420    0.0001   -0.0761    0.0508
          43    0.0028   -0.0638    0.1066   -0.1358   -0.1355   -0.1144    0.1244   -0.1105
          44   -0.0953    0.4771    0.0095    0.1806   -0.0015    0.1348    0.0164   -0.0178
          45    0.0771   -0.2796   -0.1607   -0.0008    0.1058   -0.0015   -0.0671    0.0488
          46   -0.0000    0.0000    0.0000   -0.0150   -0.0000   -0.1122    0.0001    0.0000
          47   -0.0000    0.0000    0.0000   -0.0597   -0.0000    0.1450   -0.0000    0.0000
          48   -0.0280   -0.0588   -0.0256   -0.0000    0.2328   -0.0001   -0.2051   -0.4056
          49    0.0000    0.0000    0.0000   -0.0064    0.0000   -0.1558    0.0001   -0.0000
          50   -0.0000    0.0000   -0.0000   -0.0608   -0.0000   -0.0963    0.0000   -0.0000
          51   -0.0456   -0.0462   -0.0256    0.0000   -0.2326   -0.0001   -0.2056    0.4055


   Root No.       9        10        11        12        13        14        15        16

                 9 A      10 A      11 A      12 A      13 A      14 A      15 A      16 A   

                 586.7     731.3     833.1     871.7     920.0     936.2     947.5     958.4
  
           1   -0.0565   -0.0210    0.0002   -0.0001    0.0002    0.4519    0.0665   -0.0000
           2   -0.3115    0.0038    0.0000   -0.0000    0.0001   -0.0824    0.3629   -0.0001
           3   -0.0000   -0.0001   -0.2006    0.4939   -0.0002    0.0002    0.0000    0.0001
           4   -0.4297   -0.2764    0.0001   -0.0000   -0.0000   -0.2151   -0.1682   -0.0000
           5    0.2262    0.2107   -0.0001   -0.0000   -0.0000   -0.0327   -0.2173   -0.0000
           6    0.0001    0.0001    0.1226   -0.0928    0.1941   -0.0000   -0.0000   -0.1453
           7    0.4817   -0.3331    0.0000   -0.0000   -0.0001   -0.1900    0.0808   -0.0000
           8    0.0606   -0.0999    0.0000    0.0000    0.0001    0.1069   -0.2619    0.0000
           9   -0.0000    0.0001    0.1227   -0.0929   -0.1944    0.0001    0.0000    0.1455
          10   -0.3475   -0.0739    0.0001   -0.0000    0.0001   -0.0705   -0.0495   -0.0001
          11    0.0075    0.1582   -0.0001    0.0001   -0.0001   -0.1134   -0.0581    0.0000
          12   -0.0002   -0.0000    0.1408   -0.1204   -0.0151   -0.0002   -0.0000    0.0674
          13    0.3279   -0.1248    0.0000   -0.0000   -0.0001   -0.0262    0.0259    0.0000
          14   -0.1156   -0.1222    0.0001   -0.0000    0.0001    0.1312   -0.0716    0.0000
          15    0.0002   -0.0000    0.1404   -0.1202    0.0157   -0.0001   -0.0000   -0.0677
          16   -0.0393    0.4917   -0.0002    0.0001   -0.0001   -0.1170    0.0321    0.0000
          17    0.0580    0.1676   -0.0001    0.0001   -0.0002   -0.1882   -0.0047    0.0001
          18    0.0000   -0.0000   -0.2634   -0.1316   -0.3405    0.0002   -0.0000   -0.2452
          19    0.0572    0.4012   -0.0001    0.0001   -0.0001   -0.0432   -0.0320    0.0000
          20    0.0403   -0.3298    0.0002   -0.0001    0.0000    0.2172    0.0072    0.0000
          21   -0.0000   -0.0000   -0.2633   -0.1317    0.3403   -0.0001    0.0001    0.2453
          22   -0.0178    0.0561   -0.0292    0.0662   -0.1213    0.3964    0.0253    0.4602
          23   -0.0981   -0.0103   -0.1601    0.3643    0.0220   -0.0721    0.1365   -0.0837
          24    0.0035    0.0000    0.0686   -0.1435    0.0000   -0.0000   -0.0215    0.0000
          25   -0.0177    0.0562    0.0292   -0.0662    0.1216    0.3963    0.0253   -0.4602
          26   -0.0981   -0.0101    0.1601   -0.3643   -0.0219   -0.0723    0.1365    0.0836
          27   -0.0035    0.0001    0.0686   -0.1435    0.0000   -0.0000    0.0215   -0.0000
          28   -0.1128   -0.1159   -0.1918    0.1196   -0.2506    0.0396    0.2436    0.1707
          29    0.0755    0.0680    0.1049   -0.0664    0.1402    0.0199   -0.0118   -0.0959
          30   -0.0046   -0.0066   -0.0640    0.0350   -0.0759   -0.0082   -0.0040    0.0473
          31   -0.1620   -0.0753    0.0006   -0.0004    0.0008   -0.2062   -0.3396   -0.0006
          32    0.1107    0.0540   -0.0003    0.0002   -0.0004    0.1687    0.3067    0.0003
          33    0.0001   -0.0000   -0.0786    0.0390   -0.0915    0.0001   -0.0001    0.0555
          34   -0.1126   -0.1158    0.1911   -0.1191    0.2496    0.0403    0.2456   -0.1699
          35    0.0753    0.0679   -0.1045    0.0661   -0.1397    0.0194   -0.0129    0.0955
          36    0.0046    0.0065   -0.0641    0.0351   -0.0760    0.0082    0.0041    0.0473
          37    0.1320   -0.1326   -0.2164    0.1354    0.2840    0.0308   -0.2323   -0.1935
          38    0.0310   -0.0228   -0.0306    0.0200    0.0430   -0.0328    0.0745   -0.0296
          39    0.0046   -0.0066   -0.0640    0.0351    0.0759   -0.0082    0.0040   -0.0473
          40    0.1907   -0.0895    0.0004   -0.0003   -0.0007   -0.2535    0.4248    0.0003
          41    0.0467   -0.0240    0.0000   -0.0000   -0.0001   -0.0857    0.1670    0.0000
          42   -0.0000   -0.0000   -0.0787    0.0390    0.0915   -0.0000    0.0000   -0.0556
          43    0.1319   -0.1325    0.2159   -0.1350   -0.2832    0.0316   -0.2337    0.1931
          44    0.0310   -0.0228    0.0306   -0.0200   -0.0429   -0.0326    0.0743    0.0296
          45   -0.0046    0.0065   -0.0640    0.0351    0.0760    0.0082   -0.0040   -0.0473
          46    0.0425    0.1737   -0.0001   -0.0000   -0.0000    0.0964    0.0296   -0.0000
          47   -0.0363    0.0204   -0.0001    0.0000   -0.0001   -0.1824   -0.0212    0.0000
          48    0.0001    0.0001    0.4846    0.3724    0.3830   -0.0003    0.0000    0.3339
          49   -0.0525    0.1553   -0.0000   -0.0000    0.0001    0.1536   -0.0350    0.0000
          50   -0.0190   -0.0802    0.0001   -0.0000    0.0000    0.1364   -0.0092    0.0000
          51   -0.0001    0.0001    0.4847    0.3722   -0.3829    0.0001   -0.0000   -0.3338


   Root No.      17        18        19        20        21        22        23        24

                17 A      18 A      19 A      20 A      21 A      22 A      23 A      24 A   

                 977.7    1022.7    1037.1    1056.1    1066.9    1174.1    1195.9    1309.8
  
           1    0.0928    0.0001    0.0924    0.0001   -0.0132   -0.4537    0.0060   -0.0004
           2   -0.0163   -0.0002    0.5094    0.0005   -0.0752    0.0825   -0.0012   -0.0018
           3    0.0002   -0.2452   -0.0001    0.0000   -0.0000   -0.0000    0.0000   -0.0000
           4    0.0627   -0.0001   -0.1199   -0.0002   -0.0580    0.1525    0.0240    0.0452
           5    0.2663    0.0001    0.1948    0.0003   -0.0128   -0.0174   -0.0856   -0.0878
           6    0.0001   -0.2490    0.0000   -0.1637   -0.0000    0.0001    0.0001   -0.0002
           7   -0.0349   -0.0002    0.1808    0.0002    0.0490    0.1489    0.0526   -0.0730
           8   -0.2713   -0.0001    0.1402    0.0001   -0.0335   -0.0374    0.0715   -0.0663
           9    0.0001   -0.2487   -0.0002    0.1636    0.0000    0.0001    0.0000    0.0001
          10    0.0047   -0.0002    0.0657   -0.0000    0.0564   -0.2129   -0.0072    0.3106
          11   -0.0730    0.0000   -0.1369   -0.0001    0.0166    0.0369    0.2436    0.0412
          12   -0.0002    0.3602   -0.0002    0.3283    0.0000   -0.0001   -0.0000    0.0001
          13    0.0300   -0.0000   -0.1097   -0.0001   -0.0465   -0.2122   -0.0928   -0.2762
          14    0.0665    0.0001   -0.1053   -0.0001    0.0368    0.0403   -0.2252    0.1479
          15   -0.0002    0.3604    0.0005   -0.3282   -0.0000   -0.0000   -0.0000   -0.0000
          16   -0.1005    0.0000   -0.1134   -0.0001   -0.1629    0.0423   -0.1342    0.1777
          17   -0.2002    0.0001   -0.3443   -0.0003   -0.0417    0.0800    0.2040   -0.0642
          18   -0.0000   -0.1080    0.0002   -0.1785   -0.0000    0.0000    0.0000   -0.0000
          19   -0.0239    0.0000   -0.0149   -0.0000    0.1387    0.0114   -0.1962   -0.1890
          20    0.2225    0.0002   -0.3624   -0.0004   -0.0947   -0.0898   -0.1442    0.0024
          21    0.0000   -0.1083   -0.0003    0.1785    0.0000   -0.0000   -0.0000   -0.0000
          22    0.0215   -0.0291    0.0433   -0.4651   -0.0051    0.4828   -0.1488   -0.0527
          23   -0.0036   -0.1631    0.2356    0.0849   -0.0308   -0.0878    0.0270   -0.2897
          24   -0.0001    0.0587   -0.0564   -0.0001    0.0065    0.0000    0.0000    0.1929
          25    0.0213    0.0295    0.0422    0.4653   -0.0050    0.4828   -0.1488   -0.0526
          26   -0.0038    0.1628    0.2359   -0.0844   -0.0309   -0.0878    0.0270   -0.2897
          27    0.0000    0.0587    0.0565    0.0000   -0.0065    0.0000   -0.0001   -0.1930
          28   -0.2790    0.2779   -0.1973    0.1787    0.0031    0.0940    0.1323   -0.2035
          29    0.0384   -0.1588    0.0636   -0.1035    0.0061   -0.0491   -0.0429    0.1141
          30   -0.0031    0.0766   -0.0172    0.0496   -0.0039    0.0286    0.0205   -0.0982
          31    0.2723   -0.0009    0.0189   -0.0005   -0.0634    0.1663    0.0087   -0.2157
          32   -0.2487    0.0004   -0.0195    0.0002    0.0515   -0.1461   -0.0163    0.2362
          33    0.0001    0.0925    0.0001    0.0607    0.0000   -0.0002   -0.0001    0.0005
          34   -0.2807   -0.2767   -0.1981   -0.1784    0.0033    0.0940    0.1329   -0.2036
          35    0.0393    0.1583    0.0638    0.1033    0.0060   -0.0489   -0.0430    0.1136
          36    0.0030    0.0766    0.0172    0.0497    0.0039   -0.0286   -0.0205    0.0982
          37   -0.2753    0.3152    0.2077   -0.2033   -0.0022    0.1052    0.1390    0.2304
          38    0.0623    0.0507   -0.0100   -0.0339    0.0069    0.0129   -0.0064    0.0351
          39   -0.0031    0.0764    0.0173   -0.0495    0.0038    0.0286    0.0205    0.0982
          40    0.3426   -0.0005   -0.0248    0.0003    0.0781    0.2070    0.0142    0.2850
          41    0.1368   -0.0000   -0.0117    0.0000    0.0261    0.0782    0.0123    0.1451
          42    0.0000    0.0924    0.0000   -0.0606   -0.0000   -0.0001   -0.0001   -0.0003
          43   -0.2764   -0.3148    0.2077    0.2032   -0.0023    0.1051    0.1394    0.2303
          44    0.0622   -0.0507   -0.0101    0.0338    0.0068    0.0128   -0.0065    0.0348
[...]
 TRANSITION DIPOLE   0.0646         C  2 -- H 10         +20.1% ( 38.8%)     11.6%
 TRAVEL (Ang.)       0.3380         C  2 -- H 12         +19.9% ( 38.6%)     11.8%
 REDUCED MASS        0.4247         C  2 -- C  4          +5.2% ( 19.7%)      0.0%
 EFFECTIVE MASS      1.5764
 FORCE CONSTANT      0.4836

 VIBRATION         28   28A           ATOM PAIR      ENERGY CONTRIBUTION    RADIAL
 FREQUENCY          1390.25         C  3 -- H 14         +54.5% ( 63.9%)      0.0%
 TRANSITION DIPOLE   0.0726         C  3 -- H 15         +20.0% ( 38.7%)     11.7%
 TRAVEL (Ang.)       0.3380         C  3 -- H 13         +20.0% ( 38.7%)     11.7%
 REDUCED MASS        0.4246         C  3 -- C  5          +5.2% ( 19.7%)      0.0%
 EFFECTIVE MASS      1.5764
 FORCE CONSTANT      0.4836

 VIBRATION         29   29A           ATOM PAIR      ENERGY CONTRIBUTION    RADIAL
 FREQUENCY          1391.20         C  2 -- H 12         +20.6% ( 39.6%)      1.3%
 TRANSITION DIPOLE   0.0357         C  2 -- H 10         +20.5% ( 39.5%)      1.4%
 TRAVEL (Ang.)       0.5056         C  3 -- H 13         +18.2% ( 37.3%)      1.3%
 REDUCED MASS        0.1896         C  3 -- H 15         +18.2% ( 37.3%)      1.4%
 EFFECTIVE MASS      1.6361
 FORCE CONSTANT      0.2162

 VIBRATION         30   30A           ATOM PAIR      ENERGY CONTRIBUTION    RADIAL
 FREQUENCY          1391.71         C  3 -- H 13         +20.2% ( 39.6%)      1.2%
 TRANSITION DIPOLE   0.0039         C  3 -- H 15         +20.2% ( 39.6%)      1.2%
 TRAVEL (Ang.)       0.5061         C  2 -- H 12         +17.9% ( 37.3%)      1.1%
 REDUCED MASS        0.1892         C  2 -- H 10         +17.9% ( 37.2%)      1.2%
 EFFECTIVE MASS      1.6902
 FORCE CONSTANT      0.2159

 VIBRATION         31   31A           ATOM PAIR      ENERGY CONTRIBUTION    RADIAL
 FREQUENCY          1402.46         C  6 -- C  7         +28.5% ( 90.7%)    100.0%
 TRANSITION DIPOLE   0.3694         C  4 -- C  7         +10.9% ( 56.0%)     90.9%
 TRAVEL (Ang.)       0.1182         C  5 -- C  6         +10.8% ( 56.0%)     90.9%
 REDUCED MASS        3.4415         C  7 -- H 17          +9.9% ( 53.6%)     10.7%
 EFFECTIVE MASS     10.8382
 FORCE CONSTANT      3.9882

 VIBRATION         32   32A           ATOM PAIR      ENERGY CONTRIBUTION    RADIAL
 FREQUENCY          1458.94         C  3 -- C  5         +11.4% ( 54.3%)     66.8%
 TRANSITION DIPOLE   0.3130         C  2 -- C  4         +11.4% ( 54.3%)     66.8%
 TRAVEL (Ang.)       0.1645         C  1 -- C  4          +9.5% ( 49.5%)     92.1%
 REDUCED MASS        1.7083         C  1 -- C  5          +9.5% ( 49.5%)     92.1%
 EFFECTIVE MASS     10.1806
 FORCE CONSTANT      2.1423

 VIBRATION         33   33A           ATOM PAIR      ENERGY CONTRIBUTION    RADIAL
 FREQUENCY          1482.44         C  2 -- C  4         +11.0% ( 55.0%)     81.2%
 TRANSITION DIPOLE   0.0965         C  3 -- C  5         +11.0% ( 55.0%)     81.3%
 TRAVEL (Ang.)       0.1608         C  1 -- C  4         +10.3% ( 53.3%)     79.9%
 REDUCED MASS        1.7594         C  1 -- C  5         +10.3% ( 53.3%)     79.9%
 EFFECTIVE MASS     10.8572
 FORCE CONSTANT      2.2780

 VIBRATION         34   34A           ATOM PAIR      ENERGY CONTRIBUTION    RADIAL
 FREQUENCY          1809.54         C  4 -- C  6         +16.3% ( 68.2%)     95.4%
 TRANSITION DIPOLE   0.4846         C  5 -- C  7         +16.2% ( 68.0%)     95.4%
 TRAVEL (Ang.)       0.1119         C  4 -- C  7         +10.5% ( 54.8%)     55.1%
 REDUCED MASS        2.9761         C  5 -- C  6         +10.5% ( 54.7%)     54.9%
 EFFECTIVE MASS     11.9647
 FORCE CONSTANT      5.7416

 VIBRATION         35   35A           ATOM PAIR      ENERGY CONTRIBUTION    RADIAL
 FREQUENCY          1836.94         C  5 -- C  7         +16.9% ( 68.1%)     98.5%
 TRANSITION DIPOLE   0.4216         C  4 -- C  6         +16.7% ( 67.9%)     98.5%
 TRAVEL (Ang.)       0.1164         C  5 -- C  6         +10.6% ( 54.0%)     78.6%
 REDUCED MASS        2.7116         C  4 -- C  7         +10.6% ( 53.9%)     78.0%
 EFFECTIVE MASS     11.7708
 FORCE CONSTANT      5.3909

 VIBRATION         36   36A           ATOM PAIR      ENERGY CONTRIBUTION    RADIAL
 FREQUENCY          2986.72         C  1 -- H  9         +48.9% ( 72.4%)     96.8%
 TRANSITION DIPOLE   0.1404         C  1 -- H  8         +48.9% ( 72.4%)     96.8%
 TRAVEL (Ang.)       0.2089         C  1 -- C  4          +1.1% ( 10.7%)      0.0%
 REDUCED MASS        0.5176         C  1 -- C  5          +1.1% ( 10.7%)      0.0%
 EFFECTIVE MASS      1.5335
 FORCE CONSTANT      2.7202

 VIBRATION         37   37A           ATOM PAIR      ENERGY CONTRIBUTION    RADIAL
 FREQUENCY          3052.89         C  1 -- H  8         +49.2% ( 69.4%)     97.3%
 TRANSITION DIPOLE   0.2383         C  1 -- H  9         +49.2% ( 69.4%)     97.3%
 TRAVEL (Ang.)       0.2137         C  1 -- C  4          +0.7% (  8.4%)     38.3%
 REDUCED MASS        0.4835         C  1 -- C  5          +0.7% (  8.4%)     38.3%
 EFFECTIVE MASS      1.2857
 FORCE CONSTANT      2.6549

 VIBRATION         38   38A           ATOM PAIR      ENERGY CONTRIBUTION    RADIAL
 FREQUENCY          3066.64         C  2 -- H 10         +36.5% ( 62.4%)     97.1%
 TRANSITION DIPOLE   0.0061         C  2 -- H 12         +36.1% ( 62.0%)     97.0%
 TRAVEL (Ang.)       0.2646         C  3 -- H 13         +12.8% ( 36.9%)     97.1%
 REDUCED MASS        0.3140         C  3 -- H 15         +12.7% ( 36.7%)     97.0%
 EFFECTIVE MASS      1.5028
 FORCE CONSTANT      1.7397

 VIBRATION         39   39A           ATOM PAIR      ENERGY CONTRIBUTION    RADIAL
 FREQUENCY          3066.68         C  3 -- H 13         +36.5% ( 62.3%)     97.1%
 TRANSITION DIPOLE   0.0238         C  3 -- H 15         +36.2% ( 62.0%)     97.0%
 TRAVEL (Ang.)       0.2646         C  2 -- H 10         +12.8% ( 36.9%)     97.1%
 REDUCED MASS        0.3140         C  2 -- H 12         +12.6% ( 36.7%)     97.0%
 EFFECTIVE MASS      1.5032
 FORCE CONSTANT      1.7399

 VIBRATION         40   40A           ATOM PAIR      ENERGY CONTRIBUTION    RADIAL
 FREQUENCY          3077.44         C  2 -- H 11         +60.7% ( 80.4%)     98.7%
 TRANSITION DIPOLE   0.0409         C  2 -- H 12         +19.3% ( 45.3%)     86.1%
 TRAVEL (Ang.)       0.2154         C  2 -- H 10         +18.8% ( 44.7%)     85.7%
 REDUCED MASS        0.4722         C  2 -- C  4          +1.0% ( 10.5%)      0.0%
 EFFECTIVE MASS      1.5128
 FORCE CONSTANT      2.6349

 VIBRATION         41   41A           ATOM PAIR      ENERGY CONTRIBUTION    RADIAL
 FREQUENCY          3077.50         C  3 -- H 14         +60.7% ( 80.4%)     98.7%
 TRANSITION DIPOLE   0.0382         C  3 -- H 15         +19.2% ( 45.2%)     86.1%
 TRAVEL (Ang.)       0.2154         C  3 -- H 13         +18.8% ( 44.8%)     85.7%
 REDUCED MASS        0.4720         C  3 -- C  5          +1.0% ( 10.5%)      0.0%
 EFFECTIVE MASS      1.5129
 FORCE CONSTANT      2.6340

 VIBRATION         42   42A           ATOM PAIR      ENERGY CONTRIBUTION    RADIAL
 FREQUENCY          3133.81         C  7 -- H 17         +47.6% ( 70.8%)    100.0%
 TRANSITION DIPOLE   0.1690         C  6 -- H 16         +47.4% ( 70.7%)    100.0%
 TRAVEL (Ang.)       0.2151         C  6 -- C  7          +1.6% ( 12.9%)      0.0%
 REDUCED MASS        0.4649         C  5 -- C  7          +0.9% (  9.6%)     46.5%
 EFFECTIVE MASS      1.5407
 FORCE CONSTANT      2.6899

 VIBRATION         43   43A           ATOM PAIR      ENERGY CONTRIBUTION    RADIAL
 FREQUENCY          3142.02         C  6 -- H 16         +47.3% ( 70.6%)    100.0%
 TRANSITION DIPOLE   0.5033         C  7 -- H 17         +47.1% ( 70.4%)    100.0%
 TRAVEL (Ang.)       0.2149         C  6 -- C  7          +1.8% ( 13.9%)    100.0%
 REDUCED MASS        0.4645         C  4 -- C  6          +0.9% ( 10.0%)     48.4%
 EFFECTIVE MASS      1.5944
 FORCE CONSTANT      2.7017

 VIBRATION         44   44A           ATOM PAIR      ENERGY CONTRIBUTION    RADIAL
 FREQUENCY          3166.06         C  2 -- H 11         +37.7% ( 59.1%)     97.7%
 TRANSITION DIPOLE   0.0474         C  2 -- H 12         +30.5% ( 53.2%)     96.7%
 TRAVEL (Ang.)       0.2566         C  2 -- H 10         +30.5% ( 53.2%)     96.7%
 REDUCED MASS        0.3234         C  3 -- H 14          +0.4% (  5.9%)     97.8%
 EFFECTIVE MASS      1.1400
 FORCE CONSTANT      1.9098

 VIBRATION         45   45A           ATOM PAIR      ENERGY CONTRIBUTION    RADIAL
 FREQUENCY          3166.09         C  3 -- H 14         +37.7% ( 59.2%)     97.7%
 TRANSITION DIPOLE   0.0555         C  3 -- H 15         +30.5% ( 53.2%)     96.7%
 TRAVEL (Ang.)       0.2566         C  3 -- H 13         +30.5% ( 53.2%)     96.7%
 REDUCED MASS        0.3234         C  2 -- H 11          +0.4% (  5.9%)     97.7%
 EFFECTIVE MASS      1.1400
 FORCE CONSTANT      1.9100

      SYMMETRY NUMBER FOR POINT-GROUP C1  =  1


          SYSTEM IS A GROUND STATE



 InChI=1S/C7H10/c1-6-3-4-7(2)5-6/h3-4H,5H2,1-2H3


          MOLECULE IS NOT LINEAR

          THERE ARE 45 GENUINE VIBRATIONS IN THIS SYSTEM
          THIS THERMODYNAMICS CALCULATION IS LIMITED TO
          MOLECULES WHICH HAVE NO INTERNAL ROTATIONS




                    CALCULATED THERMODYNAMIC PROPERTIES
                                          *
   TEMP. (K)   PARTITION FUNCTION   H.O.F.    ENTHALPY  HEAT CAPACITY ENTROPY
                                   KCAL/MOL   CAL/MOLE    CAL/K/MOL  CAL/K/MOL


 298.00  VIB.     0.4940D+02                  2949.4539    21.3795    17.6473
         ROT.     0.2035D+06                   888.2803     2.9808    27.2709
         INT.     0.1005D+08                  3837.7342    24.3603    44.9182
         TRA.     0.8833D+27                  1480.4672     4.9680    39.5363
         TOT.                       11.396    5318.2013    29.3283    84.4545

 200.00  VIB.     0.1000D+02                  1263.8047    13.2644    10.8955
         ROT.     0.1119D+06                   596.1613     2.9808    26.0822
         INT.     0.1119D+07                  1859.9659    16.2452    36.9777
         TRA.     0.4856D+27                   993.6021     4.9680    37.5551
         TOT.                        8.932    2853.5681    21.2133    74.5329

 210.00  VIB.     0.1173D+02                  1400.1932    14.0167    11.5608
         ROT.     0.1204D+06                   625.9693     2.9808    26.2276
         INT.     0.1412D+07                  2026.1625    16.9975    37.7885
         TRA.     0.5225D+27                  1043.2822     4.9680    37.7975
         TOT.                        9.147    3069.4447    21.9655    75.5860

 220.00  VIB.     0.1377D+02                  1544.2064    14.7894    12.2306
         ROT.     0.1291D+06                   655.7774     2.9808    26.3663
         INT.     0.1777D+07                  2199.9838    17.7702    38.5969
         TRA.     0.5603D+27                  1092.9623     4.9680    38.0286
         TOT.                        9.371    3292.9462    22.7382    76.6256

 230.00  VIB.     0.1618D+02                  1696.0466    15.5819    12.9055
         ROT.     0.1380D+06                   685.5855     2.9808    26.4988
         INT.     0.2232D+07                  2381.6321    18.5627    39.4043
         TRA.     0.5989D+27                  1142.6424     4.9680    38.2495
         TOT.                        9.602    3524.2746    23.5308    77.6537

 240.00  VIB.     0.1901D+02                  1855.9081    16.3934    13.5857
         ROT.     0.1471D+06                   715.3935     2.9808    26.6257
         INT.     0.2796D+07                  2571.3016    19.3742    40.2114
         TRA.     0.6384D+27                  1192.3226     4.9680    38.4609
         TOT.                        9.842    3763.6242    24.3422    78.6723

 250.00  VIB.     0.2237D+02                  2023.9722    17.2222    14.2717
         ROT.     0.1563D+06                   745.2016     2.9808    26.7473
         INT.     0.3497D+07                  2769.1738    20.2030    41.0190
         TRA.     0.6787D+27                  1242.0027     4.9680    38.6637
         TOT.                       10.089    4011.1765    25.1710    79.6827

 260.00  VIB.     0.2634D+02                  2200.4039    18.0666    14.9635
         ROT.     0.1658D+06                   775.0097     2.9808    26.8642
         INT.     0.4368D+07                  2975.4135    21.0474    41.8278
         TRA.     0.7198D+27                  1291.6828     4.9680    38.8586
         TOT.                       10.345    4267.0963    26.0154    80.6864

 270.00  VIB.     0.3104D+02                  2385.3484    18.9244    15.6614
         ROT.     0.1755D+06                   804.8177     2.9808    26.9767
         INT.     0.5447D+07                  3190.1662    21.9052    42.6382
         TRA.     0.7618D+27                  1341.3629     4.9680    39.0461
         TOT.                       10.610    4531.5290    26.8732    81.6842

 280.00  VIB.     0.3662D+02                  2578.9302    19.7936    16.3653
         ROT.     0.1853D+06                   834.6258     2.9808    27.0851
         INT.     0.6785D+07                  3413.5559    22.7744    43.4505
         TRA.     0.8045D+27                  1391.0430     4.9680    39.2267
         TOT.                       10.883    4804.5989    27.7424    82.6772

 290.00  VIB.     0.4323D+02                  2781.2510    20.6719    17.0752
         ROT.     0.1953D+06                   864.4339     2.9808    27.1897
         INT.     0.8443D+07                  3645.6848    23.6527    44.2650
         TRA.     0.8479D+27                  1440.7231     4.9680    39.4011
         TOT.                       11.164    5086.4079    28.6207    83.6661

 300.00  VIB.     0.5108D+02                  2992.3902    21.5569    17.7909
         ROT.     0.2055D+06                   894.2419     2.9808    27.2908
         INT.     0.1050D+08                  3886.6321    24.5377    45.0817
         TRA.     0.8922D+27                  1490.4032     4.9680    39.5695
         TOT.                       11.455    5377.0353    29.5057    84.6512

 310.00  VIB.     0.6041D+02                  3212.4048    22.4466    18.5123
         ROT.     0.2159D+06                   924.0500     2.9808    27.3885
         INT.     0.1304D+08                  4136.4548    25.4274    45.9008
         TRA.     0.9372D+27                  1540.0833     4.9680    39.7324
         TOT.                       11.755    5676.5381    30.3954    85.6332

 320.00  VIB.     0.7150D+02                  3441.3300    23.3387    19.2390
         ROT.     0.2264D+06                   953.8580     2.9808    27.4832
         INT.     0.1619D+08                  4395.1880    26.3195    46.7222
         TRA.     0.9829D+27                  1589.7634     4.9680    39.8901
         TOT.                       12.063    5984.9514    31.2875    86.6123

 330.00  VIB.     0.8472D+02                  3679.1800    24.2312    19.9708
         ROT.     0.2371D+06                   983.6661     2.9808    27.5749
         INT.     0.2009D+08                  4662.8461    27.2120    47.5457
         TRA.     0.1029D+28                  1639.4435     4.9680    40.0430
         TOT.                       12.380    6302.2897    32.1801    87.5888

 340.00  VIB.     0.1005D+03                  3925.9499    25.1224    20.7075
         ROT.     0.2480D+06                  1013.4742     2.9808    27.6639
         INT.     0.2491D+08                  4939.4241    28.1032    48.3713
         TRA.     0.1076D+28                  1689.1236     4.9680    40.1913
         TOT.                       12.707    6628.5477    33.0712    88.5627

 350.00  VIB.     0.1192D+03                  4181.6165    26.0103    21.4485
         ROT.     0.2590D+06                  1043.2822     2.9808    27.7503
         INT.     0.3088D+08                  5224.8987    28.9911    49.1988
         TRA.     0.1124D+28                  1738.8037     4.9680    40.3353
         TOT.                       13.042    6963.7024    33.9591    89.5341

 360.00  VIB.     0.1416D+03                  4446.1399    26.8935    22.1936
         ROT.     0.2702D+06                  1073.0903     2.9808    27.8343
         INT.     0.3827D+08                  5519.2302    29.8743    50.0279
         TRA.     0.1173D+28                  1788.4838     4.9680    40.4753
         TOT.                       13.386    7307.7141    34.8423    90.5032

 370.00  VIB.     0.1684D+03                  4719.4656    27.7705    22.9425
         ROT.     0.2815D+06                  1102.8984     2.9808    27.9159
         INT.     0.4740D+08                  5822.3639    30.7513    50.8584
         TRA.     0.1222D+28                  1838.1639     4.9680    40.6114
         TOT.                       13.739    7660.5279    35.7193    91.4698

 380.00  VIB.     0.2004D+03                  5001.5253    28.6401    23.6946
         ROT.     0.2930D+06                  1132.7064     2.9808    27.9954
         INT.     0.5871D+08                  6134.2318    31.6209    51.6901
         TRA.     0.1272D+28                  1887.8440     4.9680    40.7439
         TOT.                       14.100    8022.0758    36.5889    92.4339

 390.00  VIB.     0.2386D+03                  5292.2393    29.5012    24.4497
         ROT.     0.3046D+06                  1162.5145     2.9808    28.0729
         INT.     0.7269D+08                  6454.7538    32.4820    52.5226
         TRA.     0.1322D+28                  1937.5242     4.9680    40.8729
         TOT.                       14.470    8392.2780    37.4500    93.3955

 400.00  VIB.     0.2844D+03                  5591.5174    30.3528    25.2074
         ROT.     0.3164D+06                  1192.3226     2.9808    28.1483
         INT.     0.8999D+08                  6783.8399    33.3336    53.3557
         TRA.     0.1374D+28                  1987.2043     4.9680    40.9987
         TOT.                       14.849    8771.0442    38.3016    94.3544

   *: NOTE: HEATS OF FORMATION ARE RELATIVE TO THE
            ELEMENTS IN THEIR STANDARD STATE AT 298K
              (=  Standard Enthalpy of Formation).

            Hvib:  Zero-point energy is not included.
                   frequencies of less than zero cm-1 are not included.
            Hrot = (3/2)RT
            Htra = (3/2)RT + pV = (5/2)RT

            Heat capacity is Cp, not Cv

          For more information, see: HTTP://OpenMOPAC.net/Manual/thermochemistry.html


           FORCE CONSTANT IN CARTESIAN COORDINATES (Millidynes/A)

    ATOM   CHEMICAL       X               Y               Z
   NUMBER   SYMBOL  FORCE CONSTANT  FORCE CONSTANT  FORCE CONSTANT

      1       C        7.712571        9.860903        7.831956
      2       C        9.185682        8.567242        7.940456
      3       C        9.341053        8.412141        7.940548
      4       C       11.248763       13.898010        2.685664
      5       C       13.301167       11.843646        2.685662
      6       C       10.607292       14.546725        2.167697
      7       C       10.293569       14.869120        2.168499
      8       H        0.659006        2.057847        3.564002
      9       H        0.659067        2.057996        3.563803
     10       H        0.674955        2.189895        3.765920
     11       H        3.415434        2.658332        0.653487
     12       H        0.674051        2.213901        3.743501
     13       H        0.968018        1.901336        3.761491
     14       H        1.805728        4.268765        0.653458
     15       H        0.967360        1.915852        3.748071
     16       H        2.958508        3.140588        0.344234
     17       H        1.434208        4.665670        0.344234

 **********************
 *                    *
 * JOB ENDED NORMALLY *
 *                    *
 **********************



 TOTAL JOB TIME:             2.13 SECONDS

 == MOPAC DONE ==
