 *******************************************************************************
 **                                                                           **
 **                              MOPAC v23.1.2                                **
 **                                                                           **
 *******************************************************************************
 **          Digital Object Identifier (DOI): 10.5281/zenodo.6511958          **
 **    Visit the DOI location for information on how to cite this program.    **
 *******************************************************************************

                              PM3 CALCULATION RESULTS

 *******************************************************************************
 *  CALCULATION DONE: (MAX THREADS = 1)              Tue Jun  3 16:29:45 2025  *
 *  PM3        - The PM3 Hamiltonian to be used
 *  PRECISE    - TIGHTER CRITERIA TO BE USED
 *  NOSYM      - POINT-GROUP SYMMETRY SET TO C1
 *  THREADS=1  - MULTI-THREADING NOT USED
 *  T=         - A TIME OF 172800.0 SECONDS REQUESTED
 *  DUMP=N     - RESTART FILE WRITTEN EVERY 7200.0 SECONDS REQUESTED
 *******************************************************************************
pm3  precise nosym THREADS=1
 InChI=1S/C10H12/c1-8-6-7-9-4-2-3-5-10(8)9/h2-4,6-8,10H,5H2,1H3

   ATOM   CHEMICAL          X               Y               Z
  NUMBER   SYMBOL      (ANGSTROMS)     (ANGSTROMS)     (ANGSTROMS)

     1       C         -0.03170000  *  -0.36830000  *   0.21640000  *
     2       C         -1.44500000  *  -0.03370000  *  -0.31580000  *
     3       C          0.82040000  *  -1.27750000  *  -0.69140000  *
     4       C         -2.54540000  *  -0.76610000  *   0.45400000  *
     5       C          0.59850000  *   0.97850000  *   0.32620000  *
     6       C         -1.55440000  *   1.45730000  *  -0.13270000  *
     7       C          2.27970000  *  -1.18150000  *  -0.29760000  *
     8       C         -0.40370000  *   2.01320000  *   0.20890000  *
     9       C          1.92220000  *   1.15360000  *   0.35120000  *
    10       C          2.79440000  *  -0.02370000  *   0.15110000  *
    11       H         -1.53420000  *  -0.26640000  *  -1.39980000  *
    12       H         -0.07770000  *  -0.81020000  *   1.23800000  *
    13       H          0.47400000  *  -2.32920000  *  -0.60500000  *
    14       H          0.72530000  *  -0.95910000  *  -1.75220000  *
    15       H         -2.41250000  *  -1.86350000  *   0.34630000  *
    16       H         -3.54100000  *  -0.49050000  *   0.04550000  *
    17       H         -2.51530000  *  -0.50260000  *   1.53340000  *
    18       H         -2.45020000  *   2.02970000  *  -0.33620000  *
    19       H          2.92730000  *  -2.03720000  *  -0.44070000  *
    20       H          3.85530000  *   0.05620000  *   0.34950000  *
    21       H          2.35240000  *   2.14360000  *   0.43370000  *
    22       H         -0.23850000  *   3.07730000  *   0.31710000  *



          CARTESIAN COORDINATES 

    NO.       ATOM           X           Y           Z

     1         C         -0.0317     -0.3683      0.2164
     2         C         -1.4450     -0.0337     -0.3158
     3         C          0.8204     -1.2775     -0.6914
     4         C         -2.5454     -0.7661      0.4540
     5         C          0.5985      0.9785      0.3262
     6         C         -1.5544      1.4573     -0.1327
     7         C          2.2797     -1.1815     -0.2976
     8         C         -0.4037      2.0132      0.2089
     9         C          1.9222      1.1536      0.3512
    10         C          2.7944     -0.0237      0.1511
    11         H         -1.5342     -0.2664     -1.3998
    12         H         -0.0777     -0.8102      1.2380
    13         H          0.4740     -2.3292     -0.6050
    14         H          0.7253     -0.9591     -1.7522
    15         H         -2.4125     -1.8635      0.3463
    16         H         -3.5410     -0.4905      0.0455
    17         H         -2.5153     -0.5026      1.5334
    18         H         -2.4502      2.0297     -0.3362
    19         H          2.9273     -2.0372     -0.4407
    20         H          3.8553      0.0562      0.3495
    21         H          2.3524      2.1436      0.4337
    22         H         -0.2385      3.0773      0.3171

  H: (PM3): J. J. P. STEWART, J. COMP. CHEM. 10, 209 (1989).
  C: (PM3): J. J. P. STEWART, J. COMP. CHEM. 10, 209 (1989).

           Empirical Formula: C10 H12  =    22 atoms



      MOLECULAR POINT GROUP   :   C1  


      RHF CALCULATION, NO. OF DOUBLY OCCUPIED LEVELS = 26


          Geometry optimization using EF

          DIAGONAL MATRIX USED AS START HESSIAN

 CYCLE:     1 TIME:   0.008 TIME LEFT:  2.00D  GRAD.:    84.505 HEAT:  37.34936
 CYCLE:     2 TIME:   0.016 TIME LEFT:  2.00D  GRAD.:    52.242 HEAT:  35.62667
 CYCLE:     3 TIME:   0.012 TIME LEFT:  2.00D  GRAD.:    36.022 HEAT:  34.99837
 CYCLE:     4 TIME:   0.008 TIME LEFT:  2.00D  GRAD.:    47.711 HEAT:  34.94064
 CYCLE:     5 TIME:   0.004 TIME LEFT:  2.00D  GRAD.:    45.693 HEAT:  34.56594
 CYCLE:     6 TIME:   0.012 TIME LEFT:  2.00D  GRAD.:    21.739 HEAT:  34.11822
 CYCLE:     7 TIME:   0.012 TIME LEFT:  2.00D  GRAD.:    19.129 HEAT:  33.99041
 CYCLE:     8 TIME:   0.008 TIME LEFT:  2.00D  GRAD.:    27.399 HEAT:  33.93816
 CYCLE:     9 TIME:   0.008 TIME LEFT:  2.00D  GRAD.:    16.091 HEAT:  33.75206
 CYCLE:    10 TIME:   0.008 TIME LEFT:  2.00D  GRAD.:    20.161 HEAT:  33.72149
 CYCLE:    11 TIME:   0.008 TIME LEFT:  2.00D  GRAD.:    11.115 HEAT:  33.63143
 CYCLE:    12 TIME:   0.012 TIME LEFT:  2.00D  GRAD.:    12.465 HEAT:  33.60906
 CYCLE:    13 TIME:   0.004 TIME LEFT:  2.00D  GRAD.:     9.781 HEAT:  33.57442
 CYCLE:    14 TIME:   0.008 TIME LEFT:  2.00D  GRAD.:     9.986 HEAT:  33.55324
 CYCLE:    15 TIME:   0.008 TIME LEFT:  2.00D  GRAD.:     5.447 HEAT:  33.51618
 CYCLE:    16 TIME:   0.008 TIME LEFT:  2.00D  GRAD.:     6.061 HEAT:  33.50774
 CYCLE:    17 TIME:   0.008 TIME LEFT:  2.00D  GRAD.:     6.664 HEAT:  33.49773
 CYCLE:    18 TIME:   0.008 TIME LEFT:  2.00D  GRAD.:     5.348 HEAT:  33.48153
 CYCLE:    19 TIME:   0.008 TIME LEFT:  2.00D  GRAD.:     5.755 HEAT:  33.46825
 CYCLE:    20 TIME:   0.008 TIME LEFT:  2.00D  GRAD.:     3.745 HEAT:  33.44687
 CYCLE:    21 TIME:   0.008 TIME LEFT:  2.00D  GRAD.:     6.997 HEAT:  33.44116
 CYCLE:    22 TIME:   0.008 TIME LEFT:  2.00D  GRAD.:     7.258 HEAT:  33.43408
 CYCLE:    23 TIME:   0.008 TIME LEFT:  2.00D  GRAD.:     4.971 HEAT:  33.42327
 CYCLE:    24 TIME:   0.008 TIME LEFT:  2.00D  GRAD.:     2.313 HEAT:  33.41449
 CYCLE:    25 TIME:   0.012 TIME LEFT:  2.00D  GRAD.:     2.882 HEAT:  33.41125
 CYCLE:    26 TIME:   0.004 TIME LEFT:  2.00D  GRAD.:     2.300 HEAT:  33.40576
 CYCLE:    27 TIME:   0.008 TIME LEFT:  2.00D  GRAD.:     3.658 HEAT:  33.39799
 CYCLE:    28 TIME:   0.008 TIME LEFT:  2.00D  GRAD.:     2.531 HEAT:  33.38983
 CYCLE:    29 TIME:   0.008 TIME LEFT:  2.00D  GRAD.:     2.485 HEAT:  33.38225
 CYCLE:    30 TIME:   0.008 TIME LEFT:  2.00D  GRAD.:     3.398 HEAT:  33.37369
 CYCLE:    31 TIME:   0.008 TIME LEFT:  2.00D  GRAD.:     3.239 HEAT:  33.36586
 CYCLE:    32 TIME:   0.008 TIME LEFT:  2.00D  GRAD.:     2.098 HEAT:  33.35772
 CYCLE:    33 TIME:   0.012 TIME LEFT:  2.00D  GRAD.:     2.331 HEAT:  33.35086
 CYCLE:    34 TIME:   0.008 TIME LEFT:  2.00D  GRAD.:     2.127 HEAT:  33.34659
 CYCLE:    35 TIME:   0.008 TIME LEFT:  2.00D  GRAD.:     1.417 HEAT:  33.34348
 CYCLE:    36 TIME:   0.008 TIME LEFT:  2.00D  GRAD.:     1.254 HEAT:  33.34099
 CYCLE:    37 TIME:   0.008 TIME LEFT:  2.00D  GRAD.:     1.365 HEAT:  33.33826
 CYCLE:    38 TIME:   0.008 TIME LEFT:  2.00D  GRAD.:     1.123 HEAT:  33.33591
 CYCLE:    39 TIME:   0.008 TIME LEFT:  2.00D  GRAD.:     1.034 HEAT:  33.33428
 CYCLE:    40 TIME:   0.008 TIME LEFT:  2.00D  GRAD.:     0.948 HEAT:  33.33268
 CYCLE:    41 TIME:   0.004 TIME LEFT:  2.00D  GRAD.:     0.918 HEAT:  33.33110
 CYCLE:    42 TIME:   0.012 TIME LEFT:  2.00D  GRAD.:     0.751 HEAT:  33.32975
 CYCLE:    43 TIME:   0.004 TIME LEFT:  2.00D  GRAD.:     0.678 HEAT:  33.32866
 CYCLE:    44 TIME:   0.008 TIME LEFT:  2.00D  GRAD.:     0.695 HEAT:  33.32763
 CYCLE:    45 TIME:   0.008 TIME LEFT:  2.00D  GRAD.:     0.691 HEAT:  33.32679
 CYCLE:    46 TIME:   0.008 TIME LEFT:  2.00D  GRAD.:     0.464 HEAT:  33.32614
 CYCLE:    47 TIME:   0.008 TIME LEFT:  2.00D  GRAD.:     0.355 HEAT:  33.32567
 CYCLE:    48 TIME:   0.004 TIME LEFT:  2.00D  GRAD.:     0.303 HEAT:  33.32546
 CYCLE:    49 TIME:   0.008 TIME LEFT:  2.00D  GRAD.:     0.252 HEAT:  33.32530
 CYCLE:    50 TIME:   0.008 TIME LEFT:  2.00D  GRAD.:     0.277 HEAT:  33.32515
 CYCLE:    51 TIME:   0.008 TIME LEFT:  2.00D  GRAD.:     0.330 HEAT:  33.32496
 CYCLE:    52 TIME:   0.008 TIME LEFT:  2.00D  GRAD.:     0.317 HEAT:  33.32474
 CYCLE:    53 TIME:   0.008 TIME LEFT:  2.00D  GRAD.:     0.265 HEAT:  33.32456
 CYCLE:    54 TIME:   0.004 TIME LEFT:  2.00D  GRAD.:     0.237 HEAT:  33.32442
 CYCLE:    55 TIME:   0.012 TIME LEFT:  2.00D  GRAD.:     0.223 HEAT:  33.32426
 CYCLE:    56 TIME:   0.008 TIME LEFT:  2.00D  GRAD.:     0.199 HEAT:  33.32413
 CYCLE:    57 TIME:   0.004 TIME LEFT:  2.00D  GRAD.:     0.139 HEAT:  33.32407
 CYCLE:    58 TIME:   0.008 TIME LEFT:  2.00D  GRAD.:     0.107 HEAT:  33.32403
 CYCLE:    59 TIME:   0.008 TIME LEFT:  2.00D  GRAD.:     0.138 HEAT:  33.32400
 CYCLE:    60 TIME:   0.008 TIME LEFT:  2.00D  GRAD.:     0.087 HEAT:  33.32398
 CYCLE:    61 TIME:   0.008 TIME LEFT:  2.00D  GRAD.:     0.134 HEAT:  33.32398
 CYCLE:    62 TIME:   0.008 TIME LEFT:  2.00D  GRAD.:     0.055 HEAT:  33.32396
 CYCLE:    63 TIME:   0.008 TIME LEFT:  2.00D  GRAD.:     0.043 HEAT:  33.32396

     GRADIENT =  0.04340 IS LESS THAN CUTOFF =  0.05000



 -------------------------------------------------------------------------------
 pm3  precise nosym THREADS=1
 InChI=1S/C10H12/c1-8-6-7-9-4-2-3-5-10(8)9/h2-4,6-8,10H,5H2,1H3



     GEOMETRY OPTIMISED USING EIGENVECTOR FOLLOWING (EF).     
     SCF FIELD WAS ACHIEVED                                   


                              PM3 CALCULATION
                                                       MOPAC v23.1.2 MacOS
                                                       Tue Jun  3 16:29:45 2025




          FINAL HEAT OF FORMATION =         33.32396 KCAL/MOL =     139.42744 KJ/MOL


          COSMO AREA              =        177.08 SQUARE ANGSTROMS
          COSMO VOLUME            =        181.65 CUBIC ANGSTROMS

          GRADIENT NORM           =          0.04340          =       0.00925 PER ATOM
          IONIZATION POTENTIAL    =          8.533505 EV
          HOMO LUMO ENERGIES (EV) =         -8.534 -0.121
          NO. OF FILLED LEVELS    =         26
          MOLECULAR WEIGHT        =        132.2048         POINT GROUP:  C1  

          MOLECULAR DIMENSIONS (Angstroms)

            Atom       Atom       Distance
            H    20    H    16     7.41768
            H    22    H    13     5.53910
            H    14    H    17     3.14753


          SCF CALCULATIONS        =         72

          WALL-CLOCK TIME         =      0.516 SECONDS
          COMPUTATION TIME        =      0.328 SECONDS




   ATOM   CHEMICAL          X               Y               Z
  NUMBER   SYMBOL      (ANGSTROMS)     (ANGSTROMS)     (ANGSTROMS)

     1       C         -0.02647265  *  -0.33516505  *   0.21648493  *
     2       C         -1.44525474  *  -0.01883177  *  -0.32366813  *
     3       C          0.79991579  *  -1.30306259  *  -0.61707364  *
     4       C         -2.53130722  *  -0.79711010  *   0.38753781  *
     5       C          0.63549572  *   1.01954500  *   0.29954955  *
     6       C         -1.57851454  *   1.46854024  *  -0.11230266  *
     7       C          2.25384596  *  -1.17218526  *  -0.30619901  *
     8       C         -0.41156222  *   2.03539437  *   0.24303022  *
     9       C          1.96914465  *   1.16167448  *   0.30635147  *
    10       C          2.79104530  *  -0.02464556  *   0.13631917  *
    11       H         -1.49642958  *  -0.22927343  *  -1.41943808  *
    12       H         -0.10680134  *  -0.73688932  *   1.25696843  *
    13       H          0.45814807  *  -2.34036432  *  -0.43515502  *
    14       H          0.65678667  *  -1.12427784  *  -1.70317582  *
    15       H         -2.39062253  *  -1.87781259  *   0.25629543  *
    16       H         -3.52397157  *  -0.53889531  *  -0.00322429  *
    17       H         -2.54101236  *  -0.59464498  *   1.46689699  *
    18       H         -2.53482668  *   1.97236972  *  -0.24902164  *
    19       H          2.87538295  *  -2.05585723  *  -0.48334299  *
    20       H          3.86083418  *   0.06258666  *   0.35016990  *
    21       H          2.45665565  *   2.13687046  *   0.39077647  *
    22       H         -0.22289722  *   3.08999639  *   0.44086686  *

                             CARTESIAN COORDINATES

   1    C       -0.026472649    -0.335165052     0.216484929
   2    C       -1.445254739    -0.018831770    -0.323668125
   3    C        0.799915785    -1.303062587    -0.617073644
   4    C       -2.531307216    -0.797110100     0.387537810
   5    C        0.635495722     1.019544996     0.299549553
   6    C       -1.578514541     1.468540245    -0.112302661
   7    C        2.253845961    -1.172185259    -0.306199012
   8    C       -0.411562225     2.035394372     0.243030220
   9    C        1.969144650     1.161674485     0.306351471
  10    C        2.791045303    -0.024645560     0.136319173
  11    H       -1.496429576    -0.229273430    -1.419438078
  12    H       -0.106801344    -0.736889316     1.256968431
  13    H        0.458148070    -2.340364323    -0.435155018
  14    H        0.656786668    -1.124277843    -1.703175817
  15    H       -2.390622526    -1.877812595     0.256295429
  16    H       -3.523971574    -0.538895314    -0.003224294
  17    H       -2.541012362    -0.594644979     1.466896995
  18    H       -2.534826679     1.972369723    -0.249021639
  19    H        2.875382952    -2.055857233    -0.483342992
  20    H        3.860834184     0.062586659     0.350169904
  21    H        2.456655651     2.136870455     0.390776472
  22    H       -0.222897222     3.089996393     0.440866861


           Empirical Formula: C10 H12  =    22 atoms



      MOLECULAR POINT GROUP   :   C1  


                  EIGENVALUES  
 -41.99263 -35.59452 -31.92356 -28.84121 -27.17966 -23.40552 -21.77878 -19.94645
 -19.29717 -17.37082 -17.23131 -15.88097 -15.33861 -14.96183 -14.57083 -14.47700
 -13.66453 -13.46392 -13.07526 -12.58354 -12.08613 -11.91771 -11.85088 -11.58689
 -10.30764  -8.53351  -0.12094   1.24395   2.32499   3.16769   3.25324   3.40365
   3.47587   3.64116   3.76029   3.80539   3.88165   3.93095   4.09068   4.18913
   4.39997   4.50930   4.53811   4.57453   4.74941   4.97235   5.03697   5.36436
   5.58872   5.85019   6.08081   6.33692


              NET ATOMIC CHARGES AND DIPOLE CONTRIBUTIONS

  ATOM NO.   TYPE          CHARGE      No. of ELECS.   s-Pop       p-Pop       
    1          C          -0.050762        4.0508     1.17417     2.87660
    2          C          -0.045571        4.0456     1.17288     2.87269
    3          C          -0.051342        4.0513     1.14647     2.90487
    4          C          -0.104481        4.1045     1.13874     2.96574
    5          C          -0.087675        4.0877     1.19415     2.89352
    6          C          -0.137689        4.1377     1.20849     2.92920
    7          C          -0.140066        4.1401     1.19801     2.94205
    8          C          -0.101371        4.1014     1.18402     2.91735
    9          C          -0.101990        4.1020     1.17354     2.92845
   10          C          -0.108612        4.1086     1.17919     2.92942
   11          H           0.074369        0.9256     0.92563
   12          H           0.079530        0.9205     0.92047
   13          H           0.055049        0.9450     0.94495
   14          H           0.059907        0.9401     0.94009
   15          H           0.040241        0.9598     0.95976
   16          H           0.039981        0.9600     0.96002
   17          H           0.044018        0.9560     0.95598
   18          H           0.113085        0.8869     0.88692
   19          H           0.098580        0.9014     0.90142
   20          H           0.101224        0.8988     0.89878
   21          H           0.108103        0.8919     0.89190
   22          H           0.115471        0.8845     0.88453
 DIPOLE           X         Y         Z       TOTAL
 POINT-CHG.    -0.492    -0.298    -0.229     0.619
 HYBRID         0.016     0.015    -0.016     0.027
 SUM           -0.476    -0.283    -0.245     0.606


          ATOMIC ORBITAL ELECTRON POPULATIONS

     Atom    s        px        py        pz   
    1  C   1.17417   0.93593   0.94199   0.99868
    2  C   1.17288   0.94191   0.93528   0.99550
    3  C   1.14647   0.93138   0.98169   0.99180
    4  C   1.13874   0.97451   0.99101   1.00023
    5  C   1.19415   0.94756   0.94914   0.99682
    6  C   1.20849   0.97622   0.96090   0.99207
    7  C   1.19801   0.96503   0.97561   1.00141
    8  C   1.18402   0.93932   0.97036   1.00766
    9  C   1.17354   0.93483   0.97175   1.02187
   10  C   1.17919   0.97969   0.93998   1.00975
   11  H   0.92563
   12  H   0.92047
   13  H   0.94495
   14  H   0.94009
   15  H   0.95976
   16  H   0.96002
   17  H   0.95598
   18  H   0.88692
   19  H   0.90142
   20  H   0.89878
   21  H   0.89190
   22  H   0.88453
 *******************************************************************************
 **                                                                           **
 **                              MOPAC v23.1.2                                **
 **                                                                           **
 *******************************************************************************
 **          Digital Object Identifier (DOI): 10.5281/zenodo.6511958          **
 **    Visit the DOI location for information on how to cite this program.    **
 *******************************************************************************

                              PM3 CALCULATION RESULTS

 *******************************************************************************
 *  CALCULATION DONE: (MAX THREADS = 1)              Tue Jun  3 16:29:45 2025  *
 *  PM3        - The PM3 Hamiltonian to be used
 *  OLDGEO     - PREVIOUS GEOMETRY TO BE USED
 *  PRECISE    - TIGHTER CRITERIA TO BE USED
 *  NOSYM      - POINT-GROUP SYMMETRY SET TO C1
 *  THREADS=1  - MULTI-THREADING NOT USED
 *  T=         - A TIME OF 172800.0 SECONDS REQUESTED
 *  DUMP=N     - RESTART FILE WRITTEN EVERY 7200.0 SECONDS REQUESTED
 *  THERMO     - THERMODYNAMIC QUANTITIES TO BE CALCULATED
 *******************************************************************************
oldgeo thermo nosym precise THREADS=1  pm3
 InChI=1S/C10H12/c1-8-6-7-9-4-2-3-5-10(8)9/h2-4,6-8,10H,5H2,1H3

   ATOM   CHEMICAL          X               Y               Z
  NUMBER   SYMBOL      (ANGSTROMS)     (ANGSTROMS)     (ANGSTROMS)

     1       C         -0.02647265  *  -0.33516505  *   0.21648493  *
     2       C         -1.44525474  *  -0.01883177  *  -0.32366813  *
     3       C          0.79991579  *  -1.30306259  *  -0.61707364  *
     4       C         -2.53130722  *  -0.79711010  *   0.38753781  *
     5       C          0.63549572  *   1.01954500  *   0.29954955  *
     6       C         -1.57851454  *   1.46854024  *  -0.11230266  *
     7       C          2.25384596  *  -1.17218526  *  -0.30619901  *
     8       C         -0.41156222  *   2.03539437  *   0.24303022  *
     9       C          1.96914465  *   1.16167448  *   0.30635147  *
    10       C          2.79104530  *  -0.02464556  *   0.13631917  *
    11       H         -1.49642958  *  -0.22927343  *  -1.41943808  *
    12       H         -0.10680134  *  -0.73688932  *   1.25696843  *
    13       H          0.45814807  *  -2.34036432  *  -0.43515502  *
    14       H          0.65678667  *  -1.12427784  *  -1.70317582  *
    15       H         -2.39062253  *  -1.87781259  *   0.25629543  *
    16       H         -3.52397157  *  -0.53889531  *  -0.00322429  *
    17       H         -2.54101236  *  -0.59464498  *   1.46689699  *
    18       H         -2.53482668  *   1.97236972  *  -0.24902164  *
    19       H          2.87538295  *  -2.05585723  *  -0.48334299  *
    20       H          3.86083418  *   0.06258666  *   0.35016990  *
    21       H          2.45665565  *   2.13687046  *   0.39077647  *
    22       H         -0.22289722  *   3.08999639  *   0.44086686  *



          CARTESIAN COORDINATES 

    NO.       ATOM           X           Y           Z

     1         C         -0.0265     -0.3352      0.2165
     2         C         -1.4453     -0.0188     -0.3237
     3         C          0.7999     -1.3031     -0.6171
     4         C         -2.5313     -0.7971      0.3875
     5         C          0.6355      1.0195      0.2995
     6         C         -1.5785      1.4685     -0.1123
     7         C          2.2538     -1.1722     -0.3062
     8         C         -0.4116      2.0354      0.2430
     9         C          1.9691      1.1617      0.3064
    10         C          2.7910     -0.0246      0.1363
    11         H         -1.4964     -0.2293     -1.4194
    12         H         -0.1068     -0.7369      1.2570
    13         H          0.4581     -2.3404     -0.4352
    14         H          0.6568     -1.1243     -1.7032
    15         H         -2.3906     -1.8778      0.2563
    16         H         -3.5240     -0.5389     -0.0032
    17         H         -2.5410     -0.5946      1.4669
    18         H         -2.5348      1.9724     -0.2490
    19         H          2.8754     -2.0559     -0.4833
    20         H          3.8608      0.0626      0.3502
    21         H          2.4567      2.1369      0.3908
    22         H         -0.2229      3.0900      0.4409

  H: (PM3): J. J. P. STEWART, J. COMP. CHEM. 10, 209 (1989).
  C: (PM3): J. J. P. STEWART, J. COMP. CHEM. 10, 209 (1989).

           Empirical Formula: C10 H12  =    22 atoms



      MOLECULAR POINT GROUP   :   C1  


      RHF CALCULATION, NO. OF DOUBLY OCCUPIED LEVELS = 26



          HEAT OF FORMATION =      33.323958 KCALS/MOLE


          CARTESIAN COORDINATE DERIVATIVES

   NUMBER  ATOM         X            Y            Z

     1       C      0.003931     0.001345     0.003250
     2       C     -0.000350    -0.002044    -0.000317
     3       C      0.002190     0.002057     0.003574
     4       C     -0.001724    -0.006802    -0.001352
     5       C      0.003546     0.002571    -0.000882
     6       C      0.005061    -0.004835     0.007945
     7       C     -0.001462     0.003275     0.001587
     8       C      0.001554     0.006102     0.002221
     9       C     -0.001572     0.004904     0.000949
    10       C      0.007489     0.005034     0.000619
    11       H     -0.005332    -0.002047    -0.009387
    12       H      0.013746    -0.002188     0.001782
    13       H     -0.011369     0.002791    -0.003791
    14       H     -0.011623     0.004720    -0.005576
    15       H     -0.001320     0.000480    -0.000731
    16       H     -0.006688    -0.010615    -0.015018
    17       H     -0.007400     0.003269    -0.000878
    18       H      0.000253     0.000690     0.001964
    19       H      0.000092    -0.003590     0.008655
    20       H      0.004319    -0.003872    -0.002901
    21       H     -0.002726     0.004138    -0.001988
    22       H      0.009384    -0.005383     0.010278



          GRADIENT NORM =   0.04360

          MOLECULAR WEIGHT =  132.20



          ROTATIONAL CONSTANTS IN CM(-1)

          A =    0.08458724   B =    0.03939255   C =    0.02856327



           PRINCIPAL MOMENTS OF INERTIA IN UNITS OF 10**(-40)*GRAM-CM**2

          A =      330.9335   B =      710.6103   C =      980.0262


          ORIENTATION OF MOLECULE IN FORCE CALCULATION

    NO.       ATOM         X         Y         Z

     1          C       0.0398    0.1160    0.5742
     2          C       1.5906    0.1160    0.5742
     3          C      -0.6233    1.4852    0.5742
     4          C       2.1777   -0.1379    1.9460
     5          C      -0.3184   -0.6662   -0.6669
     6          C       1.9423   -0.9742   -0.4069
     7          C      -2.0351    1.3972    0.0980
     8          C       0.8665   -1.4079   -1.0880
     9          C      -1.5119   -0.5440   -1.2664
    10          C      -2.4467    0.4415   -0.7497
    11          H       1.9761    1.0877    0.1808
    12          H      -0.3310   -0.4616    1.4570
    13          H      -0.5856    1.9197    1.5918
    14          H      -0.0776    2.1980   -0.0787
    15          H       1.8743    0.6439    2.6543
    16          H       3.2747   -0.1504    1.9109
    17          H       1.8519   -1.1018    2.3594
    18          H       2.9676   -1.3277   -0.5108
    19          H      -2.7223    2.1720    0.4530
    20          H      -3.4821    0.3938   -1.1009
    21          H      -1.7885   -1.1244   -2.1509
    22          H       0.8401   -2.1728   -1.8634


    FIRST DERIVATIVES WILL BE USED IN THE CALCULATION OF SECOND DERIVATIVES

          ESTIMATED TIME TO COMPLETE CALCULATION =        2.06 SECONDS

    FOR POINT-GROUP C1   THERE ARE   1 UNIQUE SYMMETRY FUNCTIONS.

 STEP:   1 TIME =     0.02 SECS, INTEGRAL =      0.02 TIME LEFT: 172799.97
 STEP:   2 TIME =     0.02 SECS, INTEGRAL =      0.04 TIME LEFT: 172799.95
 STEP:   3 TIME =     0.02 SECS, INTEGRAL =      0.06 TIME LEFT: 172799.93
 STEP:   4 TIME =     0.02 SECS, INTEGRAL =      0.08 TIME LEFT: 172799.91
 STEP:   5 TIME =     0.02 SECS, INTEGRAL =      0.10 TIME LEFT: 172799.89
 STEP:   6 TIME =     0.02 SECS, INTEGRAL =      0.12 TIME LEFT: 172799.87
 STEP:   7 TIME =     0.02 SECS, INTEGRAL =      0.14 TIME LEFT: 172799.85
 STEP:   8 TIME =     0.02 SECS, INTEGRAL =      0.16 TIME LEFT: 172799.83
 STEP:   9 TIME =     0.02 SECS, INTEGRAL =      0.19 TIME LEFT: 172799.80
 STEP:  10 TIME =     0.02 SECS, INTEGRAL =      0.21 TIME LEFT: 172799.78
 STEP:  11 TIME =     0.02 SECS, INTEGRAL =      0.23 TIME LEFT: 172799.76
 STEP:  12 TIME =     0.02 SECS, INTEGRAL =      0.25 TIME LEFT: 172799.74
 STEP:  13 TIME =     0.02 SECS, INTEGRAL =      0.28 TIME LEFT: 172799.71
 STEP:  14 TIME =     0.02 SECS, INTEGRAL =      0.30 TIME LEFT: 172799.70
 STEP:  15 TIME =     0.02 SECS, INTEGRAL =      0.32 TIME LEFT: 172799.67
 STEP:  16 TIME =     0.02 SECS, INTEGRAL =      0.34 TIME LEFT: 172799.65
 STEP:  17 TIME =     0.02 SECS, INTEGRAL =      0.36 TIME LEFT: 172799.63
 STEP:  18 TIME =     0.02 SECS, INTEGRAL =      0.38 TIME LEFT: 172799.61
 STEP:  19 TIME =     0.02 SECS, INTEGRAL =      0.41 TIME LEFT: 172799.59
 STEP:  20 TIME =     0.02 SECS, INTEGRAL =      0.43 TIME LEFT: 172799.56
 STEP:  21 TIME =     0.02 SECS, INTEGRAL =      0.45 TIME LEFT: 172799.54
 STEP:  22 TIME =     0.02 SECS, INTEGRAL =      0.47 TIME LEFT: 172799.52
 STEP:  23 TIME =     0.02 SECS, INTEGRAL =      0.49 TIME LEFT: 172799.50
 STEP:  24 TIME =     0.02 SECS, INTEGRAL =      0.51 TIME LEFT: 172799.48
 STEP:  25 TIME =     0.02 SECS, INTEGRAL =      0.54 TIME LEFT: 172799.46
 STEP:  26 TIME =     0.02 SECS, INTEGRAL =      0.55 TIME LEFT: 172799.44
 STEP:  27 TIME =     0.02 SECS, INTEGRAL =      0.57 TIME LEFT: 172799.42
 STEP:  28 TIME =     0.02 SECS, INTEGRAL =      0.59 TIME LEFT: 172799.40
 STEP:  29 TIME =     0.02 SECS, INTEGRAL =      0.61 TIME LEFT: 172799.38
 STEP:  30 TIME =     0.02 SECS, INTEGRAL =      0.63 TIME LEFT: 172799.36
 STEP:  31 TIME =     0.02 SECS, INTEGRAL =      0.65 TIME LEFT: 172799.34
 STEP:  32 TIME =     0.02 SECS, INTEGRAL =      0.67 TIME LEFT: 172799.32
 STEP:  33 TIME =     0.02 SECS, INTEGRAL =      0.69 TIME LEFT: 172799.30
 STEP:  34 TIME =     0.02 SECS, INTEGRAL =      0.71 TIME LEFT: 172799.28
 STEP:  35 TIME =     0.02 SECS, INTEGRAL =      0.73 TIME LEFT: 172799.26
 STEP:  36 TIME =     0.02 SECS, INTEGRAL =      0.75 TIME LEFT: 172799.24
 STEP:  37 TIME =     0.02 SECS, INTEGRAL =      0.77 TIME LEFT: 172799.22
 STEP:  38 TIME =     0.02 SECS, INTEGRAL =      0.80 TIME LEFT: 172799.20
 STEP:  39 TIME =     0.02 SECS, INTEGRAL =      0.82 TIME LEFT: 172799.17
 STEP:  40 TIME =     0.03 SECS, INTEGRAL =      0.85 TIME LEFT: 172799.14
 STEP:  41 TIME =     0.03 SECS, INTEGRAL =      0.88 TIME LEFT: 172799.12
 STEP:  42 TIME =     0.02 SECS, INTEGRAL =      0.90 TIME LEFT: 172799.09
 STEP:  43 TIME =     0.02 SECS, INTEGRAL =      0.92 TIME LEFT: 172799.07
 STEP:  44 TIME =     0.02 SECS, INTEGRAL =      0.95 TIME LEFT: 172799.05
 STEP:  45 TIME =     0.02 SECS, INTEGRAL =      0.96 TIME LEFT: 172799.03
 STEP:  46 TIME =     0.02 SECS, INTEGRAL =      0.98 TIME LEFT: 172799.01
 STEP:  47 TIME =     0.02 SECS, INTEGRAL =      1.01 TIME LEFT: 172798.98
 STEP:  48 TIME =     0.02 SECS, INTEGRAL =      1.03 TIME LEFT: 172798.96
 STEP:  49 TIME =     0.02 SECS, INTEGRAL =      1.05 TIME LEFT: 172798.94
 STEP:  50 TIME =     0.02 SECS, INTEGRAL =      1.07 TIME LEFT: 172798.92
 STEP:  51 TIME =     0.02 SECS, INTEGRAL =      1.09 TIME LEFT: 172798.90
 STEP:  52 TIME =     0.02 SECS, INTEGRAL =      1.11 TIME LEFT: 172798.88
 STEP:  53 TIME =     0.02 SECS, INTEGRAL =      1.14 TIME LEFT: 172798.86
 STEP:  54 TIME =     0.02 SECS, INTEGRAL =      1.16 TIME LEFT: 172798.83
 STEP:  55 TIME =     0.02 SECS, INTEGRAL =      1.18 TIME LEFT: 172798.81
 STEP:  56 TIME =     0.02 SECS, INTEGRAL =      1.20 TIME LEFT: 172798.79
 STEP:  57 TIME =     0.02 SECS, INTEGRAL =      1.22 TIME LEFT: 172798.77
 STEP:  58 TIME =     0.02 SECS, INTEGRAL =      1.24 TIME LEFT: 172798.75
 STEP:  59 TIME =     0.02 SECS, INTEGRAL =      1.26 TIME LEFT: 172798.73
 STEP:  60 TIME =     0.02 SECS, INTEGRAL =      1.28 TIME LEFT: 172798.71
 STEP:  61 TIME =     0.02 SECS, INTEGRAL =      1.30 TIME LEFT: 172798.69
 STEP:  62 TIME =     0.02 SECS, INTEGRAL =      1.33 TIME LEFT: 172798.66
 STEP:  63 TIME =     0.02 SECS, INTEGRAL =      1.35 TIME LEFT: 172798.64
 STEP:  64 TIME =     0.02 SECS, INTEGRAL =      1.37 TIME LEFT: 172798.62
 STEP:  65 TIME =     0.02 SECS, INTEGRAL =      1.39 TIME LEFT: 172798.60
 STEP:  66 TIME =     0.02 SECS, INTEGRAL =      1.42 TIME LEFT: 172798.57

(To convert to Hartree/Bohr^2, multiply by (10^(-21) x N x a0^2)/(4.184 x 627.51) =  0.0642)


           FORCE MATRIX IN MILLIDYNES/ANGSTROM


                  C  1       C  2       C  3       C  4       C  5       C  6
 ------------------------------------------------------------------------------
     C    1  14.633076
     C    2   3.267332  14.573108
     C    3   4.126811   0.507046  14.644823
     C    4   0.573479   4.371680   0.023399  14.431639
     C    5   4.180111   0.851766   0.653936   0.052735  19.389848
     C    6   0.889253   4.278036   0.040807   0.650699   1.540012  18.052304
     C    7   0.693190   0.049039   4.783406   0.003918   0.185126   0.020511
     C    8   0.893284   1.110842   0.046387   0.046355   5.330369  10.122538
     C    9   0.754888   0.049957   0.115714   0.009517   9.920650   0.133586
     C   10   0.116539   0.014866   0.834198   0.002425   1.243790   0.049985
     H   11   0.435663   4.210907   0.042683   0.426961   0.017898   0.400055
     H   12   4.189252   0.438717   0.426199   0.058876   0.399352   0.015978
     H   13   0.438761   0.009275   4.479514   0.002376   0.047278   0.001900
     H   14   0.454058   0.033001   4.372532   0.001501   0.016032   0.004293
     H   15   0.016817   0.453989   0.002884   4.742192   0.003489   0.050551
     H   16   0.046308   0.452840   0.003013   4.745842   0.008130   0.020780
     H   17   0.022557   0.467768   0.001178   4.729367   0.002164   0.014780
     H   18   0.040050   0.414494   0.005300   0.012057   0.115745   5.023775
     H   19   0.043546   0.007487   0.426651   0.001050   0.014731   0.002061
     H   20   0.005422   0.001169   0.121212   0.000316   0.047595   0.002501
     H   21   0.110068   0.011579   0.009202   0.001666   0.459988   0.008036
     H   22   0.040246   0.115220   0.005766   0.016086   0.432366   0.445770


                  C  7       C  8       C  9       C 10       H 11       H 12
 ------------------------------------------------------------------------------
     C    7  17.786184
     C    8   0.049758  18.499978
     C    9   1.141360   0.894413  18.250415
     C   10  10.108218   0.173435   5.503914  18.171633
     H   11   0.005416   0.037047   0.007884   0.006573   4.691943
     H   12   0.014466   0.019980   0.027163   0.017445   0.032531   4.656908
     H   13   0.440940   0.007856   0.009500   0.048001   0.001371   0.035680
     H   14   0.410563   0.005669   0.020488   0.034774   0.028304   0.044820
     H   15   0.000758   0.008004   0.001048   0.000514   0.027530   0.007436
     H   16   0.000842   0.002827   0.001907   0.000244   0.030600   0.002669
     H   17   0.000566   0.002646   0.000788   0.000268   0.046104   0.029012
     H   18   0.002388   0.443696   0.010086   0.009393   0.010587   0.001511
     H   19   4.855560   0.009310   0.121959   0.443565   0.000745   0.004178
     H   20   0.444773   0.010438   0.431908   4.865618   0.000182   0.000785
     H   21   0.046840   0.069137   4.892638   0.434759   0.001478   0.014289
     H   22   0.001726   5.026115   0.012005   0.004669   0.015226   0.001324


                  H 13       H 14       H 15       H 16       H 17       H 18
 ------------------------------------------------------------------------------
     H   13   5.071800
     H   14   0.568642   4.978677
     H   15   0.006500   0.000315   5.468398
     H   16   0.000287   0.000379   0.565161   5.475872
     H   17   0.000173   0.000479   0.571592   0.573885   5.465523
     H   18   0.000418   0.000675   0.001815   0.008363   0.002361   5.416926
     H   19   0.034717   0.014922   0.000260   0.000262   0.000187   0.000667
     H   20   0.012547   0.016829   0.000147   0.000068   0.000109   0.000826
     H   21   0.001262   0.000858   0.000237   0.000356   0.000183   0.003430
     H   22   0.001210   0.000508   0.002672   0.000619   0.000758   0.046931


                  H 19       H 20       H 21       H 22
 ------------------------------------------------------
     H   19   5.228678
     H   20   0.066110   5.233600
     H   21   0.008103   0.027552   5.266251
     H   22   0.000570   0.000651   0.006679   5.418321


          HEAT OF FORMATION =      33.323958 KCALS/MOLE

          ZERO POINT ENERGY     119.129 KCAL/MOL


           NORMAL COORDINATE ANALYSIS (Total motion = 1 Angstrom)


   Root No.       1         2         3         4         5         6         7         8

                 1 A       2 A       3 A       4 A       5 A       6 A       7 A       8 A   

                  92.8     153.3     169.6     241.1     288.5     304.0     420.2     447.9
  
           1   -0.0040    0.0048    0.0029   -0.0016   -0.0197    0.0061   -0.0230   -0.0035
           2   -0.0191    0.0044   -0.0003    0.0177   -0.0344    0.0195   -0.0144   -0.0033
           3    0.0065   -0.0183   -0.0079    0.0108    0.0285   -0.0058   -0.0153   -0.0247
           4   -0.0034    0.0030    0.0017    0.0025   -0.0189    0.0102   -0.0285   -0.0074
           5   -0.0032   -0.0107   -0.0039    0.0103   -0.0206   -0.0130    0.0163    0.0132
           6   -0.0120   -0.0014   -0.0054    0.0037    0.0296    0.0131    0.0045    0.0101
           7   -0.0139    0.0105    0.0093   -0.0161    0.0161   -0.0211    0.0044    0.0052
           8   -0.0241    0.0060    0.0021    0.0129   -0.0159    0.0097   -0.0012   -0.0072
           9    0.0452   -0.0189   -0.0070   -0.0195   -0.0301    0.0081    0.0023   -0.0055
          10    0.0210   -0.0176   -0.0131    0.0361    0.0358    0.0394    0.0079    0.0130
          11    0.0485    0.0230    0.0123   -0.0298    0.0186   -0.0093   -0.0073   -0.0044
          12   -0.0139    0.0131    0.0036   -0.0168    0.0126    0.0026   -0.0175    0.0001
          13   -0.0033    0.0090    0.0015   -0.0008   -0.0143    0.0084    0.0044   -0.0021
          14   -0.0033    0.0160    0.0022    0.0086   -0.0135    0.0348   -0.0081   -0.0021
          15   -0.0035   -0.0276   -0.0088    0.0144    0.0100   -0.0173   -0.0310   -0.0304
          16   -0.0079   -0.0014   -0.0012   -0.0049   -0.0099   -0.0063    0.0021    0.0030
          17   -0.0237   -0.0304   -0.0145    0.0012    0.0085   -0.0350    0.0143    0.0106
          18    0.0090    0.0185    0.0053    0.0103    0.0035    0.0300    0.0228    0.0221
          19   -0.0018   -0.0070    0.0029   -0.0280    0.0078   -0.0126    0.0122   -0.0041
          20   -0.0035   -0.0186   -0.0018   -0.0206    0.0025    0.0056    0.0252   -0.0096
          21    0.0079    0.0351    0.0129    0.0142   -0.0080   -0.0265   -0.0108    0.0312
          22   -0.0091    0.0049   -0.0009   -0.0106   -0.0015    0.0009    0.0194    0.0157
          23   -0.0205    0.0005   -0.0067   -0.0161    0.0270    0.0269   -0.0175    0.0001
          24    0.0085   -0.0121   -0.0010    0.0329   -0.0220   -0.0195    0.0156    0.0055
          25    0.0089    0.0047   -0.0001    0.0212   -0.0044   -0.0104   -0.0016   -0.0305
          26    0.0199    0.0206    0.0080    0.0274    0.0084   -0.0126    0.0097   -0.0254
          27   -0.0227   -0.0183   -0.0045   -0.0252   -0.0075    0.0105   -0.0156    0.0134
          28    0.0100   -0.0058    0.0003   -0.0048   -0.0069   -0.0176   -0.0010    0.0061
          29    0.0223   -0.0104    0.0015   -0.0018    0.0040   -0.0170   -0.0114    0.0343
          30   -0.0265    0.0250    0.0104   -0.0179   -0.0024    0.0010    0.0374   -0.0246
          31   -0.0204    0.0167    0.0031    0.0022   -0.0456    0.0256   -0.0495   -0.0116
          32   -0.0102   -0.0239   -0.0076    0.0124   -0.0117   -0.0263    0.0283    0.0190
          33   -0.0471   -0.0210   -0.0131    0.0109    0.0197   -0.0046    0.0127    0.0200
          34    0.0133   -0.0099    0.0023    0.0026   -0.0310    0.0014   -0.0353   -0.0138
          35   -0.0420    0.0026    0.0000    0.0328   -0.0153    0.0053   -0.0286   -0.0220
          36   -0.0012   -0.0253   -0.0078    0.0217    0.0333   -0.0168   -0.0304   -0.0407
          37   -0.0401    0.0508    0.0265    0.0067    0.0505   -0.0647   -0.0074    0.0569
          38   -0.0658    0.0284    0.0092    0.0539    0.0443   -0.0198   -0.0327    0.0067
          39    0.0642   -0.0303   -0.0107   -0.0385   -0.0580    0.0227    0.0167   -0.0139
          40   -0.0013   -0.0158    0.0016   -0.0413    0.0265   -0.0127    0.0321   -0.0244
          41    0.0061   -0.0093   -0.0047   -0.0081   -0.0739    0.0392    0.0076   -0.0177
          42    0.0885   -0.0573   -0.0208   -0.0636   -0.0861    0.0485    0.0353   -0.0433
          43    0.0246    0.0212   -0.2152    0.0531    0.0450    0.0407    0.0405    0.0331
          44    0.0697    0.0751   -0.1053   -0.0583    0.0261   -0.0225   -0.0243   -0.0168
          45   -0.0357   -0.0276    0.0473    0.0210    0.0083    0.0170    0.0139    0.0216
          46    0.0206   -0.0181   -0.0091    0.0356    0.0352    0.0395    0.0071    0.0127
          47    0.0586   -0.0385    0.2446   -0.0236    0.0486    0.0149   -0.0119   -0.0068
          48   -0.0315    0.0195    0.0614   -0.0485   -0.0332   -0.0239   -0.0630   -0.0274
          49    0.0375   -0.0723    0.1651    0.0529    0.0789    0.0707    0.0204    0.0213
          50    0.0594    0.0616   -0.0875   -0.0473    0.0194   -0.0202   -0.0170   -0.0114
          51    0.0243    0.0599   -0.0895   -0.0443    0.0466    0.0012   -0.0303   -0.0099
          52   -0.0111   -0.0088   -0.0044   -0.0057   -0.0059   -0.0205    0.0088    0.0041
          53   -0.0360   -0.0609   -0.0264   -0.0016    0.0237   -0.0891    0.0218    0.0043
          54    0.0202    0.0488    0.0162    0.0098   -0.0085    0.0723    0.0591    0.0502
          55   -0.0039   -0.0170    0.0022   -0.0496    0.0207   -0.0106    0.0233   -0.0043
          56   -0.0060   -0.0488   -0.0098   -0.0598    0.0099    0.0243    0.0460   -0.0256
          57    0.0094    0.0807    0.0285    0.0570    0.0002   -0.0624   -0.0347    0.0656
          58    0.0186   -0.0152   -0.0034   -0.0031   -0.0092   -0.0183   -0.0188    0.0225
          59    0.0440   -0.0333   -0.0032   -0.0228    0.0050   -0.0270   -0.0468    0.1037
          60   -0.0551    0.0563    0.0219   -0.0195    0.0051    0.0044    0.0944   -0.0835
          61    0.0173    0.0007   -0.0050    0.0512    0.0118   -0.0148   -0.0212   -0.0859
          62    0.0326    0.0382    0.0143    0.0455    0.0396   -0.0415    0.0454   -0.0922
          63   -0.0338   -0.0284   -0.0071   -0.0464   -0.0330    0.0306   -0.0327    0.0743
          64   -0.0140    0.0061   -0.0025   -0.0217    0.0147   -0.0022    0.0455    0.0448
          65   -0.0295    0.0044   -0.0101   -0.0416    0.0691    0.0511   -0.0539   -0.0148
          66    0.0175   -0.0160    0.0024    0.0586   -0.0642   -0.0434    0.0511    0.0193


   Root No.       9        10        11        12        13        14        15        16

                 9 A      10 A      11 A      12 A      13 A      14 A      15 A      16 A   

                 502.1     519.1     565.1     647.8     722.9     757.9     790.9     802.9
  
           1   -0.0175    0.0195    0.0166   -0.0134   -0.0157    0.0075   -0.0133    0.0056
           2    0.0218    0.0018   -0.0198   -0.0141   -0.0004   -0.0086   -0.0136    0.0008
           3    0.0109   -0.0180    0.0205    0.0326    0.0074    0.0052    0.0111   -0.0053
           4   -0.0327    0.0259    0.0178   -0.0200   -0.0089   -0.0048    0.0267    0.0042
           5    0.0106   -0.0003    0.0414   -0.0168   -0.0391    0.0145   -0.0002    0.0087
           6    0.0025    0.0220   -0.0209    0.0019   -0.0095    0.0042   -0.0098   -0.0009
           7    0.0336    0.0169    0.0174   -0.0018    0.0143    0.0038   -0.0214   -0.0054
           8    0.0379   -0.0100   -0.0397   -0.0109    0.0165   -0.0137   -0.0011   -0.0142
           9    0.0246    0.0004   -0.0035    0.0068    0.0012   -0.0176    0.0120    0.0037
          10   -0.0069    0.0209   -0.0160   -0.0089   -0.0093   -0.0018    0.0098   -0.0023
          11    0.0002    0.0048   -0.0029    0.0016   -0.0042    0.0028   -0.0019    0.0029
          12   -0.0165    0.0402   -0.0219   -0.0085   -0.0234    0.0023    0.0038   -0.0068
          13   -0.0119   -0.0201   -0.0119    0.0374   -0.0147    0.0150   -0.0204    0.0018
          14    0.0108    0.0209    0.0197    0.0708    0.0143    0.0011   -0.0043    0.0134
          15    0.0055   -0.0242    0.0079   -0.0240    0.0063    0.0051   -0.0043   -0.0073
          16   -0.0382   -0.0117   -0.0029    0.0019    0.0555   -0.0207    0.0169   -0.0103
          17    0.0035    0.0255   -0.0006    0.0032   -0.0118    0.0028   -0.0001   -0.0174
          18    0.0112   -0.0188    0.0273   -0.0244    0.0040    0.0015   -0.0070    0.0278
          19    0.0486    0.0197    0.0197   -0.0008    0.0127    0.0003   -0.0176   -0.0036
          20   -0.0355   -0.0190   -0.0180   -0.0007   -0.0125    0.0144    0.0379    0.0043
          21    0.0072   -0.0128   -0.0125   -0.0024   -0.0115   -0.0192    0.0007    0.0040
          22   -0.0273   -0.0285   -0.0068   -0.0085    0.0208   -0.0048   -0.0047   -0.0115
          23    0.0172   -0.0084    0.0314   -0.0105    0.0235   -0.0133    0.0247   -0.0145
          24   -0.0092    0.0234    0.0128    0.0049    0.0399   -0.0149    0.0124    0.0285
          25    0.0067   -0.0246   -0.0120    0.0170   -0.0200    0.0144   -0.0087    0.0056
          26   -0.0390    0.0009    0.0074    0.0009    0.0034    0.0142   -0.0263    0.0053
          27   -0.0309   -0.0285   -0.0002    0.0164   -0.0049    0.0177   -0.0368   -0.0146
          28    0.0470   -0.0208   -0.0246    0.0065   -0.0291    0.0007    0.0426    0.0092
          29   -0.0255   -0.0112   -0.0046   -0.0084    0.0080    0.0183    0.0070   -0.0033
          30   -0.0081   -0.0031   -0.0061    0.0015   -0.0169   -0.0195    0.0040    0.0060
          31   -0.0319    0.0396    0.0099   -0.0487   -0.0268   -0.0075    0.0194    0.0205
          32    0.0072    0.0074    0.0389   -0.0034   -0.0392    0.0162    0.0008   -0.0131
          33   -0.0078    0.0541   -0.0304    0.0047   -0.0309    0.0057   -0.0103   -0.0389
          34   -0.0378    0.0177    0.0557   -0.0400   -0.0383    0.0103    0.0196    0.0158
          35    0.0307   -0.0200   -0.0377   -0.0542    0.0176   -0.0207   -0.0314   -0.0303
          36    0.0085   -0.0326    0.0251   -0.0060    0.0096   -0.0009    0.0116   -0.0210
          37    0.0179   -0.0132    0.0213    0.0310   -0.0299   -0.0513    0.0185    0.0252
          38    0.0331   -0.0421   -0.0073    0.0635   -0.0070   -0.0622    0.0551    0.0076
          39    0.0280    0.0160   -0.0181   -0.0285    0.0142    0.0062   -0.0157   -0.0080
          40    0.0373    0.0248    0.0296    0.0028    0.0423    0.0533   -0.0080   -0.0166
          41    0.0484    0.0172   -0.0701   -0.0770    0.0354    0.0063   -0.0635   -0.0369
          42    0.0395    0.0376   -0.0288   -0.0646    0.0472    0.0482   -0.0463   -0.0320
          43    0.0136    0.0102   -0.0172   -0.0109   -0.0210    0.0093   -0.0224    0.0045
          44   -0.0112    0.0140   -0.0275    0.0154    0.0214   -0.0102    0.0034   -0.0152
          45    0.0042    0.0266    0.0037   -0.0239   -0.0565    0.0209   -0.0150    0.0148
          46   -0.0077    0.0215   -0.0161   -0.0093   -0.0093   -0.0022    0.0109   -0.0026
          47    0.0015    0.0120   -0.0392    0.0148    0.0173   -0.0064   -0.0121   -0.0132
          48   -0.0510    0.0541    0.0135   -0.0213   -0.0343   -0.0051    0.0663   -0.0056
          49    0.0060    0.0232   -0.0607    0.0051    0.0099   -0.0065   -0.0213   -0.0167
          50   -0.0073    0.0109   -0.0141    0.0080    0.0066   -0.0037    0.0037   -0.0074
          51   -0.0238    0.0545   -0.0789    0.0164    0.0153   -0.0158   -0.0063   -0.0403
          52   -0.0414   -0.0127   -0.0242    0.0034    0.0692   -0.0190   -0.0075    0.0294
          53   -0.0099    0.0402   -0.0818    0.0094    0.0404    0.0050   -0.0766    0.1529
          54    0.0306   -0.0777    0.0927   -0.0244   -0.0451    0.0146    0.0096   -0.1560
          55    0.0081    0.0278    0.0526    0.0095   -0.0061   -0.0444   -0.0621    0.0119
          56   -0.0822   -0.0186    0.0151    0.0281   -0.0720   -0.1128   -0.0135    0.0402
          57    0.0312    0.0028   -0.0213   -0.0469    0.0830    0.1707    0.0274   -0.0447
          58    0.0370   -0.0357   -0.0248    0.0170   -0.0509   -0.0385    0.0124    0.0064
          59   -0.0105   -0.0110    0.0181   -0.0059   -0.0113   -0.1177   -0.0700   -0.0167
          60    0.0195    0.0411   -0.0071   -0.0285    0.0494    0.1162    0.1033    0.0165
          61    0.0152   -0.0321    0.0154    0.0009   -0.0217   -0.0158   -0.0587   -0.0298
          62   -0.0615   -0.0111    0.0199   -0.0899   -0.0237   -0.0847   -0.0558   -0.0585
          63   -0.0178   -0.0182   -0.0169    0.0817    0.0135    0.0925   -0.0024    0.0384
          64   -0.0318   -0.0372   -0.0112   -0.0729    0.0155   -0.0023   -0.0175    0.0306
          65    0.0386   -0.0587    0.0178   -0.0893    0.0432    0.0052   -0.0038    0.1564
          66   -0.0300    0.0730    0.0268    0.0852    0.0213   -0.0333    0.0409   -0.1414


   Root No.      17        18        19        20        21        22        23        24

                17 A      18 A      19 A      20 A      21 A      22 A      23 A      24 A   

                 875.6     910.9     938.6     952.5     967.6     979.2    1005.4    1044.1
  
           1   -0.0016   -0.0086   -0.0207   -0.0068   -0.0127   -0.0148    0.0053    0.0008
           2    0.0032   -0.0075   -0.0132   -0.0017   -0.0048   -0.0024    0.0017   -0.0072
           3    0.0338    0.0057    0.0166   -0.0100   -0.0138   -0.0111    0.0245    0.0095
           4    0.0087    0.0064    0.0089   -0.0066    0.0036    0.0023   -0.0040    0.0069
           5    0.0101    0.0078    0.0050    0.0115    0.0047   -0.0041    0.0007   -0.0039
           6   -0.0040   -0.0004   -0.0022    0.0024   -0.0015    0.0016   -0.0000   -0.0016
           7   -0.0007   -0.0006    0.0055    0.0010    0.0046    0.0061   -0.0112    0.0271
           8    0.0294    0.0045    0.0112    0.0041    0.0098    0.0030   -0.0110    0.0170
           9    0.0420   -0.0025   -0.0257    0.0076    0.0128    0.0011   -0.0271   -0.0068
          10    0.0091    0.0068    0.0185   -0.0087    0.0088    0.0222   -0.0005   -0.0111
          11    0.0030    0.0072    0.0089    0.0269   -0.0038    0.0004    0.0004    0.0041
          12    0.0065    0.0032    0.0039    0.0264    0.0006   -0.0069    0.0014    0.0027
          13    0.0028    0.0091    0.0004   -0.0024    0.0051    0.0026    0.0073   -0.0018
          14   -0.0131    0.0183   -0.0021   -0.0048    0.0054   -0.0017    0.0192    0.0047
          15   -0.0193   -0.0162   -0.0030    0.0081   -0.0003    0.0061   -0.0156   -0.0063
          16   -0.0053   -0.0030    0.0045    0.0284    0.0104   -0.0084    0.0061   -0.0055
          17   -0.0034   -0.0135   -0.0026   -0.0250    0.0169    0.0010    0.0018    0.0131
          18   -0.0013    0.0083   -0.0061   -0.0203   -0.0257    0.0105   -0.0126   -0.0040
          19    0.0119   -0.0012   -0.0036    0.0034    0.0013   -0.0025    0.0053   -0.0380
          20   -0.0121    0.0170   -0.0025   -0.0069    0.0012   -0.0123   -0.0148   -0.0004
          21   -0.0136   -0.0130    0.0062    0.0030   -0.0078    0.0121    0.0225    0.0272
          22    0.0208   -0.0015    0.0001    0.0010   -0.0095   -0.0003    0.0011   -0.0008
          23   -0.0346   -0.0020   -0.0036    0.0037   -0.0271    0.0098   -0.0208   -0.0046
          24   -0.0255   -0.0012    0.0005   -0.0027    0.0301   -0.0058    0.0075    0.0048
          25   -0.0145   -0.0154    0.0064    0.0001    0.0015    0.0037   -0.0141   -0.0045
          26    0.0076   -0.0353    0.0147    0.0024   -0.0006   -0.0011   -0.0224   -0.0118
          27   -0.0065    0.0264   -0.0154    0.0002    0.0130    0.0147    0.0018   -0.0012
          28   -0.0308    0.0058   -0.0020   -0.0046   -0.0091   -0.0014    0.0184   -0.0055
          29    0.0045   -0.0015   -0.0135    0.0057   -0.0035    0.0126    0.0217    0.0063
          30   -0.0146    0.0043    0.0208   -0.0098   -0.0029   -0.0216   -0.0124   -0.0140
          31    0.0104   -0.0045   -0.0405   -0.0532   -0.0377   -0.0261   -0.0409    0.0790
          32   -0.0012   -0.0015    0.0099    0.0216    0.0479   -0.0080    0.0217   -0.0520
          33   -0.0277   -0.0316   -0.0350   -0.0137    0.0654   -0.0348    0.0162   -0.0509
          34    0.0218   -0.0185   -0.0599   -0.0273   -0.0511   -0.0832    0.0155    0.0135
          35    0.0125   -0.0371    0.0245   -0.0102   -0.0649   -0.0096    0.0893   -0.0259
          36    0.0472   -0.0190    0.0233   -0.0241   -0.0699   -0.0446    0.0863    0.0019
          37    0.0013   -0.0187   -0.0733    0.0359    0.0526    0.0657   -0.1145   -0.0008
          38    0.1597    0.0084   -0.0418    0.0076    0.0216   -0.0357   -0.0323   -0.0041
          39   -0.0146   -0.0039    0.0017    0.0045    0.0053    0.0160   -0.0131    0.0045
          40    0.0038    0.0417    0.0555   -0.0280    0.0058   -0.0344   -0.0413    0.1926
          41   -0.0468   -0.0161    0.0479    0.0083   -0.0117    0.0328    0.0473   -0.0356
          42   -0.0411    0.0106    0.0592   -0.0132   -0.0114   -0.0001    0.0144    0.0738
          43   -0.0099    0.0040   -0.0171    0.1042   -0.0200   -0.0486   -0.0018    0.0293
          44   -0.0122   -0.0213   -0.0222   -0.0763    0.0139    0.0029   -0.0001   -0.0113
          45    0.0154    0.0325    0.0229    0.1836   -0.0292   -0.0388    0.0020    0.0350
          46    0.0096    0.0069    0.0194   -0.0108    0.0098    0.0236   -0.0007   -0.0119
          47   -0.0213   -0.0234   -0.0376   -0.0323    0.0042   -0.0246   -0.0010    0.0036
          48    0.0641    0.0388    0.1077   -0.0741    0.0420    0.1210    0.0071   -0.0604
          49   -0.0312   -0.0320   -0.0614   -0.0101   -0.0028   -0.0548   -0.0036    0.0165
          50   -0.0015   -0.0052   -0.0007   -0.0267    0.0091    0.0077    0.0013   -0.0084
          51   -0.0324   -0.0529   -0.0757   -0.0939    0.0200   -0.0475    0.0015   -0.0051
          52    0.0104    0.0120   -0.0047    0.0131   -0.0276   -0.0002    0.0034   -0.0150
          53    0.0346    0.0571   -0.0291   -0.0607   -0.1268    0.0336   -0.0214   -0.0204
          54    0.0131   -0.0828   -0.0080   -0.0505    0.0887   -0.0165    0.0374    0.0137
          55   -0.0056   -0.0504   -0.0056    0.0163   -0.0155    0.0301    0.0569   -0.0311
          56   -0.0255   -0.0800   -0.0042    0.0199   -0.0224    0.0491    0.0607    0.0535
          57   -0.0167    0.1034    0.0068   -0.0307    0.0099   -0.0598   -0.0396   -0.0763
          58   -0.0520    0.0221    0.0325   -0.0212   -0.0029   -0.0267   -0.0244    0.0043
          59   -0.0029    0.0402    0.0803   -0.0285   -0.0125   -0.0848    0.0070   -0.1026
          60    0.0454   -0.0499   -0.0939    0.0435   -0.0212    0.0662    0.1191   -0.0329
          61   -0.0551    0.0789   -0.0588    0.0084    0.0463    0.0541   -0.0219    0.0393
          62   -0.0010    0.1545   -0.0648   -0.0108    0.0234    0.0038    0.0658   -0.0064
          63    0.0108   -0.1280    0.0572    0.0063   -0.0164   -0.0036   -0.0543   -0.0195
          64    0.0914   -0.0175   -0.0004   -0.0852   -0.0020   -0.0097    0.0117    0.0701
          65   -0.0311   -0.0139    0.0101   -0.0009    0.1399   -0.0304    0.0439    0.0038
          66   -0.0329    0.0106   -0.0135    0.0032   -0.1354    0.0348   -0.0575   -0.0054


   Root No.      25        26        27        28        29        30        31        32

                25 A      26 A      27 A      28 A      29 A      30 A      31 A      32 A   

                1053.0    1061.6    1078.3    1084.8    1103.2    1121.8    1132.7    1154.0
  
           1   -0.0023    0.0072    0.0010   -0.0210   -0.0260    0.0391   -0.0171    0.0036
           2   -0.0110   -0.0077   -0.0060    0.0123    0.0214    0.0080   -0.0164    0.0012
           3    0.0003    0.0150    0.0093   -0.0042   -0.0114    0.0015    0.0272    0.0172
           4    0.0108    0.0007    0.0095    0.0081    0.0022   -0.0008    0.0228    0.0049
           5    0.0188    0.0122   -0.0102    0.0082    0.0084   -0.0466    0.0140    0.0045
           6    0.0025   -0.0008    0.0077    0.0011    0.0017    0.0400    0.0025    0.0026
           7    0.0016    0.0184    0.0006   -0.0120   -0.0019    0.0021    0.0008    0.0016
           8    0.0158    0.0059   -0.0022   -0.0096   -0.0271   -0.0056    0.0116    0.0083
           9   -0.0062    0.0049    0.0015    0.0020    0.0133    0.0048   -0.0103    0.0006
          10   -0.0044   -0.0010   -0.0090   -0.0015    0.0035   -0.0029   -0.0108   -0.0034
          11   -0.0060   -0.0030    0.0066   -0.0001    0.0020    0.0400    0.0005   -0.0022
          12   -0.0102   -0.0031   -0.0069   -0.0029   -0.0039   -0.0416   -0.0060   -0.0012
          13    0.0009   -0.0003    0.0036    0.0037    0.0067   -0.0063    0.0053   -0.0010
          14   -0.0102    0.0071    0.0024   -0.0018   -0.0034   -0.0010    0.0004   -0.0062
          15   -0.0008   -0.0065   -0.0084    0.0041   -0.0066    0.0060    0.0018   -0.0025
          16    0.0026    0.0041   -0.0107   -0.0024    0.0057   -0.0031   -0.0006    0.0013
          17   -0.0223   -0.0187    0.0110   -0.0035   -0.0033    0.0059    0.0010   -0.0002
          18    0.0120    0.0036    0.0000   -0.0002   -0.0010   -0.0037    0.0004   -0.0002
          19    0.0004   -0.0227    0.0055    0.0049    0.0030   -0.0092   -0.0002   -0.0011
          20   -0.0144    0.0204   -0.0004    0.0040   -0.0063    0.0088   -0.0021    0.0057
          21    0.0096   -0.0010   -0.0099    0.0060   -0.0054   -0.0004   -0.0033    0.0018
          22    0.0003    0.0046   -0.0050    0.0047    0.0026   -0.0038    0.0051    0.0011
          23    0.0085   -0.0081    0.0064   -0.0014   -0.0003   -0.0032   -0.0084   -0.0001
          24   -0.0066   -0.0094    0.0109   -0.0040    0.0005   -0.0014   -0.0061   -0.0008
          25   -0.0007   -0.0037   -0.0002    0.0092    0.0008   -0.0035    0.0002    0.0008
          26    0.0085   -0.0164    0.0076   -0.0126    0.0072   -0.0059   -0.0032   -0.0097
          27    0.0094   -0.0193    0.0115   -0.0112    0.0105   -0.0112   -0.0039   -0.0084
          28    0.0068   -0.0189    0.0065   -0.0147    0.0057   -0.0003   -0.0024   -0.0074
          29    0.0045   -0.0036   -0.0036    0.0050   -0.0039   -0.0003   -0.0001   -0.0019
          30   -0.0056   -0.0016   -0.0012    0.0045   -0.0047    0.0036   -0.0021   -0.0023
          31   -0.0351   -0.0780   -0.0030    0.0697    0.1009    0.0553    0.1764    0.0145
          32    0.0995    0.0907   -0.0124   -0.0006   -0.0089    0.0013   -0.0396   -0.0072
          33    0.1552    0.1147   -0.0098    0.0406    0.0558    0.2109    0.0236   -0.0166
          34   -0.0061    0.0429   -0.0415   -0.0671   -0.0930   -0.0386   -0.0854   -0.0271
          35   -0.0682    0.0913    0.0432    0.0276    0.1776   -0.0084   -0.0606   -0.0757
          36   -0.0403    0.0957    0.0240   -0.0143    0.0625   -0.0405   -0.0298   -0.0465
          37   -0.0869    0.1607    0.0535   -0.0451    0.0427   -0.0409    0.0662   -0.0548
          38    0.0503   -0.0774   -0.0342    0.0210   -0.0149    0.0304   -0.0622    0.0407
          39   -0.0182    0.0379    0.0135   -0.0091    0.0078   -0.0096    0.0191   -0.0094
          40    0.0526   -0.0185   -0.0902    0.0396    0.0866   -0.0004   -0.0757   -0.0717
          41   -0.0025    0.0528    0.0510   -0.0515   -0.1004   -0.0176    0.0793    0.0566
          42    0.0160    0.0250   -0.0147   -0.0009    0.0062   -0.0093    0.0033   -0.0077
          43   -0.0183   -0.0122    0.0087    0.0019   -0.0020   -0.0184    0.0116   -0.0008
          44    0.0250    0.0123   -0.0056    0.0056    0.0040   -0.0195    0.0074    0.0043
          45   -0.0482   -0.0225    0.0126   -0.0074   -0.0075    0.0142   -0.0046   -0.0076
          46   -0.0041   -0.0010   -0.0104   -0.0010    0.0045   -0.0044   -0.0106   -0.0037
          47    0.0203    0.0063    0.0006    0.0091    0.0042   -0.0310    0.0162    0.0064
          48   -0.0171    0.0054   -0.0444   -0.0146    0.0079   -0.0105   -0.0598   -0.0166
          49    0.0154    0.0028   -0.0068    0.0097   -0.0001   -0.1040    0.0218    0.0063
          50    0.0101    0.0066   -0.0040    0.0022    0.0040    0.0033   -0.0017   -0.0005
          51    0.0389    0.0213   -0.0301    0.0089   -0.0042   -0.2034    0.0102    0.0092
          52   -0.0138    0.0132   -0.0757   -0.0292    0.0047    0.0171    0.0144    0.0028
          53   -0.0316    0.0166   -0.1352   -0.0588   -0.0049    0.0388    0.0320    0.0025
          54   -0.1128   -0.0281   -0.1308   -0.0743   -0.0081    0.0785    0.0333    0.0042
          55   -0.0268   -0.0004   -0.0213    0.0971    0.0119   -0.0129   -0.0309    0.1975
          56   -0.0055    0.0261   -0.0282    0.0563   -0.0084    0.0032   -0.0186    0.1145
          57   -0.0632    0.0318   -0.0040    0.0759    0.0109    0.0074   -0.0271    0.1540
          58    0.0025   -0.0072    0.0155   -0.0334    0.0216   -0.0000   -0.0228    0.0418
          59   -0.0203   -0.0256   -0.0375    0.0857   -0.0731    0.0111    0.0662   -0.1676
          60    0.0101   -0.0377   -0.0233    0.0517   -0.0430    0.0006    0.0481   -0.1264
          61   -0.0486    0.0535   -0.0472    0.1476   -0.1231    0.0011   -0.0369   -0.0761
          62    0.0298   -0.0512    0.0364   -0.0864    0.0726   -0.0067    0.0115    0.0296
          63    0.0108   -0.0163    0.0079   -0.0055    0.0062   -0.0130   -0.0022   -0.0126
          64   -0.0222   -0.0170    0.1957    0.0608   -0.0802    0.0112   -0.0643   -0.0334
          65   -0.0153   -0.0072   -0.0127   -0.0149    0.0135   -0.0076    0.0023    0.0032
          66    0.0169   -0.0110    0.0246    0.0069   -0.0111    0.0025   -0.0155   -0.0033


   Root No.      33        34        35        36        37        38        39        40

                33 A      34 A      35 A      36 A      37 A      38 A      39 A      40 A   

                1188.4    1196.8    1198.8    1264.2    1315.6    1356.2    1374.2    1394.2
  
           1    0.0326   -0.0147   -0.0141   -0.0169   -0.0207    0.0204   -0.0304   -0.0202
           2    0.0192   -0.0019    0.0298   -0.0264    0.0220   -0.0251   -0.0042    0.0222
           3    0.0112   -0.0057    0.0088   -0.0201    0.0075   -0.0067   -0.0243   -0.0013
           4   -0.0003   -0.0249   -0.0162    0.0458    0.0393   -0.0183    0.0057    0.0122
           5    0.0043   -0.0070    0.0014   -0.0277   -0.0045    0.0301    0.0145   -0.0130
           6    0.0198    0.0155   -0.0134   -0.0182    0.0320    0.0329    0.0200   -0.0077
           7    0.0037   -0.0054   -0.0102   -0.0144   -0.0287   -0.0242    0.0396   -0.0037
           8   -0.0043    0.0142   -0.0019    0.0190    0.0076    0.0049   -0.0124   -0.0530
           9    0.0032   -0.0031   -0.0106    0.0045   -0.0107   -0.0036    0.0103   -0.0129
          10   -0.0031    0.0067    0.0069   -0.0102   -0.0055    0.0076    0.0085   -0.0039
          11   -0.0077    0.0057    0.0023    0.0059   -0.0013   -0.0068   -0.0043    0.0026
          12   -0.0038   -0.0095    0.0054    0.0043    0.0018    0.0049    0.0198    0.0002
          13    0.0117    0.0147   -0.0055    0.0137   -0.0112   -0.0078    0.0070   -0.0067
          14   -0.0077   -0.0091    0.0168   -0.0006    0.0007   -0.0023    0.0144    0.0160
          15    0.0088   -0.0102    0.0248   -0.0018   -0.0018   -0.0096    0.0211    0.0201
          16   -0.0024   -0.0002    0.0050   -0.0190    0.0029    0.0161    0.0022   -0.0050
          17    0.0078    0.0151   -0.0201    0.0117    0.0037   -0.0226   -0.0128    0.0124
          18    0.0036    0.0072   -0.0148    0.0103    0.0007   -0.0211   -0.0133    0.0113
          19   -0.0209   -0.0016   -0.0022   -0.0114    0.0240   -0.0059   -0.0097    0.0069
          20    0.0040   -0.0054   -0.0072   -0.0087   -0.0078   -0.0084    0.0098    0.0041
          21   -0.0035   -0.0012   -0.0033   -0.0069    0.0033   -0.0076    0.0038    0.0033
          22    0.0072    0.0101   -0.0033   -0.0169    0.0107   -0.0194   -0.0082    0.0222
          23   -0.0028    0.0017   -0.0020    0.0110   -0.0154    0.0068   -0.0007   -0.0155
          24   -0.0031    0.0071   -0.0064    0.0067   -0.0119    0.0038   -0.0037   -0.0109
          25    0.0101    0.0105    0.0033    0.0201   -0.0195   -0.0100    0.0202   -0.0052
          26   -0.0149   -0.0031   -0.0024   -0.0006    0.0101    0.0161   -0.0170   -0.0043
          27   -0.0144    0.0034   -0.0027    0.0117    0.0002    0.0121   -0.0072   -0.0083
          28   -0.0090   -0.0066    0.0079    0.0033    0.0065    0.0201   -0.0154   -0.0013
          29   -0.0038   -0.0011   -0.0074   -0.0115    0.0051   -0.0130    0.0035    0.0072
          30   -0.0056   -0.0055   -0.0043   -0.0111    0.0066   -0.0048   -0.0017    0.0067
          31   -0.1020    0.0726    0.0130   -0.0812   -0.0838    0.0443    0.0017   -0.0251
          32    0.0005   -0.0509    0.0182    0.0400    0.0126   -0.0248   -0.0033    0.0084
          33   -0.0963    0.0074    0.0599    0.0237   -0.0490   -0.0416   -0.0255    0.0090
          34   -0.0938    0.1989    0.0554    0.0253    0.0552   -0.0153    0.0583    0.0224
          35   -0.0129   -0.0484   -0.1005    0.0371   -0.0350    0.0315    0.0078   -0.0338
          36   -0.0638    0.0559   -0.0453    0.0367    0.0017    0.0156    0.0220   -0.0192
          37    0.0407    0.0419    0.0778    0.0424    0.0416    0.0832   -0.0867    0.0968
          38   -0.0129   -0.0116   -0.0785    0.0411   -0.0869    0.0878    0.0228    0.2080
          39    0.0062    0.0067    0.0181   -0.0041    0.0242   -0.0339   -0.0029   -0.1074
          40    0.0568    0.0158    0.0527    0.0431    0.0400    0.0481   -0.0612    0.0090
          41   -0.0336    0.0135   -0.0342    0.0058   -0.0563    0.0508    0.0169    0.1607
          42    0.0141    0.0122    0.0060    0.0332   -0.0206    0.0923   -0.0367    0.1951
          43   -0.0226   -0.0203    0.0091    0.0241   -0.0397   -0.0489   -0.0611    0.0171
          44    0.0147    0.0004   -0.0100   -0.0080    0.0360    0.0334    0.0556    0.0047
          45   -0.0378   -0.0154    0.0222    0.0315   -0.0622   -0.0678   -0.0884    0.0053
          46   -0.0056    0.0070    0.0088   -0.0112   -0.0128    0.0018   -0.0010   -0.0018
          47    0.0120   -0.0191   -0.0088   -0.0016    0.0092    0.0128   -0.0001   -0.0101
          48   -0.0258    0.0388    0.0451   -0.0540   -0.1037   -0.0403   -0.0927    0.0059
          49   -0.0062   -0.0248    0.0023    0.0083   -0.0290   -0.0340   -0.0351    0.0197
          50   -0.0008    0.0012    0.0041   -0.0087   -0.0161   -0.0049   -0.0252   -0.0099
          51    0.0068   -0.0408    0.0091   -0.0152   -0.0617   -0.0338   -0.0803   -0.0096
          52   -0.0290   -0.0467    0.0270    0.0038    0.0047    0.0348    0.0159   -0.0191
          53   -0.0516   -0.0883    0.0286    0.0647    0.0014    0.0144    0.0153   -0.0189
          54   -0.0473   -0.0842    0.0287    0.0586    0.0089    0.0258    0.0213   -0.0227
          55    0.0043    0.0388    0.0430    0.0812    0.0064    0.0490   -0.0339   -0.0364
          56    0.0198    0.0211    0.0204    0.0454   -0.0178    0.0218   -0.0032   -0.0227
          57    0.0143    0.0202    0.0219    0.0567   -0.0147    0.0313   -0.0110   -0.0254
          58   -0.0370   -0.0193   -0.0028   -0.0225    0.0246    0.0108   -0.0191    0.0072
          59    0.0918    0.0369    0.0306    0.0735   -0.0524    0.0238    0.0109   -0.0207
          60    0.0604    0.0261    0.0234    0.0549   -0.0354    0.0238    0.0023   -0.0138
          61   -0.1027   -0.0309   -0.0910   -0.0543    0.0494    0.0315   -0.0589   -0.0101
          62    0.0419    0.0172    0.0464    0.0351   -0.0235   -0.0040    0.0220   -0.0014
          63   -0.0180    0.0030   -0.0048    0.0133    0.0005    0.0141   -0.0084   -0.0094
          64   -0.0560   -0.0984    0.1423    0.0101   -0.0289    0.0500    0.0493   -0.0237
          65    0.0015    0.0185   -0.0258    0.0078   -0.0121   -0.0021   -0.0104   -0.0107
          66   -0.0057   -0.0056    0.0126    0.0112   -0.0171    0.0099    0.0040   -0.0156


   Root No.      41        42        43        44        45        46        47        48

                41 A      42 A      43 A      44 A      45 A      46 A      47 A      48 A   

                1399.9    1410.4    1422.5    1429.8    1440.2    1793.2    1831.0    1903.3
  
           1   -0.0025    0.0093   -0.0141    0.0080   -0.0308    0.0042   -0.0011   -0.0140
           2   -0.0010    0.0003   -0.0138   -0.0383    0.0544   -0.0076   -0.0005   -0.0085
           3   -0.0028    0.0060   -0.0238   -0.0309    0.0281   -0.0057    0.0011   -0.0186
           4    0.0031   -0.0087    0.0245   -0.0066    0.0174    0.0094    0.0000   -0.0055
           5    0.0018   -0.0016    0.0173   -0.0017   -0.0029    0.0102    0.0005   -0.0031
           6    0.0116   -0.0136    0.0665   -0.0104    0.0108    0.0136    0.0002   -0.0079
           7    0.0019   -0.0026    0.0033    0.0165    0.0631    0.0030    0.0239    0.0092
           8    0.0009    0.0036    0.0025    0.0167   -0.0302    0.0033    0.0083    0.0028
           9    0.0008    0.0000    0.0032    0.0113    0.0111    0.0023    0.0136    0.0064
          10   -0.0276   -0.0206   -0.0300    0.0048   -0.0060   -0.0014    0.0001    0.0007
          11   -0.0314    0.0188    0.0128   -0.0024    0.0022    0.0019   -0.0003   -0.0001
          12   -0.0044    0.0250   -0.0640    0.0056   -0.0098    0.0018   -0.0006    0.0020
          13    0.0006   -0.0012   -0.0022   -0.0454   -0.0100   -0.0127   -0.0379    0.2364
          14    0.0002   -0.0034    0.0148    0.0595   -0.0333    0.0014    0.0089   -0.0322
          15    0.0005   -0.0047    0.0183    0.0550   -0.0447   -0.0016   -0.0126    0.0957
          16    0.0011   -0.0002    0.0071    0.0025    0.0073   -0.1660    0.0228   -0.0130
          17   -0.0026    0.0021   -0.0114    0.0243   -0.0048   -0.0851    0.0106   -0.0005
          18   -0.0029    0.0029   -0.0145    0.0264   -0.0048   -0.1239    0.0161   -0.0032
          19   -0.0005   -0.0017    0.0017   -0.0312   -0.0520   -0.0142   -0.0916   -0.0250
          20    0.0002   -0.0013    0.0015   -0.0063   -0.0030   -0.0204   -0.1383   -0.0295
          21    0.0001   -0.0015    0.0020   -0.0145   -0.0196   -0.0194   -0.1315   -0.0310
          22   -0.0026    0.0011   -0.0063    0.0539   -0.0085    0.1894   -0.0188   -0.0358
          23    0.0002    0.0014   -0.0079   -0.0441    0.0059    0.0553   -0.0103    0.0212
          24   -0.0003    0.0017   -0.0087   -0.0297    0.0046    0.1013   -0.0152    0.0098
          25    0.0012   -0.0033    0.0031   -0.0413   -0.0248   -0.0086    0.0474   -0.1891
          26   -0.0006    0.0035   -0.0054    0.0264    0.0386    0.0041   -0.0324    0.0350
          27    0.0000    0.0020   -0.0043    0.0041    0.0278    0.0000   -0.0052   -0.0746
          28   -0.0007    0.0035   -0.0034    0.0437    0.0406    0.0090    0.0279    0.0252
          29   -0.0001   -0.0022    0.0009   -0.0343   -0.0370    0.0193    0.1651    0.0242
          30   -0.0003   -0.0008    0.0001   -0.0125   -0.0173    0.0172    0.1360    0.0279
          31   -0.0075    0.0030   -0.0301    0.0266   -0.0370   -0.0220    0.0015    0.0021
          32   -0.0038    0.0063   -0.0173   -0.0086    0.0113    0.0135   -0.0005   -0.0023
          33   -0.0104    0.0166   -0.0727    0.0038   -0.0079    0.0065   -0.0023    0.0043
          34    0.0152   -0.0284    0.0396   -0.0234    0.0463    0.0008   -0.0002    0.0144
          35    0.0001    0.0026    0.0199    0.0392   -0.0506    0.0055    0.0019   -0.0051
          36    0.0054   -0.0091    0.0210    0.0084   -0.0084   -0.0002    0.0014    0.0018
          37   -0.0049    0.0023   -0.0188   -0.0486   -0.0460    0.0060    0.0441   -0.0001
          38   -0.0039   -0.0137    0.0091   -0.0169    0.0100    0.0011   -0.0005    0.0102
          39    0.0024    0.0065    0.0001    0.0217   -0.0019    0.0024    0.0137    0.0029
          40   -0.0025    0.0053   -0.0066   -0.0124   -0.0568    0.0029    0.0060    0.0000
          41   -0.0027   -0.0108   -0.0027   -0.0298    0.0364   -0.0014   -0.0029   -0.0003
          42   -0.0059   -0.0075   -0.0097   -0.0530   -0.0141   -0.0009   -0.0016   -0.0044
          43    0.3371    0.0258    0.0473   -0.0010    0.0055   -0.0005   -0.0001    0.0005
          44    0.1663    0.1467   -0.0654    0.0028   -0.0128    0.0027   -0.0002   -0.0001
          45   -0.0511   -0.1314    0.0692   -0.0033    0.0141    0.0038   -0.0009    0.0015
          46   -0.0017   -0.0055   -0.0095    0.0031   -0.0041   -0.0019    0.0002    0.0005
          47    0.2860   -0.2304   -0.0928    0.0155   -0.0063   -0.0001    0.0000   -0.0000
          48    0.1675    0.0620    0.1509   -0.0086    0.0066   -0.0012    0.0001    0.0001
          49   -0.0315    0.2792    0.1477   -0.0204    0.0126    0.0016    0.0000   -0.0007
          50   -0.0616   -0.1557    0.0177    0.0015    0.0057    0.0006    0.0001   -0.0005
          51   -0.1419   -0.1427    0.1323   -0.0101    0.0195   -0.0002    0.0004   -0.0007
          52    0.0035   -0.0037    0.0197   -0.0342    0.0170   -0.1311    0.0193   -0.0162
          53    0.0025   -0.0048    0.0103   -0.0579    0.0116    0.0867   -0.0127    0.0104
          54    0.0044   -0.0068    0.0223   -0.0661    0.0159    0.0558   -0.0075    0.0087
          55   -0.0002    0.0070   -0.0023    0.0625    0.0299    0.0187    0.1092    0.0311
          56    0.0006    0.0036   -0.0005    0.0455    0.0421   -0.0063   -0.0576   -0.0074
          57    0.0002    0.0046   -0.0007    0.0541    0.0398    0.0002   -0.0180    0.0029
          58   -0.0011    0.0022   -0.0019    0.0281    0.0089    0.0203    0.1129    0.0481
          59    0.0011    0.0033   -0.0043    0.0341    0.0766   -0.0040   -0.0270   -0.0410
          60    0.0005    0.0035   -0.0050    0.0351    0.0698    0.0020    0.0081   -0.0167
          61   -0.0023    0.0096   -0.0233    0.0000    0.0841    0.0112    0.0298    0.0229
          62    0.0012   -0.0028    0.0079    0.0064   -0.0119   -0.0075   -0.0203   -0.0873
          63   -0.0001    0.0022   -0.0049    0.0065    0.0305    0.0026    0.0009   -0.1065
          64    0.0062   -0.0076    0.0326   -0.0389   -0.0180   -0.0498    0.0029    0.0267
          65   -0.0017    0.0036   -0.0170   -0.0322    0.0075    0.1187   -0.0173    0.0123
          66    0.0010    0.0001   -0.0034   -0.0429    0.0015    0.1007   -0.0179    0.0280


   Root No.      49        50        51        52        53        54        55        56

                49 A      50 A      51 A      52 A      53 A      54 A      55 A      56 A   

                2867.0    2881.2    2942.5    3026.1    3056.8    3072.8    3079.7    3082.5
  
           1    0.0175   -0.0060   -0.0012    0.0003   -0.0003    0.0001    0.0001    0.0004
           2    0.0274   -0.0081   -0.0021   -0.0005    0.0001   -0.0001    0.0000   -0.0000
           3   -0.0423    0.0121    0.0032   -0.0003   -0.0001   -0.0001   -0.0000    0.0003
           4   -0.0042   -0.0197    0.0006    0.0002    0.0000    0.0000   -0.0005   -0.0000
           5   -0.0128   -0.0488    0.0012    0.0003    0.0000   -0.0000   -0.0013   -0.0000
           6    0.0049    0.0195   -0.0005   -0.0002   -0.0000    0.0000    0.0005   -0.0000
           7   -0.0019   -0.0006   -0.0186   -0.0143   -0.0004    0.0006    0.0001    0.0004
           8   -0.0006   -0.0006   -0.0145   -0.0324   -0.0018    0.0016    0.0002    0.0010
           9    0.0047    0.0002    0.0512   -0.0204   -0.0017    0.0015    0.0001    0.0010
          10    0.0005    0.0010   -0.0001    0.0001    0.0000   -0.0000   -0.0217   -0.0003
          11    0.0006    0.0014    0.0000   -0.0004   -0.0001    0.0002   -0.0450   -0.0005
          12    0.0002    0.0003    0.0000   -0.0002   -0.0000    0.0000    0.0016    0.0001
          13   -0.0004    0.0003   -0.0001   -0.0002    0.0000   -0.0017   -0.0000    0.0032
          14   -0.0004    0.0002   -0.0002    0.0003   -0.0001    0.0001    0.0000   -0.0007
          15   -0.0008    0.0003   -0.0001    0.0001   -0.0001   -0.0009   -0.0000    0.0012
          16   -0.0001   -0.0000    0.0000   -0.0000    0.0001   -0.0000   -0.0003   -0.0001
          17   -0.0001   -0.0007    0.0000    0.0000   -0.0000    0.0000    0.0001    0.0000
          18   -0.0002   -0.0007   -0.0000    0.0000    0.0000    0.0000    0.0002   -0.0000
          19   -0.0000   -0.0000    0.0000   -0.0035    0.0219   -0.0148    0.0000   -0.0085
          20   -0.0000   -0.0000   -0.0010    0.0035   -0.0248    0.0204   -0.0001    0.0129
          21   -0.0002    0.0000   -0.0007    0.0014   -0.0114    0.0105   -0.0000    0.0069
          22    0.0001    0.0004    0.0000    0.0000   -0.0000    0.0001   -0.0000   -0.0002
          23    0.0002   -0.0001   -0.0000   -0.0000   -0.0000    0.0001   -0.0000   -0.0000
          24    0.0001    0.0004    0.0000   -0.0000    0.0000    0.0001   -0.0000   -0.0001
          25    0.0005   -0.0001    0.0001    0.0001    0.0018    0.0081    0.0002   -0.0113
          26   -0.0000   -0.0000   -0.0001   -0.0001    0.0031    0.0129    0.0003   -0.0198
          27    0.0000   -0.0000   -0.0000   -0.0000    0.0048    0.0208    0.0004   -0.0311
          28   -0.0001    0.0000   -0.0002    0.0000   -0.0310   -0.0230    0.0002   -0.0229
          29    0.0001    0.0000    0.0002    0.0001   -0.0010   -0.0036    0.0000   -0.0025
          30    0.0002    0.0000    0.0003    0.0001   -0.0102   -0.0097    0.0001   -0.0089
          31    0.0597    0.2403   -0.0044   -0.0009   -0.0000    0.0000    0.0036    0.0000
          32    0.1560    0.5929   -0.0167   -0.0055   -0.0001    0.0002    0.0134    0.0001
          33   -0.0636   -0.2398    0.0068    0.0020    0.0000   -0.0001   -0.0088   -0.0000
          34   -0.2189    0.0662    0.0132   -0.0015   -0.0002   -0.0002    0.0009    0.0004
          35   -0.3359    0.0955    0.0275   -0.0033   -0.0004   -0.0001   -0.0012    0.0004
          36    0.5143   -0.1469   -0.0357    0.0029    0.0004    0.0002    0.0016   -0.0004
          37   -0.0030    0.0001   -0.0178    0.0011    0.0030   -0.0021   -0.0002   -0.0013
          38   -0.0105   -0.0002   -0.1472    0.1778    0.0121   -0.0094   -0.0009   -0.0057
          39   -0.0312    0.0033   -0.3171    0.4784    0.0332   -0.0254   -0.0026   -0.0155
          40    0.0227    0.0018    0.2458    0.1707    0.0078   -0.0063   -0.0008   -0.0036
          41    0.0256    0.0077    0.3257    0.2153    0.0084   -0.0071   -0.0009   -0.0040
          42   -0.0262   -0.0060   -0.2968   -0.2368   -0.0106    0.0088    0.0010    0.0051
          43    0.0018    0.0037    0.0000   -0.0012   -0.0002    0.0004   -0.0849   -0.0008
          44   -0.0026   -0.0074   -0.0007    0.0035    0.0006   -0.0011    0.1625    0.0014
          45   -0.0015   -0.0032   -0.0008    0.0034    0.0005   -0.0010    0.1617    0.0015
          46   -0.0001   -0.0101    0.0003   -0.0004   -0.0001    0.0002    0.2066    0.0032
          47   -0.0001   -0.0006    0.0000   -0.0002   -0.0000    0.0001   -0.0244   -0.0003
          48    0.0010    0.0037   -0.0001   -0.0001   -0.0000    0.0000   -0.0112   -0.0001
          49   -0.0013   -0.0065    0.0001    0.0007    0.0002   -0.0004    0.1372    0.0016
          50   -0.0059   -0.0128    0.0007    0.0017    0.0004   -0.0010    0.4005    0.0047
          51    0.0020    0.0019   -0.0002   -0.0009   -0.0002    0.0004   -0.1698   -0.0020
          52   -0.0016   -0.0019    0.0002   -0.0000   -0.0004    0.0007    0.0036    0.0005
          53    0.0004   -0.0008   -0.0001    0.0000    0.0001   -0.0002   -0.0015   -0.0002
          54    0.0003    0.0006   -0.0000    0.0000    0.0000   -0.0001   -0.0004   -0.0001
          55   -0.0003    0.0001   -0.0062    0.0339   -0.2633    0.1895   -0.0006    0.1102
          56    0.0006   -0.0002    0.0078   -0.0418    0.2914   -0.2137    0.0007   -0.1247
          57    0.0004    0.0000    0.0058   -0.0194    0.1323   -0.0981    0.0003   -0.0575
          58   -0.0003    0.0001    0.0001    0.0024    0.3668    0.2584   -0.0028    0.2533
          59   -0.0000   -0.0000   -0.0005    0.0005    0.0149    0.0142   -0.0001    0.0104
          60   -0.0000    0.0001    0.0006    0.0013    0.1224    0.0891   -0.0009    0.0842
          61    0.0007   -0.0001   -0.0002    0.0000   -0.0191   -0.0759   -0.0016    0.1074
          62    0.0013   -0.0002   -0.0005    0.0000   -0.0355   -0.1568   -0.0034    0.2305
          63    0.0005   -0.0000   -0.0006    0.0000   -0.0551   -0.2392   -0.0051    0.3491
          64   -0.0001    0.0002   -0.0000   -0.0000    0.0001    0.0002    0.0000   -0.0003
          65    0.0013    0.0012   -0.0002    0.0001    0.0000   -0.0010    0.0006    0.0016
          66    0.0014    0.0024   -0.0002    0.0001    0.0000   -0.0009    0.0006    0.0015


   Root No.      57        58        59        60

                57 A      58 A      59 A      60 A   

                3084.4    3117.2    3135.1    3178.4
  
[...]
 TRAVEL (Ang.)       0.1703         C  4 -- H 16         +12.4% ( 50.7%)      4.2%
 REDUCED MASS        1.6346         C  1 -- C  2         +10.4% ( 46.4%)     14.0%
 EFFECTIVE MASS      7.4949         C  2 -- H 11         +10.0% ( 45.6%)      0.0%
 FORCE CONSTANT      1.9489

 VIBRATION         44   44A           ATOM PAIR      ENERGY CONTRIBUTION    RADIAL
 FREQUENCY          1429.85         C  5 -- C  8         +19.9% ( 71.2%)     89.5%
 TRANSITION DIPOLE   0.2411         C  1 -- C  5         +12.6% ( 56.6%)     59.6%
 TRAVEL (Ang.)       0.1569         C  5 -- C  6          +9.6% ( 49.4%)     54.3%
 REDUCED MASS        1.9147         C  5 -- C  9          +8.9% ( 47.7%)      7.0%
 EFFECTIVE MASS     10.9642
 FORCE CONSTANT      2.3063

 VIBRATION         45   45A           ATOM PAIR      ENERGY CONTRIBUTION    RADIAL
 FREQUENCY          1440.18         C  1 -- C  3         +11.7% ( 53.8%)     84.3%
 TRANSITION DIPOLE   0.1853         C  3 -- C  7         +11.2% ( 52.7%)     91.8%
 TRAVEL (Ang.)       0.1759         C  9 -- C 10         +10.3% ( 50.6%)     99.5%
 REDUCED MASS        1.5127         C  1 -- C  5         +10.1% ( 49.9%)     75.0%
 EFFECTIVE MASS     10.6064
 FORCE CONSTANT      1.8486

 VIBRATION         46   46A           ATOM PAIR      ENERGY CONTRIBUTION    RADIAL
 FREQUENCY          1793.18         C  6 -- C  8         +39.6% ( 99.7%)    100.0%
 TRANSITION DIPOLE   0.2782         C  2 -- C  6         +12.3% ( 55.6%)     23.5%
 TRAVEL (Ang.)       0.0849         C  5 -- C  6         +11.9% ( 54.7%)     51.1%
 REDUCED MASS        5.2203         C  5 -- C  8         +11.8% ( 54.5%)     21.0%
 EFFECTIVE MASS     11.9244         C  6 -- H 18         +11.4% ( 53.5%)     10.6%
 FORCE CONSTANT      9.8900         C  8 -- H 22         +11.1% ( 52.7%)     10.7%

 VIBRATION         47   47A           ATOM PAIR      ENERGY CONTRIBUTION    RADIAL
 FREQUENCY          1831.02         C  7 -- C 10         +41.3% ( 95.5%)     99.9%
 TRANSITION DIPOLE   0.2758         C  9 -- C 10         +14.6% ( 56.8%)     65.2%
 TRAVEL (Ang.)       0.0869         C  3 -- C  7         +13.1% ( 53.8%)     48.2%
 REDUCED MASS        4.8759         C 10 -- H 20         +12.5% ( 52.5%)      4.4%
 EFFECTIVE MASS     11.8906         C  7 -- H 19         +12.1% ( 51.7%)      5.4%
 FORCE CONSTANT      9.6315

 VIBRATION         48   48A           ATOM PAIR      ENERGY CONTRIBUTION    RADIAL
 FREQUENCY          1903.26         C  5 -- C  9         +35.4% ( 95.5%)     99.0%
 TRANSITION DIPOLE   0.3855         C  5 -- C  8         +15.6% ( 63.3%)     59.1%
 TRAVEL (Ang.)       0.0816         C  1 -- C  5         +14.7% ( 61.6%)     26.1%
 REDUCED MASS        5.3190         C  5 -- C  6         +14.5% ( 61.1%)     93.3%
 EFFECTIVE MASS     11.8937
 FORCE CONSTANT     11.3522

 VIBRATION         49   49A           ATOM PAIR      ENERGY CONTRIBUTION    RADIAL
 FREQUENCY          2867.04         C  1 -- H 12         +89.5% ( 96.2%)    100.0%
 TRANSITION DIPOLE   0.1007         C  2 -- H 11          +6.8% ( 26.4%)    100.0%
 TRAVEL (Ang.)       0.1716         C  1 -- C  2          +1.1% ( 10.5%)     10.9%
 REDUCED MASS        0.7986         C  1 -- C  3          +0.9% (  9.9%)      8.4%
 EFFECTIVE MASS      1.4406
 FORCE CONSTANT      3.8679

 VIBRATION         50   50A           ATOM PAIR      ENERGY CONTRIBUTION    RADIAL
 FREQUENCY          2881.17         C  2 -- H 11         +90.1% ( 96.3%)    100.0%
 TRANSITION DIPOLE   0.0958         C  1 -- H 12          +6.7% ( 26.3%)     99.9%
 TRAVEL (Ang.)       0.1703         C  2 -- C  4          +1.0% ( 10.0%)      9.6%
 REDUCED MASS        0.8070         C  2 -- C  6          +1.0% (  9.9%)      9.3%
 EFFECTIVE MASS      1.4361
 FORCE CONSTANT      3.9467

 VIBRATION         51   51A           ATOM PAIR      ENERGY CONTRIBUTION    RADIAL
 FREQUENCY          2942.49         C  3 -- H 14         +64.2% ( 83.0%)     97.9%
 TRANSITION DIPOLE   0.0356         C  3 -- H 13         +32.9% ( 59.5%)     94.2%
 TRAVEL (Ang.)       0.2024         C  3 -- C  7          +1.1% ( 10.9%)      0.1%
 REDUCED MASS        0.5593         C  1 -- C  3          +1.1% ( 10.8%)      0.5%
 EFFECTIVE MASS      1.5293
 FORCE CONSTANT      2.8531

 VIBRATION         52   52A           ATOM PAIR      ENERGY CONTRIBUTION    RADIAL
 FREQUENCY          3026.11         C  3 -- H 13         +65.8% ( 80.1%)     99.1%
 TRANSITION DIPOLE   0.0695         C  3 -- H 14         +31.9% ( 55.7%)     94.6%
 TRAVEL (Ang.)       0.2061         C  7 -- H 19          +0.9% (  9.4%)    100.0%
 REDUCED MASS        0.5244         C  3 -- C  7          +0.7% (  8.1%)     19.8%
 EFFECTIVE MASS      1.2884
 FORCE CONSTANT      2.8295

 VIBRATION         53   53A           ATOM PAIR      ENERGY CONTRIBUTION    RADIAL
 FREQUENCY          3056.76         C  7 -- H 19         +51.1% ( 72.6%)    100.0%
 TRANSITION DIPOLE   0.2619         C 10 -- H 20         +44.6% ( 67.8%)    100.0%
 TRAVEL (Ang.)       0.2214         C  9 -- H 21          +1.4% ( 12.0%)     99.9%
 REDUCED MASS        0.4500         C  7 -- C 10          +1.1% ( 10.7%)      0.1%
 EFFECTIVE MASS      1.4645
 FORCE CONSTANT      2.4772

 VIBRATION         54   54A           ATOM PAIR      ENERGY CONTRIBUTION    RADIAL
 FREQUENCY          3072.85         C  7 -- H 19         +34.5% ( 59.7%)     99.9%
 TRANSITION DIPOLE   0.2951         C  9 -- H 21         +33.3% ( 58.6%)    100.0%
 TRAVEL (Ang.)       0.2660         C 10 -- H 20         +28.5% ( 54.3%)     99.9%
 REDUCED MASS        0.3102         C  7 -- C 10          +1.3% ( 11.6%)     99.6%
 EFFECTIVE MASS      1.5533
 FORCE CONSTANT      1.7257

 VIBRATION         55   55A           ATOM PAIR      ENERGY CONTRIBUTION    RADIAL
 FREQUENCY          3079.68         C  4 -- H 17         +65.3% ( 83.4%)     98.9%
 TRANSITION DIPOLE   0.0271         C  4 -- H 15         +19.3% ( 45.4%)     86.7%
 TRAVEL (Ang.)       0.2066         C  4 -- H 16         +14.3% ( 39.0%)     81.3%
 REDUCED MASS        0.5131         C  2 -- C  4          +1.0% ( 10.3%)      0.0%
 EFFECTIVE MASS      1.5050
 FORCE CONSTANT      2.8674

 VIBRATION         56   56A           ATOM PAIR      ENERGY CONTRIBUTION    RADIAL
 FREQUENCY          3082.53         C  9 -- H 21         +62.3% ( 80.1%)    100.0%
 TRANSITION DIPOLE   0.4568         C 10 -- H 20         +23.8% ( 49.5%)    100.0%
 TRAVEL (Ang.)       0.2199         C  7 -- H 19         +10.4% ( 32.7%)     99.8%
 REDUCED MASS        0.4525         C  9 -- C 10          +1.4% ( 12.0%)     79.2%
 EFFECTIVE MASS      1.5698
 FORCE CONSTANT      2.5335

 VIBRATION         57   57A           ATOM PAIR      ENERGY CONTRIBUTION    RADIAL
 FREQUENCY          3084.36         C  4 -- H 16         +50.7% ( 73.5%)     97.4%
 TRANSITION DIPOLE   0.0221         C  4 -- H 15         +47.1% ( 70.8%)     96.7%
 TRAVEL (Ang.)       0.2072         C  4 -- H 17          +1.2% ( 11.1%)      4.5%
 REDUCED MASS        0.5091         C  2 -- C  4          +1.0% ( 10.5%)      0.0%
 EFFECTIVE MASS      1.5087
 FORCE CONSTANT      2.8533

 VIBRATION         58   58A           ATOM PAIR      ENERGY CONTRIBUTION    RADIAL
 FREQUENCY          3117.17         C  6 -- H 18         +52.6% ( 74.0%)    100.0%
 TRANSITION DIPOLE   0.3891         C  8 -- H 22         +44.0% ( 67.7%)    100.0%
 TRAVEL (Ang.)       0.2149         C  6 -- C  8          +1.1% ( 10.9%)      0.2%
 REDUCED MASS        0.4686         C  5 -- C  6          +0.8% (  9.0%)     92.6%
 EFFECTIVE MASS      1.4686
 FORCE CONSTANT      2.6827

 VIBRATION         59   59A           ATOM PAIR      ENERGY CONTRIBUTION    RADIAL
 FREQUENCY          3135.11         C  8 -- H 22         +51.7% ( 73.6%)     99.9%
 TRANSITION DIPOLE   0.4044         C  6 -- H 18         +43.1% ( 67.2%)     99.9%
 TRAVEL (Ang.)       0.2136         C  6 -- C  8          +2.4% ( 16.0%)     99.7%
 REDUCED MASS        0.4712         C  5 -- C  8          +1.0% ( 10.4%)     24.3%
 EFFECTIVE MASS      1.6497
 FORCE CONSTANT      2.7288

 VIBRATION         60   60A           ATOM PAIR      ENERGY CONTRIBUTION    RADIAL
 FREQUENCY          3178.44         C  4 -- H 16         +34.4% ( 56.5%)     97.3%
 TRANSITION DIPOLE   0.0374         C  4 -- H 15         +32.7% ( 55.0%)     97.0%
 TRAVEL (Ang.)       0.2546         C  4 -- H 17         +32.6% ( 55.0%)     97.0%
 REDUCED MASS        0.3272         C  2 -- C  4          +0.3% (  5.1%)     99.9%
 EFFECTIVE MASS      1.1353
 FORCE CONSTANT      1.9476

      SYMMETRY NUMBER FOR POINT-GROUP C1  =  1


          SYSTEM IS A GROUND STATE



 InChI=1S/C10H12/c1-8-6-7-9-4-2-3-5-10(8)9/h2-4,6-8,10H,5H2,1H3


          MOLECULE IS NOT LINEAR

          THERE ARE 60 GENUINE VIBRATIONS IN THIS SYSTEM
          THIS THERMODYNAMICS CALCULATION IS LIMITED TO
          MOLECULES WHICH HAVE NO INTERNAL ROTATIONS




                    CALCULATED THERMODYNAMIC PROPERTIES
                                          *
   TEMP. (K)   PARTITION FUNCTION   H.O.F.    ENTHALPY  HEAT CAPACITY ENTROPY
                                   KCAL/MOL   CAL/MOLE    CAL/K/MOL  CAL/K/MOL


 298.00  VIB.     0.5286D+02                  3568.5337    28.4743    19.8593
         ROT.     0.5416D+06                   888.2803     2.9808    29.2163
         INT.     0.2863D+08                  4456.8140    31.4551    49.0756
         TRA.     0.1470D+28                  1480.4672     4.9680    40.5480
         TOT.                       33.324    5937.2812    36.4231    89.6236

 200.00  VIB.     0.8314D+01                  1385.2326    16.4111    11.1349
         ROT.     0.2978D+06                   596.1613     2.9808    28.0276
         INT.     0.2476D+07                  1981.3939    19.3919    39.1625
         TRA.     0.8080D+27                   993.6021     4.9680    38.5668
         TOT.                       30.362    2974.9960    24.3599    77.7294

 210.00  VIB.     0.9912D+01                  1554.9335    17.5344    11.9627
         ROT.     0.3204D+06                   625.9693     2.9808    28.1730
         INT.     0.3176D+07                  2180.9028    20.5152    40.1357
         TRA.     0.8694D+27                  1043.2822     4.9680    38.8092
         TOT.                       30.611    3224.1850    25.4832    78.9450

 220.00  VIB.     0.1186D+02                  1736.0257    18.6891    12.8049
         ROT.     0.3435D+06                   655.7774     2.9808    28.3117
         INT.     0.4073D+07                  2391.8031    21.6699    41.1166
         TRA.     0.9322D+27                  1092.9623     4.9680    39.0403
         TOT.                       30.871    3484.7655    26.6379    80.1570

 230.00  VIB.     0.1422D+02                  1928.8145    19.8734    13.6617
         ROT.     0.3672D+06                   685.5855     2.9808    28.4442
         INT.     0.5222D+07                  2614.3999    22.8542    42.1059
         TRA.     0.9965D+27                  1142.6424     4.9680    39.2612
         TOT.                       31.144    3757.0424    27.8222    81.3671

 240.00  VIB.     0.1711D+02                  2133.5829    21.0846    14.5330
         ROT.     0.3914D+06                   715.3935     2.9808    28.5711
         INT.     0.6697D+07                  2848.9764    24.0654    43.1041
         TRA.     0.1062D+28                  1192.3226     4.9680    39.4726
         TOT.                       31.428    4041.2990    29.0334    82.5767

 250.00  VIB.     0.2065D+02                  2350.5867    22.3199    15.4187
         ROT.     0.4161D+06                   745.2016     2.9808    28.6928
         INT.     0.8592D+07                  3095.7883    25.3007    44.1115
         TRA.     0.1129D+28                  1242.0027     4.9680    39.6754
         TOT.                       31.724    4337.7910    30.2687    83.7869

 260.00  VIB.     0.2498D+02                  2580.0498    23.5759    16.3185
         ROT.     0.4413D+06                   775.0097     2.9808    28.8097
         INT.     0.1103D+08                  3355.0595    26.5567    45.1282
         TRA.     0.1198D+28                  1291.6828     4.9680    39.8703
         TOT.                       32.033    4646.7422    31.5247    84.9984

 270.00  VIB.     0.3032D+02                  2822.1617    24.8490    17.2321
         ROT.     0.4671D+06                   804.8177     2.9808    28.9222
         INT.     0.1416D+08                  3626.9794    27.8299    46.1543
         TRA.     0.1267D+28                  1341.3629     4.9680    40.0578
         TOT.                       32.355    4968.3423    32.7979    86.2120

 280.00  VIB.     0.3689D+02                  3077.0758    26.1357    18.1590
         ROT.     0.4932D+06                   834.6258     2.9808    29.0306
         INT.     0.1819D+08                  3911.7016    29.1165    47.1896
         TRA.     0.1338D+28                  1391.0430     4.9680    40.2384
         TOT.                       32.689    5302.7446    34.0845    87.4280

 290.00  VIB.     0.4500D+02                  3344.9093    27.4323    19.0987
         ROT.     0.5199D+06                   864.4339     2.9808    29.1352
         INT.     0.2339D+08                  4209.3431    30.4131    48.2339
         TRA.     0.1411D+28                  1440.7231     4.9680    40.4128
         TOT.                       33.037    5650.0662    35.3811    88.6467

 300.00  VIB.     0.5504D+02                  3625.7432    28.7353    20.0507
         ROT.     0.5470D+06                   894.2419     2.9808    29.2362
         INT.     0.3011D+08                  4519.9851    31.7161    49.2869
         TRA.     0.1484D+28                  1490.4032     4.9680    40.5812
         TOT.                       33.397    6010.3883    36.6841    89.8681

 310.00  VIB.     0.6750D+02                  3919.6242    30.0412    21.0142
         ROT.     0.5746D+06                   924.0500     2.9808    29.3340
         INT.     0.3878D+08                  4843.6742    33.0220    50.3482
         TRA.     0.1559D+28                  1540.0833     4.9680    40.7441
         TOT.                       33.770    6383.7575    37.9900    91.0923

 320.00  VIB.     0.8298D+02                  4226.5658    31.3469    21.9886
         ROT.     0.6026D+06                   953.8580     2.9808    29.4286
         INT.     0.5000D+08                  5180.4239    34.3277    51.4172
         TRA.     0.1635D+28                  1589.7634     4.9680    40.9018
         TOT.                       34.157    6770.1873    39.2957    92.3190

 330.00  VIB.     0.1023D+03                  4546.5508    32.6494    22.9731
         ROT.     0.6311D+06                   983.6661     2.9808    29.5203
         INT.     0.6453D+08                  5530.2169    35.6302    52.4935
         TRA.     0.1713D+28                  1639.4435     4.9680    41.0547
         TOT.                       34.556    7169.6604    40.5982    93.5482

 340.00  VIB.     0.1263D+03                  4879.5336    33.9460    23.9671
         ROT.     0.6600D+06                  1013.4742     2.9808    29.6093
         INT.     0.8336D+08                  5893.0078    36.9268    53.5764
         TRA.     0.1791D+28                  1689.1236     4.9680    41.2030
         TOT.                       34.969    7582.1314    41.8948    94.7794

 350.00  VIB.     0.1564D+03                  5225.4429    35.2343    24.9697
         ROT.     0.6893D+06                  1043.2822     2.9808    29.6957
         INT.     0.1078D+09                  6268.7251    38.2151    54.6654
         TRA.     0.1871D+28                  1738.8037     4.9680    41.3470
         TOT.                       35.394    8007.5289    43.1831    96.0124

 360.00  VIB.     0.1940D+03                  5584.1840    36.5120    25.9802
         ROT.     0.7191D+06                  1073.0903     2.9808    29.7797
         INT.     0.1395D+09                  6657.2743    39.4928    55.7599
         TRA.     0.1951D+28                  1788.4838     4.9680    41.4870
         TOT.                       35.832    8445.7581    44.4608    97.2469

 370.00  VIB.     0.2413D+03                  5955.6418    37.7773    26.9979
         ROT.     0.7492D+06                  1102.8984     2.9808    29.8614
         INT.     0.1808D+09                  7058.5402    40.7581    56.8593
         TRA.     0.2033D+28                  1838.1639     4.9680    41.6231
         TOT.                       36.283    8896.7041    45.7261    98.4824

 380.00  VIB.     0.3006D+03                  6339.6833    39.0285    28.0220
         ROT.     0.7798D+06                  1132.7064     2.9808    29.9409
         INT.     0.2344D+09                  7472.3897    42.0093    57.9629
         TRA.     0.2116D+28                  1887.8440     4.9680    41.7556
         TOT.                       36.747    9360.2338    46.9773    99.7184

 390.00  VIB.     0.3753D+03                  6736.1597    40.2641    29.0518
         ROT.     0.8108D+06                  1162.5145     2.9808    30.0183
         INT.     0.3043D+09                  7898.6742    43.2449    59.0701
         TRA.     0.2200D+28                  1937.5242     4.9680    41.8846
         TOT.                       37.223    9836.1983    48.2129   100.9547

 400.00  VIB.     0.4694D+03                  7144.9092    41.4829    30.0866
         ROT.     0.8422D+06                  1192.3226     2.9808    30.0938
         INT.     0.3953D+09                  8337.2318    44.4637    60.1803
         TRA.     0.2285D+28                  1987.2043     4.9680    42.0104
         TOT.                       37.711   10324.4360    49.4317   102.1908

   *: NOTE: HEATS OF FORMATION ARE RELATIVE TO THE
            ELEMENTS IN THEIR STANDARD STATE AT 298K
              (=  Standard Enthalpy of Formation).

            Hvib:  Zero-point energy is not included.
                   frequencies of less than zero cm-1 are not included.
            Hrot = (3/2)RT
            Htra = (3/2)RT + pV = (5/2)RT

            Heat capacity is Cp, not Cv

          For more information, see: HTTP://OpenMOPAC.net/Manual/thermochemistry.html


           FORCE CONSTANT IN CARTESIAN COORDINATES (Millidynes/A)

    ATOM   CHEMICAL       X               Y               Z
   NUMBER   SYMBOL  FORCE CONSTANT  FORCE CONSTANT  FORCE CONSTANT

      1       C        8.138853        8.579164        8.536768
      2       C        7.683650        8.519127        8.891624
      3       C        8.566019        8.369983        8.389209
      4       C        8.406323        8.273103        8.315584
      5       C       15.257035        5.547347        7.761294
      6       C       14.258758        5.957602        6.746099
      7       C        9.339520       10.113454        7.258898
      8       C       11.732616        7.601897        8.393922
      9       C       12.541417        6.459000        8.453148
     10       C       10.555668        9.484597        7.341937
     11       H        1.196408        3.617488        1.160187
     12       H        1.175357        1.705107        3.073385
     13       H        0.671887        1.302818        4.378699
     14       H        1.649308        2.353669        2.218129
     15       H        1.053736        3.132655        2.564434
     16       H        5.375532        0.667382        0.723793
     17       H        1.138145        4.326479        1.307915
     18       H        4.806936        1.030566        0.571702
     19       H        2.490600        2.807510        0.964080
     20       H        4.690461        0.608753        0.968028
     21       H        0.955290        1.796487        3.518913
     22       H        0.686358        2.834030        2.885135

 **********************
 *                    *
 * JOB ENDED NORMALLY *
 *                    *
 **********************



 TOTAL JOB TIME:             2.63 SECONDS

 == MOPAC DONE ==
