 *******************************************************************************
 **                                                                           **
 **                              MOPAC v23.1.2                                **
 **                                                                           **
 *******************************************************************************
 **          Digital Object Identifier (DOI): 10.5281/zenodo.6511958          **
 **    Visit the DOI location for information on how to cite this program.    **
 *******************************************************************************

                              PM3 CALCULATION RESULTS

 *******************************************************************************
 *  CALCULATION DONE: (MAX THREADS = 1)              Tue Jun  3 16:43:32 2025  *
 *  PM3        - The PM3 Hamiltonian to be used
 *  PRECISE    - TIGHTER CRITERIA TO BE USED
 *  NOSYM      - POINT-GROUP SYMMETRY SET TO C1
 *  THREADS=1  - MULTI-THREADING NOT USED
 *  T=         - A TIME OF 172800.0 SECONDS REQUESTED
 *  DUMP=N     - RESTART FILE WRITTEN EVERY 7200.0 SECONDS REQUESTED
 *******************************************************************************
pm3  precise nosym THREADS=1
 InChI=1S/C12H20/c1-3-9-5-11(6-9)12-7-10(4-2)8-12/h5,10-12H,3-4,6-8H2,1-2H3

   ATOM   CHEMICAL          X               Y               Z
  NUMBER   SYMBOL      (ANGSTROMS)     (ANGSTROMS)     (ANGSTROMS)

     1       C         -0.24650000  *  -0.05730000  *  -0.84310000  *
     2       C         -2.38270000  *   0.09270000  *  -1.14670000  *
     3       C          0.45150000  *   0.13670000  *   0.51960000  *
     4       C         -1.41740000  *  -1.03870000  *  -0.78760000  *
     5       C         -1.21220000  *   1.07490000  *  -1.19490000  *
     6       C         -3.40650000  *   0.42230000  *  -0.04630000  *
     7       C          1.37520000  *  -0.90950000  *   0.86610000  *
     8       C          3.97730000  *  -0.00290000  *   0.96110000  *
     9       C         -4.51910000  *  -0.62100000  *   0.00790000  *
    10       C          4.70660000  *   0.31770000  *  -0.33780000  *
    11       C          2.49620000  *   0.07420000  *   0.76790000  *
    12       C          1.60060000  *   1.08910000  *   0.42870000  *
    13       H         -2.84940000  *  -0.04530000  *  -2.14800000  *
    14       H          0.45480000  *  -0.28400000  *  -1.67910000  *
    15       H         -0.24140000  *   0.40370000  *   1.35010000  *
    16       H         -2.91040000  *   0.48300000  *   0.94760000  *
    17       H         -3.86100000  *   1.41300000  *  -0.26360000  *
    18       H         -1.58650000  *  -1.47800000  *   0.22100000  *
    19       H         -1.35730000  *  -1.80610000  *  -1.58970000  *
    20       H         -1.03810000  *   1.46770000  *  -2.22040000  *
    21       H         -1.26400000  *   1.87920000  *  -0.42680000  *
    22       H          4.28060000  *   0.71900000  *   1.74860000  *
    23       H          4.24900000  *  -1.02730000  *   1.29310000  *
    24       H          1.24630000  *  -1.27990000  *   1.90700000  *
    25       H          1.47770000  *  -1.72290000  *   0.11320000  *
    26       H         -5.04750000  *  -0.67170000  *  -0.96790000  *
    27       H         -4.10340000  *  -1.62150000  *   0.25130000  *
    28       H         -5.25180000  *  -0.34180000  *   0.79400000  *
    29       H          4.46660000  *   1.35020000  *  -0.67070000  *
    30       H          5.80260000  *   0.24200000  *  -0.17680000  *
    31       H          4.41240000  *  -0.40170000  *  -1.13190000  *
    32       H          1.69780000  *   2.14420000  *   0.19660000  *



          CARTESIAN COORDINATES 

    NO.       ATOM           X           Y           Z

     1         C         -0.2465     -0.0573     -0.8431
     2         C         -2.3827      0.0927     -1.1467
     3         C          0.4515      0.1367      0.5196
     4         C         -1.4174     -1.0387     -0.7876
     5         C         -1.2122      1.0749     -1.1949
     6         C         -3.4065      0.4223     -0.0463
     7         C          1.3752     -0.9095      0.8661
     8         C          3.9773     -0.0029      0.9611
     9         C         -4.5191     -0.6210      0.0079
    10         C          4.7066      0.3177     -0.3378
    11         C          2.4962      0.0742      0.7679
    12         C          1.6006      1.0891      0.4287
    13         H         -2.8494     -0.0453     -2.1480
    14         H          0.4548     -0.2840     -1.6791
    15         H         -0.2414      0.4037      1.3501
    16         H         -2.9104      0.4830      0.9476
    17         H         -3.8610      1.4130     -0.2636
    18         H         -1.5865     -1.4780      0.2210
    19         H         -1.3573     -1.8061     -1.5897
    20         H         -1.0381      1.4677     -2.2204
    21         H         -1.2640      1.8792     -0.4268
    22         H          4.2806      0.7190      1.7486
    23         H          4.2490     -1.0273      1.2931
    24         H          1.2463     -1.2799      1.9070
    25         H          1.4777     -1.7229      0.1132
    26         H         -5.0475     -0.6717     -0.9679
    27         H         -4.1034     -1.6215      0.2513
    28         H         -5.2518     -0.3418      0.7940
    29         H          4.4666      1.3502     -0.6707
    30         H          5.8026      0.2420     -0.1768
    31         H          4.4124     -0.4017     -1.1319
    32         H          1.6978      2.1442      0.1966

  H: (PM3): J. J. P. STEWART, J. COMP. CHEM. 10, 209 (1989).
  C: (PM3): J. J. P. STEWART, J. COMP. CHEM. 10, 209 (1989).

           Empirical Formula: C12 H20  =    32 atoms



      MOLECULAR POINT GROUP   :   C1  


      RHF CALCULATION, NO. OF DOUBLY OCCUPIED LEVELS = 34


          Geometry optimization using EF

          DIAGONAL MATRIX USED AS START HESSIAN

 CYCLE:     1 TIME:   0.016 TIME LEFT:  2.00D  GRAD.:   221.570 HEAT:  28.37514
 CYCLE:     2 TIME:   0.012 TIME LEFT:  2.00D  GRAD.:   221.917 HEAT:  27.21255
 CYCLE:     3 TIME:   0.016 TIME LEFT:  2.00D  GRAD.:   117.499 HEAT:  18.42099
 CYCLE:     4 TIME:   0.020 TIME LEFT:  2.00D  GRAD.:    61.454 HEAT:  15.45345
 CYCLE:     5 TIME:   0.012 TIME LEFT:  2.00D  GRAD.:    54.733 HEAT:  14.41211
 CYCLE:     6 TIME:   0.020 TIME LEFT:  2.00D  GRAD.:    56.583 HEAT:  13.95692
 CYCLE:     7 TIME:   0.008 TIME LEFT:  2.00D  GRAD.:    36.575 HEAT:  13.29238
 CYCLE:     8 TIME:   0.020 TIME LEFT:  2.00D  GRAD.:    28.082 HEAT:  12.95935
 CYCLE:     9 TIME:   0.012 TIME LEFT:  2.00D  GRAD.:    28.150 HEAT:  12.81813
 CYCLE:    10 TIME:   0.012 TIME LEFT:  2.00D  GRAD.:    31.701 HEAT:  12.76267
 CYCLE:    11 TIME:   0.016 TIME LEFT:  2.00D  GRAD.:    13.170 HEAT:  12.51297
 CYCLE:    12 TIME:   0.020 TIME LEFT:  2.00D  GRAD.:    11.000 HEAT:  12.47456
 CYCLE:    13 TIME:   0.008 TIME LEFT:  2.00D  GRAD.:     7.299 HEAT:  12.41923
 CYCLE:    14 TIME:   0.020 TIME LEFT:  2.00D  GRAD.:     9.115 HEAT:  12.39453
 CYCLE:    15 TIME:   0.012 TIME LEFT:  2.00D  GRAD.:     8.590 HEAT:  12.36692
 CYCLE:    16 TIME:   0.008 TIME LEFT:  2.00D  GRAD.:    12.550 HEAT:  12.36031
 CYCLE:    17 TIME:   0.012 TIME LEFT:  2.00D  GRAD.:    11.429 HEAT:  12.34595
 CYCLE:    18 TIME:   0.020 TIME LEFT:  2.00D  GRAD.:     7.109 HEAT:  12.31795
 CYCLE:    19 TIME:   0.016 TIME LEFT:  2.00D  GRAD.:     3.083 HEAT:  12.30453
 CYCLE:    20 TIME:   0.008 TIME LEFT:  2.00D  GRAD.:     4.033 HEAT:  12.30003
 CYCLE:    21 TIME:   0.020 TIME LEFT:  2.00D  GRAD.:     4.560 HEAT:  12.29529
 CYCLE:    22 TIME:   0.016 TIME LEFT:  2.00D  GRAD.:     4.551 HEAT:  12.29028
 CYCLE:    23 TIME:   0.012 TIME LEFT:  2.00D  GRAD.:     4.064 HEAT:  12.28343
 CYCLE:    24 TIME:   0.012 TIME LEFT:  2.00D  GRAD.:     5.621 HEAT:  12.28247
 CYCLE:    25 TIME:   0.012 TIME LEFT:  2.00D  GRAD.:     6.542 HEAT:  12.28110
 CYCLE:    26 TIME:   0.008 TIME LEFT:  2.00D  GRAD.:     6.270 HEAT:  12.27793
 CYCLE:    27 TIME:   0.012 TIME LEFT:  2.00D  GRAD.:     6.358 HEAT:  12.27526
 CYCLE:    28 TIME:   0.012 TIME LEFT:  2.00D  GRAD.:     5.548 HEAT:  12.27127
 CYCLE:    29 TIME:   0.012 TIME LEFT:  2.00D  GRAD.:     4.144 HEAT:  12.26420
 CYCLE:    30 TIME:   0.008 TIME LEFT:  2.00D  GRAD.:     4.250 HEAT:  12.26311
 CYCLE:    31 TIME:   0.012 TIME LEFT:  2.00D  GRAD.:     3.048 HEAT:  12.25824
 CYCLE:    32 TIME:   0.012 TIME LEFT:  2.00D  GRAD.:     2.779 HEAT:  12.25585
 CYCLE:    33 TIME:   0.008 TIME LEFT:  2.00D  GRAD.:     2.693 HEAT:  12.25298
 CYCLE:    34 TIME:   0.012 TIME LEFT:  2.00D  GRAD.:     2.574 HEAT:  12.24899
 CYCLE:    35 TIME:   0.008 TIME LEFT:  2.00D  GRAD.:     2.527 HEAT:  12.24305
 CYCLE:    36 TIME:   0.012 TIME LEFT:  2.00D  GRAD.:     3.525 HEAT:  12.23557
 CYCLE:    37 TIME:   0.012 TIME LEFT:  2.00D  GRAD.:     3.731 HEAT:  12.23083
 CYCLE:    38 TIME:   0.012 TIME LEFT:  2.00D  GRAD.:     2.349 HEAT:  12.22444
 CYCLE:    39 TIME:   0.008 TIME LEFT:  2.00D  GRAD.:     3.543 HEAT:  12.21990
 CYCLE:    40 TIME:   0.016 TIME LEFT:  2.00D  GRAD.:     3.068 HEAT:  12.21161
 CYCLE:    41 TIME:   0.008 TIME LEFT:  2.00D  GRAD.:     2.778 HEAT:  12.19980
 CYCLE:    42 TIME:   0.012 TIME LEFT:  2.00D  GRAD.:     2.537 HEAT:  12.19409
 CYCLE:    43 TIME:   0.012 TIME LEFT:  2.00D  GRAD.:     2.143 HEAT:  12.18876
 CYCLE:    44 TIME:   0.012 TIME LEFT:  2.00D  GRAD.:     2.694 HEAT:  12.18371
 CYCLE:    45 TIME:   0.008 TIME LEFT:  2.00D  GRAD.:     2.109 HEAT:  12.17881
 CYCLE:    46 TIME:   0.012 TIME LEFT:  2.00D  GRAD.:     1.721 HEAT:  12.17548
 CYCLE:    47 TIME:   0.012 TIME LEFT:  2.00D  GRAD.:     1.628 HEAT:  12.17166
 CYCLE:    48 TIME:   0.008 TIME LEFT:  2.00D  GRAD.:     1.724 HEAT:  12.16528
 CYCLE:    49 TIME:   0.012 TIME LEFT:  2.00D  GRAD.:     1.236 HEAT:  12.16254
 CYCLE:    50 TIME:   0.012 TIME LEFT:  2.00D  GRAD.:     1.168 HEAT:  12.16061
 CYCLE:    51 TIME:   0.008 TIME LEFT:  2.00D  GRAD.:     1.322 HEAT:  12.15797
 CYCLE:    52 TIME:   0.012 TIME LEFT:  2.00D  GRAD.:     1.400 HEAT:  12.15478
 CYCLE:    53 TIME:   0.012 TIME LEFT:  2.00D  GRAD.:     1.048 HEAT:  12.15274
 CYCLE:    54 TIME:   0.012 TIME LEFT:  2.00D  GRAD.:     0.827 HEAT:  12.15106
 CYCLE:    55 TIME:   0.012 TIME LEFT:  2.00D  GRAD.:     0.765 HEAT:  12.14981
 CYCLE:    56 TIME:   0.012 TIME LEFT:  2.00D  GRAD.:     0.617 HEAT:  12.14909
 CYCLE:    57 TIME:   0.008 TIME LEFT:  2.00D  GRAD.:     0.573 HEAT:  12.14841
 CYCLE:    58 TIME:   0.012 TIME LEFT:  2.00D  GRAD.:     0.679 HEAT:  12.14773
 CYCLE:    59 TIME:   0.012 TIME LEFT:  2.00D  GRAD.:     0.593 HEAT:  12.14716
 CYCLE:    60 TIME:   0.012 TIME LEFT:  2.00D  GRAD.:     0.489 HEAT:  12.14669
 CYCLE:    61 TIME:   0.012 TIME LEFT:  2.00D  GRAD.:     0.440 HEAT:  12.14632
 CYCLE:    62 TIME:   0.008 TIME LEFT:  2.00D  GRAD.:     0.399 HEAT:  12.14600
 CYCLE:    63 TIME:   0.012 TIME LEFT:  2.00D  GRAD.:     0.309 HEAT:  12.14572
 CYCLE:    64 TIME:   0.012 TIME LEFT:  2.00D  GRAD.:     0.284 HEAT:  12.14553
 CYCLE:    65 TIME:   0.012 TIME LEFT:  2.00D  GRAD.:     0.320 HEAT:  12.14533
 CYCLE:    66 TIME:   0.008 TIME LEFT:  2.00D  GRAD.:     0.329 HEAT:  12.14512
 CYCLE:    67 TIME:   0.012 TIME LEFT:  2.00D  GRAD.:     0.293 HEAT:  12.14490
 CYCLE:    68 TIME:   0.012 TIME LEFT:  2.00D  GRAD.:     0.296 HEAT:  12.14466
 CYCLE:    69 TIME:   0.012 TIME LEFT:  2.00D  GRAD.:     0.339 HEAT:  12.14439
 CYCLE:    70 TIME:   0.012 TIME LEFT:  2.00D  GRAD.:     0.347 HEAT:  12.14412
 CYCLE:    71 TIME:   0.012 TIME LEFT:  2.00D  GRAD.:     0.322 HEAT:  12.14386
 CYCLE:    72 TIME:   0.008 TIME LEFT:  2.00D  GRAD.:     0.317 HEAT:  12.14360
 CYCLE:    73 TIME:   0.012 TIME LEFT:  2.00D  GRAD.:     0.350 HEAT:  12.14330
 CYCLE:    74 TIME:   0.012 TIME LEFT:  2.00D  GRAD.:     0.351 HEAT:  12.14300
 CYCLE:    75 TIME:   0.012 TIME LEFT:  2.00D  GRAD.:     0.288 HEAT:  12.14272
 CYCLE:    76 TIME:   0.012 TIME LEFT:  2.00D  GRAD.:     0.233 HEAT:  12.14252
 CYCLE:    77 TIME:   0.008 TIME LEFT:  2.00D  GRAD.:     0.225 HEAT:  12.14236
 CYCLE:    78 TIME:   0.012 TIME LEFT:  2.00D  GRAD.:     0.231 HEAT:  12.14223
 CYCLE:    79 TIME:   0.012 TIME LEFT:  2.00D  GRAD.:     0.224 HEAT:  12.14211
 CYCLE:    80 TIME:   0.012 TIME LEFT:  2.00D  GRAD.:     0.214 HEAT:  12.14200
 CYCLE:    81 TIME:   0.012 TIME LEFT:  2.00D  GRAD.:     0.218 HEAT:  12.14189
 CYCLE:    82 TIME:   0.012 TIME LEFT:  2.00D  GRAD.:     0.210 HEAT:  12.14179
 CYCLE:    83 TIME:   0.012 TIME LEFT:  2.00D  GRAD.:     0.193 HEAT:  12.14169
 CYCLE:    84 TIME:   0.008 TIME LEFT:  2.00D  GRAD.:     0.178 HEAT:  12.14161
 CYCLE:    85 TIME:   0.012 TIME LEFT:  2.00D  GRAD.:     0.229 HEAT:  12.14152
 CYCLE:    86 TIME:   0.012 TIME LEFT:  2.00D  GRAD.:     0.224 HEAT:  12.14143
 CYCLE:    87 TIME:   0.012 TIME LEFT:  2.00D  GRAD.:     0.214 HEAT:  12.14122
 CYCLE:    88 TIME:   0.012 TIME LEFT:  2.00D  GRAD.:     0.228 HEAT:  12.14110
 CYCLE:    89 TIME:   0.008 TIME LEFT:  2.00D  GRAD.:     0.266 HEAT:  12.14088
 CYCLE:    90 TIME:   0.012 TIME LEFT:  2.00D  GRAD.:     0.238 HEAT:  12.14078
 CYCLE:    91 TIME:   0.012 TIME LEFT:  2.00D  GRAD.:     0.441 HEAT:  12.14078
 CYCLE:    92 TIME:   0.008 TIME LEFT:  2.00D  GRAD.:     0.222 HEAT:  12.14043
 CYCLE:    93 TIME:   0.012 TIME LEFT:  2.00D  GRAD.:     0.186 HEAT:  12.14029
 CYCLE:    94 TIME:   0.012 TIME LEFT:  2.00D  GRAD.:     0.211 HEAT:  12.14007
 CYCLE:    95 TIME:   0.012 TIME LEFT:  2.00D  GRAD.:     0.239 HEAT:  12.13990
 CYCLE:    96 TIME:   0.012 TIME LEFT:  2.00D  GRAD.:     0.268 HEAT:  12.13968
 CYCLE:    97 TIME:   0.012 TIME LEFT:  2.00D  GRAD.:     0.271 HEAT:  12.13953
 CYCLE:    98 TIME:   0.016 TIME LEFT:  2.00D  GRAD.:     0.325 HEAT:  12.13915
 CYCLE:    99 TIME:   0.008 TIME LEFT:  2.00D  GRAD.:     0.297 HEAT:  12.13894
 CYCLE:   100 TIME:   0.012 TIME LEFT:  2.00D  GRAD.:     0.415 HEAT:  12.13840
 CYCLE:   101 TIME:   0.012 TIME LEFT:  2.00D  GRAD.:     0.313 HEAT:  12.13821
 CYCLE:   102 TIME:   0.012 TIME LEFT:  2.00D  GRAD.:     0.228 HEAT:  12.13780
 CYCLE:   103 TIME:   0.012 TIME LEFT:  2.00D  GRAD.:     0.180 HEAT:  12.13763
 CYCLE:   104 TIME:   0.008 TIME LEFT:  2.00D  GRAD.:     0.186 HEAT:  12.13749
 CYCLE:   105 TIME:   0.012 TIME LEFT:  2.00D  GRAD.:     0.135 HEAT:  12.13742
 CYCLE:   106 TIME:   0.012 TIME LEFT:  2.00D  GRAD.:     0.175 HEAT:  12.13745
 CYCLE:   107 TIME:   0.012 TIME LEFT:  2.00D  GRAD.:     0.112 HEAT:  12.13734
 CYCLE:   108 TIME:   0.012 TIME LEFT:  2.00D  GRAD.:     0.154 HEAT:  12.13733
 CYCLE:   109 TIME:   0.012 TIME LEFT:  2.00D  GRAD.:     0.116 HEAT:  12.13724
 CYCLE:   110 TIME:   0.012 TIME LEFT:  2.00D  GRAD.:     0.282 HEAT:  12.13758
 CYCLE:   111 TIME:   0.012 TIME LEFT:  2.00D  GRAD.:     0.132 HEAT:  12.13707
 CYCLE:   112 TIME:   0.012 TIME LEFT:  2.00D  GRAD.:     0.157 HEAT:  12.13704
 CYCLE:   113 TIME:   0.008 TIME LEFT:  2.00D  GRAD.:     0.150 HEAT:  12.13695
 CYCLE:   114 TIME:   0.012 TIME LEFT:  2.00D  GRAD.:     0.222 HEAT:  12.13676
 CYCLE:   115 TIME:   0.012 TIME LEFT:  2.00D  GRAD.:     0.228 HEAT:  12.13664
 CYCLE:   116 TIME:   0.012 TIME LEFT:  2.00D  GRAD.:     0.715 HEAT:  12.13704
 CYCLE:   117 TIME:   0.012 TIME LEFT:  2.00D  GRAD.:     0.309 HEAT:  12.13613
 CYCLE:   118 TIME:   0.008 TIME LEFT:  2.00D  GRAD.:     0.275 HEAT:  12.13599
 CYCLE:   119 TIME:   0.012 TIME LEFT:  2.00D  GRAD.:     0.477 HEAT:  12.13563
 CYCLE:   120 TIME:   0.012 TIME LEFT:  2.00D  GRAD.:     0.301 HEAT:  12.13494
 CYCLE:   121 TIME:   0.012 TIME LEFT:  2.00D  GRAD.:     0.439 HEAT:  12.13437
 CYCLE:   122 TIME:   0.012 TIME LEFT:  2.00D  GRAD.:     0.382 HEAT:  12.13395
 CYCLE:   123 TIME:   0.012 TIME LEFT:  2.00D  GRAD.:     0.580 HEAT:  12.13311
 CYCLE:   124 TIME:   0.012 TIME LEFT:  2.00D  GRAD.:     0.292 HEAT:  12.13273
 CYCLE:   125 TIME:   0.008 TIME LEFT:  2.00D  GRAD.:     0.228 HEAT:  12.13249
 CYCLE:   126 TIME:   0.012 TIME LEFT:  2.00D  GRAD.:     0.271 HEAT:  12.13202
 CYCLE:   127 TIME:   0.012 TIME LEFT:  2.00D  GRAD.:     0.296 HEAT:  12.13178
 CYCLE:   128 TIME:   0.012 TIME LEFT:  2.00D  GRAD.:     0.677 HEAT:  12.13207
 CYCLE:   129 TIME:   0.012 TIME LEFT:  2.00D  GRAD.:     0.327 HEAT:  12.13133
 CYCLE:   130 TIME:   0.012 TIME LEFT:  2.00D  GRAD.:     0.250 HEAT:  12.13119
 CYCLE:   131 TIME:   0.012 TIME LEFT:  2.00D  GRAD.:     0.570 HEAT:  12.13067
 CYCLE:   132 TIME:   0.012 TIME LEFT:  2.00D  GRAD.:     0.325 HEAT:  12.13046
 CYCLE:   133 TIME:   0.012 TIME LEFT:  2.00D  GRAD.:     0.245 HEAT:  12.13024
 CYCLE:   134 TIME:   0.012 TIME LEFT:  2.00D  GRAD.:     0.249 HEAT:  12.13010
 CYCLE:   135 TIME:   0.012 TIME LEFT:  2.00D  GRAD.:     2.606 HEAT:  12.13549
 CYCLE:   136 TIME:   0.012 TIME LEFT:  2.00D  GRAD.:     0.472 HEAT:  12.12915
 CYCLE:   137 TIME:   0.008 TIME LEFT:  2.00D  GRAD.:     0.372 HEAT:  12.12884
 CYCLE:   138 TIME:   0.012 TIME LEFT:  2.00D  GRAD.:     0.652 HEAT:  12.12776
 CYCLE:   139 TIME:   0.012 TIME LEFT:  2.00D  GRAD.:     0.594 HEAT:  12.12724
 CYCLE:   140 TIME:   0.012 TIME LEFT:  2.00D  GRAD.:     2.403 HEAT:  12.12838
 CYCLE:   141 TIME:   0.012 TIME LEFT:  2.00D  GRAD.:     1.117 HEAT:  12.12439
 CYCLE:   142 TIME:   0.012 TIME LEFT:  2.00D  GRAD.:     0.809 HEAT:  12.12281
 CYCLE:   143 TIME:   0.012 TIME LEFT:  2.00D  GRAD.:     4.796 HEAT:  12.12810
 CYCLE:   144 TIME:   0.012 TIME LEFT:  2.00D  GRAD.:     0.790 HEAT:  12.11666
 CYCLE:   145 TIME:   0.012 TIME LEFT:  2.00D  GRAD.:     0.831 HEAT:  12.11360
 CYCLE:   146 TIME:   0.020 TIME LEFT:  2.00D  GRAD.:     2.534 HEAT:  12.09964
 CYCLE:   147 TIME:   0.012 TIME LEFT:  2.00D  GRAD.:     3.196 HEAT:  12.09342
 CYCLE:   148 TIME:   0.012 TIME LEFT:  2.00D  GRAD.:     1.635 HEAT:  12.08833
 CYCLE:   149 TIME:   0.016 TIME LEFT:  2.00D  GRAD.:     2.820 HEAT:  12.07995
 CYCLE:   150 TIME:   0.012 TIME LEFT:  2.00D  GRAD.:     2.392 HEAT:  12.07334
 CYCLE:   151 TIME:   0.012 TIME LEFT:  2.00D  GRAD.:     1.235 HEAT:  12.06855
 CYCLE:   152 TIME:   0.012 TIME LEFT:  2.00D  GRAD.:     2.398 HEAT:  12.06568
 CYCLE:   153 TIME:   0.012 TIME LEFT:  2.00D  GRAD.:     0.975 HEAT:  12.06261
 CYCLE:   154 TIME:   0.012 TIME LEFT:  2.00D  GRAD.:     1.146 HEAT:  12.06065
 CYCLE:   155 TIME:   0.016 TIME LEFT:  2.00D  GRAD.:     2.263 HEAT:  12.05447
 CYCLE:   156 TIME:   0.012 TIME LEFT:  2.00D  GRAD.:     2.267 HEAT:  12.04843
 CYCLE:   157 TIME:   0.012 TIME LEFT:  2.00D  GRAD.:     1.407 HEAT:  12.04064
 CYCLE:   158 TIME:   0.012 TIME LEFT:  2.00D  GRAD.:     2.206 HEAT:  12.03801
 CYCLE:   159 TIME:   0.012 TIME LEFT:  2.00D  GRAD.:     1.751 HEAT:  12.03245
 CYCLE:   160 TIME:   0.012 TIME LEFT:  2.00D  GRAD.:     1.893 HEAT:  12.02545
 CYCLE:   161 TIME:   0.012 TIME LEFT:  2.00D  GRAD.:     1.971 HEAT:  12.01719
 CYCLE:   162 TIME:   0.012 TIME LEFT:  2.00D  GRAD.:     2.386 HEAT:  12.00739
 CYCLE:   163 TIME:   0.012 TIME LEFT:  2.00D  GRAD.:     2.157 HEAT:  11.99890
 CYCLE:   164 TIME:   0.012 TIME LEFT:  2.00D  GRAD.:     4.371 HEAT:  11.99866
 CYCLE:   165 TIME:   0.012 TIME LEFT:  2.00D  GRAD.:     3.669 HEAT:  11.98729
 CYCLE:   166 TIME:   0.012 TIME LEFT:  2.00D  GRAD.:     1.366 HEAT:  11.98115
 CYCLE:   167 TIME:   0.012 TIME LEFT:  2.00D  GRAD.:     1.224 HEAT:  11.97318
 CYCLE:   168 TIME:   0.012 TIME LEFT:  2.00D  GRAD.:     3.378 HEAT:  11.96630
 CYCLE:   169 TIME:   0.012 TIME LEFT:  2.00D  GRAD.:     1.988 HEAT:  11.95899
 CYCLE:   170 TIME:   0.008 TIME LEFT:  2.00D  GRAD.:     1.403 HEAT:  11.95098
 CYCLE:   171 TIME:   0.016 TIME LEFT:  2.00D  GRAD.:     2.071 HEAT:  11.94240
 CYCLE:   172 TIME:   0.008 TIME LEFT:  2.00D  GRAD.:     1.505 HEAT:  11.93663
 CYCLE:   173 TIME:   0.012 TIME LEFT:  2.00D  GRAD.:     1.934 HEAT:  11.93202
 CYCLE:   174 TIME:   0.012 TIME LEFT:  2.00D  GRAD.:     2.010 HEAT:  11.92606
 CYCLE:   175 TIME:   0.012 TIME LEFT:  2.00D  GRAD.:     1.810 HEAT:  11.92028
 CYCLE:   176 TIME:   0.012 TIME LEFT:  2.00D  GRAD.:     2.055 HEAT:  11.91507
 CYCLE:   177 TIME:   0.012 TIME LEFT:  2.00D  GRAD.:     2.177 HEAT:  11.91202
 CYCLE:   178 TIME:   0.012 TIME LEFT:  2.00D  GRAD.:     2.213 HEAT:  11.90852
 CYCLE:   179 TIME:   0.012 TIME LEFT:  2.00D  GRAD.:     1.255 HEAT:  11.90480
 CYCLE:   180 TIME:   0.012 TIME LEFT:  2.00D  GRAD.:     0.963 HEAT:  11.90311
 CYCLE:   181 TIME:   0.008 TIME LEFT:  2.00D  GRAD.:     1.384 HEAT:  11.90157
 CYCLE:   182 TIME:   0.012 TIME LEFT:  2.00D  GRAD.:     1.181 HEAT:  11.89919
 CYCLE:   183 TIME:   0.016 TIME LEFT:  2.00D  GRAD.:     1.007 HEAT:  11.89716
 CYCLE:   184 TIME:   0.012 TIME LEFT:  2.00D  GRAD.:     1.187 HEAT:  11.89645
 CYCLE:   185 TIME:   0.012 TIME LEFT:  2.00D  GRAD.:     2.018 HEAT:  11.89649
 CYCLE:   186 TIME:   0.012 TIME LEFT:  2.00D  GRAD.:     1.089 HEAT:  11.89478
 CYCLE:   187 TIME:   0.012 TIME LEFT:  2.00D  GRAD.:     0.674 HEAT:  11.89392
 CYCLE:   188 TIME:   0.008 TIME LEFT:  2.00D  GRAD.:     0.636 HEAT:  11.89274
 CYCLE:   189 TIME:   0.016 TIME LEFT:  2.00D  GRAD.:     0.993 HEAT:  11.89032
 CYCLE:   190 TIME:   0.012 TIME LEFT:  2.00D  GRAD.:     1.138 HEAT:  11.88874
 CYCLE:   191 TIME:   0.012 TIME LEFT:  2.00D  GRAD.:     1.133 HEAT:  11.88722
 CYCLE:   192 TIME:   0.012 TIME LEFT:  2.00D  GRAD.:     1.691 HEAT:  11.88518
 CYCLE:   193 TIME:   0.008 TIME LEFT:  2.00D  GRAD.:     1.643 HEAT:  11.88209
 CYCLE:   194 TIME:   0.012 TIME LEFT:  2.00D  GRAD.:     1.478 HEAT:  11.87768
 CYCLE:   195 TIME:   0.012 TIME LEFT:  2.00D  GRAD.:     1.324 HEAT:  11.87458
 CYCLE:   196 TIME:   0.012 TIME LEFT:  2.00D  GRAD.:     1.661 HEAT:  11.87292
 CYCLE:   197 TIME:   0.012 TIME LEFT:  2.00D  GRAD.:     1.206 HEAT:  11.87139
 CYCLE:   198 TIME:   0.012 TIME LEFT:  2.00D  GRAD.:     1.070 HEAT:  11.86982
 CYCLE:   199 TIME:   0.012 TIME LEFT:  2.00D  GRAD.:     1.262 HEAT:  11.86730
 CYCLE:   200 TIME:   0.012 TIME LEFT:  2.00D  GRAD.:     1.449 HEAT:  11.86408
 CYCLE:   201 TIME:   0.012 TIME LEFT:  2.00D  GRAD.:     1.700 HEAT:  11.86043
 CYCLE:   202 TIME:   0.012 TIME LEFT:  2.00D  GRAD.:     1.683 HEAT:  11.85602
 CYCLE:   203 TIME:   0.012 TIME LEFT:  2.00D  GRAD.:     2.015 HEAT:  11.84832
 CYCLE:   204 TIME:   0.012 TIME LEFT:  2.00D  GRAD.:     2.323 HEAT:  11.83968
 CYCLE:   205 TIME:   0.012 TIME LEFT:  2.00D  GRAD.:     2.194 HEAT:  11.83006
 CYCLE:   206 TIME:   0.012 TIME LEFT:  2.00D  GRAD.:     2.221 HEAT:  11.82084
 CYCLE:   207 TIME:   0.008 TIME LEFT:  2.00D  GRAD.:     2.309 HEAT:  11.81266
 CYCLE:   208 TIME:   0.012 TIME LEFT:  2.00D  GRAD.:     1.903 HEAT:  11.80575
 CYCLE:   209 TIME:   0.016 TIME LEFT:  2.00D  GRAD.:     1.807 HEAT:  11.80102
 CYCLE:   210 TIME:   0.012 TIME LEFT:  2.00D  GRAD.:     1.025 HEAT:  11.79803
 CYCLE:   211 TIME:   0.008 TIME LEFT:  2.00D  GRAD.:     0.966 HEAT:  11.79594
 CYCLE:   212 TIME:   0.012 TIME LEFT:  2.00D  GRAD.:     0.818 HEAT:  11.79451
 CYCLE:   213 TIME:   0.012 TIME LEFT:  2.00D  GRAD.:     0.583 HEAT:  11.79391
 CYCLE:   214 TIME:   0.012 TIME LEFT:  2.00D  GRAD.:     0.346 HEAT:  11.79366
 CYCLE:   215 TIME:   0.012 TIME LEFT:  2.00D  GRAD.:     0.252 HEAT:  11.79356
 CYCLE:   216 TIME:   0.012 TIME LEFT:  2.00D  GRAD.:     0.211 HEAT:  11.79350
 CYCLE:   217 TIME:   0.008 TIME LEFT:  2.00D  GRAD.:     0.206 HEAT:  11.79343
 CYCLE:   218 TIME:   0.012 TIME LEFT:  2.00D  GRAD.:     0.186 HEAT:  11.79336
 CYCLE:   219 TIME:   0.012 TIME LEFT:  2.00D  GRAD.:     0.178 HEAT:  11.79330
 CYCLE:   220 TIME:   0.012 TIME LEFT:  2.00D  GRAD.:     0.196 HEAT:  11.79322
 CYCLE:   221 TIME:   0.012 TIME LEFT:  2.00D  GRAD.:     0.254 HEAT:  11.79311
 CYCLE:   222 TIME:   0.012 TIME LEFT:  2.00D  GRAD.:     0.345 HEAT:  11.79293
 CYCLE:   223 TIME:   0.012 TIME LEFT:  2.00D  GRAD.:     0.532 HEAT:  11.79259
 CYCLE:   224 TIME:   0.012 TIME LEFT:  2.00D  GRAD.:     0.486 HEAT:  11.79230
 CYCLE:   225 TIME:   0.012 TIME LEFT:  2.00D  GRAD.:     2.287 HEAT:  11.79623
 CYCLE:   226 TIME:   0.012 TIME LEFT:  2.00D  GRAD.:     0.340 HEAT:  11.79139
 CYCLE:   227 TIME:   0.012 TIME LEFT:  2.00D  GRAD.:     0.362 HEAT:  11.79117
 CYCLE:   228 TIME:   0.012 TIME LEFT:  2.00D  GRAD.:     0.565 HEAT:  11.79076
 CYCLE:   229 TIME:   0.008 TIME LEFT:  2.00D  GRAD.:     0.622 HEAT:  11.79054
 CYCLE:   230 TIME:   0.012 TIME LEFT:  2.00D  GRAD.:     0.377 HEAT:  11.79010
 CYCLE:   231 TIME:   0.012 TIME LEFT:  2.00D  GRAD.:     0.227 HEAT:  11.78996
 CYCLE:   232 TIME:   0.012 TIME LEFT:  2.00D  GRAD.:     0.170 HEAT:  11.78989
 CYCLE:   233 TIME:   0.008 TIME LEFT:  2.00D  GRAD.:     0.114 HEAT:  11.78985
 CYCLE:   234 TIME:   0.012 TIME LEFT:  2.00D  GRAD.:     0.054 HEAT:  11.78984
 CYCLE:   235 TIME:   0.012 TIME LEFT:  2.00D  GRAD.:     0.071 HEAT:  11.78984
 CYCLE:   236 TIME:   0.012 TIME LEFT:  2.00D  GRAD.:     0.043 HEAT:  11.78983

     GRADIENT =  0.04312 IS LESS THAN CUTOFF =  0.05000



 -------------------------------------------------------------------------------
 pm3  precise nosym THREADS=1
 InChI=1S/C12H20/c1-3-9-5-11(6-9)12-7-10(4-2)8-12/h5,10-12H,3-4,6-8H2,1-2H3



     GEOMETRY OPTIMISED USING EIGENVECTOR FOLLOWING (EF).     
     SCF FIELD WAS ACHIEVED                                   


                              PM3 CALCULATION
                                                       MOPAC v23.1.2 MacOS
                                                       Tue Jun  3 16:43:35 2025




          FINAL HEAT OF FORMATION =         11.78983 KCAL/MOL =      49.32866 KJ/MOL


          COSMO AREA              =        234.25 SQUARE ANGSTROMS
          COSMO VOLUME            =        247.89 CUBIC ANGSTROMS

          GRADIENT NORM           =          0.04312          =       0.00762 PER ATOM
          IONIZATION POTENTIAL    =          9.550445 EV
          HOMO LUMO ENERGIES (EV) =         -9.550  0.992
          NO. OF FILLED LEVELS    =         34
          MOLECULAR WEIGHT        =        164.2900         POINT GROUP:  C1  

          MOLECULAR DIMENSIONS (Angstroms)

            Atom       Atom       Distance
            H    30    H    28    11.12292
            H    24    H    20     5.02120
            H    32    H    19     4.46040


          SCF CALCULATIONS        =        249

          WALL-CLOCK TIME         =      2.754 SECONDS
          COMPUTATION TIME        =      2.072 SECONDS




   ATOM   CHEMICAL          X               Y               Z
  NUMBER   SYMBOL      (ANGSTROMS)     (ANGSTROMS)     (ANGSTROMS)

     1       C         -0.27914525  *   0.12712495  *  -0.83794948  *
     2       C         -2.45908884  *   0.16219235  *  -1.09725029  *
     3       C          0.45992994  *   0.20868896  *   0.47202187  *
     4       C         -1.39717656  *  -0.94311517  *  -0.87908375  *
     5       C         -1.34257651  *   1.23287811  *  -1.04547332  *
     6       C         -3.49689477  *   0.29011810  *  -0.00158594  *
     7       C          1.59493390  *  -0.86422000  *   0.67682587  *
     8       C          4.00615163  *   0.35430617  *   0.91204268  *
     9       C         -4.52925201  *  -0.81249207  *  -0.07105671  *
    10       C          4.73746160  *  -0.37053612  *  -0.19899514  *
    11       C          2.55167530  *   0.31780141  *   0.71547769  *
    12       C          1.58328154  *   1.23936468  *   0.52555007  *
    13       H         -2.95915901  *   0.09674776  *  -2.08643185  *
    14       H          0.43983135  *   0.04505056  *  -1.67979213  *
    15       H         -0.24730314  *   0.27802483  *   1.32569606  *
    16       H         -3.00163034  *   0.28564496  *   0.99097654  *
    17       H         -3.98947431  *   1.27912022  *  -0.08483637  *
    18       H         -1.51921976  *  -1.52226864  *   0.05028693  *
    19       H         -1.30955035  *  -1.66502012  *  -1.70400831  *
    20       H         -1.22214286  *   1.81638718  *  -1.96973051  *
    21       H         -1.42999856  *   1.95066710  *  -0.21435691  *
    22       H          4.34855194  *   1.40565327  *   0.97639149  *
    23       H          4.24229445  *  -0.10625600  *   1.89229756  *
    24       H          1.52891581  *  -1.44910464  *   1.60466167  *
    25       H          1.74530906  *  -1.55972279  *  -0.16185364  *
    26       H         -5.07025956  *  -0.80313216  *  -1.02662716  *
    27       H         -4.06592701  *  -1.80314231  *   0.03188082  *
    28       H         -5.27350784  *  -0.71221883  *   0.72906750  *
    29       H          4.57196963  *   0.10936911  *  -1.17214603  *
    30       H          5.81948974  *  -0.38378504  *  -0.01724012  *
    31       H          4.40309007  *  -1.41271507  *  -0.28910624  *
    32       H          1.54397266  *   2.31624933  *   0.43662012  *

                             CARTESIAN COORDINATES

   1    C       -0.279145254     0.127124951    -0.837949482
   2    C       -2.459088837     0.162192353    -1.097250287
   3    C        0.459929936     0.208688962     0.472021871
   4    C       -1.397176563    -0.943115167    -0.879083749
   5    C       -1.342576506     1.232878115    -1.045473320
   6    C       -3.496894767     0.290118101    -0.001585938
   7    C        1.594933903    -0.864220002     0.676825869
   8    C        4.006151631     0.354306173     0.912042684
   9    C       -4.529252013    -0.812492069    -0.071056710
  10    C        4.737461604    -0.370536118    -0.198995141
  11    C        2.551675305     0.317801406     0.715477694
  12    C        1.583281540     1.239364681     0.525550067
  13    H       -2.959159010     0.096747765    -2.086431851
  14    H        0.439831351     0.045050564    -1.679792125
  15    H       -0.247303143     0.278024826     1.325696061
  16    H       -3.001630339     0.285644964     0.990976537
  17    H       -3.989474314     1.279120223    -0.084836373
  18    H       -1.519219759    -1.522268643     0.050286927
  19    H       -1.309550349    -1.665020125    -1.704008314
  20    H       -1.222142857     1.816387185    -1.969730509
  21    H       -1.429998565     1.950667099    -0.214356908
  22    H        4.348551943     1.405653271     0.976391493
  23    H        4.242294454    -0.106256002     1.892297564
  24    H        1.528915806    -1.449104644     1.604661672
  25    H        1.745309057    -1.559722787    -0.161853645
  26    H       -5.070259558    -0.803132161    -1.026627157
  27    H       -4.065927009    -1.803142314     0.031880819
  28    H       -5.273507837    -0.712218827     0.729067504
  29    H        4.571969626     0.109369111    -1.172146027
  30    H        5.819489741    -0.383785044    -0.017240116
  31    H        4.403090066    -1.412715070    -0.289106243
  32    H        1.543972662     2.316249325     0.436620118


           Empirical Formula: C12 H20  =    32 atoms



      MOLECULAR POINT GROUP   :   C1  


                  EIGENVALUES  
 -42.25380 -38.70908 -34.07658 -32.12475 -26.31377 -25.57910 -24.70882 -23.46665
 -22.03563 -19.82574 -18.77717 -17.59954 -17.19292 -16.63997 -15.94849 -15.82977
 -15.10494 -15.00524 -14.43715 -14.02526 -13.80256 -13.27338 -13.12478 -13.01683
 -12.81371 -12.55543 -12.21883 -12.04723 -11.74578 -11.68022 -11.31249 -11.27847
 -11.02103  -9.55044   0.99229   3.01981   3.25521   3.29913   3.42056   3.55651
   3.69114   3.72336   3.82015   3.92006   3.96348   3.97256   3.99540   4.07892
   4.11848   4.22045   4.24217   4.29375   4.41558   4.50746   4.54338   4.55116
   4.65500   4.71266   4.75045   4.79872   4.87376   4.99946   5.00602   5.13884
   5.37147   5.52811   5.69188   6.27661


              NET ATOMIC CHARGES AND DIPOLE CONTRIBUTIONS

  ATOM NO.   TYPE          CHARGE      No. of ELECS.   s-Pop       p-Pop       
    1          C          -0.080281        4.0803     1.18591     2.89438
    2          C          -0.093901        4.0939     1.19067     2.90323
    3          C          -0.056238        4.0562     1.18567     2.87056
    4          C          -0.110655        4.1107     1.17750     2.93315
    5          C          -0.109143        4.1091     1.17728     2.93186
    6          C          -0.089592        4.0896     1.15743     2.93216
    7          C          -0.071551        4.0716     1.17092     2.90063
    8          C          -0.023424        4.0234     1.13184     2.89158
    9          C          -0.109523        4.1095     1.13798     2.97155
   10          C          -0.105105        4.1051     1.13705     2.96806
   11          C          -0.144514        4.1445     1.22194     2.92257
   12          C          -0.163037        4.1630     1.21924     2.94380
   13          H           0.071589        0.9284     0.92841
   14          H           0.076185        0.9238     0.92382
   15          H           0.079832        0.9202     0.92017
   16          H           0.051529        0.9485     0.94847
   17          H           0.049476        0.9505     0.95052
   18          H           0.063815        0.9362     0.93618
   19          H           0.055293        0.9447     0.94471
   20          H           0.055834        0.9442     0.94417
   21          H           0.062632        0.9374     0.93737
   22          H           0.052113        0.9479     0.94789
   23          H           0.053920        0.9461     0.94608
   24          H           0.060723        0.9393     0.93928
   25          H           0.065760        0.9342     0.93424
   26          H           0.037849        0.9622     0.96215
   27          H           0.039091        0.9609     0.96091
   28          H           0.036910        0.9631     0.96309
   29          H           0.040633        0.9594     0.95937
   30          H           0.036964        0.9630     0.96304
   31          H           0.039683        0.9603     0.96032
   32          H           0.127134        0.8729     0.87287
 DIPOLE           X         Y         Z       TOTAL
 POINT-CHG.     0.083    -0.175     0.052     0.201
 HYBRID        -0.002     0.013     0.002     0.013
 SUM            0.080    -0.162     0.054     0.189


          ATOMIC ORBITAL ELECTRON POPULATIONS

     Atom    s        px        py        pz   
    1  C   1.18591   0.95388   0.96656   0.97394
    2  C   1.19067   0.94574   0.96621   0.99128
    3  C   1.18567   0.94628   0.95150   0.97278
    4  C   1.17750   0.95748   0.95569   1.01999
    5  C   1.17728   0.95702   0.95601   1.01882
    6  C   1.15743   0.96642   0.98418   0.98156
    7  C   1.17092   0.94138   0.94653   1.01272
    8  C   1.13184   0.90987   1.00235   0.97936
    9  C   1.13798   0.98031   0.98312   1.00812
   10  C   1.13705   0.98897   0.99878   0.98031
   11  C   1.22194   0.94985   0.96842   1.00431
   12  C   1.21924   0.95125   0.97100   1.02155
   13  H   0.92841
   14  H   0.92382
   15  H   0.92017
   16  H   0.94847
   17  H   0.95052
   18  H   0.93618
   19  H   0.94471
   20  H   0.94417
   21  H   0.93737
   22  H   0.94789
   23  H   0.94608
   24  H   0.93928
   25  H   0.93424
   26  H   0.96215
   27  H   0.96091
   28  H   0.96309
   29  H   0.95937
   30  H   0.96304
   31  H   0.96032
   32  H   0.87287
 *******************************************************************************
 **                                                                           **
 **                              MOPAC v23.1.2                                **
 **                                                                           **
 *******************************************************************************
 **          Digital Object Identifier (DOI): 10.5281/zenodo.6511958          **
 **    Visit the DOI location for information on how to cite this program.    **
 *******************************************************************************

                              PM3 CALCULATION RESULTS

 *******************************************************************************
 *  CALCULATION DONE: (MAX THREADS = 1)              Tue Jun  3 16:43:35 2025  *
 *  PM3        - The PM3 Hamiltonian to be used
 *  OLDGEO     - PREVIOUS GEOMETRY TO BE USED
 *  PRECISE    - TIGHTER CRITERIA TO BE USED
 *  NOSYM      - POINT-GROUP SYMMETRY SET TO C1
 *  THREADS=1  - MULTI-THREADING NOT USED
 *  T=         - A TIME OF 172800.0 SECONDS REQUESTED
 *  DUMP=N     - RESTART FILE WRITTEN EVERY 7200.0 SECONDS REQUESTED
 *  THERMO     - THERMODYNAMIC QUANTITIES TO BE CALCULATED
 *******************************************************************************
oldgeo thermo nosym precise THREADS=1  pm3
 InChI=1S/C12H20/c1-3-9-5-11(6-9)12-7-10(4-2)8-12/h5,10-12H,3-4,6-8H2,1-2H3

   ATOM   CHEMICAL          X               Y               Z
  NUMBER   SYMBOL      (ANGSTROMS)     (ANGSTROMS)     (ANGSTROMS)

     1       C         -0.27914525  *   0.12712495  *  -0.83794948  *
     2       C         -2.45908884  *   0.16219235  *  -1.09725029  *
     3       C          0.45992994  *   0.20868896  *   0.47202187  *
     4       C         -1.39717656  *  -0.94311517  *  -0.87908375  *
     5       C         -1.34257651  *   1.23287811  *  -1.04547332  *
     6       C         -3.49689477  *   0.29011810  *  -0.00158594  *
     7       C          1.59493390  *  -0.86422000  *   0.67682587  *
     8       C          4.00615163  *   0.35430617  *   0.91204268  *
     9       C         -4.52925201  *  -0.81249207  *  -0.07105671  *
    10       C          4.73746160  *  -0.37053612  *  -0.19899514  *
    11       C          2.55167530  *   0.31780141  *   0.71547769  *
    12       C          1.58328154  *   1.23936468  *   0.52555007  *
    13       H         -2.95915901  *   0.09674776  *  -2.08643185  *
    14       H          0.43983135  *   0.04505056  *  -1.67979213  *
    15       H         -0.24730314  *   0.27802483  *   1.32569606  *
    16       H         -3.00163034  *   0.28564496  *   0.99097654  *
    17       H         -3.98947431  *   1.27912022  *  -0.08483637  *
    18       H         -1.51921976  *  -1.52226864  *   0.05028693  *
    19       H         -1.30955035  *  -1.66502012  *  -1.70400831  *
    20       H         -1.22214286  *   1.81638718  *  -1.96973051  *
    21       H         -1.42999856  *   1.95066710  *  -0.21435691  *
    22       H          4.34855194  *   1.40565327  *   0.97639149  *
    23       H          4.24229445  *  -0.10625600  *   1.89229756  *
    24       H          1.52891581  *  -1.44910464  *   1.60466167  *
    25       H          1.74530906  *  -1.55972279  *  -0.16185364  *
    26       H         -5.07025956  *  -0.80313216  *  -1.02662716  *
    27       H         -4.06592701  *  -1.80314231  *   0.03188082  *
    28       H         -5.27350784  *  -0.71221883  *   0.72906750  *
    29       H          4.57196963  *   0.10936911  *  -1.17214603  *
    30       H          5.81948974  *  -0.38378504  *  -0.01724012  *
    31       H          4.40309007  *  -1.41271507  *  -0.28910624  *
    32       H          1.54397266  *   2.31624933  *   0.43662012  *



          CARTESIAN COORDINATES 

    NO.       ATOM           X           Y           Z

     1         C         -0.2791      0.1271     -0.8379
     2         C         -2.4591      0.1622     -1.0973
     3         C          0.4599      0.2087      0.4720
     4         C         -1.3972     -0.9431     -0.8791
     5         C         -1.3426      1.2329     -1.0455
     6         C         -3.4969      0.2901     -0.0016
     7         C          1.5949     -0.8642      0.6768
     8         C          4.0062      0.3543      0.9120
     9         C         -4.5293     -0.8125     -0.0711
    10         C          4.7375     -0.3705     -0.1990
    11         C          2.5517      0.3178      0.7155
    12         C          1.5833      1.2394      0.5256
    13         H         -2.9592      0.0967     -2.0864
    14         H          0.4398      0.0451     -1.6798
    15         H         -0.2473      0.2780      1.3257
    16         H         -3.0016      0.2856      0.9910
    17         H         -3.9895      1.2791     -0.0848
    18         H         -1.5192     -1.5223      0.0503
    19         H         -1.3096     -1.6650     -1.7040
    20         H         -1.2221      1.8164     -1.9697
    21         H         -1.4300      1.9507     -0.2144
    22         H          4.3486      1.4057      0.9764
    23         H          4.2423     -0.1063      1.8923
    24         H          1.5289     -1.4491      1.6047
    25         H          1.7453     -1.5597     -0.1619
    26         H         -5.0703     -0.8031     -1.0266
    27         H         -4.0659     -1.8031      0.0319
    28         H         -5.2735     -0.7122      0.7291
    29         H          4.5720      0.1094     -1.1721
    30         H          5.8195     -0.3838     -0.0172
    31         H          4.4031     -1.4127     -0.2891
    32         H          1.5440      2.3162      0.4366

  H: (PM3): J. J. P. STEWART, J. COMP. CHEM. 10, 209 (1989).
  C: (PM3): J. J. P. STEWART, J. COMP. CHEM. 10, 209 (1989).

           Empirical Formula: C12 H20  =    32 atoms



      MOLECULAR POINT GROUP   :   C1  


      RHF CALCULATION, NO. OF DOUBLY OCCUPIED LEVELS = 34



          HEAT OF FORMATION =      11.789833 KCALS/MOLE


          CARTESIAN COORDINATE DERIVATIVES

   NUMBER  ATOM         X            Y            Z

     1       C      0.009334     0.000380    -0.002067
     2       C     -0.003234     0.000315     0.001664
     3       C     -0.001192    -0.000263     0.000538
     4       C      0.000523     0.001145     0.002317
     5       C      0.003248     0.000490    -0.001334
     6       C     -0.003216    -0.003066     0.000829
     7       C      0.001614     0.000601     0.006061
     8       C      0.003041     0.003246     0.009946
     9       C     -0.002667     0.003792     0.002480
    10       C      0.003317     0.001143    -0.006681
    11       C      0.008053     0.003438     0.006073
    12       C     -0.001821    -0.000958    -0.008650
    13       H     -0.002694    -0.000127    -0.001857
    14       H      0.004633     0.003411     0.000478
    15       H      0.004099    -0.001027     0.003859
    16       H      0.002487     0.001134    -0.002700
    17       H     -0.004798     0.000541    -0.001570
    18       H     -0.013371    -0.006541     0.000121
    19       H      0.010781     0.004941     0.005493
    20       H     -0.011043     0.000516    -0.003102
    21       H      0.007649    -0.003771    -0.004267
    22       H      0.002249    -0.000281    -0.002560
    23       H     -0.009972     0.001412    -0.007161
    24       H     -0.004455    -0.002969    -0.000256
    25       H     -0.001648     0.001198     0.007781
    26       H      0.005074    -0.002020    -0.001678
    27       H     -0.000375     0.000135     0.003191
    28       H     -0.003632    -0.001862    -0.000410
    29       H      0.003904    -0.004735     0.001117
    30       H     -0.001862     0.003201    -0.003249
    31       H     -0.004912    -0.001309     0.001902
    32       H      0.000885    -0.002109    -0.006307



          GRADIENT NORM =   0.04207

          MOLECULAR WEIGHT =  164.29



          ROTATIONAL CONSTANTS IN CM(-1)

          A =    0.09421298   B =    0.01165025   C =    0.01144964



           PRINCIPAL MOMENTS OF INERTIA IN UNITS OF 10**(-40)*GRAM-CM**2

          A =      297.1220   B =     2402.7604   C =     2444.8580


          ORIENTATION OF MOLECULE IN FORCE CALCULATION

    NO.       ATOM         X         Y         Z

     1          C       0.4633   -0.7061    0.1180
     2          C       2.6589   -0.7061    0.1180
     3          C      -0.4239    0.5112    0.1180
     4          C       1.5611   -0.7007   -0.9737
     5          C       1.5613   -0.7007    1.2093
     6          C       3.5619    0.5097    0.1360
     7          C      -1.5922    0.4974   -0.9386
     8          C      -3.9945    0.5452    0.3186
     9          C       4.5775    0.4745   -0.9837
    10          C      -4.6010   -0.6971   -0.3008
    11          C      -2.5278    0.5171    0.2607
    12          C      -1.5291    0.5144    1.1695
    13          H       3.2712   -1.6323    0.1156
    14          H      -0.1524   -1.6298    0.1184
    15          H       0.1786    1.4442    0.1043
    16          H       2.9529    1.4343    0.0683
    17          H       4.0766    0.5624    1.1158
    18          H       1.5633    0.1881   -1.6249
    19          H       1.5600   -1.5844   -1.6282
    20          H       1.5602   -1.5839    1.8644
    21          H       1.5614    0.1888    1.8593
    22          H      -4.3253    0.6517    1.3703
    23          H      -4.3521    1.4520   -0.2092
    24          H      -1.6455    1.3777   -1.5939
    25          H      -1.6535   -0.4052   -1.5641
    26          H       5.2277   -0.4079   -0.9151
    27          H       4.0895    0.4445   -1.9674
    28          H       5.2236    1.3612   -0.9634
    29          H      -4.3141   -1.6035    0.2476
    30          H      -5.6970   -0.6442   -0.3007
    31          H      -4.2750   -0.8293   -1.3412
    32          H      -1.4624    0.5156    2.2487


    FIRST DERIVATIVES WILL BE USED IN THE CALCULATION OF SECOND DERIVATIVES

          ESTIMATED TIME TO COMPLETE CALCULATION =        6.00 SECONDS

    FOR POINT-GROUP C1   THERE ARE   1 UNIQUE SYMMETRY FUNCTIONS.

 STEP:   1 TIME =     0.04 SECS, INTEGRAL =      0.04 TIME LEFT: 172799.95
 STEP:   2 TIME =     0.04 SECS, INTEGRAL =      0.07 TIME LEFT: 172799.91
 STEP:   3 TIME =     0.04 SECS, INTEGRAL =      0.11 TIME LEFT: 172799.88
 STEP:   4 TIME =     0.04 SECS, INTEGRAL =      0.14 TIME LEFT: 172799.84
 STEP:   5 TIME =     0.04 SECS, INTEGRAL =      0.18 TIME LEFT: 172799.80
 STEP:   6 TIME =     0.04 SECS, INTEGRAL =      0.22 TIME LEFT: 172799.77
 STEP:   7 TIME =     0.04 SECS, INTEGRAL =      0.25 TIME LEFT: 172799.73
 STEP:   8 TIME =     0.04 SECS, INTEGRAL =      0.29 TIME LEFT: 172799.69
 STEP:   9 TIME =     0.04 SECS, INTEGRAL =      0.33 TIME LEFT: 172799.65
 STEP:  10 TIME =     0.04 SECS, INTEGRAL =      0.37 TIME LEFT: 172799.61
 STEP:  11 TIME =     0.04 SECS, INTEGRAL =      0.41 TIME LEFT: 172799.57
 STEP:  12 TIME =     0.04 SECS, INTEGRAL =      0.45 TIME LEFT: 172799.54
 STEP:  13 TIME =     0.04 SECS, INTEGRAL =      0.48 TIME LEFT: 172799.50
 STEP:  14 TIME =     0.04 SECS, INTEGRAL =      0.52 TIME LEFT: 172799.46
 STEP:  15 TIME =     0.04 SECS, INTEGRAL =      0.56 TIME LEFT: 172799.43
 STEP:  16 TIME =     0.04 SECS, INTEGRAL =      0.59 TIME LEFT: 172799.39
 STEP:  17 TIME =     0.04 SECS, INTEGRAL =      0.63 TIME LEFT: 172799.36
 STEP:  18 TIME =     0.04 SECS, INTEGRAL =      0.66 TIME LEFT: 172799.32
 STEP:  19 TIME =     0.04 SECS, INTEGRAL =      0.70 TIME LEFT: 172799.28
 STEP:  20 TIME =     0.04 SECS, INTEGRAL =      0.74 TIME LEFT: 172799.24
 STEP:  21 TIME =     0.04 SECS, INTEGRAL =      0.78 TIME LEFT: 172799.21
 STEP:  22 TIME =     0.04 SECS, INTEGRAL =      0.81 TIME LEFT: 172799.17
 STEP:  23 TIME =     0.04 SECS, INTEGRAL =      0.85 TIME LEFT: 172799.14
 STEP:  24 TIME =     0.04 SECS, INTEGRAL =      0.88 TIME LEFT: 172799.10
 STEP:  25 TIME =     0.04 SECS, INTEGRAL =      0.92 TIME LEFT: 172799.07
 STEP:  26 TIME =     0.04 SECS, INTEGRAL =      0.96 TIME LEFT: 172799.03
 STEP:  27 TIME =     0.04 SECS, INTEGRAL =      0.99 TIME LEFT: 172798.99
 STEP:  28 TIME =     0.04 SECS, INTEGRAL =      1.03 TIME LEFT: 172798.95
 STEP:  29 TIME =     0.04 SECS, INTEGRAL =      1.07 TIME LEFT: 172798.92
 STEP:  30 TIME =     0.04 SECS, INTEGRAL =      1.11 TIME LEFT: 172798.88
 STEP:  31 TIME =     0.04 SECS, INTEGRAL =      1.14 TIME LEFT: 172798.84
 STEP:  32 TIME =     0.04 SECS, INTEGRAL =      1.18 TIME LEFT: 172798.80
 STEP:  33 TIME =     0.04 SECS, INTEGRAL =      1.21 TIME LEFT: 172798.77
 STEP:  34 TIME =     0.04 SECS, INTEGRAL =      1.25 TIME LEFT: 172798.73
 STEP:  35 TIME =     0.04 SECS, INTEGRAL =      1.29 TIME LEFT: 172798.70
 STEP:  36 TIME =     0.04 SECS, INTEGRAL =      1.32 TIME LEFT: 172798.66
 STEP:  37 TIME =     0.04 SECS, INTEGRAL =      1.36 TIME LEFT: 172798.62
 STEP:  38 TIME =     0.04 SECS, INTEGRAL =      1.40 TIME LEFT: 172798.59
 STEP:  39 TIME =     0.04 SECS, INTEGRAL =      1.44 TIME LEFT: 172798.55
 STEP:  40 TIME =     0.04 SECS, INTEGRAL =      1.48 TIME LEFT: 172798.51
 STEP:  41 TIME =     0.04 SECS, INTEGRAL =      1.51 TIME LEFT: 172798.47
 STEP:  42 TIME =     0.04 SECS, INTEGRAL =      1.55 TIME LEFT: 172798.43
 STEP:  43 TIME =     0.04 SECS, INTEGRAL =      1.59 TIME LEFT: 172798.39
 STEP:  44 TIME =     0.04 SECS, INTEGRAL =      1.62 TIME LEFT: 172798.36
 STEP:  45 TIME =     0.04 SECS, INTEGRAL =      1.67 TIME LEFT: 172798.32
 STEP:  46 TIME =     0.04 SECS, INTEGRAL =      1.71 TIME LEFT: 172798.28
 STEP:  47 TIME =     0.04 SECS, INTEGRAL =      1.74 TIME LEFT: 172798.24
 STEP:  48 TIME =     0.04 SECS, INTEGRAL =      1.79 TIME LEFT: 172798.20
 STEP:  49 TIME =     0.04 SECS, INTEGRAL =      1.82 TIME LEFT: 172798.16
 STEP:  50 TIME =     0.04 SECS, INTEGRAL =      1.87 TIME LEFT: 172798.12
 STEP:  51 TIME =     0.04 SECS, INTEGRAL =      1.91 TIME LEFT: 172798.08
 STEP:  52 TIME =     0.04 SECS, INTEGRAL =      1.95 TIME LEFT: 172798.04
 STEP:  53 TIME =     0.04 SECS, INTEGRAL =      1.98 TIME LEFT: 172798.00
 STEP:  54 TIME =     0.04 SECS, INTEGRAL =      2.02 TIME LEFT: 172797.97
 STEP:  55 TIME =     0.04 SECS, INTEGRAL =      2.05 TIME LEFT: 172797.93
 STEP:  56 TIME =     0.04 SECS, INTEGRAL =      2.09 TIME LEFT: 172797.89
 STEP:  57 TIME =     0.04 SECS, INTEGRAL =      2.12 TIME LEFT: 172797.86
 STEP:  58 TIME =     0.04 SECS, INTEGRAL =      2.16 TIME LEFT: 172797.82
 STEP:  59 TIME =     0.04 SECS, INTEGRAL =      2.20 TIME LEFT: 172797.78
 STEP:  60 TIME =     0.04 SECS, INTEGRAL =      2.24 TIME LEFT: 172797.75
 STEP:  61 TIME =     0.04 SECS, INTEGRAL =      2.28 TIME LEFT: 172797.71
 STEP:  62 TIME =     0.04 SECS, INTEGRAL =      2.32 TIME LEFT: 172797.67
 STEP:  63 TIME =     0.04 SECS, INTEGRAL =      2.35 TIME LEFT: 172797.63
 STEP:  64 TIME =     0.04 SECS, INTEGRAL =      2.39 TIME LEFT: 172797.60
 STEP:  65 TIME =     0.04 SECS, INTEGRAL =      2.43 TIME LEFT: 172797.56
 STEP:  66 TIME =     0.03 SECS, INTEGRAL =      2.46 TIME LEFT: 172797.53
 STEP:  67 TIME =     0.04 SECS, INTEGRAL =      2.49 TIME LEFT: 172797.49
 STEP:  68 TIME =     0.04 SECS, INTEGRAL =      2.53 TIME LEFT: 172797.46
 STEP:  69 TIME =     0.04 SECS, INTEGRAL =      2.56 TIME LEFT: 172797.42
 STEP:  70 TIME =     0.04 SECS, INTEGRAL =      2.60 TIME LEFT: 172797.38
 STEP:  71 TIME =     0.04 SECS, INTEGRAL =      2.64 TIME LEFT: 172797.34
 STEP:  72 TIME =     0.04 SECS, INTEGRAL =      2.68 TIME LEFT: 172797.31
 STEP:  73 TIME =     0.04 SECS, INTEGRAL =      2.71 TIME LEFT: 172797.27
 STEP:  74 TIME =     0.04 SECS, INTEGRAL =      2.75 TIME LEFT: 172797.23
 STEP:  75 TIME =     0.04 SECS, INTEGRAL =      2.79 TIME LEFT: 172797.19
 STEP:  76 TIME =     0.04 SECS, INTEGRAL =      2.83 TIME LEFT: 172797.16
 STEP:  77 TIME =     0.04 SECS, INTEGRAL =      2.86 TIME LEFT: 172797.12
 STEP:  78 TIME =     0.04 SECS, INTEGRAL =      2.91 TIME LEFT: 172797.08
 STEP:  79 TIME =     0.04 SECS, INTEGRAL =      2.95 TIME LEFT: 172797.04
 STEP:  80 TIME =     0.04 SECS, INTEGRAL =      2.99 TIME LEFT: 172797.00
 STEP:  81 TIME =     0.04 SECS, INTEGRAL =      3.02 TIME LEFT: 172796.96
 STEP:  82 TIME =     0.04 SECS, INTEGRAL =      3.06 TIME LEFT: 172796.93
 STEP:  83 TIME =     0.04 SECS, INTEGRAL =      3.09 TIME LEFT: 172796.89
 STEP:  84 TIME =     0.04 SECS, INTEGRAL =      3.13 TIME LEFT: 172796.85
 STEP:  85 TIME =     0.04 SECS, INTEGRAL =      3.17 TIME LEFT: 172796.82
 STEP:  86 TIME =     0.04 SECS, INTEGRAL =      3.20 TIME LEFT: 172796.78
 STEP:  87 TIME =     0.04 SECS, INTEGRAL =      3.24 TIME LEFT: 172796.74
 STEP:  88 TIME =     0.04 SECS, INTEGRAL =      3.28 TIME LEFT: 172796.71
 STEP:  89 TIME =     0.04 SECS, INTEGRAL =      3.32 TIME LEFT: 172796.66
 STEP:  90 TIME =     0.04 SECS, INTEGRAL =      3.36 TIME LEFT: 172796.62
 STEP:  91 TIME =     0.04 SECS, INTEGRAL =      3.40 TIME LEFT: 172796.58
 STEP:  92 TIME =     0.04 SECS, INTEGRAL =      3.44 TIME LEFT: 172796.54
 STEP:  93 TIME =     0.04 SECS, INTEGRAL =      3.48 TIME LEFT: 172796.51
 STEP:  94 TIME =     0.04 SECS, INTEGRAL =      3.52 TIME LEFT: 172796.47
 STEP:  95 TIME =     0.04 SECS, INTEGRAL =      3.55 TIME LEFT: 172796.43
 STEP:  96 TIME =     0.04 SECS, INTEGRAL =      3.59 TIME LEFT: 172796.39

(To convert to Hartree/Bohr^2, multiply by (10^(-21) x N x a0^2)/(4.184 x 627.51) =  0.0642)


           FORCE MATRIX IN MILLIDYNES/ANGSTROM


                  C  1       C  2       C  3       C  4       C  5       C  6
 ------------------------------------------------------------------------------
     C    1  14.704293
     C    2   1.803725  14.542812
     C    3   4.506691   0.041046  14.566675
     C    4   3.459184   3.460470   0.555969  14.329330
     C    5   3.465170   3.477991   0.557312   1.828673  14.347114
     C    6   0.039997   4.308877   0.006087   0.541888   0.550884  14.489221
     C    7   0.500223   0.003733   2.866452   0.020469   0.044286   0.001033
     C    8   0.019843   0.000368   0.128114   0.002962   0.001941   0.000255
     C    9   0.004997   0.658960   0.001194   0.032288   0.050896   4.471495
     C   10   0.003931   0.000127   0.017975   0.000945   0.000341   0.000121
     C   11   0.051456   0.000616   2.239634   0.006626   0.005527   0.000244
     C   12   0.551386   0.004635   3.874370   0.045642   0.023111   0.001510
     H   13   0.028486   4.427728   0.002022   0.428918   0.427319   0.431506
     H   14   4.439139   0.028385   0.437660   0.427182   0.427765   0.002148
     H   15   0.442029   0.002627   4.396754   0.023269   0.022064   0.004682
     H   16   0.002647   0.450580   0.004514   0.023945   0.021215   4.419972
     H   17   0.003352   0.433960   0.000816   0.047625   0.019374   4.457253
     H   18   0.451734   0.453142   0.029272   4.644150   0.028329   0.026086
     H   19   0.442682   0.441308   0.034725   4.716435   0.031351   0.034417
     H   20   0.443144   0.442229   0.034449   0.031328   4.718571   0.034094
     H   21   0.452691   0.452713   0.029865   0.028322   4.650741   0.031353
     H   22   0.001114   0.000053   0.004802   0.000268   0.000396   0.000063
     H   23   0.002123   0.000051   0.016205   0.000231   0.000269   0.000064
     H   24   0.027345   0.000330   0.422679   0.001681   0.004690   0.000219
     H   25   0.022595   0.000416   0.432889   0.002936   0.002232   0.000355
     H   26   0.000316   0.023696   0.000269   0.002102   0.001631   0.464064
     H   27   0.000493   0.020016   0.000396   0.007234   0.001865   0.464105
     H   28   0.000627   0.052603   0.000307   0.002214   0.008770   0.451243
     H   29   0.000311   0.000031   0.000769   0.000099   0.000083   0.000047
     H   30   0.000846   0.000041   0.003186   0.000290   0.000122   0.000032
     H   31   0.000318   0.000031   0.000974   0.000069   0.000096   0.000058
     H   32   0.009926   0.000700   0.337341   0.001676   0.001947   0.000591


                  C  7       C  8       C  9       C 10       C 11       C 12
 ------------------------------------------------------------------------------
     C    7  14.184236
     C    8   0.366552  14.933567
     C    9   0.000655   0.000159  14.375257
     C   10   0.026748   4.364857   0.000122  14.333358
     C   11   3.968486   5.592626   0.000097   0.741396  19.104022
     C   12   2.235588   0.562731   0.001052   0.033845  10.083154  18.235321
     H   13   0.000760   0.000156   0.031148   0.000060   0.000201   0.000734
     H   14   0.022160   0.001373   0.000588   0.000438   0.003934   0.015791
     H   15   0.413502   0.016791   0.000712   0.002083   0.042698   0.413887
     H   16   0.000409   0.000143   0.437502   0.000068   0.000111   0.000663
     H   17   0.000242   0.000080   0.440023   0.000035   0.000082   0.000508
     H   18   0.003678   0.000500   0.008925   0.000120   0.001056   0.002406
     H   19   0.001194   0.000465   0.001735   0.000262   0.000679   0.006066
     H   20   0.005313   0.000390   0.006412   0.000127   0.000426   0.002006
     H   21   0.002923   0.000421   0.003003   0.000174   0.000669   0.003890
     H   22   0.033757   4.471328   0.000032   0.439758   0.451026   0.013890
     H   23   0.009041   4.428826   0.000052   0.446683   0.426613   0.030627
     H   24   4.721796   0.007342   0.000191   0.001398   0.439464   0.040187
     H   25   4.687617   0.005984   0.000116   0.006225   0.439619   0.040418
     H   26   0.000124   0.000051   4.724931   0.000026   0.000037   0.000283
     H   27   0.000117   0.000062   4.713152   0.000034   0.000068   0.000289
     H   28   0.000170   0.000046   4.752886   0.000050   0.000039   0.000292
     H   29   0.002473   0.461656   0.000044   4.748599   0.015718   0.002507
     H   30   0.001471   0.450417   0.000036   4.755542   0.054398   0.005626
     H   31   0.005769   0.463883   0.000042   4.725529   0.026200   0.001855
     H   32   0.111909   0.036386   0.000397   0.004857   0.429610   5.284901


                  H 13       H 14       H 15       H 16       H 17       H 18
 ------------------------------------------------------------------------------
     H   13   4.928223
     H   14   0.002644   4.931438
     H   15   0.000614   0.041708   4.907851
     H   16   0.043849   0.000513   0.010308   5.032864
     H   17   0.024816   0.000664   0.000405   0.569259   5.066249
     H   18   0.030737   0.030557   0.020667   0.023356   0.003526   5.279289
     H   19   0.026872   0.026736   0.001504   0.001752   0.005993   0.553138
     H   20   0.026511   0.026703   0.001463   0.001298   0.001952   0.001078
     H   21   0.030917   0.030343   0.019155   0.016672   0.011922   0.002856
     H   22   0.000040   0.000233   0.000947   0.000036   0.000019   0.000116
     H   23   0.000038   0.000253   0.002949   0.000041   0.000012   0.000098
     H   24   0.000150   0.001346   0.025805   0.000121   0.000059   0.000741
     H   25   0.000210   0.018161   0.024511   0.000129   0.000106   0.000786
     H   26   0.021689   0.000117   0.000228   0.048249   0.024501   0.000460
     H   27   0.001935   0.000301   0.000197   0.024291   0.048967   0.013367
     H   28   0.001997   0.000139   0.000167   0.030176   0.028918   0.000609
     H   29   0.000020   0.000215   0.000151   0.000018   0.000016   0.000046
     H   30   0.000018   0.000179   0.000320   0.000027   0.000007   0.000047
     H   31   0.000026   0.000140   0.000281   0.000023   0.000021   0.000042
     H   32   0.000370   0.002484   0.005487   0.000260   0.000203   0.000763


                  H 19       H 20       H 21       H 22       H 23       H 24
 ------------------------------------------------------------------------------
     H   19   5.334877
     H   20   0.003389   5.336138
     H   21   0.001036   0.552688   5.284439
     H   22   0.000069   0.000122   0.000092   5.054271
     H   23   0.000082   0.000068   0.000099   0.557467   5.013465
     H   24   0.000241   0.000815   0.000461   0.001287   0.003137   5.336573
     H   25   0.000728   0.000437   0.000534   0.001308   0.000723   0.528813
     H   26   0.000354   0.000348   0.000462   0.000007   0.000013   0.000035
     H   27   0.000810   0.000413   0.000420   0.000021   0.000015   0.000055
     H   28   0.000325   0.001273   0.000711   0.000012   0.000021   0.000066
     H   29   0.000040   0.000038   0.000039   0.025493   0.048671   0.000259
     H   30   0.000088   0.000042   0.000076   0.027519   0.029718   0.000164
     H   31   0.000044   0.000062   0.000044   0.048568   0.022524   0.000384
     H   32   0.000563   0.000947   0.002690   0.005833   0.003528   0.014732


                  H 25       H 26       H 27       H 28       H 29       H 30
 ------------------------------------------------------------------------------
     H   25   5.306407
     H   26   0.000041   5.467542
     H   27   0.000053   0.576754   5.452675
     H   28   0.000036   0.573235   0.572287   5.489442
     H   29   0.000543   0.000008   0.000012   0.000019   5.486576
     H   30   0.000497   0.000009   0.000011   0.000012   0.572561   5.488218
     H   31   0.007771   0.000008   0.000015   0.000017   0.578860   0.568637
     H   32   0.014914   0.000085   0.000128   0.000112   0.000548   0.001109


                  H 31       H 32
 ------------------------------
     H   31   5.464091
     H   32   0.000517   5.673266


          HEAT OF FORMATION =      11.789833 KCALS/MOLE

          ZERO POINT ENERGY     181.722 KCAL/MOL


           NORMAL COORDINATE ANALYSIS (Total motion = 1 Angstrom)


   Root No.       1         2         3         4         5         6         7         8

                 1 A       2 A       3 A       4 A       5 A       6 A       7 A       8 A   

                  25.9      39.8      46.4      82.9      93.4     159.5     174.3     186.9
  
           1   -0.0024    0.0045    0.0019   -0.0085    0.0082    0.0027    0.0019   -0.0014
           2    0.0016   -0.0216    0.0094    0.0053    0.0062   -0.0011    0.0032   -0.0027
           3   -0.0281   -0.0030   -0.0068   -0.0050   -0.0015   -0.0006   -0.0124   -0.0025
           4   -0.0024    0.0047    0.0019   -0.0091    0.0085    0.0028    0.0013   -0.0018
           5   -0.0018   -0.0006    0.0077   -0.0125   -0.0033    0.0023    0.0022    0.0042
           6   -0.0017    0.0057    0.0006    0.0089    0.0131    0.0105    0.0166    0.0045
           7   -0.0015    0.0069   -0.0072    0.0077   -0.0042    0.0013    0.0027    0.0022
           8    0.0023   -0.0198    0.0026    0.0176   -0.0033   -0.0021    0.0038   -0.0002
           9   -0.0275   -0.0131   -0.0135   -0.0133   -0.0058   -0.0010   -0.0104   -0.0052
          10    0.0107    0.0089    0.0056   -0.0021    0.0157    0.0077    0.0149    0.0016
          11    0.0094   -0.0257    0.0096   -0.0117    0.0188   -0.0067   -0.0064   -0.0204
          12   -0.0150    0.0013   -0.0032    0.0019    0.0061    0.0053    0.0022    0.0011
          13   -0.0155    0.0002   -0.0017   -0.0158    0.0011   -0.0021   -0.0118   -0.0047
          14   -0.0085   -0.0131    0.0199   -0.0069    0.0078    0.0082    0.0114    0.0145
          15   -0.0150    0.0013   -0.0032    0.0021    0.0059    0.0052    0.0024    0.0013
          16    0.0001   -0.0195    0.0123   -0.0094    0.0320    0.0017    0.0008   -0.0077
          17   -0.0040    0.0177   -0.0002   -0.0123   -0.0213    0.0033    0.0026    0.0088
          18    0.0198    0.0029   -0.0019    0.0120    0.0245    0.0007    0.0052   -0.0076
          19   -0.0122   -0.0001   -0.0201   -0.0011   -0.0047    0.0070   -0.0013    0.0010
          20   -0.0030   -0.0274   -0.0203    0.0100   -0.0173    0.0201    0.0255    0.0183
          21   -0.0156   -0.0051    0.0010   -0.0033   -0.0056   -0.0085   -0.0056   -0.0036
          22    0.0006    0.0088   -0.0051    0.0093   -0.0044    0.0003    0.0036    0.0028
          23    0.0045    0.0155   -0.0178   -0.0186    0.0039    0.0010   -0.0076   -0.0043
          24    0.0092    0.0115    0.0315    0.0169   -0.0039   -0.0004    0.0110    0.0068
          25    0.0168   -0.0169    0.0242   -0.0295   -0.0212   -0.0045   -0.0129    0.0042
          26    0.0011    0.0350   -0.0211    0.0066    0.0096   -0.0048   -0.0093   -0.0015
          27    0.0348    0.0048    0.0094   -0.0066   -0.0249   -0.0050   -0.0072    0.0036
          28   -0.0039   -0.0141   -0.0130    0.0344   -0.0194   -0.0110   -0.0065   -0.0026
          29   -0.0133    0.0340    0.0145   -0.0161    0.0071    0.0020    0.0017    0.0007
          30    0.0491   -0.0028   -0.0250   -0.0133    0.0049    0.0100    0.0026    0.0024
          31   -0.0000    0.0080   -0.0057    0.0092   -0.0046   -0.0000    0.0032    0.0025
          32    0.0047   -0.0032   -0.0116    0.0128   -0.0083   -0.0016   -0.0069   -0.0032
          33   -0.0062    0.0010    0.0122    0.0047   -0.0057   -0.0133   -0.0008   -0.0015
          34    0.0092    0.0142    0.0055    0.0169   -0.0042   -0.0048    0.0072    0.0039
          35    0.0096   -0.0002    0.0079    0.0336   -0.0034   -0.0224   -0.0224   -0.0160
          36   -0.0163   -0.0057   -0.0001   -0.0038   -0.0060   -0.0081   -0.0055   -0.0034
          37   -0.0044    0.0225   -0.0056   -0.0097   -0.0080    0.0040    0.0019    0.0027
          38   -0.0031    0.0113    0.0026   -0.0128   -0.0144    0.0031    0.0026    0.0069
          39   -0.0019    0.0133    0.0072    0.0141    0.0112    0.0206    0.0336    0.0218
          40   -0.0031    0.0040    0.0082   -0.0213    0.0170    0.0037    0.0009   -0.0035
          41    0.0021   -0.0212    0.0051    0.0137    0.0002   -0.0017    0.0039   -0.0012
          42   -0.0430   -0.0001   -0.0045   -0.0064   -0.0096    0.0008   -0.0163    0.0076
          43   -0.0009    0.0102   -0.0148    0.0172   -0.0131    0.0012    0.0026    0.0047
          44    0.0018   -0.0219    0.0071    0.0108    0.0024   -0.0017    0.0040   -0.0017
          45   -0.0385   -0.0288   -0.0328   -0.0295   -0.0104    0.0177    0.0032    0.0044
          46    0.0032   -0.0384    0.0216   -0.0117    0.0464    0.0007   -0.0004   -0.0090
          47   -0.0021    0.0051    0.0047   -0.0119   -0.0070    0.0023    0.0017    0.0066
          48    0.0168   -0.0012   -0.0177    0.0366    0.0923   -0.0026    0.0039   -0.0247
          49   -0.0144   -0.0223    0.0024    0.0074    0.0779    0.0065    0.0106   -0.0169
          50   -0.0117    0.0314    0.0050   -0.0269   -0.0740    0.0103    0.0107    0.0218
          51    0.0278    0.0036    0.0030    0.0039    0.0031   -0.0023   -0.0006   -0.0033
          52    0.0204    0.0030    0.0088    0.0089    0.0236    0.0091    0.0229    0.0013
          53    0.0150   -0.0354    0.0108   -0.0170    0.0310   -0.0112   -0.0121   -0.0341
          54   -0.0073   -0.0118   -0.0016   -0.0054    0.0224   -0.0007   -0.0055   -0.0172
          55    0.0173    0.0200    0.0071   -0.0051    0.0165    0.0125    0.0233    0.0063
          56    0.0151   -0.0354    0.0108   -0.0171    0.0309   -0.0113   -0.0123   -0.0346
          57   -0.0226    0.0143   -0.0047    0.0091   -0.0101    0.0114    0.0100    0.0201
          58   -0.0248    0.0061   -0.0045   -0.0273   -0.0072   -0.0038   -0.0208   -0.0037
          59   -0.0134   -0.0151    0.0275   -0.0094    0.0127    0.0130    0.0172    0.0234
          60   -0.0216   -0.0013    0.0069   -0.0012    0.0124    0.0116    0.0100    0.0131
          61   -0.0223   -0.0112   -0.0033   -0.0132    0.0005   -0.0064   -0.0198   -0.0096
          62   -0.0134   -0.0151    0.0274   -0.0094    0.0127    0.0129    0.0170    0.0230
          63   -0.0083    0.0040   -0.0135    0.0055   -0.0008   -0.0011   -0.0050   -0.0100
          64    0.0121    0.0177    0.0079    0.0148   -0.0015    0.0174    0.0116    0.0092
          65    0.0316    0.0049   -0.0715   -0.0551    0.0137   -0.0013   -0.0175   -0.0111
          66    0.0101    0.0154    0.0411    0.0223   -0.0040    0.0055    0.0146    0.0095
          67   -0.0070    0.0184   -0.0120   -0.0154    0.0039   -0.0087    0.0028    0.0004
          68   -0.0103    0.0287    0.0094   -0.0122    0.0045    0.0018   -0.0008   -0.0004
          69   -0.0109    0.0275    0.0826    0.0447   -0.0087    0.0075    0.0233    0.0151
          70   -0.0183    0.0017   -0.0348   -0.0092   -0.0074    0.0130   -0.0071    0.0001
          71   -0.0067   -0.0371   -0.0294    0.0082   -0.0246    0.0335    0.0431    0.0313
          72   -0.0201   -0.0183   -0.0101   -0.0052   -0.0152    0.0090    0.0182    0.0137
          73   -0.0195   -0.0106   -0.0209   -0.0041   -0.0023    0.0093   -0.0006    0.0006
          74   -0.0065   -0.0366   -0.0290    0.0083   -0.0243    0.0327    0.0420    0.0305
          75   -0.0098    0.0092    0.0136   -0.0006    0.0042   -0.0264   -0.0291   -0.0209
          76    0.0143   -0.0011    0.0166   -0.0308   -0.0450    0.0056    0.0291   -0.0931
          77   -0.0004    0.0468   -0.0253    0.0034   -0.0140    0.0036    0.0247   -0.0789
          78    0.0392    0.0069    0.0266   -0.0352   -0.1043    0.0066    0.0315   -0.0678
          79    0.0314   -0.0144    0.0343   -0.0467   -0.0676   -0.0103   -0.0255    0.0154
          80    0.0079    0.0253   -0.0289    0.0271    0.0791   -0.0277   -0.0857    0.1416
          81    0.0273    0.0039    0.0046    0.0012   -0.0041   -0.0015    0.0012   -0.0062
          82    0.0180   -0.0330    0.0308   -0.0268    0.0066   -0.0143   -0.0542    0.1014
          83   -0.0001    0.0467   -0.0259    0.0045   -0.0110    0.0027    0.0220   -0.0743
          84    0.0498    0.0052    0.0059   -0.0008   -0.0059   -0.0248   -0.0649    0.0939
          85    0.0075   -0.0251   -0.0090    0.0662   -0.0308    0.1253   -0.0709   -0.0257
          86    0.0014    0.0216   -0.0136   -0.0252    0.0074   -0.0141    0.0024   -0.0003
          87    0.0674   -0.0176   -0.0735   -0.0447    0.0114   -0.0879    0.0372    0.0128
          88   -0.0041   -0.0132   -0.0129    0.0331   -0.0187   -0.0143   -0.0046   -0.0019
          89   -0.0173    0.0512    0.0161   -0.0459    0.0208   -0.0661    0.0419    0.0160
          90    0.0639    0.0043   -0.0115    0.0023    0.0044    0.1719   -0.0599   -0.0184
          91   -0.0188   -0.0222   -0.0234    0.0248   -0.0209   -0.1531    0.0469    0.0150
          92   -0.0379    0.0439    0.0662    0.0244   -0.0044    0.0872   -0.0314   -0.0096
          93    0.0476   -0.0066   -0.0348   -0.0215    0.0059   -0.0449    0.0234    0.0092
          94    0.0203    0.0216    0.0188    0.0264   -0.0042   -0.0115    0.0125    0.0060
          95    0.0161    0.0125    0.0223    0.0490    0.0025   -0.0468   -0.0479   -0.0346
          96   -0.0170   -0.0062   -0.0009   -0.0044   -0.0060   -0.0076   -0.0058   -0.0035


   Root No.       9        10        11        12        13        14        15        16

                 9 A      10 A      11 A      12 A      13 A      14 A      15 A      16 A   

                 232.9     256.3     317.9     337.1     392.5     438.6     446.1     460.9
  
           1   -0.0003    0.0006    0.0021    0.0118    0.0144   -0.0170   -0.0044    0.0110
           2   -0.0175    0.0002   -0.0180    0.0118    0.0388    0.0032    0.0170   -0.0029
           3   -0.0146   -0.0024    0.0155   -0.0114    0.0035    0.0156    0.0021    0.0241
           4   -0.0006   -0.0052    0.0096    0.0237    0.0092   -0.0104   -0.0017    0.0082
           5    0.0155    0.0188    0.0066   -0.0077   -0.0294    0.0062    0.0279   -0.0030
           6    0.0106    0.0108    0.0038    0.0143    0.0027    0.0168   -0.0129   -0.0155
           7   -0.0115    0.0101   -0.0073   -0.0042   -0.0051   -0.0036   -0.0020    0.0001
           8   -0.0270    0.0051   -0.0203    0.0089    0.0217    0.0107    0.0183   -0.0081
           9   -0.0057    0.0038   -0.0000   -0.0002   -0.0014   -0.0202    0.0011   -0.0274
          10    0.0121    0.0037    0.0012    0.0332    0.0110   -0.0170   -0.0124   -0.0122
          11    0.0084    0.0322    0.0057   -0.0167    0.0085    0.0085   -0.0232    0.0072
          12   -0.0024    0.0031    0.0133    0.0049    0.0028    0.0255   -0.0061    0.0056
          13   -0.0119   -0.0082    0.0135    0.0067    0.0129   -0.0186    0.0056    0.0383
          14    0.0060   -0.0249   -0.0225   -0.0280   -0.0019   -0.0217   -0.0099   -0.0010
          15   -0.0021    0.0056    0.0097   -0.0015    0.0053    0.0216   -0.0096    0.0074
          16    0.0030   -0.0155    0.0110    0.0055   -0.0226    0.0141    0.0165   -0.0082
          17    0.0126    0.0253    0.0076    0.0091   -0.0080   -0.0063    0.0156    0.0055
          18    0.0025   -0.0007   -0.0032   -0.0076   -0.0084   -0.0214    0.0207    0.0140
          19   -0.0208    0.0162    0.0026   -0.0205   -0.0036   -0.0169   -0.0010   -0.0277
          20   -0.0097   -0.0101    0.0106    0.0127   -0.0152    0.0020   -0.0079    0.0159
          21    0.0080   -0.0020   -0.0212    0.0140   -0.0084   -0.0113   -0.0029   -0.0088
          22   -0.0066    0.0130   -0.0153   -0.0210   -0.0033    0.0083   -0.0009   -0.0029
          23    0.0264   -0.0075   -0.0028   -0.0028    0.0120    0.0052    0.0056   -0.0000
          24   -0.0030   -0.0028    0.0289   -0.0115    0.0099   -0.0012    0.0038   -0.0048
          25   -0.0062   -0.0211    0.0090    0.0061   -0.0117    0.0286   -0.0025   -0.0176
          26   -0.0134   -0.0311    0.0007    0.0004   -0.0012    0.0158   -0.0085   -0.0103
          27   -0.0062   -0.0058   -0.0071   -0.0096    0.0044   -0.0172    0.0039    0.0119
          28    0.0422   -0.0089    0.0053   -0.0176    0.0167    0.0095    0.0074   -0.0031
          29    0.0029    0.0016   -0.0021   -0.0091    0.0069    0.0055    0.0039   -0.0021
          30   -0.0056    0.0020    0.0071   -0.0073    0.0042    0.0006    0.0020   -0.0034
          31   -0.0070    0.0121   -0.0151   -0.0158   -0.0054    0.0047   -0.0022   -0.0014
          32    0.0196   -0.0131    0.0355    0.0076   -0.0020   -0.0205   -0.0063   -0.0036
          33    0.0175   -0.0054   -0.0324    0.0175   -0.0099    0.0043   -0.0041    0.0114
          34    0.0003    0.0082   -0.0243   -0.0053   -0.0097    0.0142   -0.0054    0.0199
          35   -0.0199    0.0068    0.0082    0.0198   -0.0261   -0.0141   -0.0122   -0.0016
          36    0.0085   -0.0008   -0.0228    0.0078   -0.0069   -0.0078   -0.0017   -0.0118
          37    0.0005    0.0045    0.0163    0.0412    0.0093   -0.0150    0.0129    0.0128
          38    0.0157    0.0247    0.0106    0.0038   -0.0278    0.0030    0.0357    0.0001
          39    0.0200   -0.0018   -0.0097    0.0248    0.0007    0.0123   -0.0219   -0.0456
          40    0.0155   -0.0020    0.0100    0.0026    0.0086   -0.0312   -0.0245    0.0194
          41   -0.0275    0.0020   -0.0226    0.0172    0.0410    0.0123    0.0293   -0.0080
          42   -0.0261   -0.0277    0.0118   -0.0283    0.0020    0.0107    0.0162    0.0520
          43   -0.0132    0.0116    0.0020   -0.0063   -0.0362   -0.0064   -0.0155    0.0030
          44   -0.0250    0.0039   -0.0253    0.0097    0.0409    0.0114    0.0257   -0.0098
          45   -0.0080    0.0030    0.0097   -0.0073    0.0064   -0.0328    0.0049   -0.0513
          46    0.0095   -0.0132    0.0124   -0.0102   -0.0514    0.0194    0.0460   -0.0100
          47    0.0161    0.0243    0.0080   -0.0029   -0.0279   -0.0031    0.0357    0.0046
          48   -0.0037   -0.0300   -0.0056   -0.0295   -0.0380   -0.0246    0.0556    0.0193
          49    0.0089   -0.0171    0.0147    0.0051   -0.0380    0.0200    0.0309   -0.0124
          50    0.0188    0.0543    0.0117    0.0420    0.0327   -0.0015   -0.0330   -0.0022
          51   -0.0012   -0.0021   -0.0055   -0.0095   -0.0028   -0.0247    0.0162    0.0167
          52    0.0059   -0.0012   -0.0128    0.0518    0.0418   -0.0193   -0.0242   -0.0278
          53    0.0154    0.0474    0.0141   -0.0332    0.0117    0.0133   -0.0675    0.0178
          54    0.0068    0.0228    0.0244   -0.0165    0.0067    0.0312   -0.0633    0.0191
          55    0.0343    0.0159    0.0092    0.0331   -0.0227   -0.0168   -0.0121   -0.0251
          56    0.0155    0.0485    0.0145   -0.0337    0.0124    0.0140   -0.0703    0.0186
          57   -0.0119   -0.0187    0.0015    0.0272   -0.0023    0.0183    0.0554   -0.0093
          58   -0.0051   -0.0040    0.0289   -0.0099   -0.0199   -0.0193    0.0164    0.0543
          59    0.0115   -0.0500   -0.0369   -0.0544   -0.0079   -0.0508   -0.0426    0.0004
          60    0.0052   -0.0276   -0.0093   -0.0361   -0.0026   -0.0166   -0.0521    0.0093
          61   -0.0334   -0.0199    0.0081    0.0081    0.0458   -0.0230    0.0063    0.0579
          62    0.0115   -0.0490   -0.0359   -0.0530   -0.0077   -0.0487   -0.0413    0.0004
          63   -0.0095    0.0375    0.0269    0.0308    0.0129    0.0558    0.0316    0.0054
          64   -0.0331    0.0196    0.0357   -0.0463    0.0082   -0.0036    0.0030   -0.0239
          65    0.0367   -0.0038   -0.0656    0.0131    0.0016    0.0241    0.0044    0.0178
          66   -0.0130   -0.0009    0.0521   -0.0214    0.0146   -0.0073    0.0051   -0.0138
          67   -0.0051    0.0200   -0.0788   -0.0110   -0.0128    0.0317   -0.0006    0.0142
          68    0.0137   -0.0034    0.0080   -0.0117    0.0148    0.0048    0.0073   -0.0054
          69   -0.0253   -0.0008    0.0923   -0.0343    0.0219   -0.0183    0.0068   -0.0264
          70   -0.0083    0.0107    0.0426   -0.0289   -0.0127   -0.0442   -0.0128   -0.0415
          71   -0.0167   -0.0135    0.0120    0.0183   -0.0415    0.0099   -0.0236    0.0417
          72   -0.0023   -0.0061   -0.0224    0.0218   -0.0416    0.0013   -0.0220    0.0255
          73   -0.0501    0.0283   -0.0131   -0.0274    0.0103   -0.0125    0.0136   -0.0493
          74   -0.0163   -0.0131    0.0118    0.0180   -0.0403    0.0092   -0.0228    0.0396
          75    0.0198    0.0010   -0.0209    0.0077    0.0248   -0.0216    0.0161   -0.0383
          76   -0.0225   -0.0641    0.0053   -0.0035   -0.0144    0.0448   -0.0125   -0.0294
          77   -0.0255   -0.0627   -0.0021   -0.0069   -0.0031    0.0279   -0.0161   -0.0192
          78   -0.0053    0.0001   -0.0074   -0.0118    0.0058   -0.0218    0.0055    0.0160
          79   -0.0157   -0.0288    0.0061    0.0063    0.0016    0.0454   -0.0268   -0.0296
          80   -0.0122   -0.0196    0.0010    0.0078    0.0084    0.0243   -0.0225   -0.0169
          81   -0.0016   -0.0025   -0.0056   -0.0100   -0.0025   -0.0252    0.0162    0.0177
          82    0.0111    0.0228    0.0135    0.0161   -0.0106    0.0124    0.0098   -0.0057
          83   -0.0259   -0.0634   -0.0024   -0.0069   -0.0023    0.0280   -0.0173   -0.0194
          84   -0.0194   -0.0207   -0.0109   -0.0082    0.0209    0.0069   -0.0290   -0.0054
          85    0.0780   -0.0179   -0.0112   -0.0094    0.0258    0.0147    0.0128   -0.0005
          86    0.0153   -0.0031   -0.0029   -0.0071    0.0117    0.0068    0.0063   -0.0018
          87   -0.0035   -0.0012    0.0147   -0.0084    0.0077    0.0001    0.0034   -0.0045
          88    0.0404   -0.0082    0.0053   -0.0181    0.0162    0.0096    0.0073   -0.0033
          89   -0.0431    0.0185   -0.0055   -0.0150   -0.0113    0.0015   -0.0051   -0.0032
          90   -0.0126    0.0127   -0.0305    0.0004   -0.0100    0.0019   -0.0036    0.0000
          91    0.0549   -0.0211    0.0418   -0.0250    0.0333    0.0093    0.0145   -0.0068
          92    0.0158   -0.0027    0.0010   -0.0089    0.0126    0.0072    0.0068   -0.0019
          93   -0.0036   -0.0011    0.0180   -0.0095    0.0084    0.0001    0.0037   -0.0047
          94    0.0132    0.0039   -0.0456    0.0041   -0.0169    0.0334   -0.0102    0.0509
          95   -0.0406    0.0222   -0.0014    0.0353   -0.0675   -0.0275   -0.0336   -0.0045
          96    0.0076   -0.0006   -0.0214    0.0073   -0.0065   -0.0091   -0.0014   -0.0137


   Root No.      17        18        19        20        21        22        23        24

                17 A      18 A      19 A      20 A      21 A      22 A      23 A      24 A   

                 539.4     706.2     745.7     820.6     822.6     855.4     880.1     892.9
  
           1   -0.0008   -0.0058    0.0294   -0.0013   -0.0030   -0.0050    0.0019    0.0041
           2    0.0025    0.0118    0.0190   -0.0047   -0.0092    0.0162   -0.0083    0.0017
           3    0.0035   -0.0005    0.0003    0.0005    0.0005   -0.0000   -0.0034   -0.0043
           4   -0.0069    0.0082   -0.0284   -0.0011   -0.0007    0.0110   -0.0043   -0.0015
           5    0.0040   -0.0052    0.0189    0.0009   -0.0002   -0.0147    0.0054   -0.0035
[...]
 TRANSITION DIPOLE   0.0629         C  6 -- H 16         +15.1% ( 39.8%)     97.2%
 TRAVEL (Ang.)       0.2126         C  6 -- H 17         +12.3% ( 35.9%)     96.0%
 REDUCED MASS        0.5049         C  3 -- H 15          +1.1% ( 10.6%)    100.0%
 EFFECTIVE MASS      1.4677
 FORCE CONSTANT      2.5983

 VIBRATION         75   75A           ATOM PAIR      ENERGY CONTRIBUTION    RADIAL
 FREQUENCY          2956.74         C  1 -- H 14         +77.6% ( 90.0%)    100.0%
 TRANSITION DIPOLE   0.1272         C  3 -- H 15         +16.7% ( 41.7%)    100.0%
 TRAVEL (Ang.)       0.1890         C  1 -- C  3          +0.9% (  9.8%)     10.2%
 REDUCED MASS        0.6386         C  1 -- C  2          +0.9% (  9.6%)     40.3%
 EFFECTIVE MASS      1.4456
 FORCE CONSTANT      3.2893

 VIBRATION         76   76A           ATOM PAIR      ENERGY CONTRIBUTION    RADIAL
 FREQUENCY          3024.66         C  8 -- H 22         +56.8% ( 74.3%)     98.4%
 TRANSITION DIPOLE   0.0453         C  8 -- H 23         +41.4% ( 63.5%)     96.6%
 TRAVEL (Ang.)       0.2134         C  8 -- C 10          +0.7% (  8.0%)     26.3%
 REDUCED MASS        0.4895         C  8 -- C 11          +0.6% (  7.9%)     30.4%
 EFFECTIVE MASS      1.2794
 FORCE CONSTANT      2.6387

 VIBRATION         77   77A           ATOM PAIR      ENERGY CONTRIBUTION    RADIAL
 FREQUENCY          3028.10         C  6 -- H 17         +55.4% ( 73.4%)     98.4%
 TRANSITION DIPOLE   0.0220         C  6 -- H 16         +41.1% ( 63.2%)     96.7%
 TRAVEL (Ang.)       0.2169         C  4 -- H 18          +1.0% (  9.8%)     98.7%
 REDUCED MASS        0.4734         C  6 -- C  9          +0.6% (  7.8%)     26.0%
 EFFECTIVE MASS      1.2792
 FORCE CONSTANT      2.5575

 VIBRATION         78   78A           ATOM PAIR      ENERGY CONTRIBUTION    RADIAL
 FREQUENCY          3033.16         C  4 -- H 18         +43.5% ( 68.7%)     98.1%
 TRANSITION DIPOLE   0.0371         C  4 -- H 19         +25.4% ( 52.5%)     95.0%
 TRAVEL (Ang.)       0.2632         C  5 -- H 21         +16.5% ( 42.3%)     98.0%
 REDUCED MASS        0.3210         C  5 -- H 20         +10.0% ( 32.9%)     95.1%
 EFFECTIVE MASS      1.5332
 FORCE CONSTANT      1.7397

 VIBRATION         79   79A           ATOM PAIR      ENERGY CONTRIBUTION    RADIAL
 FREQUENCY          3036.26         C  5 -- H 21         +43.4% ( 68.6%)     98.1%
 TRANSITION DIPOLE   0.1058         C  5 -- H 20         +26.1% ( 53.1%)     95.0%
 TRAVEL (Ang.)       0.2626         C  4 -- H 18         +16.3% ( 42.0%)     98.2%
 REDUCED MASS        0.3221         C  4 -- H 19          +9.3% ( 31.8%)     94.8%
 EFFECTIVE MASS      1.5402
 FORCE CONSTANT      1.7493

 VIBRATION         80   80A           ATOM PAIR      ENERGY CONTRIBUTION    RADIAL
 FREQUENCY          3047.49         C  7 -- H 25         +56.2% ( 77.9%)     97.8%
 TRANSITION DIPOLE   0.0738         C  7 -- H 24         +40.3% ( 66.0%)     95.9%
 TRAVEL (Ang.)       0.2046         C  7 -- C 12          +1.1% ( 10.9%)      0.3%
 REDUCED MASS        0.5286         C  7 -- C 11          +1.1% ( 10.9%)      0.2%
 EFFECTIVE MASS      1.5389
 FORCE CONSTANT      2.8927

 VIBRATION         81   81A           ATOM PAIR      ENERGY CONTRIBUTION    RADIAL
 FREQUENCY          3076.70         C  9 -- H 27         +57.7% ( 78.4%)     98.1%
 TRANSITION DIPOLE   0.0074         C  9 -- H 26         +39.0% ( 64.4%)     95.4%
 TRAVEL (Ang.)       0.2067         C  9 -- H 28          +2.0% ( 14.4%)     22.8%
 REDUCED MASS        0.5127         C  6 -- C  9          +1.0% ( 10.2%)      0.0%
 EFFECTIVE MASS      1.5010
 FORCE CONSTANT      2.8596

 VIBRATION         82   82A           ATOM PAIR      ENERGY CONTRIBUTION    RADIAL
 FREQUENCY          3080.82         C 10 -- H 31         +62.8% ( 81.8%)     98.6%
 TRANSITION DIPOLE   0.0174         C 10 -- H 29         +31.6% ( 58.0%)     93.4%
 TRAVEL (Ang.)       0.2044         C 10 -- H 30          +4.2% ( 21.1%)     49.2%
 REDUCED MASS        0.5238         C  8 -- C 10          +1.0% ( 10.2%)      0.0%
 EFFECTIVE MASS      1.5014
 FORCE CONSTANT      2.9292

 VIBRATION         83   83A           ATOM PAIR      ENERGY CONTRIBUTION    RADIAL
 FREQUENCY          3084.27         C  9 -- H 28         +60.0% ( 79.9%)     98.6%
 TRANSITION DIPOLE   0.0033         C  9 -- H 26         +27.5% ( 54.1%)     91.4%
 TRAVEL (Ang.)       0.2141         C  9 -- H 27         +11.0% ( 34.2%)     75.5%
 REDUCED MASS        0.4768         C  6 -- C  9          +1.0% ( 10.3%)      0.0%
 EFFECTIVE MASS      1.5037
 FORCE CONSTANT      2.6726

 VIBRATION         84   84A           ATOM PAIR      ENERGY CONTRIBUTION    RADIAL
 FREQUENCY          3087.16         C 10 -- H 30         +60.5% ( 80.3%)     98.5%
 TRANSITION DIPOLE   0.0138         C 10 -- H 29         +32.5% ( 58.8%)     93.4%
 TRAVEL (Ang.)       0.2083         C 10 -- H 31          +5.6% ( 24.4%)     57.7%
 REDUCED MASS        0.5036         C  8 -- C 10          +1.0% ( 10.4%)      0.1%
 EFFECTIVE MASS      1.5052
 FORCE CONSTANT      2.8280

 VIBRATION         85   85A           ATOM PAIR      ENERGY CONTRIBUTION    RADIAL
 FREQUENCY          3100.88         C  4 -- H 19         +39.0% ( 61.9%)     98.6%
 TRANSITION DIPOLE   0.1072         C  5 -- H 20         +23.7% ( 48.3%)     98.6%
 TRAVEL (Ang.)       0.2826         C  4 -- H 18         +21.7% ( 46.2%)     94.7%
 REDUCED MASS        0.2723         C  5 -- H 21         +13.8% ( 36.8%)     95.1%
 EFFECTIVE MASS      1.2665
 FORCE CONSTANT      1.5425

 VIBRATION         86   86A           ATOM PAIR      ENERGY CONTRIBUTION    RADIAL
 FREQUENCY          3102.46         C  7 -- H 24         +57.5% ( 75.4%)     97.9%
 TRANSITION DIPOLE   0.1121         C  7 -- H 25         +40.2% ( 63.0%)     95.5%
 TRAVEL (Ang.)       0.2094         C  7 -- C 12          +0.7% (  8.3%)     98.4%
 REDUCED MASS        0.4955         C  3 -- C  7          +0.7% (  8.3%)     51.6%
 EFFECTIVE MASS      1.2814
 FORCE CONSTANT      2.8101

 VIBRATION         87   87A           ATOM PAIR      ENERGY CONTRIBUTION    RADIAL
 FREQUENCY          3103.76         C  5 -- H 20         +38.3% ( 61.5%)     98.4%
 TRANSITION DIPOLE   0.0199         C  4 -- H 19         +23.9% ( 48.6%)     98.4%
 TRAVEL (Ang.)       0.2827         C  5 -- H 21         +22.1% ( 46.7%)     94.6%
 REDUCED MASS        0.2719         C  4 -- H 18         +13.3% ( 36.2%)     94.3%
 EFFECTIVE MASS      1.3074
 FORCE CONSTANT      1.5430

 VIBRATION         88   88A           ATOM PAIR      ENERGY CONTRIBUTION    RADIAL
 FREQUENCY          3179.61         C  9 -- H 28         +37.4% ( 58.9%)     97.7%
 TRANSITION DIPOLE   0.0105         C  9 -- H 26         +32.5% ( 54.9%)     97.0%
 TRAVEL (Ang.)       0.2537         C  9 -- H 27         +29.8% ( 52.5%)     96.5%
 REDUCED MASS        0.3294         C  6 -- C  9          +0.3% (  5.1%)     99.3%
 EFFECTIVE MASS      1.1368
 FORCE CONSTANT      1.9619

 VIBRATION         89   89A           ATOM PAIR      ENERGY CONTRIBUTION    RADIAL
 FREQUENCY          3182.21         C 10 -- H 29         +35.3% ( 57.2%)     97.4%
 TRANSITION DIPOLE   0.0234         C 10 -- H 30         +34.3% ( 56.4%)     97.3%
 TRAVEL (Ang.)       0.2541         C 10 -- H 31         +30.1% ( 52.8%)     96.5%
 REDUCED MASS        0.3283         C  8 -- C 10          +0.3% (  5.1%)     99.6%
 EFFECTIVE MASS      1.1357
 FORCE CONSTANT      1.9585

 VIBRATION         90   90A           ATOM PAIR      ENERGY CONTRIBUTION    RADIAL
 FREQUENCY          3206.84         C 12 -- H 32         +94.1% ( 99.9%)    100.0%
 TRANSITION DIPOLE   0.4305         C 11 -- C 12          +2.0% ( 14.7%)     65.0%
 TRAVEL (Ang.)       0.1504         C  7 -- C 12          +1.9% ( 14.1%)     99.3%
 REDUCED MASS        0.9294         C  3 -- C 12          +1.8% ( 14.0%)     37.3%
 EFFECTIVE MASS      1.6010
 FORCE CONSTANT      5.6314

      SYMMETRY NUMBER FOR POINT-GROUP C1  =  1


          SYSTEM IS A GROUND STATE



 InChI=1S/C12H20/c1-3-9-5-11(6-9)12-7-10(4-2)8-12/h5,10-12H,3-4,6-8H2,1-2H3


          MOLECULE IS NOT LINEAR

          THERE ARE 90 GENUINE VIBRATIONS IN THIS SYSTEM
          THIS THERMODYNAMICS CALCULATION IS LIMITED TO
          MOLECULES WHICH HAVE NO INTERNAL ROTATIONS




                    CALCULATED THERMODYNAMIC PROPERTIES
                                          *
   TEMP. (K)   PARTITION FUNCTION   H.O.F.    ENTHALPY  HEAT CAPACITY ENTROPY
                                   KCAL/MOL   CAL/MOLE    CAL/K/MOL  CAL/K/MOL


 298.00  VIB.     0.9389D+05                  6533.4026    43.6552    44.6773
         ROT.     0.1490D+07                   888.2803     2.9808    31.2280
         INT.     0.1399D+12                  7421.6829    46.6360    75.9053
         TRA.     0.2036D+28                  1480.4672     4.9680    41.1956
         TOT.                       11.790    8902.1501    51.6040   117.1009

 200.00  VIB.     0.2388D+04                  3051.7602    28.1143    30.7155
         ROT.     0.8194D+06                   596.1613     2.9808    30.0393
         INT.     0.1957D+10                  3647.9214    31.0951    60.7548
         TRA.     0.1119D+28                   993.6021     4.9680    39.2145
         TOT.                        7.529    4641.5236    36.0631    99.9693

 210.00  VIB.     0.3500D+04                  3339.7059    29.4839    32.1201
         ROT.     0.8816D+06                   625.9693     2.9808    30.1847
         INT.     0.3086D+10                  3965.6752    32.4648    62.3048
         TRA.     0.1204D+28                  1043.2822     4.9680    39.4569
         TOT.                        7.897    5008.9574    37.4328   101.7617

 220.00  VIB.     0.5117D+04                  3641.6226    30.9086    33.5244
         ROT.     0.9454D+06                   655.7774     2.9808    30.3234
         INT.     0.4838D+10                  4297.4000    33.8894    63.8478
         TRA.     0.1291D+28                  1092.9623     4.9680    39.6880
         TOT.                        8.278    5390.3623    38.8574   103.5358

 230.00  VIB.     0.7465D+04                  3958.0618    32.3883    34.9307
         ROT.     0.1011D+07                   685.5855     2.9808    30.4559
         INT.     0.7543D+10                  4643.6473    35.3691    65.3866
         TRA.     0.1380D+28                  1142.6424     4.9680    39.9088
         TOT.                        8.674    5786.2898    40.3371   105.2955

 240.00  VIB.     0.1087D+05                  4289.5666    33.9213    36.3414
         ROT.     0.1077D+07                   715.3935     2.9808    30.5828
         INT.     0.1171D+11                  5004.9601    36.9021    66.9241
         TRA.     0.1471D+28                  1192.3226     4.9680    40.1203
         TOT.                        9.085    6197.2826    41.8701   107.0444

 250.00  VIB.     0.1580D+05                  4636.6557    35.5046    37.7581
         ROT.     0.1145D+07                   745.2016     2.9808    30.7044
         INT.     0.1809D+11                  5381.8573    38.4854    68.4625
         TRA.     0.1564D+28                  1242.0027     4.9680    40.3231
         TOT.                        9.512    6623.8600    43.4534   108.7856

 260.00  VIB.     0.2293D+05                  4999.8122    37.1340    39.1822
         ROT.     0.1215D+07                   775.0097     2.9808    30.8214
         INT.     0.2785D+11                  5774.8218    40.1148    70.0035
         TRA.     0.1659D+28                  1291.6828     4.9680    40.5179
         TOT.                        9.954    7066.5046    45.0828   110.5215

 270.00  VIB.     0.3326D+05                  5379.4735    38.8047    40.6148
         ROT.     0.1285D+07                   804.8177     2.9808    30.9339
         INT.     0.4275D+11                  6184.2913    41.7855    71.5487
         TRA.     0.1756D+28                  1341.3629     4.9680    40.7054
         TOT.                       10.413    7525.6541    46.7535   112.2541

 280.00  VIB.     0.4820D+05                  5776.0258    40.5113    42.0568
         ROT.     0.1357D+07                   834.6258     2.9808    31.0423
         INT.     0.6542D+11                  6610.6516    43.4921    73.0991
         TRA.     0.1854D+28                  1391.0430     4.9680    40.8861
         TOT.                       10.889    8001.6945    48.4601   113.9852

 290.00  VIB.     0.6981D+05                  6189.7992    42.2480    43.5086
         ROT.     0.1431D+07                   864.4339     2.9808    31.1469
         INT.     0.9989D+11                  7054.2331    45.2288    74.6555
         TRA.     0.1954D+28                  1440.7231     4.9680    41.0604
         TOT.                       11.383    8494.9562    50.1968   115.7159

 300.00  VIB.     0.1011D+06                  6621.0668    44.0091    44.9705
         ROT.     0.1505D+07                   894.2419     2.9808    31.2479
         INT.     0.1522D+12                  7515.3087    46.9899    76.2184
         TRA.     0.2056D+28                  1490.4032     4.9680    41.2289
         TOT.                       11.893    9005.7119    51.9579   117.4473

 310.00  VIB.     0.1464D+06                  7070.0438    45.7889    46.4425
         ROT.     0.1581D+07                   924.0500     2.9808    31.3457
         INT.     0.2315D+12                  7994.0938    48.7697    77.7882
         TRA.     0.2160D+28                  1540.0833     4.9680    41.3918
         TOT.                       12.422    9534.1771    53.7377   119.1800

 320.00  VIB.     0.2120D+06                  7536.8892    47.5819    47.9246
         ROT.     0.1658D+07                   953.8580     2.9808    31.4403
         INT.     0.3516D+12                  8490.7473    50.5627    79.3648
         TRA.     0.2265D+28                  1589.7634     4.9680    41.5495
         TOT.                       12.968   10080.5107    55.5307   120.9143

 330.00  VIB.     0.3071D+06                  8021.7080    49.3827    49.4163
         ROT.     0.1737D+07                   983.6661     2.9808    31.5320
         INT.     0.5333D+12                  9005.3741    52.3636    80.9483
         TRA.     0.2372D+28                  1639.4435     4.9680    41.7024
         TOT.                       13.533   10644.8176    57.3316   122.6507

 340.00  VIB.     0.4450D+06                  8524.5540    51.1866    50.9173
         ROT.     0.1816D+07                  1013.4742     2.9808    31.6210
         INT.     0.8082D+12                  9538.0282    54.1674    82.5383
         TRA.     0.2481D+28                  1689.1236     4.9680    41.8507
         TOT.                       14.115   11227.1518    59.1354   124.3890

 350.00  VIB.     0.6450D+06                  9045.4338    52.9888    52.4271
         ROT.     0.1897D+07                  1043.2822     2.9808    31.7074
         INT.     0.1224D+13                 10088.7160    55.9696    84.1345
         TRA.     0.2591D+28                  1738.8037     4.9680    41.9947
         TOT.                       14.715   11827.5198    60.9376   126.1292

 360.00  VIB.     0.9356D+06                  9584.3105    54.7853    53.9450
         ROT.     0.1979D+07                  1073.0903     2.9808    31.7914
         INT.     0.1851D+13                 10657.4008    57.7661    85.7364
         TRA.     0.2703D+28                  1788.4838     4.9680    42.1347
         TOT.                       15.334   12445.8846    62.7341   127.8710

 370.00  VIB.     0.1358D+07                 10141.1078    56.5723    55.4705
         ROT.     0.2062D+07                  1102.8984     2.9808    31.8730
         INT.     0.2800D+13                 11244.0061    59.5531    87.3435
         TRA.     0.2817D+28                  1838.1639     4.9680    42.2708
         TOT.                       15.970   13082.1701    64.5211   129.6143

 380.00  VIB.     0.1972D+07                 10715.7144    58.3466    57.0027
         ROT.     0.2146D+07                  1132.7064     2.9808    31.9525
         INT.     0.4232D+13                 11848.4208    61.3274    88.9553
         TRA.     0.2932D+28                  1887.8440     4.9680    42.4033
         TOT.                       16.624   13736.2649    66.2954   131.3585

 390.00  VIB.     0.2866D+07                 11307.9879    60.1053    58.5411
         ROT.     0.2231D+07                  1162.5145     2.9808    32.0300
         INT.     0.6394D+13                 12470.5024    63.0861    90.5711
         TRA.     0.3048D+28                  1937.5242     4.9680    42.5323
         TOT.                       17.296   14408.0266    68.0541   133.1034

 400.00  VIB.     0.4167D+07                 11917.7589    61.8457    60.0848
         ROT.     0.2318D+07                  1192.3226     2.9808    32.1054
         INT.     0.9658D+13                 13110.0815    64.8265    92.1902
         TRA.     0.3166D+28                  1987.2043     4.9680    42.6581
         TOT.                       17.985   15097.2857    69.7945   134.8483

   *: NOTE: HEATS OF FORMATION ARE RELATIVE TO THE
            ELEMENTS IN THEIR STANDARD STATE AT 298K
              (=  Standard Enthalpy of Formation).

            Hvib:  Zero-point energy is not included.
                   frequencies of less than zero cm-1 are not included.
            Hrot = (3/2)RT
            Htra = (3/2)RT + pV = (5/2)RT

            Heat capacity is Cp, not Cv

          For more information, see: HTTP://OpenMOPAC.net/Manual/thermochemistry.html


           FORCE CONSTANT IN CARTESIAN COORDINATES (Millidynes/A)

    ATOM   CHEMICAL       X               Y               Z
   NUMBER   SYMBOL  FORCE CONSTANT  FORCE CONSTANT  FORCE CONSTANT

      1       C        9.960066        8.812206        6.273464
      2       C        9.835389        8.641261        6.329330
      3       C       10.205925        8.551766        5.849267
      4       C        5.971701        8.658387        9.731118
      5       C        5.989558        8.659960        9.744922
      6       C        8.401737        8.266764        8.425279
      7       C        5.408479        8.401086       10.065717
      8       C        9.430605        8.040029        8.330162
      9       C        8.344963        8.344652        8.206172
     10       C        8.447976        8.193333        8.181936
     11       C       16.068733        2.691358        9.224563
     12       C        9.411162        2.208541       14.752133
     13       H        2.025770        3.567883        0.666403
     14       H        2.038127        3.548598        0.662653
     15       H        1.973518        3.595722        0.621818
     16       H        2.022249        3.611199        0.739610
     17       H        1.676376        0.694809        4.005618
     18       H        0.683065        3.670805        2.259285
     19       H        0.665153        3.696715        2.273748
     20       H        0.666485        3.694203        2.277241
     21       H        0.679309        3.677338        2.256399
     22       H        1.029166        0.719305        4.586533
     23       H        1.056130        3.481175        1.720599
     24       H        0.628531        3.656965        2.288942
     25       H        0.631440        3.773612        2.144872
     26       H        2.285828        3.755294        0.737302
     27       H        1.713602        0.671804        4.369374
     28       H        2.264590        3.818835        0.708505
     29       H        1.028087        3.817295        1.938251
     30       H        5.378201        0.735082        0.673702
     31       H        1.120870        0.756490        4.886841
     32       H        0.639898        0.327385        5.610294

 **********************
 *                    *
 * JOB ENDED NORMALLY *
 *                    *
 **********************



 TOTAL JOB TIME:             9.32 SECONDS

 == MOPAC DONE ==
