 *******************************************************************************
 **                                                                           **
 **                              MOPAC v23.1.2                                **
 **                                                                           **
 *******************************************************************************
 **          Digital Object Identifier (DOI): 10.5281/zenodo.6511958          **
 **    Visit the DOI location for information on how to cite this program.    **
 *******************************************************************************

                              PM3 CALCULATION RESULTS

 *******************************************************************************
 *  CALCULATION DONE: (MAX THREADS = 1)              Tue Jun  3 16:28:07 2025  *
 *  PM3        - The PM3 Hamiltonian to be used
 *  PRECISE    - TIGHTER CRITERIA TO BE USED
 *  NOSYM      - POINT-GROUP SYMMETRY SET TO C1
 *  THREADS=1  - MULTI-THREADING NOT USED
 *  T=         - A TIME OF 172800.0 SECONDS REQUESTED
 *  DUMP=N     - RESTART FILE WRITTEN EVERY 7200.0 SECONDS REQUESTED
 *******************************************************************************
pm3  precise nosym THREADS=1
 InChI=1S/C6H6/c1-6-4-2-3-5-6/h2-5H,1H2

   ATOM   CHEMICAL          X               Y               Z
  NUMBER   SYMBOL      (ANGSTROMS)     (ANGSTROMS)     (ANGSTROMS)

     1       C          0.66540000  *   0.02400000  *  -0.04050000  *
     2       C         -0.14650000  *  -1.15910000  *   0.20190000  *
     3       C         -0.25270000  *   1.14470000  *  -0.17760000  *
     4       C         -1.41530000  *  -0.77450000  *   0.20720000  *
     5       C         -1.48190000  *   0.67000000  *  -0.03080000  *
     6       C          1.99090000  *   0.07180000  *  -0.12130000  *
     7       H         -2.26140000  *  -1.43030000  *   0.36330000  *
     8       H          0.20570000  *  -2.17150000  *   0.35200000  *
     9       H         -2.38550000  *   1.26260000  *  -0.08030000  *
    10       H          0.00510000  *   2.17910000  *  -0.36480000  *
    11       H          2.58050000  *  -0.82830000  *  -0.00300000  *
    12       H          2.49560000  *   1.01140000  *  -0.30610000  *



          CARTESIAN COORDINATES 

    NO.       ATOM           X           Y           Z

     1         C          0.6654      0.0240     -0.0405
     2         C         -0.1465     -1.1591      0.2019
     3         C         -0.2527      1.1447     -0.1776
     4         C         -1.4153     -0.7745      0.2072
     5         C         -1.4819      0.6700     -0.0308
     6         C          1.9909      0.0718     -0.1213
     7         H         -2.2614     -1.4303      0.3633
     8         H          0.2057     -2.1715      0.3520
     9         H         -2.3855      1.2626     -0.0803
    10         H          0.0051      2.1791     -0.3648
    11         H          2.5805     -0.8283     -0.0030
    12         H          2.4956      1.0114     -0.3061

  H: (PM3): J. J. P. STEWART, J. COMP. CHEM. 10, 209 (1989).
  C: (PM3): J. J. P. STEWART, J. COMP. CHEM. 10, 209 (1989).

           Empirical Formula: C6 H6  =    12 atoms



      MOLECULAR POINT GROUP   :   C1  


      RHF CALCULATION, NO. OF DOUBLY OCCUPIED LEVELS = 15


          Geometry optimization using EF

          DIAGONAL MATRIX USED AS START HESSIAN

 CYCLE:     1 TIME:   0.004 TIME LEFT:  2.00D  GRAD.:   102.467 HEAT:  59.69266
 CYCLE:     2 TIME:   0.008 TIME LEFT:  2.00D  GRAD.:    41.722 HEAT:  58.14179
 CYCLE:     3 TIME:   0.004 TIME LEFT:  2.00D  GRAD.:    30.990 HEAT:  57.36680
 CYCLE:     4 TIME:   0.004 TIME LEFT:  2.00D  GRAD.:    37.179 HEAT:  57.10222
 CYCLE:     5 TIME:   0.004 TIME LEFT:  2.00D  GRAD.:    22.051 HEAT:  56.66892
 CYCLE:     6 TIME:   0.004 TIME LEFT:  2.00D  GRAD.:    25.715 HEAT:  56.52289
 CYCLE:     7 TIME:   0.004 TIME LEFT:  2.00D  GRAD.:    12.192 HEAT:  56.30843
 CYCLE:     8 TIME:   0.004 TIME LEFT:  2.00D  GRAD.:    25.272 HEAT:  56.30746
 CYCLE:     9 TIME:   0.004 TIME LEFT:  2.00D  GRAD.:     8.223 HEAT:  56.17051
 CYCLE:    10 TIME:   0.012 TIME LEFT:  2.00D  GRAD.:     6.028 HEAT:  56.15481
 CYCLE:    11 TIME:   0.004 TIME LEFT:  2.00D  GRAD.:     6.234 HEAT:  56.15415
 CYCLE:    12 TIME:   0.004 TIME LEFT:  2.00D  GRAD.:     1.637 HEAT:  56.14641
 CYCLE:    13 TIME:   0.004 TIME LEFT:  2.00D  GRAD.:     2.333 HEAT:  56.14637
 CYCLE:    14 TIME:   0.004 TIME LEFT:  2.00D  GRAD.:     1.060 HEAT:  56.14510
 CYCLE:    15 TIME:   0.004 TIME LEFT:  2.00D  GRAD.:     1.052 HEAT:  56.14505
 CYCLE:    16 TIME:   0.004 TIME LEFT:  2.00D  GRAD.:     0.322 HEAT:  56.14461
 CYCLE:    17 TIME:   0.004 TIME LEFT:  2.00D  GRAD.:     0.547 HEAT:  56.14455
 CYCLE:    18 TIME:   0.004 TIME LEFT:  2.00D  GRAD.:     0.226 HEAT:  56.14441
 CYCLE:    19 TIME:   0.000 TIME LEFT:  2.00D  GRAD.:     0.184 HEAT:  56.14439
 CYCLE:    20 TIME:   0.004 TIME LEFT:  2.00D  GRAD.:     0.094 HEAT:  56.14437
 CYCLE:    21 TIME:   0.004 TIME LEFT:  2.00D  GRAD.:     0.045 HEAT:  56.14436

     GRADIENT =  0.04475 IS LESS THAN CUTOFF =  0.05000



 -------------------------------------------------------------------------------
 pm3  precise nosym THREADS=1
 InChI=1S/C6H6/c1-6-4-2-3-5-6/h2-5H,1H2



     GEOMETRY OPTIMISED USING EIGENVECTOR FOLLOWING (EF).     
     SCF FIELD WAS ACHIEVED                                   


                              PM3 CALCULATION
                                                       MOPAC v23.1.2 MacOS
                                                       Tue Jun  3 16:28:07 2025




          FINAL HEAT OF FORMATION =         56.14436 KCAL/MOL =     234.90801 KJ/MOL


          COSMO AREA              =        124.31 SQUARE ANGSTROMS
          COSMO VOLUME            =        112.69 CUBIC ANGSTROMS

          GRADIENT NORM           =          0.04475          =       0.01292 PER ATOM
          IONIZATION POTENTIAL    =          9.194296 EV
          HOMO LUMO ENERGIES (EV) =         -9.194 -0.616
          NO. OF FILLED LEVELS    =         15
          MOLECULAR WEIGHT        =         78.1134         POINT GROUP:  C1  

          MOLECULAR DIMENSIONS (Angstroms)

            Atom       Atom       Distance
            H    11    H     9     5.48078
            H    10    H     7     4.27105
            H     8    H     9     0.00175


          SCF CALCULATIONS        =         26

          WALL-CLOCK TIME         =      0.105 SECONDS
          COMPUTATION TIME        =      0.048 SECONDS




   ATOM   CHEMICAL          X               Y               Z
  NUMBER   SYMBOL      (ANGSTROMS)     (ANGSTROMS)     (ANGSTROMS)

     1       C          0.68898996  *   0.02474584  *  -0.04230407  *
     2       C         -0.15038511  *  -1.16675880  *   0.20313538  *
     3       C         -0.25722574  *   1.15188331  *  -0.17891980  *
     4       C         -1.44834930  *  -0.77819042  *   0.20978590  *
     5       C         -1.51513229  *   0.67134475  *  -0.02895109  *
     6       C          2.01628133  *   0.07280543  *  -0.12259857  *
     7       H         -2.32727065  *  -1.40057735  *   0.36236637  *
     8       H          0.25509391  *  -2.16553213  *   0.34776577  *
     9       H         -2.44836527  *   1.22859717  *  -0.07036927  *
    10       H          0.05507584  *   2.17644712  *  -0.36764859  *
    11       H          2.63891556  *  -0.80972186  *  -0.00853553  *
    12       H          2.55534206  *   0.99748034  *  -0.30678610  *

                             CARTESIAN COORDINATES

   1    C        0.688989963     0.024745844    -0.042304071
   2    C       -0.150385105    -1.166758798     0.203135384
   3    C       -0.257225740     1.151883313    -0.178919801
   4    C       -1.448349302    -0.778190416     0.209785901
   5    C       -1.515132286     0.671344749    -0.028951088
   6    C        2.016281326     0.072805433    -0.122598568
   7    H       -2.327270652    -1.400577354     0.362366365
   8    H        0.255093910    -2.165532131     0.347765771
   9    H       -2.448365269     1.228597175    -0.070369274
  10    H        0.055075839     2.176447124    -0.367648591
  11    H        2.638915556    -0.809721865    -0.008535527
  12    H        2.555342063     0.997480344    -0.306786101


           Empirical Formula: C6 H6  =    12 atoms



      MOLECULAR POINT GROUP   :   C1  


                  EIGENVALUES  
 -39.37799 -30.65985 -27.34651 -22.74509 -19.05168 -18.62121 -17.53751 -14.71202
 -14.37810 -13.93423 -13.10139 -12.99875 -12.35092  -9.88166  -9.19430  -0.61598
   1.99207   2.21683   3.13334   3.34061   3.54413   3.66257   3.99208   4.34446
   4.55023   4.87514   5.07261   5.96891   6.15557   6.16164


              NET ATOMIC CHARGES AND DIPOLE CONTRIBUTIONS

  ATOM NO.   TYPE          CHARGE      No. of ELECS.   s-Pop       p-Pop       
    1          C          -0.081655        4.0817     1.18608     2.89558
    2          C          -0.127695        4.1277     1.19282     2.93487
    3          C          -0.127722        4.1277     1.19283     2.93489
    4          C          -0.113140        4.1131     1.19420     2.91894
    5          C          -0.113142        4.1131     1.19420     2.91894
    6          C          -0.059805        4.0598     1.17748     2.88232
    7          H           0.113726        0.8863     0.88627
    8          H           0.116926        0.8831     0.88307
    9          H           0.113725        0.8863     0.88628
   10          H           0.116927        0.8831     0.88307
   11          H           0.080930        0.9191     0.91907
   12          H           0.080925        0.9191     0.91907
 DIPOLE           X         Y         Z       TOTAL
 POINT-CHG.     0.596     0.022    -0.036     0.597
 HYBRID         0.064     0.002    -0.004     0.065
 SUM            0.660     0.024    -0.039     0.662


          ATOMIC ORBITAL ELECTRON POPULATIONS

     Atom    s        px        py        pz   
    1  C   1.18608   0.94631   0.94591   1.00336
    2  C   1.19282   0.94855   0.96063   1.02570
    3  C   1.19283   0.94461   0.96373   1.02655
    4  C   1.19420   0.96547   0.95086   1.00261
    5  C   1.19420   0.96838   0.94859   1.00197
    6  C   1.17748   0.94546   1.00422   0.93264
    7  H   0.88627
    8  H   0.88307
    9  H   0.88628
   10  H   0.88307
   11  H   0.91907
   12  H   0.91907
 *******************************************************************************
 **                                                                           **
 **                              MOPAC v23.1.2                                **
 **                                                                           **
 *******************************************************************************
 **          Digital Object Identifier (DOI): 10.5281/zenodo.6511958          **
 **    Visit the DOI location for information on how to cite this program.    **
 *******************************************************************************

                              PM3 CALCULATION RESULTS

 *******************************************************************************
 *  CALCULATION DONE: (MAX THREADS = 1)              Tue Jun  3 16:28:07 2025  *
 *  PM3        - The PM3 Hamiltonian to be used
 *  OLDGEO     - PREVIOUS GEOMETRY TO BE USED
 *  PRECISE    - TIGHTER CRITERIA TO BE USED
 *  NOSYM      - POINT-GROUP SYMMETRY SET TO C1
 *  THREADS=1  - MULTI-THREADING NOT USED
 *  T=         - A TIME OF 172800.0 SECONDS REQUESTED
 *  DUMP=N     - RESTART FILE WRITTEN EVERY 7200.0 SECONDS REQUESTED
 *  THERMO     - THERMODYNAMIC QUANTITIES TO BE CALCULATED
 *******************************************************************************
oldgeo thermo nosym precise THREADS=1  pm3
 InChI=1S/C6H6/c1-6-4-2-3-5-6/h2-5H,1H2

   ATOM   CHEMICAL          X               Y               Z
  NUMBER   SYMBOL      (ANGSTROMS)     (ANGSTROMS)     (ANGSTROMS)

     1       C          0.68898996  *   0.02474584  *  -0.04230407  *
     2       C         -0.15038511  *  -1.16675880  *   0.20313538  *
     3       C         -0.25722574  *   1.15188331  *  -0.17891980  *
     4       C         -1.44834930  *  -0.77819042  *   0.20978590  *
     5       C         -1.51513229  *   0.67134475  *  -0.02895109  *
     6       C          2.01628133  *   0.07280543  *  -0.12259857  *
     7       H         -2.32727065  *  -1.40057735  *   0.36236637  *
     8       H          0.25509391  *  -2.16553213  *   0.34776577  *
     9       H         -2.44836527  *   1.22859717  *  -0.07036927  *
    10       H          0.05507584  *   2.17644712  *  -0.36764859  *
    11       H          2.63891556  *  -0.80972186  *  -0.00853553  *
    12       H          2.55534206  *   0.99748034  *  -0.30678610  *



          CARTESIAN COORDINATES 

    NO.       ATOM           X           Y           Z

     1         C          0.6890      0.0247     -0.0423
     2         C         -0.1504     -1.1668      0.2031
     3         C         -0.2572      1.1519     -0.1789
     4         C         -1.4483     -0.7782      0.2098
     5         C         -1.5151      0.6713     -0.0290
     6         C          2.0163      0.0728     -0.1226
     7         H         -2.3273     -1.4006      0.3624
     8         H          0.2551     -2.1655      0.3478
     9         H         -2.4484      1.2286     -0.0704
    10         H          0.0551      2.1764     -0.3676
    11         H          2.6389     -0.8097     -0.0085
    12         H          2.5553      0.9975     -0.3068

  H: (PM3): J. J. P. STEWART, J. COMP. CHEM. 10, 209 (1989).
  C: (PM3): J. J. P. STEWART, J. COMP. CHEM. 10, 209 (1989).

           Empirical Formula: C6 H6  =    12 atoms



      MOLECULAR POINT GROUP   :   C1  


      RHF CALCULATION, NO. OF DOUBLY OCCUPIED LEVELS = 15



          HEAT OF FORMATION =      56.144363 KCALS/MOLE


          CARTESIAN COORDINATE DERIVATIVES

   NUMBER  ATOM         X            Y            Z

     1       C     -0.009287    -0.000048     0.008777
     2       C     -0.000499    -0.002397     0.006926
     3       C     -0.004540    -0.014581     0.006998
     4       C      0.001798     0.002049     0.000136
     5       C      0.009043    -0.012658     0.000863
     6       C     -0.012804    -0.003797    -0.000197
     7       H     -0.006436     0.008620    -0.000457
     8       H      0.016765     0.013546    -0.000052
     9       H      0.005080     0.003546    -0.011946
    10       H      0.006639     0.013256     0.000928
    11       H     -0.007112    -0.004407    -0.012830
    12       H      0.001353    -0.003129     0.000853



          GRADIENT NORM =   0.04645

          MOLECULAR WEIGHT =   78.11



          ROTATIONAL CONSTANTS IN CM(-1)

          A =    0.27510349   B =    0.12636956   C =    0.08659289



           PRINCIPAL MOMENTS OF INERTIA IN UNITS OF 10**(-40)*GRAM-CM**2

          A =      101.7535   B =      221.5150   C =      323.2685


          ORIENTATION OF MOLECULE IN FORCE CALCULATION

    NO.       ATOM         X         Y         Z

     1          C      -0.4747   -0.6239    0.0003
     2          C       1.0033   -0.6239    0.0003
     3          C      -0.8687    0.8006    0.0003
     4          C       1.4283    0.6627   -0.0001
     5          C       0.2580    1.5532   -0.0002
     6          C      -1.2806   -1.6827   -0.0004
     7          H       2.4545    1.0232   -0.0003
     8          H       1.6022   -1.5317    0.0005
     9          H       0.3319    2.6384   -0.0008
    10          H      -1.9034    1.1358    0.0004
    11          H      -0.9038   -2.7013   -0.0010
    12          H      -2.3627   -1.5907   -0.0005


    FIRST DERIVATIVES WILL BE USED IN THE CALCULATION OF SECOND DERIVATIVES

          ESTIMATED TIME TO COMPLETE CALCULATION =        0.56 SECONDS

    FOR POINT-GROUP C1   THERE ARE   1 UNIQUE SYMMETRY FUNCTIONS.

 STEP:   1 TIME =     0.01 SECS, INTEGRAL =      0.01 TIME LEFT: 172799.99
 STEP:   2 TIME =     0.01 SECS, INTEGRAL =      0.02 TIME LEFT: 172799.98
 STEP:   3 TIME =     0.01 SECS, INTEGRAL =      0.02 TIME LEFT: 172799.98
 STEP:   4 TIME =     0.01 SECS, INTEGRAL =      0.03 TIME LEFT: 172799.97
 STEP:   5 TIME =     0.01 SECS, INTEGRAL =      0.04 TIME LEFT: 172799.96
 STEP:   6 TIME =     0.01 SECS, INTEGRAL =      0.05 TIME LEFT: 172799.95
 STEP:   7 TIME =     0.01 SECS, INTEGRAL =      0.05 TIME LEFT: 172799.95
 STEP:   8 TIME =     0.01 SECS, INTEGRAL =      0.06 TIME LEFT: 172799.94
 STEP:   9 TIME =     0.01 SECS, INTEGRAL =      0.07 TIME LEFT: 172799.93
 STEP:  10 TIME =     0.01 SECS, INTEGRAL =      0.08 TIME LEFT: 172799.92
 STEP:  11 TIME =     0.01 SECS, INTEGRAL =      0.09 TIME LEFT: 172799.91
 STEP:  12 TIME =     0.01 SECS, INTEGRAL =      0.10 TIME LEFT: 172799.90
 STEP:  13 TIME =     0.01 SECS, INTEGRAL =      0.11 TIME LEFT: 172799.89
 STEP:  14 TIME =     0.00 SECS, INTEGRAL =      0.11 TIME LEFT: 172799.89
 STEP:  15 TIME =     0.01 SECS, INTEGRAL =      0.12 TIME LEFT: 172799.88
 STEP:  16 TIME =     0.01 SECS, INTEGRAL =      0.12 TIME LEFT: 172799.88
 STEP:  17 TIME =     0.01 SECS, INTEGRAL =      0.13 TIME LEFT: 172799.87
 STEP:  18 TIME =     0.01 SECS, INTEGRAL =      0.14 TIME LEFT: 172799.86
 STEP:  19 TIME =     0.00 SECS, INTEGRAL =      0.14 TIME LEFT: 172799.86
 STEP:  20 TIME =     0.01 SECS, INTEGRAL =      0.15 TIME LEFT: 172799.85
 STEP:  21 TIME =     0.01 SECS, INTEGRAL =      0.16 TIME LEFT: 172799.84
 STEP:  22 TIME =     0.01 SECS, INTEGRAL =      0.17 TIME LEFT: 172799.83
 STEP:  23 TIME =     0.01 SECS, INTEGRAL =      0.18 TIME LEFT: 172799.82
 STEP:  24 TIME =     0.01 SECS, INTEGRAL =      0.18 TIME LEFT: 172799.82
 STEP:  25 TIME =     0.01 SECS, INTEGRAL =      0.19 TIME LEFT: 172799.81
 STEP:  26 TIME =     0.00 SECS, INTEGRAL =      0.20 TIME LEFT: 172799.80
 STEP:  27 TIME =     0.01 SECS, INTEGRAL =      0.20 TIME LEFT: 172799.80
 STEP:  28 TIME =     0.01 SECS, INTEGRAL =      0.21 TIME LEFT: 172799.79
 STEP:  29 TIME =     0.01 SECS, INTEGRAL =      0.22 TIME LEFT: 172799.78
 STEP:  30 TIME =     0.01 SECS, INTEGRAL =      0.23 TIME LEFT: 172799.77
 STEP:  31 TIME =     0.01 SECS, INTEGRAL =      0.23 TIME LEFT: 172799.77
 STEP:  32 TIME =     0.01 SECS, INTEGRAL =      0.24 TIME LEFT: 172799.76
 STEP:  33 TIME =     0.01 SECS, INTEGRAL =      0.25 TIME LEFT: 172799.75
 STEP:  34 TIME =     0.01 SECS, INTEGRAL =      0.26 TIME LEFT: 172799.74
 STEP:  35 TIME =     0.01 SECS, INTEGRAL =      0.27 TIME LEFT: 172799.73
 STEP:  36 TIME =     0.01 SECS, INTEGRAL =      0.27 TIME LEFT: 172799.73

(To convert to Hartree/Bohr^2, multiply by (10^(-21) x N x a0^2)/(4.184 x 627.51) =  0.0642)


           FORCE MATRIX IN MILLIDYNES/ANGSTROM


                  C  1       C  2       C  3       C  4       C  5       C  6
 ------------------------------------------------------------------------------
     C    1  19.555085
     C    2   4.724904  18.124944
     C    3   4.725385   1.134144  18.125440
     C    4   1.493332   9.527887   1.560489  18.119834
     C    5   1.493276   1.560775   9.528729   4.943860  18.122823
     C    6  10.605286   0.837984   0.838060   0.114718   0.114660  17.901300
     H    7   0.112903   0.445183   0.049309   5.083743   0.419434   0.009373
     H    8   0.419790   5.081395   0.039276   0.444543   0.100124   0.016762
     H    9   0.112899   0.049403   0.445478   0.419858   5.083463   0.009336
     H   10   0.420007   0.039191   5.081055   0.099952   0.444325   0.016730
     H   11   0.474952   0.099118   0.136490   0.021774   0.025107   5.101072
     H   12   0.475009   0.136465   0.099108   0.024970   0.021585   5.101221


                  H  7       H  8       H  9       H 10       H 11       H 12
 ------------------------------------------------------------------------------
     H    7   5.473632
     H    8   0.041363   5.480907
     H    9   0.008971   0.005489   5.473164
     H   10   0.005384   0.009557   0.041375   5.480579
     H   11   0.004978   0.009325   0.008674   0.003371   5.458052
     H   12   0.008667   0.003388   0.004979   0.009321   0.400725   5.458109


          HEAT OF FORMATION =      56.144363 KCALS/MOLE

          ZERO POINT ENERGY      61.635 KCAL/MOL


           NORMAL COORDINATE ANALYSIS (Total motion = 1 Angstrom)


   Root No.       1         2         3         4         5         6         7         8

                 1 A       2 A       3 A       4 A       5 A       6 A       7 A       8 A   

                 186.5     352.8     457.2     580.9     631.8     697.1     803.1     812.6
  
           1   -0.0000   -0.0464   -0.0000    0.0000    0.0000    0.0484    0.0000   -0.0000
           2    0.0000    0.0353    0.0000    0.0000    0.0000    0.0637   -0.0000    0.0000
           3   -0.0578    0.0000   -0.0000    0.1076   -0.0000   -0.0001    0.0493    0.0001
           4   -0.0000   -0.0475   -0.0000    0.0000    0.0000    0.0301   -0.0000    0.0000
           5    0.0000   -0.0071   -0.0000   -0.0000   -0.0000   -0.0639   -0.0000    0.0001
           6   -0.0576    0.0000   -0.0362   -0.0329   -0.0159    0.0000   -0.0283   -0.0370
           7    0.0000   -0.0058    0.0000   -0.0000    0.0000   -0.0697    0.0000   -0.0001
           8    0.0000    0.0477    0.0000   -0.0000    0.0000    0.0120   -0.0000   -0.0000
           9   -0.0576    0.0000    0.0362   -0.0329    0.0159   -0.0000   -0.0285    0.0369
          10    0.0000   -0.0030    0.0000   -0.0000   -0.0000   -0.0278   -0.0001    0.0001
          11    0.0000   -0.0254    0.0000   -0.0000    0.0000   -0.0551   -0.0000    0.0000
          12    0.0430   -0.0000    0.0589    0.0167    0.0173   -0.0000   -0.0241   -0.0270
          13    0.0000    0.0237    0.0000   -0.0000   -0.0000   -0.0457   -0.0000    0.0000
          14    0.0000    0.0096   -0.0000   -0.0000   -0.0000   -0.0414    0.0000   -0.0001
          15    0.0430    0.0000   -0.0588    0.0167   -0.0173    0.0000   -0.0242    0.0269
          16   -0.0000    0.0580    0.0000    0.0001    0.0000    0.0646    0.0000   -0.0000
          17   -0.0001   -0.0442   -0.0000    0.0001    0.0000    0.0847   -0.0000    0.0000
          18    0.0664   -0.0000    0.0000   -0.0095   -0.0000    0.0000    0.0036    0.0000
          19    0.0000    0.0100    0.0000   -0.0000   -0.0000   -0.0450   -0.0000    0.0001
          20    0.0000   -0.0630    0.0000   -0.0000    0.0000   -0.0098    0.0000    0.0001
          21    0.1045   -0.0001    0.2031   -0.0604    0.0504    0.0001    0.2575    0.1396
          22   -0.0000   -0.0850   -0.0000   -0.0000    0.0000   -0.0214    0.0000   -0.0001
          23   -0.0000   -0.0324   -0.0000   -0.0001   -0.0000   -0.0987    0.0000    0.0001
          24   -0.1074   -0.0000   -0.0730   -0.2470   -0.1209    0.0003    0.1080    0.2312
          25    0.0000    0.0635   -0.0000   -0.0000   -0.0000    0.0027    0.0001   -0.0001
          26    0.0001    0.0072   -0.0001   -0.0001   -0.0000   -0.0459    0.0002   -0.0002
          27    0.1046    0.0001   -0.2031   -0.0605   -0.0504    0.0002    0.2581   -0.1387
          28   -0.0000    0.0086    0.0000   -0.0001    0.0000   -0.0894    0.0001   -0.0001
          29   -0.0000    0.0906    0.0001   -0.0001    0.0000   -0.0467    0.0000    0.0000
          30   -0.1075    0.0000    0.0729   -0.2470    0.1209    0.0002    0.1089   -0.2308
          31   -0.0000    0.2057    0.0001    0.0001   -0.0000    0.0846    0.0000    0.0001
          32   -0.0001    0.0080    0.0001    0.0001   -0.0002    0.0950    0.0000    0.0000
          33    0.1253    0.0001   -0.1288   -0.0844    0.2955    0.0001   -0.0549    0.0657
          34   -0.0000    0.0470   -0.0000    0.0001    0.0001    0.0692    0.0000   -0.0000
          35   -0.0001   -0.2005   -0.0002    0.0001    0.0002    0.1073    0.0000   -0.0001
          36    0.1252   -0.0001    0.1288   -0.0845   -0.2955    0.0003   -0.0546   -0.0659


   Root No.       9        10        11        12        13        14        15        16

                 9 A      10 A      11 A      12 A      13 A      14 A      15 A      16 A   

                 823.7     928.1     957.3     984.0     984.6    1032.3    1080.4    1088.2
  
           1    0.0383   -0.0001    0.0000   -0.0079   -0.0000   -0.0000    0.0031   -0.0004
           2   -0.0292    0.0000   -0.0000   -0.0104   -0.0000   -0.0000   -0.0024   -0.0004
           3   -0.0000    0.0000    0.0174    0.0000   -0.0000    0.0451   -0.0000    0.0000
           4   -0.0078   -0.0287   -0.0000    0.0495    0.0001   -0.0000   -0.0118   -0.0055
           5   -0.0642    0.0216   -0.0000   -0.0176   -0.0000    0.0000    0.0218    0.0045
           6   -0.0001   -0.0000   -0.0439   -0.0001    0.0404   -0.0183   -0.0000    0.0000
           7    0.0599   -0.0284   -0.0000   -0.0303   -0.0001    0.0000   -0.0237    0.0070
           8    0.0247    0.0218   -0.0000    0.0429    0.0001   -0.0000    0.0051   -0.0044
           9    0.0001    0.0000   -0.0439    0.0001   -0.0403   -0.0183    0.0000    0.0000
          10   -0.1097    0.0156    0.0000   -0.0178   -0.0000   -0.0000    0.0018    0.0005
          11   -0.0254    0.0009    0.0000   -0.0018   -0.0000    0.0000   -0.0002    0.0081
          12   -0.0000   -0.0000    0.0299    0.0001   -0.0616    0.0067   -0.0000   -0.0000
          13   -0.0047    0.0033    0.0000    0.0030    0.0000    0.0000    0.0010    0.0075
          14    0.1124   -0.0152    0.0000   -0.0176   -0.0000   -0.0000   -0.0016    0.0028
          15    0.0001    0.0000    0.0300   -0.0001    0.0615    0.0066   -0.0000   -0.0000
          16    0.0228    0.0540    0.0000   -0.0160   -0.0001    0.0000   -0.0036   -0.0028
          17   -0.0174   -0.0412    0.0000   -0.0210   -0.0001    0.0000    0.0027   -0.0038
          18   -0.0000   -0.0000    0.0139   -0.0000   -0.0000   -0.0852    0.0000   -0.0000
          19   -0.0924    0.0289    0.0000   -0.0695   -0.0002   -0.0000    0.0773   -0.0851
          20   -0.0806   -0.0372   -0.0001    0.1492    0.0005   -0.0000   -0.2153    0.2549
          21    0.0002    0.0001   -0.1427   -0.0005    0.2308   -0.0164    0.0001   -0.0001
          22    0.0650   -0.0763   -0.0000    0.1809    0.0005    0.0000    0.1630   -0.1825
          23   -0.0174   -0.0090    0.0000    0.0686    0.0002    0.0001    0.1392   -0.1122
          24    0.0006   -0.0000    0.1954    0.0003   -0.1400    0.0615   -0.0000    0.0000
          25    0.0532    0.0436   -0.0000    0.1632    0.0004    0.0000    0.2400    0.2578
          26    0.1105   -0.0179   -0.0001   -0.0273   -0.0002   -0.0000   -0.0178   -0.0133
          27   -0.0007   -0.0000   -0.1430    0.0004   -0.2304   -0.0164   -0.0000   -0.0000
          28    0.0343   -0.0115    0.0000    0.0177    0.0001    0.0000   -0.0931   -0.0548
          29   -0.0578    0.0758   -0.0000    0.1925    0.0005    0.0000   -0.2038   -0.1958
          30   -0.0008    0.0000    0.1956   -0.0003    0.1397    0.0615    0.0000    0.0000
          31   -0.0775   -0.2495    0.0000   -0.0406   -0.0001   -0.0001    0.0126   -0.0074
          32   -0.0538   -0.1487    0.0001   -0.0319   -0.0000   -0.0002    0.0088   -0.0062
          33    0.0001   -0.0001   -0.0722   -0.0000   -0.0275    0.3320    0.0000    0.0000
          34    0.0312    0.0769    0.0000   -0.0199   -0.0001   -0.0000   -0.0052   -0.0038
          35    0.0891    0.2805    0.0001   -0.0474   -0.0002   -0.0002   -0.0146   -0.0083
          36   -0.0000    0.0001   -0.0722   -0.0001    0.0277    0.3320   -0.0000    0.0000


   Root No.      17        18        19        20        21        22        23        24

                17 A      18 A      19 A      20 A      21 A      22 A      23 A      24 A   

                1143.8    1204.3    1320.9    1396.4    1399.3    1711.8    1772.0    1913.5
  
           1   -0.0019    0.0300   -0.0237    0.0058    0.1341   -0.0083   -0.0031    0.1646
           2   -0.0025   -0.0228   -0.0310    0.0059   -0.1022   -0.0109    0.0024    0.2162
           3    0.0000   -0.0000    0.0000   -0.0000   -0.0000    0.0000   -0.0000    0.0001
           4    0.0580    0.0180    0.0145   -0.0477   -0.0962    0.0498   -0.0527   -0.0298
           5   -0.0190    0.0160   -0.0074   -0.0094    0.0177    0.1346   -0.1166    0.0015
           6   -0.0000   -0.0000    0.0000    0.0000   -0.0000   -0.0000    0.0000   -0.0000
           7   -0.0338   -0.0105   -0.0109    0.0032   -0.0428    0.1164    0.0983    0.0094
           8    0.0509   -0.0216    0.0119   -0.0473    0.0891    0.0839    0.0819   -0.0283
           9   -0.0000    0.0000    0.0000    0.0000   -0.0000   -0.0000   -0.0000   -0.0000
          10    0.0496   -0.0130    0.0318    0.0795    0.0187   -0.0318    0.0402   -0.0102
          11   -0.0114    0.0232   -0.0105   -0.0562   -0.0168   -0.1274    0.1314   -0.0159
          12   -0.0000   -0.0000   -0.0000    0.0000    0.0000    0.0000   -0.0000    0.0000
          13   -0.0243   -0.0259   -0.0186   -0.0751    0.0228   -0.1143   -0.1158   -0.0126
          14    0.0448    0.0064    0.0279    0.0615   -0.0149   -0.0646   -0.0739   -0.0140
          15   -0.0000    0.0000   -0.0000   -0.0000    0.0000    0.0000    0.0000    0.0000
          16   -0.0203   -0.0103   -0.0263    0.0147   -0.0208   -0.0026    0.0041   -0.1200
          17   -0.0268    0.0079   -0.0345    0.0196    0.0155   -0.0035   -0.0031   -0.1576
          18   -0.0000    0.0000   -0.0000    0.0000    0.0000   -0.0000   -0.0000   -0.0001
          19    0.0747    0.0536    0.0220    0.0190   -0.0248   -0.0898    0.1207   -0.0248
          20   -0.0726   -0.1685    0.0268    0.1287    0.1066   -0.0384   -0.0360   -0.0045
          21    0.0000    0.0000   -0.0000   -0.0000   -0.0000    0.0000    0.0000    0.0000
          22   -0.0848   -0.1722    0.0126    0.1029   -0.0417   -0.0955    0.0792    0.0102
          23   -0.1192   -0.1106   -0.0123    0.0896    0.0563    0.0664   -0.0551    0.0392
          24    0.0000    0.0000   -0.0000   -0.0000   -0.0000   -0.0000    0.0000    0.0000
          25   -0.0893    0.1758    0.0201    0.1173   -0.1117   -0.0133    0.0667    0.0023
          26    0.0527   -0.0066    0.0284    0.0526   -0.0056   -0.0968   -0.1068   -0.0251
          27    0.0000   -0.0000   -0.0000   -0.0000    0.0000    0.0000    0.0000    0.0000
          28   -0.0925    0.0608   -0.0151    0.0581   -0.0668    0.0895    0.0742    0.0350
          29   -0.1140    0.1958    0.0088    0.1233    0.0223   -0.0743   -0.0616    0.0203
          30    0.0000   -0.0000   -0.0000   -0.0000    0.0000   -0.0000   -0.0000   -0.0000
          31   -0.1020    0.0356    0.3392   -0.0710    0.0842    0.0010   -0.0027    0.0969
          32   -0.0619    0.0238    0.1111   -0.0126    0.0507   -0.0019   -0.0073   -0.1155
          33   -0.0000    0.0000    0.0001   -0.0000    0.0001   -0.0000   -0.0000   -0.0000
          34   -0.0324   -0.0135    0.0167    0.0064   -0.0266   -0.0022    0.0064   -0.1370
          35   -0.1145   -0.0406    0.3562   -0.0729   -0.0925    0.0004    0.0045    0.0627
          36   -0.0001   -0.0000    0.0002   -0.0000   -0.0001   -0.0000    0.0000    0.0000


   Root No.      25        26        27        28        29        30

                25 A      26 A      27 A      28 A      29 A      30 A   

                3132.2    3135.5    3137.1    3140.2    3148.3    3158.4
  
           1    0.0038   -0.0000   -0.0001   -0.0004    0.0003    0.0012
           2    0.0051    0.0000   -0.0001    0.0003   -0.0003    0.0015
           3    0.0000   -0.0000   -0.0000    0.0000    0.0000    0.0000
           4    0.0013   -0.0090    0.0107    0.0005   -0.0113   -0.0105
           5   -0.0020    0.0132   -0.0155    0.0002    0.0211    0.0196
           6    0.0000   -0.0000    0.0000   -0.0000   -0.0000   -0.0000
           7   -0.0023   -0.0159   -0.0173   -0.0001   -0.0236    0.0214
           8    0.0008    0.0055    0.0060   -0.0005    0.0053   -0.0048
           9    0.0000    0.0000    0.0000    0.0000    0.0000   -0.0000
          10   -0.0010    0.0210   -0.0183   -0.0004   -0.0162   -0.0201
          11   -0.0002    0.0076   -0.0064   -0.0002   -0.0083   -0.0088
          12    0.0000   -0.0000    0.0000    0.0000    0.0000    0.0000
          13    0.0000   -0.0017   -0.0012    0.0001    0.0037   -0.0031
          14   -0.0010   -0.0231   -0.0184    0.0004    0.0180   -0.0215
          15    0.0000    0.0000    0.0000   -0.0000   -0.0000    0.0000
          16   -0.0263   -0.0004    0.0013   -0.0513    0.0001   -0.0008
          17   -0.0348    0.0004    0.0016    0.0389   -0.0000   -0.0011
          18   -0.0000    0.0000    0.0000    0.0000   -0.0000   -0.0000
          19    0.0103   -0.2437    0.2152    0.0050    0.1803    0.2099
          20    0.0035   -0.0856    0.0738    0.0018    0.0643    0.0732
          21   -0.0000    0.0000   -0.0000   -0.0000   -0.0000   -0.0000
          22   -0.0162    0.1053   -0.1234   -0.0005    0.1446    0.1240
          23    0.0237   -0.1571    0.1851    0.0019   -0.2187   -0.1878
          24   -0.0000    0.0000   -0.0000    0.0000    0.0000    0.0000
          25    0.0006    0.0181    0.0131   -0.0004   -0.0141    0.0144
          26    0.0106    0.2676    0.2162   -0.0050   -0.1937    0.2199
          27   -0.0000   -0.0001   -0.0001    0.0000    0.0001   -0.0001
          28    0.0270    0.1885    0.2045   -0.0014    0.2511   -0.2118
          29   -0.0092   -0.0626   -0.0673   -0.0002   -0.0816    0.0687
          30   -0.0000   -0.0000   -0.0000   -0.0000   -0.0000    0.0000
          31   -0.1603    0.0011    0.0078    0.1531   -0.0006   -0.0037
          32    0.4024   -0.0036   -0.0187   -0.4325    0.0012    0.0084
          33    0.0002   -0.0000   -0.0000   -0.0003    0.0000    0.0000
          34    0.4288    0.0031   -0.0206    0.4595   -0.0015    0.0091
          35   -0.0474   -0.0001    0.0026   -0.0327    0.0003   -0.0014
          36    0.0000    0.0000   -0.0000    0.0001   -0.0000    0.0000


           MASS-WEIGHTED COORDINATE ANALYSIS (NORMAL COORDINATES)


   Root No.       1         2         3         4         5         6         7         8

                 1 A       2 A       3 A       4 A       5 A       6 A       7 A       8 A   

                 186.5     352.8     457.2     580.9     631.8     697.1     803.1     812.6
  
           1   -0.0000   -0.3008   -0.0002    0.0001    0.0001    0.2417    0.0000   -0.0004
           2    0.0000    0.2289    0.0001    0.0002    0.0000    0.3177   -0.0002    0.0003
           3   -0.3691    0.0000   -0.0001    0.6618   -0.0000   -0.0007    0.3591    0.0007
           4   -0.0000   -0.3077   -0.0002    0.0000    0.0001    0.1503   -0.0001    0.0001
           5    0.0000   -0.0461   -0.0001   -0.0003   -0.0001   -0.3192   -0.0002    0.0005
           6   -0.3681    0.0000   -0.2553   -0.2022   -0.1167    0.0000   -0.2064   -0.2831
           7    0.0000   -0.0376    0.0000   -0.0003    0.0000   -0.3478    0.0002   -0.0005
           8    0.0000    0.3089    0.0002   -0.0000    0.0000    0.0599   -0.0000   -0.0002
           9   -0.3683    0.0001    0.2551   -0.2023    0.1168   -0.0000   -0.2074    0.2822
          10    0.0001   -0.0192    0.0001   -0.0001   -0.0001   -0.1385   -0.0004    0.0010
          11    0.0001   -0.1647    0.0000   -0.0002    0.0000   -0.2751   -0.0001    0.0002
          12    0.2748   -0.0003    0.4146    0.1026    0.1267   -0.0001   -0.1755   -0.2064
          13    0.0002    0.1537    0.0000   -0.0001   -0.0001   -0.2282   -0.0000    0.0001
          14    0.0002    0.0624   -0.0001   -0.0002   -0.0000   -0.2067    0.0003   -0.0009
          15    0.2750    0.0002   -0.4144    0.1027   -0.1267    0.0000   -0.1765    0.2058
          16   -0.0002    0.3759    0.0002    0.0003    0.0000    0.3223    0.0001   -0.0002
          17   -0.0003   -0.2862   -0.0001    0.0005    0.0001    0.4228   -0.0000    0.0002
          18    0.4243   -0.0000    0.0001   -0.0582   -0.0000    0.0002    0.0260    0.0001
          19    0.0000    0.0187    0.0001   -0.0001   -0.0000   -0.0650   -0.0000    0.0003
          20    0.0000   -0.1182    0.0001   -0.0001    0.0000   -0.0141    0.0001    0.0003
          21    0.1934   -0.0003    0.4145   -0.1077    0.1069    0.0002    0.5432    0.3091
          22   -0.0000   -0.1595   -0.0001   -0.0000    0.0000   -0.0309    0.0001   -0.0002
          23   -0.0000   -0.0608   -0.0001   -0.0002   -0.0001   -0.1427    0.0001    0.0002
          24   -0.1989   -0.0000   -0.1489   -0.4401   -0.2565    0.0004    0.2278    0.5118
          25    0.0001    0.1191   -0.0000   -0.0000   -0.0000    0.0040    0.0001   -0.0002
          26    0.0001    0.0134   -0.0002   -0.0001   -0.0000   -0.0664    0.0004   -0.0004
          27    0.1936    0.0002   -0.4145   -0.1077   -0.1069    0.0002    0.5444   -0.3071
          28   -0.0000    0.0160    0.0000   -0.0002    0.0000   -0.1292    0.0001   -0.0002
          29   -0.0000    0.1700    0.0001   -0.0001    0.0000   -0.0676    0.0000    0.0001
          30   -0.1989    0.0001    0.1487   -0.4400    0.2565    0.0003    0.2297   -0.5109
          31   -0.0001    0.3858    0.0002    0.0002   -0.0000    0.1223    0.0000    0.0002
          32   -0.0002    0.0150    0.0002    0.0002   -0.0004    0.1374    0.0001    0.0001
          33    0.2320    0.0002   -0.2628   -0.1504    0.6270    0.0002   -0.1158    0.1454
          34   -0.0001    0.0881   -0.0000    0.0001    0.0001    0.1000    0.0000   -0.0001
          35   -0.0002   -0.3761   -0.0003    0.0002    0.0004    0.1551    0.0001   -0.0002
          36    0.2318   -0.0003    0.2629   -0.1505   -0.6270    0.0004   -0.1152   -0.1459


   Root No.       9        10        11        12        13        14        15        16

                 9 A      10 A      11 A      12 A      13 A      14 A      15 A      16 A   

                 823.7     928.1     957.3     984.0     984.6    1032.3    1080.4    1088.2
  
           1    0.1879   -0.0008    0.0000   -0.0581   -0.0001   -0.0001    0.0229   -0.0029
           2   -0.1431    0.0001   -0.0000   -0.0766   -0.0002   -0.0001   -0.0173   -0.0032
           3   -0.0002    0.0001    0.1342    0.0001   -0.0001    0.2641   -0.0000    0.0001
           4   -0.0384   -0.1886   -0.0001    0.3655    0.0009   -0.0000   -0.0863   -0.0394
           5   -0.3148    0.1420   -0.0000   -0.1304   -0.0003    0.0000    0.1600    0.0326
           6   -0.0003   -0.0001   -0.3380   -0.0007    0.2652   -0.1070   -0.0000    0.0000
           7    0.2934   -0.1863   -0.0000   -0.2239   -0.0006    0.0000   -0.1739    0.0501
           8    0.1210    0.1432   -0.0001    0.3173    0.0007   -0.0000    0.0374   -0.0318
           9    0.0006    0.0000   -0.3385    0.0006   -0.2647   -0.1070    0.0001    0.0000
          10   -0.5374    0.1025    0.0001   -0.1313   -0.0003   -0.0000    0.0134    0.0037
          11   -0.1246    0.0059    0.0001   -0.0132   -0.0002    0.0000   -0.0015    0.0586
          12   -0.0002   -0.0001    0.2302    0.0010   -0.4048    0.0390   -0.0000   -0.0000
          13   -0.0230    0.0219    0.0001    0.0220    0.0001    0.0000    0.0075    0.0543
          14    0.5509   -0.1001    0.0001   -0.1303   -0.0001   -0.0000   -0.0117    0.0200
          15    0.0004    0.0001    0.2308   -0.0008    0.4043    0.0389   -0.0000   -0.0000
          16    0.1119    0.3547    0.0000   -0.1180   -0.0003    0.0001   -0.0265   -0.0201
          17   -0.0852   -0.2702    0.0000   -0.1550   -0.0003    0.0003    0.0198   -0.0272
          18   -0.0000   -0.0000    0.1067   -0.0000   -0.0001   -0.4981    0.0000   -0.0000
          19   -0.1311    0.0549    0.0000   -0.1487   -0.0003   -0.0000    0.1643   -0.1777
          20   -0.1144   -0.0707   -0.0002    0.3193    0.0009   -0.0000   -0.4572    0.5321
          21    0.0003    0.0002   -0.3183   -0.0012    0.4392   -0.0278    0.0001   -0.0001
          22    0.0923   -0.1451   -0.0001    0.3872    0.0010    0.0001    0.3462   -0.3810
          23   -0.0247   -0.0171    0.0001    0.1468    0.0003    0.0001    0.2956   -0.2342
          24    0.0008   -0.0000    0.4359    0.0007   -0.2663    0.1043   -0.0001    0.0001
          25    0.0755    0.0828   -0.0001    0.3494    0.0007    0.0000    0.5097    0.5381
          26    0.1568   -0.0340   -0.0001   -0.0584   -0.0004   -0.0000   -0.0378   -0.0277
          27   -0.0010   -0.0001   -0.3190    0.0009   -0.4385   -0.0277   -0.0000   -0.0001
          28    0.0486   -0.0219    0.0001    0.0378    0.0001    0.0001   -0.1978   -0.1145
          29   -0.0821    0.1442   -0.0001    0.4120    0.0010    0.0001   -0.4327   -0.4087
          30   -0.0011    0.0000    0.4364   -0.0006    0.2658    0.1042    0.0001    0.0001
          31   -0.1101   -0.4743    0.0001   -0.0870   -0.0001   -0.0001    0.0269   -0.0155
          32   -0.0763   -0.2826    0.0001   -0.0682   -0.0001   -0.0004    0.0187   -0.0129
          33    0.0002   -0.0002   -0.1612   -0.0000   -0.0524    0.5625    0.0000    0.0000
          34    0.0443    0.1463    0.0000   -0.0425   -0.0001   -0.0001   -0.0110   -0.0079
          35    0.1265    0.5333    0.0001   -0.1016   -0.0003   -0.0003   -0.0310   -0.0172
          36   -0.0001    0.0002   -0.1611   -0.0003    0.0527    0.5625   -0.0000    0.0000


   Root No.      17        18        19        20        21        22        23        24

                17 A      18 A      19 A      20 A      21 A      22 A      23 A      24 A   

                1143.8    1204.3    1320.9    1396.4    1399.3    1711.8    1772.0    1913.5
  
           1   -0.0129    0.2320   -0.1420    0.0331    0.5755   -0.0294   -0.0113    0.4756
           2   -0.0169   -0.1765   -0.1859    0.0337   -0.4386   -0.0386    0.0086    0.6248
           3    0.0002   -0.0000    0.0000   -0.0000   -0.0000    0.0000   -0.0000    0.0003
           4    0.3949    0.1388    0.0867   -0.2709   -0.4129    0.1764   -0.1926   -0.0861
           5   -0.1291    0.1234   -0.0442   -0.0534    0.0758    0.4766   -0.4264    0.0044
           6   -0.0000   -0.0000    0.0000    0.0000   -0.0000   -0.0001    0.0001   -0.0000
           7   -0.2299   -0.0816   -0.0653    0.0181   -0.1838    0.4123    0.3596    0.0272
           8    0.3463   -0.1672    0.0713   -0.2688    0.3825    0.2971    0.2994   -0.0818
           9   -0.0000    0.0000    0.0000    0.0000   -0.0000   -0.0002   -0.0002   -0.0000
          10    0.3378   -0.1002    0.1909    0.4516    0.0804   -0.1125    0.1472   -0.0294
          11   -0.0779    0.1791   -0.0628   -0.3192   -0.0719   -0.4512    0.4804   -0.0458
          12   -0.0000   -0.0001   -0.0000    0.0000    0.0000    0.0001   -0.0001    0.0000
          13   -0.1652   -0.1999   -0.1116   -0.4264    0.0977   -0.4048   -0.4237   -0.0364
          14    0.3050    0.0493    0.1674    0.3492   -0.0639   -0.2288   -0.2701   -0.0406
          15   -0.0001    0.0000   -0.0000   -0.0000    0.0000    0.0002    0.0002    0.0000
          16   -0.1383   -0.0799   -0.1578    0.0837   -0.0895   -0.0093    0.0151   -0.3467
          17   -0.1821    0.0611   -0.2071    0.1114    0.0665   -0.0122   -0.0115   -0.4555
          18   -0.0001    0.0000   -0.0002    0.0001    0.0000   -0.0000   -0.0000   -0.0003
          19    0.1473    0.1199    0.0383    0.0313   -0.0308   -0.0921    0.1278   -0.0207
          20   -0.1431   -0.3774    0.0466    0.2118    0.1326   -0.0394   -0.0381   -0.0037
          21    0.0000    0.0001   -0.0000   -0.0001   -0.0000    0.0000    0.0000    0.0000
          22   -0.1672   -0.3857    0.0219    0.1693   -0.0519   -0.0980    0.0839    0.0086
          23   -0.2351   -0.2476   -0.0214    0.1475    0.0700    0.0681   -0.0583    0.0328
          24    0.0001    0.0001   -0.0000   -0.0000   -0.0000   -0.0000    0.0000    0.0000
          25   -0.1760    0.3936    0.0349    0.1930   -0.1389   -0.0136    0.0706    0.0019
          26    0.1038   -0.0148    0.0494    0.0866   -0.0070   -0.0993   -0.1131   -0.0210
          27    0.0000   -0.0001   -0.0000   -0.0001    0.0000    0.0000    0.0000    0.0000
          28   -0.1823    0.1362   -0.0263    0.0956   -0.0830    0.0918    0.0786    0.0293
          29   -0.2247    0.4386    0.0153    0.2028    0.0278   -0.0762   -0.0652    0.0170
          30    0.0001   -0.0001   -0.0000   -0.0001    0.0000   -0.0000   -0.0000   -0.0000
          31   -0.2012    0.0796    0.5894   -0.1168    0.1047    0.0010   -0.0028    0.0811
          32   -0.1221    0.0534    0.1931   -0.0208    0.0630   -0.0020   -0.0078   -0.0967
          33   -0.0001    0.0001    0.0002   -0.0000    0.0001   -0.0000   -0.0000   -0.0000
          34   -0.0639   -0.0302    0.0290    0.0105   -0.0330   -0.0022    0.0067   -0.1147
          35   -0.2258   -0.0910    0.6190   -0.1200   -0.1151    0.0004    0.0048    0.0525
          36   -0.0001   -0.0000    0.0004   -0.0001   -0.0001   -0.0000    0.0000    0.0000


   Root No.      25        26        27        28        29        30

                25 A      26 A      27 A      28 A      29 A      30 A   

                3132.2    3135.5    3137.1    3140.2    3148.3    3158.4
  
           1    0.0210   -0.0001   -0.0006   -0.0020    0.0025    0.0085
           2    0.0276    0.0001   -0.0008    0.0016   -0.0020    0.0112
           3    0.0000   -0.0000   -0.0000    0.0000    0.0000    0.0000
           4    0.0073   -0.0647    0.0802    0.0024   -0.0809   -0.0768
           5   -0.0111    0.0942   -0.1164    0.0011    0.1506    0.1435
           6    0.0000   -0.0000    0.0000   -0.0000   -0.0000   -0.0000
           7   -0.0126   -0.1135   -0.1293   -0.0007   -0.1680    0.1572
           8    0.0041    0.0392    0.0447   -0.0025    0.0380   -0.0354
           9    0.0000    0.0000    0.0000    0.0000    0.0000   -0.0000
          10   -0.0053    0.1505   -0.1375   -0.0022   -0.1152   -0.1474
          11   -0.0013    0.0542   -0.0477   -0.0012   -0.0589   -0.0645
          12    0.0000   -0.0000    0.0000    0.0000    0.0000    0.0000
          13    0.0002   -0.0125   -0.0088    0.0006    0.0263   -0.0227
          14   -0.0053   -0.1655   -0.1382    0.0022    0.1286   -0.1579
          15    0.0000    0.0001    0.0001   -0.0000   -0.0001    0.0001
          16   -0.1438   -0.0032    0.0095   -0.2576    0.0005   -0.0062
          17   -0.1899    0.0027    0.0120    0.1955   -0.0003   -0.0081
          18   -0.0001    0.0000    0.0000    0.0001   -0.0000   -0.0000
          19    0.0163   -0.5053    0.4671    0.0073    0.3723    0.4461
          20    0.0055   -0.1774    0.1603    0.0026    0.1328    0.1555
          21   -0.0000    0.0001   -0.0001   -0.0000   -0.0001   -0.0001
          22   -0.0256    0.2183   -0.2679   -0.0007    0.2986    0.2636
          23    0.0375   -0.3257    0.4020    0.0028   -0.4516   -0.3991
          24   -0.0000    0.0001   -0.0001    0.0000    0.0001    0.0001
          25    0.0009    0.0375    0.0284   -0.0005   -0.0292    0.0307
          26    0.0167    0.5547    0.4693   -0.0072   -0.3998    0.4672
          27   -0.0000   -0.0003   -0.0002    0.0000    0.0002   -0.0002
          28    0.0428    0.3909    0.4439   -0.0021    0.5184   -0.4501
          29   -0.0146   -0.1297   -0.1460   -0.0003   -0.1685    0.1460
          30   -0.0000   -0.0001   -0.0001   -0.0000   -0.0001    0.0001
          31   -0.2539    0.0024    0.0169    0.2229   -0.0013   -0.0079
          32    0.6371   -0.0074   -0.0406   -0.6294    0.0025    0.0179
          33    0.0004   -0.0000   -0.0000   -0.0004    0.0000    0.0000
          34    0.6790    0.0064   -0.0447    0.6687   -0.0030    0.0194
          35   -0.0750   -0.0001    0.0055   -0.0475    0.0006   -0.0029
          36    0.0001    0.0000   -0.0000    0.0001   -0.0000    0.0000


          DESCRIPTION OF VIBRATIONS


 VIBRATION          1    1A           ATOM PAIR      ENERGY CONTRIBUTION    RADIAL
 FREQUENCY           186.54         C  1 -- C  6         +17.6% (199.9%)      0.0%
 TRANSITION DIPOLE   0.2577         C  3 -- C  5         +12.2% (166.0%)      0.0%
 TRAVEL (Ang.)       0.5483         C  2 -- C  4         +12.1% (165.9%)      0.0%
 REDUCED MASS        1.2026         C  1 -- C  5          +8.1% (135.5%)      0.0%
 EFFECTIVE MASS     38.7945
 FORCE CONSTANT      0.0247

 VIBRATION          2    2A           ATOM PAIR      ENERGY CONTRIBUTION    RADIAL
 FREQUENCY           352.82         C  1 -- C  6         +17.9% (206.0%)      0.0%
 TRANSITION DIPOLE   0.0618         C  6 -- H 12          +8.9% (145.4%)     85.7%
 TRAVEL (Ang.)       0.4105         C  6 -- H 11          +8.9% (145.4%)     85.7%
 REDUCED MASS        1.1340         C  1 -- C  5          +7.3% (131.5%)      0.1%
 EFFECTIVE MASS     30.6044
 FORCE CONSTANT      0.0832

 VIBRATION          3    3A           ATOM PAIR      ENERGY CONTRIBUTION    RADIAL
 FREQUENCY           457.16         C  4 -- C  5         +18.2% ( 86.8%)      0.0%
 TRANSITION DIPOLE   0.0001         C  2 -- C  4         +12.2% ( 71.0%)      0.0%
 TRAVEL (Ang.)       0.4091         C  3 -- C  5         +12.2% ( 71.0%)      0.0%
 REDUCED MASS        0.8812         C  3 -- C  4          +9.1% ( 61.4%)      0.0%
 EFFECTIVE MASS     11.2655
 FORCE CONSTANT      0.1085

 VIBRATION          4    4A           ATOM PAIR      ENERGY CONTRIBUTION    RADIAL
 FREQUENCY           580.93         C  1 -- C  3         +17.8% ( 76.6%)      0.0%
 TRANSITION DIPOLE   0.5803         C  1 -- C  2         +17.8% ( 76.6%)      0.0%
 TRAVEL (Ang.)       0.2188         C  1 -- C  6         +13.9% ( 67.7%)      0.0%
 REDUCED MASS        2.4242         C  1 -- C  5         +13.4% ( 66.4%)      0.0%
 EFFECTIVE MASS      8.8429         C  1 -- C  4         +13.4% ( 66.4%)      0.0%
 FORCE CONSTANT      0.4820

 VIBRATION          5    5A           ATOM PAIR      ENERGY CONTRIBUTION    RADIAL
 FREQUENCY           631.76         C  6 -- H 11         +38.5% ( 74.7%)      0.0%
 TRANSITION DIPOLE   0.0001         C  6 -- H 12         +38.5% ( 74.7%)      0.0%
 TRAVEL (Ang.)       0.5677         C  3 -- H 10          +4.1% ( 24.3%)      0.0%
 REDUCED MASS        0.3312         C  2 -- H  8          +4.1% ( 24.3%)      0.0%
 EFFECTIVE MASS      1.8084
 FORCE CONSTANT      0.0779

 VIBRATION          6    6A           ATOM PAIR      ENERGY CONTRIBUTION    RADIAL
 FREQUENCY           697.13         C  1 -- C  4          +9.9% (114.3%)     84.4%
 TRANSITION DIPOLE   0.1404         C  1 -- C  5          +9.9% (114.3%)     84.4%
 TRAVEL (Ang.)       0.2283         C  1 -- C  3          +9.7% (113.2%)      2.0%
 REDUCED MASS        1.8562         C  1 -- C  2          +9.7% (113.2%)      2.0%
 EFFECTIVE MASS     16.2421
 FORCE CONSTANT      0.5315

 VIBRATION          7    7A           ATOM PAIR      ENERGY CONTRIBUTION    RADIAL
 FREQUENCY           803.12         C  5 -- H  9         +23.7% ( 61.0%)      0.0%
 TRANSITION DIPOLE   0.6600         C  4 -- H  7         +23.5% ( 60.8%)      0.0%
 TRAVEL (Ang.)       0.4324         C  1 -- C  3          +7.8% ( 35.0%)      0.0%
 REDUCED MASS        0.4490         C  1 -- C  2          +7.8% ( 34.9%)      0.0%
 EFFECTIVE MASS      3.3295
 FORCE CONSTANT      0.1706

 VIBRATION          8    8A           ATOM PAIR      ENERGY CONTRIBUTION    RADIAL
 FREQUENCY           812.65         C  2 -- H  8         +26.4% ( 62.1%)      0.0%
 TRANSITION DIPOLE   0.0013         C  3 -- H 10         +26.3% ( 61.9%)      0.0%
 TRAVEL (Ang.)       0.4845         C  4 -- H  7         +11.1% ( 40.3%)      0.0%
 REDUCED MASS        0.3535         C  5 -- H  9         +11.0% ( 40.1%)      0.0%
 EFFECTIVE MASS      2.5800
 FORCE CONSTANT      0.1376

 VIBRATION          9    9A           ATOM PAIR      ENERGY CONTRIBUTION    RADIAL
 FREQUENCY           823.72         C  4 -- C  5         +14.7% (123.1%)      0.0%
 TRANSITION DIPOLE   0.2029         C  3 -- C  4         +12.2% (111.9%)     88.4%
 TRAVEL (Ang.)       0.1806         C  2 -- C  5         +12.1% (111.9%)     88.4%
 REDUCED MASS        2.5110         C  1 -- C  4          +9.4% ( 98.2%)     66.2%
 EFFECTIVE MASS     15.7193
 FORCE CONSTANT      1.0038

 VIBRATION         10   10A           ATOM PAIR      ENERGY CONTRIBUTION    RADIAL
 FREQUENCY           928.08         C  6 -- H 12         +25.1% ( 83.0%)     11.0%
 TRANSITION DIPOLE   0.0569         C  6 -- H 11         +25.1% ( 82.9%)     11.1%
 TRAVEL (Ang.)       0.3133         C  1 -- C  6         +10.8% ( 54.5%)      0.0%
 REDUCED MASS        0.7402         C  2 -- C  5          +5.2% ( 37.6%)     85.8%
 EFFECTIVE MASS      5.9491
 FORCE CONSTANT      0.3756

 VIBRATION         11   11A           ATOM PAIR      ENERGY CONTRIBUTION    RADIAL
 FREQUENCY           957.30         C  3 -- H 10         +19.4% ( 49.7%)      0.0%
 TRANSITION DIPOLE   0.0499         C  2 -- H  8         +19.3% ( 49.6%)      0.0%
 TRAVEL (Ang.)       0.3819         C  5 -- H  9         +10.3% ( 36.2%)      0.0%
 REDUCED MASS        0.4829         C  4 -- H  7         +10.2% ( 36.1%)      0.0%
 EFFECTIVE MASS      3.8937
 FORCE CONSTANT      0.2607

 VIBRATION         12   12A           ATOM PAIR      ENERGY CONTRIBUTION    RADIAL
 FREQUENCY           983.98         C  2 -- H  8         +10.3% ( 55.3%)     62.3%
 TRANSITION DIPOLE   0.2307         C  3 -- H 10         +10.3% ( 55.3%)     62.4%
 TRAVEL (Ang.)       0.3217         C  3 -- C  5          +9.5% ( 53.2%)      0.7%
 REDUCED MASS        0.6621         C  2 -- C  4          +9.5% ( 53.2%)      0.8%
 EFFECTIVE MASS      7.1755
 FORCE CONSTANT      0.3777

 VIBRATION         13   13A           ATOM PAIR      ENERGY CONTRIBUTION    RADIAL
 FREQUENCY           984.64         C  4 -- H  7         +19.3% ( 52.8%)      0.0%
 TRANSITION DIPOLE   0.0005         C  5 -- H  9         +19.2% ( 52.7%)      0.0%
 TRAVEL (Ang.)       0.2844         C  4 -- C  5         +10.7% ( 39.3%)      0.0%
 REDUCED MASS        0.8467         C  2 -- C  4          +7.5% ( 32.9%)      0.0%
 EFFECTIVE MASS      5.0035
 FORCE CONSTANT      0.4836

 VIBRATION         14   14A           ATOM PAIR      ENERGY CONTRIBUTION    RADIAL
 FREQUENCY          1032.33         C  6 -- H 12         +36.9% ( 63.0%)      0.0%
 TRANSITION DIPOLE   0.5739         C  6 -- H 11         +36.9% ( 63.0%)      0.0%
 TRAVEL (Ang.)       0.2551         C  1 -- C  6         +11.3% ( 34.9%)      0.0%
 REDUCED MASS        1.0033         C  1 -- C  2          +3.1% ( 18.2%)      0.0%
 EFFECTIVE MASS      3.6316
 FORCE CONSTANT      0.6300

 VIBRATION         15   15A           ATOM PAIR      ENERGY CONTRIBUTION    RADIAL
 FREQUENCY          1080.42         C  5 -- H  9         +19.3% ( 51.1%)      0.0%
 TRANSITION DIPOLE   0.0892         C  3 -- H 10         +19.0% ( 50.7%)      6.7%
 TRAVEL (Ang.)       0.5047         C  2 -- H  8         +17.8% ( 49.0%)      7.6%
 REDUCED MASS        0.2450         C  4 -- H  7         +17.5% ( 48.6%)      0.0%
 EFFECTIVE MASS      2.0412
 FORCE CONSTANT      0.1685

 VIBRATION         16   16A           ATOM PAIR      ENERGY CONTRIBUTION    RADIAL
 FREQUENCY          1088.17         C  4 -- H  7         +29.5% ( 54.9%)      0.1%
 TRANSITION DIPOLE   0.0764         C  5 -- H  9         +27.2% ( 52.7%)      0.1%
 TRAVEL (Ang.)       0.4898         C  2 -- H  8         +19.2% ( 44.3%)      0.6%
 REDUCED MASS        0.2583         C  3 -- H 10         +17.4% ( 42.1%)      1.0%
 EFFECTIVE MASS      1.1722
 FORCE CONSTANT      0.1802

 VIBRATION         17   17A           ATOM PAIR      ENERGY CONTRIBUTION    RADIAL
 FREQUENCY          1143.82         C  4 -- C  5         +11.4% ( 62.5%)    100.0%
 TRANSITION DIPOLE   0.3827         C  3 -- C  4         +10.6% ( 60.4%)     69.8%
 TRAVEL (Ang.)       0.2294         C  2 -- C  5         +10.6% ( 60.3%)     69.8%
 REDUCED MASS        1.1205         C  3 -- C  5          +8.7% ( 54.6%)     16.2%
 EFFECTIVE MASS      9.5438
 FORCE CONSTANT      0.8637

 VIBRATION         18   18A           ATOM PAIR      ENERGY CONTRIBUTION    RADIAL
 FREQUENCY          1204.27         C  3 -- H 10         +14.3% ( 49.5%)      0.1%
 TRANSITION DIPOLE   0.0048         C  2 -- H  8         +14.3% ( 49.4%)      0.1%
 TRAVEL (Ang.)       0.4335         C  4 -- H  7         +11.9% ( 45.1%)      0.2%
 REDUCED MASS        0.2980         C  5 -- H  9         +11.8% ( 44.9%)      0.2%
 EFFECTIVE MASS      2.8095
 FORCE CONSTANT      0.2547

 VIBRATION         19   19A           ATOM PAIR      ENERGY CONTRIBUTION    RADIAL
 FREQUENCY          1320.90         C  6 -- H 11         +23.7% ( 60.7%)      1.9%
 TRANSITION DIPOLE   0.3029         C  6 -- H 12         +23.6% ( 60.6%)      1.9%
 TRAVEL (Ang.)       0.3444         C  1 -- C  5          +7.6% ( 34.3%)     94.4%
 REDUCED MASS        0.4303         C  1 -- C  4          +7.6% ( 34.3%)     94.3%
 EFFECTIVE MASS      3.3276
 FORCE CONSTANT      0.4424

 VIBRATION         20   20A           ATOM PAIR      ENERGY CONTRIBUTION    RADIAL
 FREQUENCY          1396.36         C  4 -- C  5         +21.1% ( 80.0%)    100.0%
 TRANSITION DIPOLE   0.6585         C  2 -- C  4          +9.1% ( 52.5%)      0.1%
 TRAVEL (Ang.)       0.1425         C  2 -- C  5          +9.1% ( 52.5%)     99.8%
 REDUCED MASS        2.3793         C  3 -- C  4          +9.0% ( 52.4%)     99.7%
 EFFECTIVE MASS      9.6560
 FORCE CONSTANT      2.7334

 VIBRATION         21   21A           ATOM PAIR      ENERGY CONTRIBUTION    RADIAL
 FREQUENCY          1399.32         C  1 -- C  3         +19.9% ( 78.8%)     79.0%
 TRANSITION DIPOLE   0.2538         C  1 -- C  2         +19.8% ( 78.5%)     78.7%
 TRAVEL (Ang.)       0.1089         C  1 -- C  6         +11.1% ( 58.9%)      0.0%
 REDUCED MASS        4.0626         C  1 -- C  5         +10.7% ( 57.9%)     11.2%
 EFFECTIVE MASS     11.2791         C  1 -- C  4         +10.7% ( 57.7%)     11.0%
 FORCE CONSTANT      4.6869

 VIBRATION         22   22A           ATOM PAIR      ENERGY CONTRIBUTION    RADIAL
 FREQUENCY          1711.76         C  2 -- C  4         +16.6% ( 72.9%)    100.0%
 TRANSITION DIPOLE   1.1620         C  3 -- C  5         +16.6% ( 72.9%)    100.0%
 TRAVEL (Ang.)       0.1202         C  2 -- C  5          +9.8% ( 56.2%)     27.5%
 REDUCED MASS        2.7253         C  3 -- C  4          +9.8% ( 56.2%)     27.5%
 EFFECTIVE MASS     12.0362
 FORCE CONSTANT      4.7050

 VIBRATION         23   23A           ATOM PAIR      ENERGY CONTRIBUTION    RADIAL
 FREQUENCY          1772.03         C  3 -- C  5         +16.0% ( 70.2%)     99.8%
 TRANSITION DIPOLE   0.1587         C  2 -- C  4         +16.0% ( 70.1%)     99.8%
 TRAVEL (Ang.)       0.1191         C  4 -- C  5         +11.0% ( 58.3%)      0.0%
 REDUCED MASS        2.6837         C  2 -- C  5          +9.8% ( 54.8%)     63.7%
 EFFECTIVE MASS     11.8110
 FORCE CONSTANT      4.9650

 VIBRATION         24   24A           ATOM PAIR      ENERGY CONTRIBUTION    RADIAL
 FREQUENCY          1913.48         C  1 -- C  6         +31.6% ( 98.6%)    100.0%
 TRANSITION DIPOLE   1.5255         C  1 -- C  2         +14.0% ( 65.6%)     45.0%
 TRAVEL (Ang.)       0.0776         C  1 -- C  3         +14.0% ( 65.6%)     45.0%
 REDUCED MASS        5.8568         C  1 -- C  5         +13.7% ( 64.9%)     89.4%
 EFFECTIVE MASS     11.9006         C  1 -- C  4         +13.7% ( 64.9%)     89.4%
 FORCE CONSTANT     12.6346

 VIBRATION         25   25A           ATOM PAIR      ENERGY CONTRIBUTION    RADIAL
 FREQUENCY          3132.19         C  6 -- H 11         +49.1% ( 70.1%)     95.2%
 TRANSITION DIPOLE   0.3126         C  6 -- H 12         +48.7% ( 69.9%)     95.1%
 TRAVEL (Ang.)       0.2115         C  1 -- C  6          +1.5% ( 12.4%)    100.0%
 REDUCED MASS        0.4811         C  2 -- H  8          +0.2% (  4.7%)    100.0%
 EFFECTIVE MASS      1.3894
 FORCE CONSTANT      2.7810

 VIBRATION         26   26A           ATOM PAIR      ENERGY CONTRIBUTION    RADIAL
 FREQUENCY          3135.46         C  5 -- H  9         +31.9% ( 58.2%)    100.0%
 TRANSITION DIPOLE   0.1384         C  4 -- H  7         +29.6% ( 56.0%)    100.0%
 TRAVEL (Ang.)       0.2912         C  3 -- H 10         +17.4% ( 43.0%)    100.0%
 REDUCED MASS        0.2536         C  2 -- H  8         +15.8% ( 41.0%)    100.0%
 EFFECTIVE MASS      1.4865
 FORCE CONSTANT      1.4687

 VIBRATION         27   27A           ATOM PAIR      ENERGY CONTRIBUTION    RADIAL
 FREQUENCY          3137.13         C  4 -- H  7         +25.2% ( 51.6%)    100.0%
 TRANSITION DIPOLE   0.4825         C  2 -- H  8         +24.1% ( 50.5%)    100.0%
 TRAVEL (Ang.)       0.3050         C  5 -- H  9         +22.8% ( 49.1%)    100.0%
 REDUCED MASS        0.2310         C  3 -- H 10         +22.6% ( 48.8%)    100.0%
 EFFECTIVE MASS      1.4738
 FORCE CONSTANT      1.3395

 VIBRATION         28   28A           ATOM PAIR      ENERGY CONTRIBUTION    RADIAL
 FREQUENCY          3140.19         C  6 -- H 12         +49.5% ( 72.1%)     97.1%
 TRANSITION DIPOLE   0.2055         C  6 -- H 11         +49.2% ( 71.8%)     97.0%
 TRAVEL (Ang.)       0.2003         C  1 -- C  6          +1.3% ( 11.7%)      0.0%
 REDUCED MASS        0.5352
 EFFECTIVE MASS      1.6074
 FORCE CONSTANT      3.1096

 VIBRATION         29   29A           ATOM PAIR      ENERGY CONTRIBUTION    RADIAL
 FREQUENCY          3148.26         C  3 -- H 10         +30.6% ( 57.1%)    100.0%
 TRANSITION DIPOLE   0.5597         C  2 -- H  8         +30.2% ( 56.7%)    100.0%
 TRAVEL (Ang.)       0.2904         C  5 -- H  9         +16.6% ( 42.1%)     99.9%
 REDUCED MASS        0.2539         C  4 -- H  7         +16.2% ( 41.5%)     99.9%
 EFFECTIVE MASS      1.6010
 FORCE CONSTANT      1.4829

 VIBRATION         30   30A           ATOM PAIR      ENERGY CONTRIBUTION    RADIAL
 FREQUENCY          3158.44         C  2 -- H  8         +23.6% ( 50.3%)     99.9%
 TRANSITION DIPOLE   0.2599         C  3 -- H 10         +23.1% ( 49.7%)     99.9%
 TRAVEL (Ang.)       0.3019         C  4 -- H  7         +23.0% ( 49.6%)    100.0%
 REDUCED MASS        0.2343         C  5 -- H  9         +22.6% ( 49.2%)    100.0%
 EFFECTIVE MASS      1.7040
 FORCE CONSTANT      1.3771

      SYMMETRY NUMBER FOR POINT-GROUP C1  =  1


          SYSTEM IS A GROUND STATE



 InChI=1S/C6H6/c1-6-4-2-3-5-6/h2-5H,1H2


          MOLECULE IS NOT LINEAR

          THERE ARE 30 GENUINE VIBRATIONS IN THIS SYSTEM
          THIS THERMODYNAMICS CALCULATION IS LIMITED TO
          MOLECULES WHICH HAVE NO INTERNAL ROTATIONS




                    CALCULATED THERMODYNAMIC PROPERTIES
                                          *
   TEMP. (K)   PARTITION FUNCTION   H.O.F.    ENTHALPY  HEAT CAPACITY ENTROPY
                                   KCAL/MOL   CAL/MOLE    CAL/K/MOL  CAL/K/MOL


 298.00  VIB.     0.3042D+01                  1361.6971    13.0104     6.7803
         ROT.     0.9629D+05                   888.2803     2.9808    25.7843
         INT.     0.2929D+06                  2249.9774    15.9912    32.5646
         TRA.     0.6674D+27                  1480.4672     4.9680    38.9795
         TOT.                       56.144    3730.4445    20.9592    71.5441

 200.00  VIB.     0.1601D+01                   421.9121     6.3285     3.0449
         ROT.     0.5294D+05                   596.1613     2.9808    24.5956
         INT.     0.8477D+05                  1018.0733     9.3093    27.6405
         TRA.     0.3670D+27                   993.6021     4.9680    36.9983
         TOT.                       54.426    2011.6755    14.2773    64.6388

 210.00  VIB.     0.1691D+01                   488.2896     6.9507     3.3686
         ROT.     0.5696D+05                   625.9693     2.9808    24.7411
         INT.     0.9630D+05                  1114.2590     9.9315    28.1096
         TRA.     0.3948D+27                  1043.2822     4.9680    37.2407
         TOT.                       54.571    2157.5412    14.8996    65.3504

 220.00  VIB.     0.1790D+01                   560.9963     7.5938     3.7067
         ROT.     0.6108D+05                   655.7774     2.9808    24.8797
         INT.     0.1093D+06                  1216.7737    10.5747    28.5864
         TRA.     0.4234D+27                  1092.9623     4.9680    37.4719
         TOT.                       54.724    2309.7361    15.5427    66.0583

 230.00  VIB.     0.1900D+01                   640.2266     8.2550     4.0588
         ROT.     0.6529D+05                   685.5855     2.9808    25.0122
         INT.     0.1240D+06                  1325.8121    11.2358    29.0710
         TRA.     0.4526D+27                  1142.6424     4.9680    37.6927
         TOT.                       54.882    2468.4545    16.2038    66.7637

 240.00  VIB.     0.2022D+01                   726.1460     8.9312     4.4244
         ROT.     0.6960D+05                   715.3935     2.9808    25.1391
         INT.     0.1407D+06                  1441.5395    11.9120    29.5634
         TRA.     0.4824D+27                  1192.3226     4.9680    37.9041
         TOT.                       55.048    2633.8621    16.8800    67.4676

 250.00  VIB.     0.2157D+01                   818.8910     9.6196     4.8029
         ROT.     0.7399D+05                   745.2016     2.9808    25.2608
         INT.     0.1596D+06                  1564.0926    12.6004    30.0636
         TRA.     0.5129D+27                  1242.0027     4.9680    38.1069
         TOT.                       55.220    2806.0952    17.5684    68.1706

 260.00  VIB.     0.2306D+01                   918.5696    10.3175     5.1937
         ROT.     0.7848D+05                   775.0097     2.9808    25.3777
         INT.     0.1810D+06                  1693.5793    13.2983    30.5714
         TRA.     0.5439D+27                  1291.6828     4.9680    38.3018
         TOT.                       55.399    2985.2620    18.2663    68.8732

 270.00  VIB.     0.2473D+01                  1025.2627    11.0221     5.5963
         ROT.     0.8305D+05                   804.8177     2.9808    25.4902
         INT.     0.2053D+06                  1830.0804    14.0029    31.0865
         TRA.     0.5756D+27                  1341.3629     4.9680    38.4893
         TOT.                       55.585    3171.4433    18.9709    69.5758

 280.00  VIB.     0.2657D+01                  1139.0251    11.7309     6.0100
         ROT.     0.8770D+05                   834.6258     2.9808    25.5986
         INT.     0.2330D+06                  1973.6509    14.7117    31.6085
         TRA.     0.6079D+27                  1391.0430     4.9680    38.6700
         TOT.                       55.779    3364.6938    19.6798    70.2785

 290.00  VIB.     0.2862D+01                  1259.8879    12.4418     6.4340
         ROT.     0.9244D+05                   864.4339     2.9808    25.7032
         INT.     0.2646D+06                  2124.3217    15.4226    32.1372
         TRA.     0.6407D+27                  1440.7231     4.9680    38.8443
         TOT.                       55.979    3565.0448    20.3906    70.9815

 300.00  VIB.     0.3089D+01                  1387.8600    13.1525     6.8678
         ROT.     0.9726D+05                   894.2419     2.9808    25.8042
         INT.     0.3005D+06                  2282.1019    16.1333    32.6720
         TRA.     0.6742D+27                  1490.4032     4.9680    39.0127
         TOT.                       56.186    3772.5051    21.1013    71.6847

 310.00  VIB.     0.3342D+01                  1522.9304    13.8611     7.3106
         ROT.     0.1022D+06                   924.0500     2.9808    25.9020
         INT.     0.3415D+06                  2446.9803    16.8419    33.2126
         TRA.     0.7082D+27                  1540.0833     4.9680    39.1756
         TOT.                       56.401    3987.0636    21.8099    72.3882

 320.00  VIB.     0.3624D+01                  1665.0701    14.5661     7.7618
         ROT.     0.1072D+06                   953.8580     2.9808    25.9966
         INT.     0.3883D+06                  2618.9282    17.5469    33.7584
         TRA.     0.7427D+27                  1589.7634     4.9680    39.3333
         TOT.                       56.623    4208.6916    22.5149    73.0918

 330.00  VIB.     0.3937D+01                  1814.2344    15.2658     8.2208
         ROT.     0.1122D+06                   983.6661     2.9808    26.0883
         INT.     0.4417D+06                  2797.9005    18.2466    34.3091
         TRA.     0.7778D+27                  1639.4435     4.9680    39.4862
         TOT.                       56.851    4437.3440    23.2146    73.7953

 340.00  VIB.     0.4285D+01                  1970.3644    15.9590     8.6868
         ROT.     0.1174D+06                  1013.4742     2.9808    26.1773
         INT.     0.5029D+06                  2983.8386    18.9398    34.8641
         TRA.     0.8134D+27                  1689.1236     4.9680    39.6345
         TOT.                       57.087    4672.9622    23.9078    74.4987

 350.00  VIB.     0.4673D+01                  2133.3893    16.6446     9.1593
         ROT.     0.1226D+06                  1043.2822     2.9808    26.2637
         INT.     0.5728D+06                  3176.6715    19.6254    35.4231
         TRA.     0.8496D+27                  1738.8037     4.9680    39.7785
         TOT.                       57.329    4915.4753    24.5934    75.2016

 360.00  VIB.     0.5106D+01                  2303.2278    17.3216     9.6377
         ROT.     0.1279D+06                  1073.0903     2.9808    26.3477
         INT.     0.6528D+06                  3376.3181    20.3024    35.9854
         TRA.     0.8862D+27                  1788.4838     4.9680    39.9185
         TOT.                       57.579    5164.8019    25.2704    75.9039

 370.00  VIB.     0.5588D+01                  2479.7899    17.9892    10.1215
         ROT.     0.1332D+06                  1102.8984     2.9808    26.4294
         INT.     0.7445D+06                  3582.6883    20.9700    36.5508
         TRA.     0.9234D+27                  1838.1639     4.9680    40.0546
         TOT.                       57.835    5420.8522    25.9380    76.6054

 380.00  VIB.     0.6127D+01                  2662.9783    18.6468    10.6100
         ROT.     0.1387D+06                  1132.7064     2.9808    26.5089
         INT.     0.8495D+06                  3795.6848    21.6276    37.1188
         TRA.     0.9611D+27                  1887.8440     4.9680    40.1871
         TOT.                       58.097    5683.5288    26.5956    77.3059

 390.00  VIB.     0.6728D+01                  2852.6899    19.2937    11.1027
         ROT.     0.1442D+06                  1162.5145     2.9808    26.5863
         INT.     0.9699D+06                  4015.2044    22.2746    37.6890
         TRA.     0.9993D+27                  1937.5242     4.9680    40.3161
         TOT.                       58.367    5952.7285    27.2426    78.0051

 400.00  VIB.     0.7399D+01                  3048.8166    19.9297    11.5992
         ROT.     0.1497D+06                  1192.3226     2.9808    26.6618
         INT.     0.1108D+07                  4241.1392    22.9105    38.2610
         TRA.     0.1038D+28                  1987.2043     4.9680    40.4419
         TOT.                       58.642    6228.3434    27.8786    78.7029

   *: NOTE: HEATS OF FORMATION ARE RELATIVE TO THE
            ELEMENTS IN THEIR STANDARD STATE AT 298K
              (=  Standard Enthalpy of Formation).

            Hvib:  Zero-point energy is not included.
                   frequencies of less than zero cm-1 are not included.
            Hrot = (3/2)RT
            Htra = (3/2)RT + pV = (5/2)RT

            Heat capacity is Cp, not Cv

          For more information, see: HTTP://OpenMOPAC.net/Manual/thermochemistry.html


           FORCE CONSTANT IN CARTESIAN COORDINATES (Millidynes/A)

    ATOM   CHEMICAL       X               Y               Z
   NUMBER   SYMBOL  FORCE CONSTANT  FORCE CONSTANT  FORCE CONSTANT

      1       C       11.802793       14.174124        2.310205
      2       C        9.764446       15.106037        2.142343
      3       C       14.952707        9.918843        2.141725
      4       C       12.277768       12.601106        2.161421
      5       C       11.211222       13.670800        2.160973
      6       C       11.364791       13.017670        2.001851
      7       H        4.905089        1.211467        0.344473
      8       H        2.142450        3.977756        0.331924
      9       H        0.718239        5.396971        0.344370
     10       H        4.968497        1.151391        0.331964
     11       H        1.248423        4.826204        0.336817
     12       H        5.369980        0.704053        0.336849

 **********************
 *                    *
 * JOB ENDED NORMALLY *
 *                    *
 **********************



 TOTAL JOB TIME:             0.57 SECONDS

 == MOPAC DONE ==
