 *******************************************************************************
 **                                                                           **
 **                              MOPAC v23.1.2                                **
 **                                                                           **
 *******************************************************************************
 **          Digital Object Identifier (DOI): 10.5281/zenodo.6511958          **
 **    Visit the DOI location for information on how to cite this program.    **
 *******************************************************************************

                              PM3 CALCULATION RESULTS

 *******************************************************************************
 *  CALCULATION DONE: (MAX THREADS = 1)              Tue Jun  3 16:38:28 2025  *
 *  PM3        - The PM3 Hamiltonian to be used
 *  PRECISE    - TIGHTER CRITERIA TO BE USED
 *  NOSYM      - POINT-GROUP SYMMETRY SET TO C1
 *  THREADS=1  - MULTI-THREADING NOT USED
 *  T=         - A TIME OF 172800.0 SECONDS REQUESTED
 *  DUMP=N     - RESTART FILE WRITTEN EVERY 7200.0 SECONDS REQUESTED
 *******************************************************************************
pm3  precise nosym THREADS=1
 InChI=1S/C12H22/c1-4-6-7-10(3)12-8-11(5-2)9-12/h6-7,10-12H,4-5,8-9H2,1-3H3

   ATOM   CHEMICAL          X               Y               Z
  NUMBER   SYMBOL      (ANGSTROMS)     (ANGSTROMS)     (ANGSTROMS)

     1       C          0.59710000  *   0.92880000  *  -1.11600000  *
     2       C          2.56370000  *   0.55870000  *  -0.28610000  *
     3       C         -0.57220000  *  -0.08400000  *  -1.15840000  *
     4       C          1.23800000  *   1.08320000  *   0.26670000  *
     5       C          1.92120000  *   0.38550000  *  -1.66190000  *
     6       C          3.02810000  *  -0.76830000  *   0.33970000  *
     7       C         -3.84710000  *   0.06690000  *   0.93300000  *
     8       C         -1.04780000  *  -0.29300000  *  -2.60240000  *
     9       C          3.59850000  *  -0.55320000  *   1.73890000  *
    10       C         -3.38730000  *   0.36560000  *   2.35740000  *
    11       C         -1.72260000  *   0.40850000  *  -0.30960000  *
    12       C         -2.70670000  *  -0.41630000  *   0.08070000  *
    13       H          3.35980000  *   1.33690000  *  -0.29600000  *
    14       H          0.33420000  *   1.91460000  *  -1.56290000  *
    15       H         -0.22200000  *  -1.06080000  *  -0.75320000  *
    16       H          2.18660000  *  -1.49400000  *   0.39310000  *
    17       H          3.82130000  *  -1.20960000  *  -0.30170000  *
    18       H          1.30750000  *   2.14790000  *   0.57900000  *
    19       H          0.78570000  *   0.43160000  *   1.04740000  *
    20       H          1.87380000  *  -0.67340000  *  -2.00090000  *
    21       H          2.36880000  *   1.06290000  *  -2.42150000  *
    22       H         -4.62930000  *  -0.72150000  *   0.96870000  *
    23       H         -4.29700000  *   0.97780000  *   0.48200000  *
    24       H          4.46170000  *   0.14490000  *   1.69980000  *
    25       H          2.82270000  *  -0.13830000  *   2.41630000  *
    26       H          3.94550000  *  -1.52390000  *   2.15140000  *
    27       H         -4.25870000  *   0.67780000  *   2.97050000  *
    28       H         -2.93720000  *  -0.54150000  *   2.81460000  *
    29       H         -2.64020000  *   1.18750000  *   2.36220000  *
    30       H         -0.21950000  *  -0.67410000  *  -3.23550000  *
    31       H         -1.41630000  *   0.66260000  *  -3.03410000  *
    32       H         -1.86930000  *  -1.04010000  *  -2.63470000  *
    33       H         -2.70120000  *  -1.45490000  *  -0.23880000  *
    34       H         -1.73980000  *   1.44720000  *   0.01220000  *



          CARTESIAN COORDINATES 

    NO.       ATOM           X           Y           Z

     1         C          0.5971      0.9288     -1.1160
     2         C          2.5637      0.5587     -0.2861
     3         C         -0.5722     -0.0840     -1.1584
     4         C          1.2380      1.0832      0.2667
     5         C          1.9212      0.3855     -1.6619
     6         C          3.0281     -0.7683      0.3397
     7         C         -3.8471      0.0669      0.9330
     8         C         -1.0478     -0.2930     -2.6024
     9         C          3.5985     -0.5532      1.7389
    10         C         -3.3873      0.3656      2.3574
    11         C         -1.7226      0.4085     -0.3096
    12         C         -2.7067     -0.4163      0.0807
    13         H          3.3598      1.3369     -0.2960
    14         H          0.3342      1.9146     -1.5629
    15         H         -0.2220     -1.0608     -0.7532
    16         H          2.1866     -1.4940      0.3931
    17         H          3.8213     -1.2096     -0.3017
    18         H          1.3075      2.1479      0.5790
    19         H          0.7857      0.4316      1.0474
    20         H          1.8738     -0.6734     -2.0009
    21         H          2.3688      1.0629     -2.4215
    22         H         -4.6293     -0.7215      0.9687
    23         H         -4.2970      0.9778      0.4820
    24         H          4.4617      0.1449      1.6998
    25         H          2.8227     -0.1383      2.4163
    26         H          3.9455     -1.5239      2.1514
    27         H         -4.2587      0.6778      2.9705
    28         H         -2.9372     -0.5415      2.8146
    29         H         -2.6402      1.1875      2.3622
    30         H         -0.2195     -0.6741     -3.2355
    31         H         -1.4163      0.6626     -3.0341
    32         H         -1.8693     -1.0401     -2.6347
    33         H         -2.7012     -1.4549     -0.2388
    34         H         -1.7398      1.4472      0.0122

  H: (PM3): J. J. P. STEWART, J. COMP. CHEM. 10, 209 (1989).
  C: (PM3): J. J. P. STEWART, J. COMP. CHEM. 10, 209 (1989).

           Empirical Formula: C12 H22  =    34 atoms



      MOLECULAR POINT GROUP   :   C1  


      RHF CALCULATION, NO. OF DOUBLY OCCUPIED LEVELS = 35


          Geometry optimization using L-BFGS
 CYCLE:     1 TIME:   0.012 TIME LEFT:  2.00D  GRAD.:    84.726 HEAT: -16.43571
 CYCLE:     2 TIME:   0.012 TIME LEFT:  2.00D  GRAD.:    83.355 HEAT: -16.50691
 CYCLE:     3 TIME:   0.008 TIME LEFT:  2.00D  GRAD.:    32.729 HEAT: -19.42344
 CYCLE:     4 TIME:   0.012 TIME LEFT:  2.00D  GRAD.:    83.359 HEAT: -16.50697
 CYCLE:     5 TIME:   0.008 TIME LEFT:  2.00D  GRAD.:    32.731 HEAT: -19.42343
 CYCLE:     6 TIME:   0.012 TIME LEFT:  2.00D  GRAD.:    31.624 HEAT: -19.92893
 CYCLE:     7 TIME:   0.012 TIME LEFT:  2.00D  GRAD.:    21.379 HEAT: -20.47049
 CYCLE:     8 TIME:   0.008 TIME LEFT:  2.00D  GRAD.:    18.145 HEAT: -20.89858
 CYCLE:     9 TIME:   0.012 TIME LEFT:  2.00D  GRAD.:    20.255 HEAT: -21.12027
 CYCLE:    10 TIME:   0.012 TIME LEFT:  2.00D  GRAD.:     6.816 HEAT: -21.23172
 CYCLE:    11 TIME:   0.008 TIME LEFT:  2.00D  GRAD.:     3.183 HEAT: -21.24681
 CYCLE:    12 TIME:   0.012 TIME LEFT:  2.00D  GRAD.:     2.505 HEAT: -21.25552
 CYCLE:    13 TIME:   0.008 TIME LEFT:  2.00D  GRAD.:     2.512 HEAT: -21.26373
 CYCLE:    14 TIME:   0.012 TIME LEFT:  2.00D  GRAD.:     3.287 HEAT: -21.27271
 CYCLE:    15 TIME:   0.012 TIME LEFT:  2.00D  GRAD.:     3.503 HEAT: -21.27715
 CYCLE:    16 TIME:   0.012 TIME LEFT:  2.00D  GRAD.:     1.614 HEAT: -21.28202
 CYCLE:    17 TIME:   0.008 TIME LEFT:  2.00D  GRAD.:     1.645 HEAT: -21.28555
 CYCLE:    18 TIME:   0.012 TIME LEFT:  2.00D  GRAD.:     1.958 HEAT: -21.29007
 CYCLE:    19 TIME:   0.012 TIME LEFT:  2.00D  GRAD.:     2.850 HEAT: -21.29731
 CYCLE:    20 TIME:   0.012 TIME LEFT:  2.00D  GRAD.:     2.623 HEAT: -21.30361
 CYCLE:    21 TIME:   0.012 TIME LEFT:  2.00D  GRAD.:     2.327 HEAT: -21.31102
 CYCLE:    22 TIME:   0.008 TIME LEFT:  2.00D  GRAD.:     3.922 HEAT: -21.31895
 CYCLE:    23 TIME:   0.012 TIME LEFT:  2.00D  GRAD.:     3.125 HEAT: -21.32598
 CYCLE:    24 TIME:   0.012 TIME LEFT:  2.00D  GRAD.:     3.199 HEAT: -21.33432
 CYCLE:    25 TIME:   0.012 TIME LEFT:  2.00D  GRAD.:     3.403 HEAT: -21.34838
 CYCLE:    26 TIME:   0.012 TIME LEFT:  2.00D  GRAD.:     3.687 HEAT: -21.36156
 CYCLE:    27 TIME:   0.012 TIME LEFT:  2.00D  GRAD.:     4.534 HEAT: -21.37422
 CYCLE:    28 TIME:   0.008 TIME LEFT:  2.00D  GRAD.:     5.090 HEAT: -21.38648
 CYCLE:    29 TIME:   0.012 TIME LEFT:  2.00D  GRAD.:     6.656 HEAT: -21.39592
 CYCLE:    30 TIME:   0.012 TIME LEFT:  2.00D  GRAD.:     8.724 HEAT: -21.41457
 CYCLE:    31 TIME:   0.012 TIME LEFT:  2.00D  GRAD.:    15.994 HEAT: -21.36870
 CYCLE:    32 TIME:   0.008 TIME LEFT:  2.00D  GRAD.:    14.205 HEAT: -21.42627
 CYCLE:    33 TIME:   0.012 TIME LEFT:  2.00D  GRAD.:     9.517 HEAT: -21.49340
 CYCLE:    34 TIME:   0.012 TIME LEFT:  2.00D  GRAD.:    11.644 HEAT: -21.50507
 CYCLE:    35 TIME:   0.012 TIME LEFT:  2.00D  GRAD.:     9.279 HEAT: -21.52105
 CYCLE:    36 TIME:   0.012 TIME LEFT:  2.00D  GRAD.:    11.747 HEAT: -21.52146
 CYCLE:    37 TIME:   0.012 TIME LEFT:  2.00D  GRAD.:    36.422 HEAT: -21.17379
 CYCLE:    38 TIME:   0.012 TIME LEFT:  2.00D  GRAD.:    28.331 HEAT: -21.46026
 CYCLE:    39 TIME:   0.012 TIME LEFT:  2.00D  GRAD.:    64.623 HEAT: -20.78533
 CYCLE:    40 TIME:   0.012 TIME LEFT:  2.00D  GRAD.:     5.874 HEAT: -21.59356
 CYCLE:    41 TIME:   0.012 TIME LEFT:  2.00D  GRAD.:    15.602 HEAT: -21.55095
 CYCLE:    42 TIME:   0.012 TIME LEFT:  2.00D  GRAD.:     4.714 HEAT: -21.62141
 CYCLE:    43 TIME:   0.012 TIME LEFT:  2.00D  GRAD.:     3.182 HEAT: -21.63531
 CYCLE:    44 TIME:   0.012 TIME LEFT:  2.00D  GRAD.:     5.004 HEAT: -21.65963
 CYCLE:    45 TIME:   0.008 TIME LEFT:  2.00D  GRAD.:    14.656 HEAT: -21.74443
 CYCLE:    46 TIME:   0.012 TIME LEFT:  2.00D  GRAD.:    13.209 HEAT: -21.78810
 CYCLE:    47 TIME:   0.012 TIME LEFT:  2.00D  GRAD.:    11.198 HEAT: -21.89732
 CYCLE:    48 TIME:   0.012 TIME LEFT:  2.00D  GRAD.:     7.910 HEAT: -21.94782
 CYCLE:    49 TIME:   0.012 TIME LEFT:  2.00D  GRAD.:    11.085 HEAT: -21.98527
 CYCLE:    50 TIME:   0.008 TIME LEFT:  2.00D  GRAD.:     8.653 HEAT: -22.03440
 CYCLE:    51 TIME:   0.016 TIME LEFT:  2.00D  GRAD.:     6.159 HEAT: -22.09560
 CYCLE:    52 TIME:   0.012 TIME LEFT:  2.00D  GRAD.:     6.331 HEAT: -22.15527
 CYCLE:    53 TIME:   0.012 TIME LEFT:  2.00D  GRAD.:     6.960 HEAT: -22.20257
 CYCLE:    54 TIME:   0.008 TIME LEFT:  2.00D  GRAD.:    11.345 HEAT: -22.22483
 CYCLE:    55 TIME:   0.012 TIME LEFT:  2.00D  GRAD.:     5.244 HEAT: -22.25048
 CYCLE:    56 TIME:   0.012 TIME LEFT:  2.00D  GRAD.:     6.972 HEAT: -22.27270
 CYCLE:    57 TIME:   0.008 TIME LEFT:  2.00D  GRAD.:     4.363 HEAT: -22.29095
 CYCLE:    58 TIME:   0.012 TIME LEFT:  2.00D  GRAD.:     3.368 HEAT: -22.30451
 CYCLE:    59 TIME:   0.012 TIME LEFT:  2.00D  GRAD.:     3.195 HEAT: -22.31923
 CYCLE:    60 TIME:   0.012 TIME LEFT:  2.00D  GRAD.:    10.297 HEAT: -22.32305
 CYCLE:    61 TIME:   0.008 TIME LEFT:  2.00D  GRAD.:     3.414 HEAT: -22.34545
 CYCLE:    62 TIME:   0.012 TIME LEFT:  2.00D  GRAD.:     2.310 HEAT: -22.35275
 CYCLE:    63 TIME:   0.008 TIME LEFT:  2.00D  GRAD.:     3.158 HEAT: -22.36127
 CYCLE:    64 TIME:   0.012 TIME LEFT:  2.00D  GRAD.:     3.482 HEAT: -22.37321
 CYCLE:    65 TIME:   0.012 TIME LEFT:  2.00D  GRAD.:     9.882 HEAT: -22.37531
 CYCLE:    66 TIME:   0.012 TIME LEFT:  2.00D  GRAD.:     2.630 HEAT: -22.40006
 CYCLE:    67 TIME:   0.012 TIME LEFT:  2.00D  GRAD.:     1.892 HEAT: -22.40636
 CYCLE:    68 TIME:   0.008 TIME LEFT:  2.00D  GRAD.:     2.874 HEAT: -22.41745
 CYCLE:    69 TIME:   0.012 TIME LEFT:  2.00D  GRAD.:     6.480 HEAT: -22.42077
 CYCLE:    70 TIME:   0.012 TIME LEFT:  2.00D  GRAD.:     3.052 HEAT: -22.42975
 CYCLE:    71 TIME:   0.012 TIME LEFT:  2.00D  GRAD.:     2.987 HEAT: -22.43479
 CYCLE:    72 TIME:   0.012 TIME LEFT:  2.00D  GRAD.:     2.255 HEAT: -22.44228
 CYCLE:    73 TIME:   0.012 TIME LEFT:  2.00D  GRAD.:     4.577 HEAT: -22.44799
 CYCLE:    74 TIME:   0.012 TIME LEFT:  2.00D  GRAD.:     2.742 HEAT: -22.45673
 CYCLE:    75 TIME:   0.012 TIME LEFT:  2.00D  GRAD.:     2.538 HEAT: -22.46164
 CYCLE:    76 TIME:   0.012 TIME LEFT:  2.00D  GRAD.:     2.662 HEAT: -22.47116
 CYCLE:    77 TIME:   0.012 TIME LEFT:  2.00D  GRAD.:     5.229 HEAT: -22.47733
 CYCLE:    78 TIME:   0.012 TIME LEFT:  2.00D  GRAD.:     2.335 HEAT: -22.48546
 CYCLE:    79 TIME:   0.008 TIME LEFT:  2.00D  GRAD.:     1.842 HEAT: -22.49047
 CYCLE:    80 TIME:   0.012 TIME LEFT:  2.00D  GRAD.:     2.480 HEAT: -22.49866
 CYCLE:    81 TIME:   0.012 TIME LEFT:  2.00D  GRAD.:     3.008 HEAT: -22.50874
 CYCLE:    82 TIME:   0.012 TIME LEFT:  2.00D  GRAD.:     8.997 HEAT: -22.50281
 CYCLE:    83 TIME:   0.012 TIME LEFT:  2.00D  GRAD.:     2.245 HEAT: -22.52292
 CYCLE:    84 TIME:   0.012 TIME LEFT:  2.00D  GRAD.:     1.656 HEAT: -22.52666
 CYCLE:    85 TIME:   0.012 TIME LEFT:  2.00D  GRAD.:     2.402 HEAT: -22.53367
 CYCLE:    86 TIME:   0.012 TIME LEFT:  2.00D  GRAD.:     2.566 HEAT: -22.54126
 CYCLE:    87 TIME:   0.012 TIME LEFT:  2.00D  GRAD.:     5.104 HEAT: -22.54453
 CYCLE:    88 TIME:   0.008 TIME LEFT:  2.00D  GRAD.:     1.971 HEAT: -22.55196
 CYCLE:    89 TIME:   0.012 TIME LEFT:  2.00D  GRAD.:     1.501 HEAT: -22.55442
 CYCLE:    90 TIME:   0.012 TIME LEFT:  2.00D  GRAD.:     2.325 HEAT: -22.55795
 CYCLE:    91 TIME:   0.012 TIME LEFT:  2.00D  GRAD.:     2.388 HEAT: -22.56195
 CYCLE:    92 TIME:   0.008 TIME LEFT:  2.00D  GRAD.:     1.572 HEAT: -22.56521
 CYCLE:    93 TIME:   0.012 TIME LEFT:  2.00D  GRAD.:     1.522 HEAT: -22.56915
 CYCLE:    94 TIME:   0.012 TIME LEFT:  2.00D  GRAD.:     1.772 HEAT: -22.57144
 CYCLE:    95 TIME:   0.012 TIME LEFT:  2.00D  GRAD.:     1.021 HEAT: -22.57312
 CYCLE:    96 TIME:   0.008 TIME LEFT:  2.00D  GRAD.:     0.807 HEAT: -22.57421
 CYCLE:    97 TIME:   0.012 TIME LEFT:  2.00D  GRAD.:     1.059 HEAT: -22.57542
 CYCLE:    98 TIME:   0.012 TIME LEFT:  2.00D  GRAD.:     1.190 HEAT: -22.57638
 CYCLE:    99 TIME:   0.008 TIME LEFT:  2.00D  GRAD.:     0.839 HEAT: -22.57728
 CYCLE:   100 TIME:   0.012 TIME LEFT:  2.00D  GRAD.:     0.817 HEAT: -22.57839
 CYCLE:   101 TIME:   0.012 TIME LEFT:  2.00D  GRAD.:     1.018 HEAT: -22.57917
 CYCLE:   102 TIME:   0.012 TIME LEFT:  2.00D  GRAD.:     0.949 HEAT: -22.58027
 CYCLE:   103 TIME:   0.008 TIME LEFT:  2.00D  GRAD.:     1.707 HEAT: -22.58209
 CYCLE:   104 TIME:   0.012 TIME LEFT:  2.00D  GRAD.:     1.537 HEAT: -22.58366
 CYCLE:   105 TIME:   0.012 TIME LEFT:  2.00D  GRAD.:     1.033 HEAT: -22.58480
 CYCLE:   106 TIME:   0.012 TIME LEFT:  2.00D  GRAD.:     1.041 HEAT: -22.58605
 CYCLE:   107 TIME:   0.008 TIME LEFT:  2.00D  GRAD.:     1.171 HEAT: -22.58687
 CYCLE:   108 TIME:   0.012 TIME LEFT:  2.00D  GRAD.:     0.967 HEAT: -22.58756
 CYCLE:   109 TIME:   0.012 TIME LEFT:  2.00D  GRAD.:     0.740 HEAT: -22.58890
 CYCLE:   110 TIME:   0.012 TIME LEFT:  2.00D  GRAD.:     1.629 HEAT: -22.58965
 CYCLE:   111 TIME:   0.012 TIME LEFT:  2.00D  GRAD.:     0.973 HEAT: -22.59078
 CYCLE:   112 TIME:   0.012 TIME LEFT:  2.00D  GRAD.:     0.971 HEAT: -22.59226
 CYCLE:   113 TIME:   0.012 TIME LEFT:  2.00D  GRAD.:     1.179 HEAT: -22.59377
 CYCLE:   114 TIME:   0.012 TIME LEFT:  2.00D  GRAD.:     1.526 HEAT: -22.59614
 CYCLE:   115 TIME:   0.008 TIME LEFT:  2.00D  GRAD.:     1.409 HEAT: -22.59855
 CYCLE:   116 TIME:   0.012 TIME LEFT:  2.00D  GRAD.:     1.556 HEAT: -22.60048
 CYCLE:   117 TIME:   0.012 TIME LEFT:  2.00D  GRAD.:     1.843 HEAT: -22.60199
 CYCLE:   118 TIME:   0.008 TIME LEFT:  2.00D  GRAD.:     2.219 HEAT: -22.60385
 CYCLE:   119 TIME:   0.012 TIME LEFT:  2.00D  GRAD.:     4.777 HEAT: -22.60603
 CYCLE:   120 TIME:   0.012 TIME LEFT:  2.00D  GRAD.:     4.007 HEAT: -22.60637
 CYCLE:   121 TIME:   0.012 TIME LEFT:  2.00D  GRAD.:     3.267 HEAT: -22.60842
 CYCLE:   122 TIME:   0.012 TIME LEFT:  2.00D  GRAD.:     1.853 HEAT: -22.61069
 CYCLE:   123 TIME:   0.008 TIME LEFT:  2.00D  GRAD.:     2.419 HEAT: -22.61171
 CYCLE:   124 TIME:   0.012 TIME LEFT:  2.00D  GRAD.:     1.005 HEAT: -22.61376
 CYCLE:   125 TIME:   0.012 TIME LEFT:  2.00D  GRAD.:     0.682 HEAT: -22.61459
 CYCLE:   126 TIME:   0.012 TIME LEFT:  2.00D  GRAD.:     1.219 HEAT: -22.61583
 CYCLE:   127 TIME:   0.012 TIME LEFT:  2.00D  GRAD.:     1.607 HEAT: -22.61617
 CYCLE:   128 TIME:   0.012 TIME LEFT:  2.00D  GRAD.:     0.906 HEAT: -22.61770
 CYCLE:   129 TIME:   0.008 TIME LEFT:  2.00D  GRAD.:     0.594 HEAT: -22.61823
 CYCLE:   130 TIME:   0.012 TIME LEFT:  2.00D  GRAD.:     0.914 HEAT: -22.61883
 CYCLE:   131 TIME:   0.012 TIME LEFT:  2.00D  GRAD.:     1.025 HEAT: -22.61988
 CYCLE:   132 TIME:   0.012 TIME LEFT:  2.00D  GRAD.:     1.717 HEAT: -22.62075
 CYCLE:   133 TIME:   0.008 TIME LEFT:  2.00D  GRAD.:     0.828 HEAT: -22.62192
 CYCLE:   134 TIME:   0.012 TIME LEFT:  2.00D  GRAD.:     0.732 HEAT: -22.62258
 CYCLE:   135 TIME:   0.008 TIME LEFT:  2.00D  GRAD.:     0.854 HEAT: -22.62322
 CYCLE:   136 TIME:   0.012 TIME LEFT:  2.00D  GRAD.:     1.128 HEAT: -22.62399
 CYCLE:   137 TIME:   0.012 TIME LEFT:  2.00D  GRAD.:     0.637 HEAT: -22.62473
 CYCLE:   138 TIME:   0.012 TIME LEFT:  2.00D  GRAD.:     0.541 HEAT: -22.62518
 CYCLE:   139 TIME:   0.008 TIME LEFT:  2.00D  GRAD.:     0.847 HEAT: -22.62587
 CYCLE:   140 TIME:   0.012 TIME LEFT:  2.00D  GRAD.:     1.926 HEAT: -22.62606
 CYCLE:   141 TIME:   0.012 TIME LEFT:  2.00D  GRAD.:     0.835 HEAT: -22.62676
 CYCLE:   142 TIME:   0.012 TIME LEFT:  2.00D  GRAD.:     0.555 HEAT: -22.62725
 CYCLE:   143 TIME:   0.008 TIME LEFT:  2.00D  GRAD.:     0.709 HEAT: -22.62765
 CYCLE:   144 TIME:   0.012 TIME LEFT:  2.00D  GRAD.:     0.744 HEAT: -22.62824
 CYCLE:   145 TIME:   0.012 TIME LEFT:  2.00D  GRAD.:     1.652 HEAT: -22.62844
 CYCLE:   146 TIME:   0.008 TIME LEFT:  2.00D  GRAD.:     0.826 HEAT: -22.62918
 CYCLE:   147 TIME:   0.012 TIME LEFT:  2.00D  GRAD.:     0.444 HEAT: -22.62951
 CYCLE:   148 TIME:   0.012 TIME LEFT:  2.00D  GRAD.:     0.441 HEAT: -22.62973
 CYCLE:   149 TIME:   0.008 TIME LEFT:  2.00D  GRAD.:     0.502 HEAT: -22.62999
 CYCLE:   150 TIME:   0.012 TIME LEFT:  2.00D  GRAD.:     1.568 HEAT: -22.63002
 CYCLE:   151 TIME:   0.012 TIME LEFT:  2.00D  GRAD.:     0.533 HEAT: -22.63058
 CYCLE:   152 TIME:   0.008 TIME LEFT:  2.00D  GRAD.:     0.334 HEAT: -22.63077
 CYCLE:   153 TIME:   0.012 TIME LEFT:  2.00D  GRAD.:     0.479 HEAT: -22.63101
 CYCLE:   154 TIME:   0.012 TIME LEFT:  2.00D  GRAD.:     0.645 HEAT: -22.63138
 CYCLE:   155 TIME:   0.008 TIME LEFT:  2.00D  GRAD.:     1.331 HEAT: -22.63208
 CYCLE:   156 TIME:   0.012 TIME LEFT:  2.00D  GRAD.:     0.885 HEAT: -22.63288
 CYCLE:   157 TIME:   0.012 TIME LEFT:  2.00D  GRAD.:     0.949 HEAT: -22.63363
 CYCLE:   158 TIME:   0.012 TIME LEFT:  2.00D  GRAD.:     0.965 HEAT: -22.63463
 CYCLE:   159 TIME:   0.012 TIME LEFT:  2.00D  GRAD.:     0.891 HEAT: -22.63544
 CYCLE:   160 TIME:   0.008 TIME LEFT:  2.00D  GRAD.:     0.815 HEAT: -22.63660
 CYCLE:   161 TIME:   0.012 TIME LEFT:  2.00D  GRAD.:     1.328 HEAT: -22.63791
 CYCLE:   162 TIME:   0.012 TIME LEFT:  2.00D  GRAD.:     1.064 HEAT: -22.63911
 CYCLE:   163 TIME:   0.012 TIME LEFT:  2.00D  GRAD.:     1.130 HEAT: -22.64003
 CYCLE:   164 TIME:   0.012 TIME LEFT:  2.00D  GRAD.:     1.284 HEAT: -22.64090
 CYCLE:   165 TIME:   0.008 TIME LEFT:  2.00D  GRAD.:     0.985 HEAT: -22.64209
 CYCLE:   166 TIME:   0.012 TIME LEFT:  2.00D  GRAD.:     0.701 HEAT: -22.64280
 CYCLE:   167 TIME:   0.012 TIME LEFT:  2.00D  GRAD.:     0.737 HEAT: -22.64342
 CYCLE:   168 TIME:   0.012 TIME LEFT:  2.00D  GRAD.:     0.862 HEAT: -22.64433
 CYCLE:   169 TIME:   0.012 TIME LEFT:  2.00D  GRAD.:     1.116 HEAT: -22.64483
 CYCLE:   170 TIME:   0.012 TIME LEFT:  2.00D  GRAD.:     0.701 HEAT: -22.64540
 CYCLE:   171 TIME:   0.012 TIME LEFT:  2.00D  GRAD.:     0.746 HEAT: -22.64575
 CYCLE:   172 TIME:   0.008 TIME LEFT:  2.00D  GRAD.:     0.735 HEAT: -22.64595
 CYCLE:   173 TIME:   0.012 TIME LEFT:  2.00D  GRAD.:     0.491 HEAT: -22.64610
 CYCLE:   174 TIME:   0.012 TIME LEFT:  2.00D  GRAD.:     0.289 HEAT: -22.64629
 CYCLE:   175 TIME:   0.012 TIME LEFT:  2.00D  GRAD.:     0.411 HEAT: -22.64644
 CYCLE:   176 TIME:   0.012 TIME LEFT:  2.00D  GRAD.:     0.420 HEAT: -22.64663
 CYCLE:   177 TIME:   0.008 TIME LEFT:  2.00D  GRAD.:     0.683 HEAT: -22.64674
 CYCLE:   178 TIME:   0.012 TIME LEFT:  2.00D  GRAD.:     0.354 HEAT: -22.64695
 CYCLE:   179 TIME:   0.012 TIME LEFT:  2.00D  GRAD.:     0.418 HEAT: -22.64711
 CYCLE:   180 TIME:   0.012 TIME LEFT:  2.00D  GRAD.:     0.459 HEAT: -22.64729
 CYCLE:   181 TIME:   0.012 TIME LEFT:  2.00D  GRAD.:     0.638 HEAT: -22.64751
 CYCLE:   182 TIME:   0.012 TIME LEFT:  2.00D  GRAD.:     0.519 HEAT: -22.64768
 CYCLE:   183 TIME:   0.008 TIME LEFT:  2.00D  GRAD.:     0.406 HEAT: -22.64791
 CYCLE:   184 TIME:   0.012 TIME LEFT:  2.00D  GRAD.:     0.455 HEAT: -22.64802
 CYCLE:   185 TIME:   0.012 TIME LEFT:  2.00D  GRAD.:     0.695 HEAT: -22.64828
 CYCLE:   186 TIME:   0.012 TIME LEFT:  2.00D  GRAD.:     0.599 HEAT: -22.64853
 CYCLE:   187 TIME:   0.012 TIME LEFT:  2.00D  GRAD.:     0.539 HEAT: -22.64882
 CYCLE:   188 TIME:   0.012 TIME LEFT:  2.00D  GRAD.:     0.984 HEAT: -22.64899
 CYCLE:   189 TIME:   0.008 TIME LEFT:  2.00D  GRAD.:     0.466 HEAT: -22.64920
 CYCLE:   190 TIME:   0.012 TIME LEFT:  2.00D  GRAD.:     0.398 HEAT: -22.64938
 CYCLE:   191 TIME:   0.012 TIME LEFT:  2.00D  GRAD.:     0.510 HEAT: -22.64958
 CYCLE:   192 TIME:   0.012 TIME LEFT:  2.00D  GRAD.:     0.564 HEAT: -22.64991
 CYCLE:   193 TIME:   0.012 TIME LEFT:  2.00D  GRAD.:     1.511 HEAT: -22.64981
 CYCLE:   194 TIME:   0.008 TIME LEFT:  2.00D  GRAD.:     0.338 HEAT: -22.65033
 CYCLE:   195 TIME:   0.012 TIME LEFT:  2.00D  GRAD.:     0.263 HEAT: -22.65044
 CYCLE:   196 TIME:   0.012 TIME LEFT:  2.00D  GRAD.:     0.597 HEAT: -22.65052
 CYCLE:   197 TIME:   0.012 TIME LEFT:  2.00D  GRAD.:     0.540 HEAT: -22.65074
 CYCLE:   198 TIME:   0.008 TIME LEFT:  2.00D  GRAD.:     0.576 HEAT: -22.65090
 CYCLE:   199 TIME:   0.012 TIME LEFT:  2.00D  GRAD.:     0.428 HEAT: -22.65107
 CYCLE:   200 TIME:   0.012 TIME LEFT:  2.00D  GRAD.:     0.605 HEAT: -22.65132
 CYCLE:   201 TIME:   0.012 TIME LEFT:  2.00D  GRAD.:     0.477 HEAT: -22.65153
 CYCLE:   202 TIME:   0.008 TIME LEFT:  2.00D  GRAD.:     0.540 HEAT: -22.65180
 CYCLE:   203 TIME:   0.012 TIME LEFT:  2.00D  GRAD.:     0.466 HEAT: -22.65211
 CYCLE:   204 TIME:   0.012 TIME LEFT:  2.00D  GRAD.:     1.127 HEAT: -22.65224
 CYCLE:   205 TIME:   0.012 TIME LEFT:  2.00D  GRAD.:     0.280 HEAT: -22.65260
 CYCLE:   206 TIME:   0.008 TIME LEFT:  2.00D  GRAD.:     0.232 HEAT: -22.65268
 CYCLE:   207 TIME:   0.012 TIME LEFT:  2.00D  GRAD.:     0.492 HEAT: -22.65274
 CYCLE:   208 TIME:   0.008 TIME LEFT:  2.00D  GRAD.:     0.330 HEAT: -22.65284
 CYCLE:   209 TIME:   0.012 TIME LEFT:  2.00D  GRAD.:     0.310 HEAT: -22.65290
 CYCLE:   210 TIME:   0.012 TIME LEFT:  2.00D  GRAD.:     0.279 HEAT: -22.65290
 CYCLE:   211 TIME:   0.012 TIME LEFT:  2.00D  GRAD.:     0.251 HEAT: -22.65299
 CYCLE:   212 TIME:   0.008 TIME LEFT:  2.00D  GRAD.:     0.212 HEAT: -22.65309
 CYCLE:   213 TIME:   0.016 TIME LEFT:  2.00D  GRAD.:     0.306 HEAT: -22.65309
 CYCLE:   214 TIME:   0.008 TIME LEFT:  2.00D  GRAD.:     0.523 HEAT: -22.65313
 CYCLE:   215 TIME:   0.012 TIME LEFT:  2.00D  GRAD.:     0.240 HEAT: -22.65321
 CYCLE:   216 TIME:   0.012 TIME LEFT:  2.00D  GRAD.:     0.146 HEAT: -22.65323

 -------------------------------------------------------------------------------
 pm3  precise nosym THREADS=1
 InChI=1S/C12H22/c1-4-6-7-10(3)12-8-11(5-2)9-12/h6-7,10-12H,4-5,8-9H2,1-3H3



     HERBERTS TEST WAS SATISFIED IN BFGS                      
     SCF FIELD WAS ACHIEVED                                   


                              PM3 CALCULATION
                                                       MOPAC v23.1.2 MacOS
                                                       Tue Jun  3 16:38:30 2025




          FINAL HEAT OF FORMATION =        -22.65323 KCAL/MOL =     -94.78113 KJ/MOL


          COSMO AREA              =        241.56 SQUARE ANGSTROMS
          COSMO VOLUME            =        258.15 CUBIC ANGSTROMS

          GRADIENT NORM           =          0.14590          =       0.02502 PER ATOM
          IONIZATION POTENTIAL    =          9.804951 EV
          HOMO LUMO ENERGIES (EV) =         -9.805  1.116
          NO. OF FILLED LEVELS    =         35
          MOLECULAR WEIGHT        =        166.3058         POINT GROUP:  C1  

          MOLECULAR DIMENSIONS (Angstroms)

            Atom       Atom       Distance
            H    27    H    17     8.89228
            H    31    H    26     7.24354
            H    18    H    32     4.18095


          SCF CALCULATIONS        =        217

          WALL-CLOCK TIME         =      2.371 SECONDS
          COMPUTATION TIME        =      1.651 SECONDS




   ATOM   CHEMICAL          X               Y               Z
  NUMBER   SYMBOL      (ANGSTROMS)     (ANGSTROMS)     (ANGSTROMS)

     1       C          0.53977119  *   0.90989649  *  -1.21540270  *
     2       C          2.47935316  *   0.53992337  *  -0.25295293  *
     3       C         -0.60415409  *  -0.08744804  *  -1.37014519  *
     4       C          1.09593421  *   1.04416051  *   0.22305208  *
     5       C          1.92260245  *   0.39833037  *  -1.68963286  *
     6       C          2.94343261  *  -0.76232343  *   0.36586938  *
     7       C         -3.56869275  *   0.24681733  *   1.10104289  *
     8       C         -0.95226103  *  -0.28813789  *  -2.83823695  *
     9       C          3.42592543  *  -0.57154643  *   1.78608039  *
    10       C         -3.38361126  *   0.19819932  *   2.60252495  *
    11       C         -1.81214992  *   0.41377035  *  -0.64076269  *
    12       C         -2.35423433  *  -0.23619988  *   0.38948712  *
    13       H          3.27750503  *   1.30666371  *  -0.16436162  *
    14       H          0.25344724  *   1.88281162  *  -1.66779381  *
    15       H         -0.27850975  *  -1.06919615  *  -0.94105962  *
    16       H          2.12158811  *  -1.50692926  *   0.33996072  *
    17       H          3.75344859  *  -1.18983177  *  -0.25771737  *
    18       H          1.09286327  *   2.06946321  *   0.62079046  *
    19       H          0.59987142  *   0.40263487  *   0.97000005  *
    20       H          1.92690288  *  -0.63046180  *  -2.08513144  *
    21       H          2.41424952  *   1.03691254  *  -2.43795725  *
    22       H         -4.42461275  *  -0.39071542  *   0.80043127  *
    23       H         -3.83563815  *   1.27517778  *   0.78474686  *
    24       H          4.27201149  *   0.12659154  *   1.83736540  *
    25       H          2.63133811  *  -0.16927992  *   2.42911018  *
    26       H          3.75626227  *  -1.52137804  *   2.22532784  *
    27       H         -4.28657188  *   0.53946912  *   3.12463587  *
    28       H         -3.16621074  *  -0.81972867  *   2.95259349  *
    29       H         -2.55351981  *   0.83857409  *   2.92781792  *
    30       H         -0.08970617  *  -0.66655649  *  -3.40281612  *
    31       H         -1.27045765  *   0.64994125  *  -3.31271274  *
    32       H         -1.76961579  *  -1.01065315  *  -2.95620049  *
    33       H         -1.92237177  *  -1.17519748  *   0.76001970  *
    34       H         -2.23418914  *   1.35824634  *  -1.00807280  *

                             CARTESIAN COORDINATES

   1    C        0.539771189     0.909896493    -1.215402701
   2    C        2.479353164     0.539923369    -0.252952932
   3    C       -0.604154088    -0.087448042    -1.370145186
   4    C        1.095934206     1.044160512     0.223052081
   5    C        1.922602452     0.398330370    -1.689632862
   6    C        2.943432607    -0.762323428     0.365869385
   7    C       -3.568692753     0.246817330     1.101042890
   8    C       -0.952261030    -0.288137891    -2.838236948
   9    C        3.425925434    -0.571546432     1.786080392
  10    C       -3.383611255     0.198199321     2.602524947
  11    C       -1.812149917     0.413770346    -0.640762688
  12    C       -2.354234326    -0.236199876     0.389487121
  13    H        3.277505035     1.306663710    -0.164361617
  14    H        0.253447235     1.882811623    -1.667793807
  15    H       -0.278509751    -1.069196147    -0.941059625
  16    H        2.121588110    -1.506929257     0.339960723
  17    H        3.753448589    -1.189831774    -0.257717368
  18    H        1.092863270     2.069463210     0.620790459
  19    H        0.599871417     0.402634868     0.970000048
  20    H        1.926902876    -0.630461798    -2.085131442
  21    H        2.414249518     1.036912537    -2.437957252
  22    H       -4.424612747    -0.390715417     0.800431269
  23    H       -3.835638148     1.275177780     0.784746856
  24    H        4.272011493     0.126591536     1.837365401
  25    H        2.631338113    -0.169279921     2.429110175
  26    H        3.756262267    -1.521378042     2.225327845
  27    H       -4.286571875     0.539469121     3.124635873
  28    H       -3.166210739    -0.819728670     2.952593490
  29    H       -2.553519811     0.838574088     2.927817923
  30    H       -0.089706175    -0.666556494    -3.402816121
  31    H       -1.270457650     0.649941251    -3.312712737
  32    H       -1.769615794    -1.010653148    -2.956200492
  33    H       -1.922371774    -1.175197475     0.760019699
  34    H       -2.234189141     1.358246344    -1.008072803


           Empirical Formula: C12 H22  =    34 atoms



      MOLECULAR POINT GROUP   :   C1  


                  EIGENVALUES  
 -42.07163 -37.55888 -34.90650 -31.80701 -28.60851 -25.88849 -24.49023 -23.31362
 -21.65200 -20.02988 -19.65443 -18.47323 -17.12015 -16.41944 -16.06651 -15.45053
 -15.27131 -14.96652 -14.34578 -14.08098 -13.98516 -13.69354 -13.16566 -13.01812
 -12.84123 -12.77342 -12.51734 -12.30769 -11.98255 -11.89198 -11.75747 -11.43463
 -11.21601 -11.10882  -9.80495   1.11564   3.19670   3.31550   3.43986   3.53444
   3.65359   3.78299   3.83570   3.89409   3.93535   3.98933   4.01654   4.04769
   4.07896   4.14428   4.15793   4.23352   4.30020   4.43397   4.46301   4.56865
   4.58415   4.64044   4.67931   4.68958   4.83560   4.84797   4.90332   4.99798
   5.03527   5.06886   5.52504   5.66311   5.75782   6.02291


              NET ATOMIC CHARGES AND DIPOLE CONTRIBUTIONS

  ATOM NO.   TYPE          CHARGE      No. of ELECS.   s-Pop       p-Pop       
    1          C          -0.088219        4.0882     1.19245     2.89577
    2          C          -0.093719        4.0937     1.19033     2.90339
    3          C          -0.035563        4.0356     1.16483     2.87074
    4          C          -0.111836        4.1118     1.17772     2.93411
    5          C          -0.112179        4.1122     1.17817     2.93401
    6          C          -0.089346        4.0893     1.15746     2.93189
    7          C          -0.061654        4.0617     1.14575     2.91591
    8          C          -0.109280        4.1093     1.14129     2.96799
    9          C          -0.109644        4.1096     1.13798     2.97166
   10          C          -0.106176        4.1062     1.13776     2.96841
   11          C          -0.147436        4.1474     1.19895     2.94849
   12          C          -0.149294        4.1493     1.19779     2.95150
   13          H           0.071395        0.9286     0.92861
   14          H           0.072415        0.9276     0.92759
   15          H           0.068335        0.9317     0.93166
   16          H           0.051266        0.9487     0.94873
   17          H           0.048949        0.9511     0.95105
   18          H           0.055895        0.9441     0.94410
   19          H           0.067585        0.9324     0.93242
   20          H           0.063168        0.9368     0.93683
   21          H           0.055319        0.9447     0.94468
   22          H           0.052959        0.9470     0.94704
   23          H           0.051444        0.9486     0.94856
   24          H           0.037800        0.9622     0.96220
   25          H           0.039604        0.9604     0.96040
   26          H           0.036621        0.9634     0.96338
   27          H           0.036776        0.9632     0.96322
   28          H           0.037649        0.9624     0.96235
   29          H           0.039937        0.9601     0.96006
   30          H           0.040769        0.9592     0.95923
   31          H           0.039951        0.9600     0.96005
   32          H           0.041186        0.9588     0.95881
   33          H           0.102116        0.8979     0.89788
   34          H           0.103208        0.8968     0.89679
 DIPOLE           X         Y         Z       TOTAL
 POINT-CHG.    -0.058    -0.098     0.064     0.131
 HYBRID        -0.018     0.016    -0.005     0.024
 SUM           -0.075    -0.082     0.059     0.126


          ATOMIC ORBITAL ELECTRON POPULATIONS

     Atom    s        px        py        pz   
    1  C   1.19245   0.93787   0.98793   0.96996
    2  C   1.19033   0.96729   0.97710   0.95900
    3  C   1.16483   0.93353   0.98163   0.95557
    4  C   1.17772   0.96046   1.01333   0.96033
    5  C   1.17817   0.96160   1.01451   0.95789
    6  C   1.15746   1.00592   0.96423   0.96174
    7  C   1.14575   0.95953   1.00545   0.95093
    8  C   1.14129   1.00680   1.01024   0.95095
    9  C   1.13798   1.00353   1.00700   0.96113
   10  C   1.13776   1.00830   1.00987   0.95024
   11  C   1.19895   0.97581   0.99658   0.97609
   12  C   1.19779   0.97990   0.99673   0.97488
   13  H   0.92861
   14  H   0.92759
   15  H   0.93166
   16  H   0.94873
   17  H   0.95105
   18  H   0.94410
   19  H   0.93242
   20  H   0.93683
   21  H   0.94468
   22  H   0.94704
   23  H   0.94856
   24  H   0.96220
   25  H   0.96040
   26  H   0.96338
   27  H   0.96322
   28  H   0.96235
   29  H   0.96006
   30  H   0.95923
   31  H   0.96005
   32  H   0.95881
   33  H   0.89788
   34  H   0.89679
 *******************************************************************************
 **                                                                           **
 **                              MOPAC v23.1.2                                **
 **                                                                           **
 *******************************************************************************
 **          Digital Object Identifier (DOI): 10.5281/zenodo.6511958          **
 **    Visit the DOI location for information on how to cite this program.    **
 *******************************************************************************

                              PM3 CALCULATION RESULTS

 *******************************************************************************
 *  CALCULATION DONE: (MAX THREADS = 1)              Tue Jun  3 16:38:30 2025  *
 *  PM3        - The PM3 Hamiltonian to be used
 *  OLDGEO     - PREVIOUS GEOMETRY TO BE USED
 *  PRECISE    - TIGHTER CRITERIA TO BE USED
 *  NOSYM      - POINT-GROUP SYMMETRY SET TO C1
 *  THREADS=1  - MULTI-THREADING NOT USED
 *  T=         - A TIME OF 172800.0 SECONDS REQUESTED
 *  DUMP=N     - RESTART FILE WRITTEN EVERY 7200.0 SECONDS REQUESTED
 *  THERMO     - THERMODYNAMIC QUANTITIES TO BE CALCULATED
 *******************************************************************************
oldgeo thermo nosym precise THREADS=1  pm3
 InChI=1S/C12H22/c1-4-6-7-10(3)12-8-11(5-2)9-12/h6-7,10-12H,4-5,8-9H2,1-3H3

   ATOM   CHEMICAL          X               Y               Z
  NUMBER   SYMBOL      (ANGSTROMS)     (ANGSTROMS)     (ANGSTROMS)

     1       C          0.53977119  *   0.90989649  *  -1.21540270  *
     2       C          2.47935316  *   0.53992337  *  -0.25295293  *
     3       C         -0.60415409  *  -0.08744804  *  -1.37014519  *
     4       C          1.09593421  *   1.04416051  *   0.22305208  *
     5       C          1.92260245  *   0.39833037  *  -1.68963286  *
     6       C          2.94343261  *  -0.76232343  *   0.36586938  *
     7       C         -3.56869275  *   0.24681733  *   1.10104289  *
     8       C         -0.95226103  *  -0.28813789  *  -2.83823695  *
     9       C          3.42592543  *  -0.57154643  *   1.78608039  *
    10       C         -3.38361126  *   0.19819932  *   2.60252495  *
    11       C         -1.81214992  *   0.41377035  *  -0.64076269  *
    12       C         -2.35423433  *  -0.23619988  *   0.38948712  *
    13       H          3.27750503  *   1.30666371  *  -0.16436162  *
    14       H          0.25344724  *   1.88281162  *  -1.66779381  *
    15       H         -0.27850975  *  -1.06919615  *  -0.94105962  *
    16       H          2.12158811  *  -1.50692926  *   0.33996072  *
    17       H          3.75344859  *  -1.18983177  *  -0.25771737  *
    18       H          1.09286327  *   2.06946321  *   0.62079046  *
    19       H          0.59987142  *   0.40263487  *   0.97000005  *
    20       H          1.92690288  *  -0.63046180  *  -2.08513144  *
    21       H          2.41424952  *   1.03691254  *  -2.43795725  *
    22       H         -4.42461275  *  -0.39071542  *   0.80043127  *
    23       H         -3.83563815  *   1.27517778  *   0.78474686  *
    24       H          4.27201149  *   0.12659154  *   1.83736540  *
    25       H          2.63133811  *  -0.16927992  *   2.42911018  *
    26       H          3.75626227  *  -1.52137804  *   2.22532784  *
    27       H         -4.28657188  *   0.53946912  *   3.12463587  *
    28       H         -3.16621074  *  -0.81972867  *   2.95259349  *
    29       H         -2.55351981  *   0.83857409  *   2.92781792  *
    30       H         -0.08970617  *  -0.66655649  *  -3.40281612  *
    31       H         -1.27045765  *   0.64994125  *  -3.31271274  *
    32       H         -1.76961579  *  -1.01065315  *  -2.95620049  *
    33       H         -1.92237177  *  -1.17519748  *   0.76001970  *
    34       H         -2.23418914  *   1.35824634  *  -1.00807280  *



          CARTESIAN COORDINATES 

    NO.       ATOM           X           Y           Z

     1         C          0.5398      0.9099     -1.2154
     2         C          2.4794      0.5399     -0.2530
     3         C         -0.6042     -0.0874     -1.3701
     4         C          1.0959      1.0442      0.2231
     5         C          1.9226      0.3983     -1.6896
     6         C          2.9434     -0.7623      0.3659
     7         C         -3.5687      0.2468      1.1010
     8         C         -0.9523     -0.2881     -2.8382
     9         C          3.4259     -0.5715      1.7861
    10         C         -3.3836      0.1982      2.6025
    11         C         -1.8121      0.4138     -0.6408
    12         C         -2.3542     -0.2362      0.3895
    13         H          3.2775      1.3067     -0.1644
    14         H          0.2534      1.8828     -1.6678
    15         H         -0.2785     -1.0692     -0.9411
    16         H          2.1216     -1.5069      0.3400
    17         H          3.7534     -1.1898     -0.2577
    18         H          1.0929      2.0695      0.6208
    19         H          0.5999      0.4026      0.9700
    20         H          1.9269     -0.6305     -2.0851
    21         H          2.4142      1.0369     -2.4380
    22         H         -4.4246     -0.3907      0.8004
    23         H         -3.8356      1.2752      0.7847
    24         H          4.2720      0.1266      1.8374
    25         H          2.6313     -0.1693      2.4291
    26         H          3.7563     -1.5214      2.2253
    27         H         -4.2866      0.5395      3.1246
    28         H         -3.1662     -0.8197      2.9526
    29         H         -2.5535      0.8386      2.9278
    30         H         -0.0897     -0.6666     -3.4028
    31         H         -1.2705      0.6499     -3.3127
    32         H         -1.7696     -1.0107     -2.9562
    33         H         -1.9224     -1.1752      0.7600
    34         H         -2.2342      1.3582     -1.0081

  H: (PM3): J. J. P. STEWART, J. COMP. CHEM. 10, 209 (1989).
  C: (PM3): J. J. P. STEWART, J. COMP. CHEM. 10, 209 (1989).

           Empirical Formula: C12 H22  =    34 atoms



      MOLECULAR POINT GROUP   :   C1  


      RHF CALCULATION, NO. OF DOUBLY OCCUPIED LEVELS = 35



          HEAT OF FORMATION =     -22.653233 KCALS/MOLE


          CARTESIAN COORDINATE DERIVATIVES

   NUMBER  ATOM         X            Y            Z

     1       C      0.023995     0.001267    -0.018448
     2       C     -0.013876     0.002634     0.016098
     3       C      0.027470     0.010297     0.009352
     4       C      0.011420    -0.001152     0.021889
     5       C     -0.009231    -0.001098    -0.022004
     6       C      0.021855     0.008620    -0.008907
     7       C      0.007629     0.001321    -0.021375
     8       C      0.001278     0.025670     0.014098
     9       C     -0.001487    -0.007418    -0.013087
    10       C     -0.015722     0.009805    -0.006620
    11       C     -0.000091     0.014940     0.006111
    12       C     -0.010021    -0.024581    -0.008175
    13       H     -0.001551     0.009787    -0.001411
    14       H     -0.001539     0.004877    -0.003109
    15       H     -0.010174    -0.007613    -0.003039
    16       H     -0.009182    -0.017018     0.002576
    17       H     -0.013862    -0.008336     0.018672
    18       H      0.001410    -0.036312     0.001690
    19       H     -0.005176    -0.006126    -0.009112
    20       H      0.000997     0.009988    -0.015988
    21       H     -0.005900    -0.022751     0.006553
    22       H      0.001581     0.006330     0.021062
    23       H     -0.028991    -0.008066    -0.012905
    24       H      0.000096    -0.010534     0.017576
    25       H     -0.012657     0.000885    -0.010241
    26       H      0.008373     0.025870     0.023312
    27       H     -0.015988    -0.011764    -0.013627
    28       H     -0.015002     0.029450     0.000275
    29       H      0.023742     0.012768    -0.027277
    30       H     -0.001115     0.017432    -0.002657
    31       H      0.016286    -0.005466     0.021992
    32       H     -0.010199    -0.017658     0.004113
    33       H      0.035400     0.016859    -0.006136
    34       H      0.000230    -0.022909     0.018748



          GRADIENT NORM =   0.14672

          MOLECULAR WEIGHT =  166.31



          ROTATIONAL CONSTANTS IN CM(-1)

          A =    0.03669155   B =    0.01626504   C =    0.01235409



           PRINCIPAL MOMENTS OF INERTIA IN UNITS OF 10**(-40)*GRAM-CM**2

          A =      762.9209   B =     1721.0382   C =     2265.8685


          ORIENTATION OF MOLECULE IN FORCE CALCULATION

    NO.       ATOM         X         Y         Z

     1          C      -0.1256   -1.1017    0.9573
     2          C       2.0711   -1.1017    0.9573
     3          C      -1.0355    0.1227    0.9573
     4          C       0.9732   -1.0960   -0.1333
     5          C       0.9738   -1.1001    2.0482
     6          C       2.9713    0.1162    0.9781
     7          C      -2.6266    1.1253   -2.4295
     8          C      -1.9523    0.1157    2.1722
     9          C       3.9875    0.0856   -0.1412
    10          C      -1.7972    1.4186   -3.6611
    11          C      -1.8669    0.1330   -0.2881
    12          C      -1.7847    1.0997   -1.2027
    13          H       2.6855   -2.0265    0.9531
    14          H      -0.7405   -2.0265    0.9558
    15          H      -0.3946    1.0402    0.9966
    16          H       2.3597    1.0392    0.9117
    17          H       3.4853    0.1684    1.9583
    18          H       0.9720   -1.9794   -0.7884
    19          H       0.9705   -0.2064   -0.7846
    20          H       0.9776   -0.2133    2.7028
    21          H       0.9725   -1.9859    2.6999
    22          H      -3.4067    1.9025   -2.2998
    23          H      -3.1741    0.1702   -2.5594
    24          H       4.6394   -0.7955   -0.0740
    25          H       3.4999    0.0567   -1.1251
    26          H       4.6316    0.9738   -0.1185
    27          H      -2.4232    1.4531   -4.5619
    28          H      -1.2804    2.3844   -3.5827
    29          H      -1.0295    0.6509   -3.8230
    30          H      -1.3743    0.1189    3.1060
    31          H      -2.5991   -0.7719    2.1885
    32          H      -2.6040    0.9984    2.1817
    33          H      -1.0829    1.9358   -1.0846
    34          H      -2.5596   -0.7103   -0.4070


    FIRST DERIVATIVES WILL BE USED IN THE CALCULATION OF SECOND DERIVATIVES

          ESTIMATED TIME TO COMPLETE CALCULATION =        4.78 SECONDS

    FOR POINT-GROUP C1   THERE ARE   1 UNIQUE SYMMETRY FUNCTIONS.

 STEP:   1 TIME =     0.04 SECS, INTEGRAL =      0.04 TIME LEFT: 172799.95
 STEP:   2 TIME =     0.04 SECS, INTEGRAL =      0.08 TIME LEFT: 172799.91
 STEP:   3 TIME =     0.04 SECS, INTEGRAL =      0.12 TIME LEFT: 172799.87
 STEP:   4 TIME =     0.04 SECS, INTEGRAL =      0.16 TIME LEFT: 172799.83
 STEP:   5 TIME =     0.04 SECS, INTEGRAL =      0.20 TIME LEFT: 172799.79
 STEP:   6 TIME =     0.04 SECS, INTEGRAL =      0.23 TIME LEFT: 172799.75
 STEP:   7 TIME =     0.04 SECS, INTEGRAL =      0.27 TIME LEFT: 172799.71
 STEP:   8 TIME =     0.04 SECS, INTEGRAL =      0.31 TIME LEFT: 172799.68
 STEP:   9 TIME =     0.04 SECS, INTEGRAL =      0.35 TIME LEFT: 172799.64
 STEP:  10 TIME =     0.04 SECS, INTEGRAL =      0.39 TIME LEFT: 172799.60
 STEP:  11 TIME =     0.04 SECS, INTEGRAL =      0.43 TIME LEFT: 172799.55
 STEP:  12 TIME =     0.04 SECS, INTEGRAL =      0.47 TIME LEFT: 172799.52
 STEP:  13 TIME =     0.04 SECS, INTEGRAL =      0.52 TIME LEFT: 172799.47
 STEP:  14 TIME =     0.04 SECS, INTEGRAL =      0.56 TIME LEFT: 172799.43
 STEP:  15 TIME =     0.04 SECS, INTEGRAL =      0.60 TIME LEFT: 172799.39
 STEP:  16 TIME =     0.04 SECS, INTEGRAL =      0.64 TIME LEFT: 172799.35
 STEP:  17 TIME =     0.04 SECS, INTEGRAL =      0.68 TIME LEFT: 172799.31
 STEP:  18 TIME =     0.04 SECS, INTEGRAL =      0.71 TIME LEFT: 172799.27
 STEP:  19 TIME =     0.04 SECS, INTEGRAL =      0.75 TIME LEFT: 172799.23
 STEP:  20 TIME =     0.04 SECS, INTEGRAL =      0.80 TIME LEFT: 172799.19
 STEP:  21 TIME =     0.04 SECS, INTEGRAL =      0.84 TIME LEFT: 172799.15
 STEP:  22 TIME =     0.04 SECS, INTEGRAL =      0.88 TIME LEFT: 172799.11
 STEP:  23 TIME =     0.04 SECS, INTEGRAL =      0.92 TIME LEFT: 172799.07
 STEP:  24 TIME =     0.04 SECS, INTEGRAL =      0.96 TIME LEFT: 172799.03
 STEP:  25 TIME =     0.04 SECS, INTEGRAL =      1.00 TIME LEFT: 172798.99
 STEP:  26 TIME =     0.04 SECS, INTEGRAL =      1.04 TIME LEFT: 172798.95
 STEP:  27 TIME =     0.04 SECS, INTEGRAL =      1.08 TIME LEFT: 172798.91
 STEP:  28 TIME =     0.04 SECS, INTEGRAL =      1.12 TIME LEFT: 172798.87
 STEP:  29 TIME =     0.04 SECS, INTEGRAL =      1.16 TIME LEFT: 172798.83
 STEP:  30 TIME =     0.04 SECS, INTEGRAL =      1.20 TIME LEFT: 172798.79
 STEP:  31 TIME =     0.04 SECS, INTEGRAL =      1.24 TIME LEFT: 172798.75
 STEP:  32 TIME =     0.04 SECS, INTEGRAL =      1.28 TIME LEFT: 172798.71
 STEP:  33 TIME =     0.04 SECS, INTEGRAL =      1.32 TIME LEFT: 172798.67
 STEP:  34 TIME =     0.04 SECS, INTEGRAL =      1.36 TIME LEFT: 172798.62
 STEP:  35 TIME =     0.04 SECS, INTEGRAL =      1.40 TIME LEFT: 172798.59
 STEP:  36 TIME =     0.04 SECS, INTEGRAL =      1.45 TIME LEFT: 172798.54
 STEP:  37 TIME =     0.04 SECS, INTEGRAL =      1.49 TIME LEFT: 172798.50
 STEP:  38 TIME =     0.04 SECS, INTEGRAL =      1.53 TIME LEFT: 172798.46
 STEP:  39 TIME =     0.04 SECS, INTEGRAL =      1.57 TIME LEFT: 172798.42
 STEP:  40 TIME =     0.04 SECS, INTEGRAL =      1.61 TIME LEFT: 172798.38
 STEP:  41 TIME =     0.04 SECS, INTEGRAL =      1.66 TIME LEFT: 172798.33
 STEP:  42 TIME =     0.04 SECS, INTEGRAL =      1.70 TIME LEFT: 172798.29
 STEP:  43 TIME =     0.04 SECS, INTEGRAL =      1.74 TIME LEFT: 172798.25
 STEP:  44 TIME =     0.04 SECS, INTEGRAL =      1.78 TIME LEFT: 172798.21
 STEP:  45 TIME =     0.04 SECS, INTEGRAL =      1.82 TIME LEFT: 172798.17
 STEP:  46 TIME =     0.04 SECS, INTEGRAL =      1.86 TIME LEFT: 172798.12
 STEP:  47 TIME =     0.04 SECS, INTEGRAL =      1.90 TIME LEFT: 172798.09
 STEP:  48 TIME =     0.04 SECS, INTEGRAL =      1.95 TIME LEFT: 172798.04
 STEP:  49 TIME =     0.04 SECS, INTEGRAL =      1.98 TIME LEFT: 172798.00
 STEP:  50 TIME =     0.04 SECS, INTEGRAL =      2.03 TIME LEFT: 172797.96
 STEP:  51 TIME =     0.04 SECS, INTEGRAL =      2.07 TIME LEFT: 172797.92
 STEP:  52 TIME =     0.04 SECS, INTEGRAL =      2.11 TIME LEFT: 172797.88
 STEP:  53 TIME =     0.04 SECS, INTEGRAL =      2.15 TIME LEFT: 172797.84
 STEP:  54 TIME =     0.04 SECS, INTEGRAL =      2.19 TIME LEFT: 172797.80
 STEP:  55 TIME =     0.04 SECS, INTEGRAL =      2.23 TIME LEFT: 172797.75
 STEP:  56 TIME =     0.04 SECS, INTEGRAL =      2.27 TIME LEFT: 172797.71
 STEP:  57 TIME =     0.04 SECS, INTEGRAL =      2.31 TIME LEFT: 172797.68
 STEP:  58 TIME =     0.04 SECS, INTEGRAL =      2.36 TIME LEFT: 172797.63
 STEP:  59 TIME =     0.04 SECS, INTEGRAL =      2.39 TIME LEFT: 172797.59
 STEP:  60 TIME =     0.04 SECS, INTEGRAL =      2.43 TIME LEFT: 172797.55
 STEP:  61 TIME =     0.04 SECS, INTEGRAL =      2.48 TIME LEFT: 172797.51
 STEP:  62 TIME =     0.04 SECS, INTEGRAL =      2.52 TIME LEFT: 172797.47
 STEP:  63 TIME =     0.04 SECS, INTEGRAL =      2.55 TIME LEFT: 172797.43
 STEP:  64 TIME =     0.04 SECS, INTEGRAL =      2.59 TIME LEFT: 172797.39
 STEP:  65 TIME =     0.04 SECS, INTEGRAL =      2.63 TIME LEFT: 172797.36
 STEP:  66 TIME =     0.04 SECS, INTEGRAL =      2.68 TIME LEFT: 172797.31
 STEP:  67 TIME =     0.04 SECS, INTEGRAL =      2.71 TIME LEFT: 172797.27
 STEP:  68 TIME =     0.04 SECS, INTEGRAL =      2.75 TIME LEFT: 172797.23
 STEP:  69 TIME =     0.04 SECS, INTEGRAL =      2.80 TIME LEFT: 172797.19
 STEP:  70 TIME =     0.04 SECS, INTEGRAL =      2.84 TIME LEFT: 172797.15
 STEP:  71 TIME =     0.04 SECS, INTEGRAL =      2.88 TIME LEFT: 172797.11
 STEP:  72 TIME =     0.04 SECS, INTEGRAL =      2.92 TIME LEFT: 172797.07
 STEP:  73 TIME =     0.04 SECS, INTEGRAL =      2.96 TIME LEFT: 172797.03
 STEP:  74 TIME =     0.04 SECS, INTEGRAL =      3.00 TIME LEFT: 172796.98
 STEP:  75 TIME =     0.04 SECS, INTEGRAL =      3.04 TIME LEFT: 172796.95
 STEP:  76 TIME =     0.04 SECS, INTEGRAL =      3.08 TIME LEFT: 172796.91
 STEP:  77 TIME =     0.04 SECS, INTEGRAL =      3.12 TIME LEFT: 172796.87
 STEP:  78 TIME =     0.05 SECS, INTEGRAL =      3.17 TIME LEFT: 172796.82
 STEP:  79 TIME =     0.04 SECS, INTEGRAL =      3.21 TIME LEFT: 172796.78
 STEP:  80 TIME =     0.04 SECS, INTEGRAL =      3.25 TIME LEFT: 172796.73
 STEP:  81 TIME =     0.04 SECS, INTEGRAL =      3.29 TIME LEFT: 172796.70
 STEP:  82 TIME =     0.04 SECS, INTEGRAL =      3.33 TIME LEFT: 172796.66
 STEP:  83 TIME =     0.04 SECS, INTEGRAL =      3.37 TIME LEFT: 172796.62
 STEP:  84 TIME =     0.04 SECS, INTEGRAL =      3.41 TIME LEFT: 172796.57
 STEP:  85 TIME =     0.04 SECS, INTEGRAL =      3.45 TIME LEFT: 172796.54
 STEP:  86 TIME =     0.04 SECS, INTEGRAL =      3.49 TIME LEFT: 172796.50
 STEP:  87 TIME =     0.05 SECS, INTEGRAL =      3.54 TIME LEFT: 172796.45
 STEP:  88 TIME =     0.04 SECS, INTEGRAL =      3.58 TIME LEFT: 172796.41
 STEP:  89 TIME =     0.05 SECS, INTEGRAL =      3.63 TIME LEFT: 172796.36
 STEP:  90 TIME =     0.04 SECS, INTEGRAL =      3.67 TIME LEFT: 172796.32
 STEP:  91 TIME =     0.04 SECS, INTEGRAL =      3.71 TIME LEFT: 172796.28
 STEP:  92 TIME =     0.04 SECS, INTEGRAL =      3.75 TIME LEFT: 172796.24
 STEP:  93 TIME =     0.04 SECS, INTEGRAL =      3.79 TIME LEFT: 172796.20
 STEP:  94 TIME =     0.04 SECS, INTEGRAL =      3.83 TIME LEFT: 172796.16
 STEP:  95 TIME =     0.04 SECS, INTEGRAL =      3.86 TIME LEFT: 172796.12
 STEP:  96 TIME =     0.05 SECS, INTEGRAL =      3.91 TIME LEFT: 172796.08
 STEP:  97 TIME =     0.04 SECS, INTEGRAL =      3.95 TIME LEFT: 172796.04
 STEP:  98 TIME =     0.04 SECS, INTEGRAL =      4.00 TIME LEFT: 172795.99
 STEP:  99 TIME =     0.04 SECS, INTEGRAL =      4.04 TIME LEFT: 172795.95
 STEP: 100 TIME =     0.04 SECS, INTEGRAL =      4.08 TIME LEFT: 172795.91
 STEP: 101 TIME =     0.04 SECS, INTEGRAL =      4.12 TIME LEFT: 172795.86
 STEP: 102 TIME =     0.04 SECS, INTEGRAL =      4.17 TIME LEFT: 172795.82

(To convert to Hartree/Bohr^2, multiply by (10^(-21) x N x a0^2)/(4.184 x 627.51) =  0.0642)


           FORCE MATRIX IN MILLIDYNES/ANGSTROM


                  C  1       C  2       C  3       C  4       C  5       C  6
 ------------------------------------------------------------------------------
     C    1  14.438363
     C    2   1.800070  14.557527
     C    3   3.931652   0.039686  14.695106
     C    4   3.466952   3.478163   0.527797  14.335940
     C    5   3.442681   3.490992   0.526938   1.833340  14.328192
     C    6   0.040061   4.306430   0.005648   0.542468   0.552421  14.488618
     C    7   0.020670   0.000195   0.143219   0.001377   0.003480   0.000302
     C    8   0.648640   0.005272   4.117807   0.050879   0.042184   0.001171
     C    9   0.004908   0.658573   0.001125   0.032258   0.050998   4.473123
     C   10   0.004091   0.000167   0.018960   0.000259   0.001024   0.000124
     C   11   0.691928   0.005112   4.650492   0.040256   0.049145   0.001146
     C   12   0.037712   0.001263   0.796826   0.013528   0.005230   0.000446
     H   13   0.028553   4.427741   0.001713   0.428505   0.427577   0.431553
     H   14   4.421548   0.028370   0.437509   0.428062   0.428175   0.002142
     H   15   0.431289   0.002761   4.147417   0.022212   0.025901   0.004781
     H   16   0.002739   0.450655   0.004909   0.023975   0.021385   4.418786
     H   17   0.003431   0.434150   0.000715   0.047562   0.019484   4.455711
     H   18   0.443197   0.441509   0.034056   4.715387   0.031513   0.034457
     H   19   0.453640   0.451923   0.028691   4.624715   0.028247   0.025636
     H   20   0.451255   0.452225   0.026770   0.028464   4.628937   0.032196
     H   21   0.441566   0.442143   0.034122   0.031445   4.714202   0.034246
     H   22   0.002510   0.000072   0.019628   0.000196   0.000321   0.000111
     H   23   0.000415   0.000057   0.003438   0.000093   0.000153   0.000120
     H   24   0.000318   0.023724   0.000309   0.002105   0.001642   0.464062
     H   25   0.000469   0.020104   0.000384   0.007152   0.001857   0.463817
     H   26   0.000604   0.052575   0.000274   0.002229   0.008790   0.451295
     H   27   0.000877   0.000058   0.003228   0.000087   0.000275   0.000046
     H   28   0.000177   0.000094   0.000828   0.000076   0.000107   0.000036
     H   29   0.000203   0.000136   0.000858   0.000305   0.000123   0.000095
     H   30   0.022255   0.000566   0.458037   0.002075   0.012839   0.000457
     H   31   0.022303   0.000355   0.469062   0.001612   0.002530   0.000248
     H   32   0.051547   0.000645   0.455419   0.008744   0.002831   0.000278
     H   33   0.010701   0.000502   0.085433   0.001766   0.002191   0.000611
     H   34   0.018036   0.000353   0.434385   0.002855   0.002133   0.000555


                  C  7       C  8       C  9       C 10       C 11       C 12
 ------------------------------------------------------------------------------
     C    7  14.690004
     C    8   0.021594  14.331248
     C    9   0.000257   0.000669  14.375712
     C   10   4.413319   0.001680   0.000099  14.350181
     C   11   0.822170   0.722534   0.000987   0.042191  18.165486
     C   12   4.957725   0.038550   0.000283   0.715969  10.714223  18.188627
     H   13   0.000104   0.000546   0.031140   0.000079   0.000661   0.000269
     H   14   0.000560   0.025461   0.000573   0.000246   0.025854   0.001751
     H   15   0.001913   0.417480   0.000576   0.000725   0.443742   0.057012
     H   16   0.000151   0.000460   0.437580   0.000101   0.000558   0.000396
     H   17   0.000101   0.000439   0.440156   0.000045   0.000411   0.000150
     H   18   0.000375   0.006456   0.001752   0.000176   0.002651   0.000849
     H   19   0.000810   0.003151   0.008851   0.000463   0.006823   0.008165
     H   20   0.000250   0.013263   0.003022   0.000119   0.002429   0.000806
     H   21   0.000457   0.001878   0.006442   0.000257   0.006754   0.000871
     H   22   4.419905   0.004069   0.000092   0.445876   0.031768   0.408984
     H   23   4.441381   0.001085   0.000068   0.434611   0.049539   0.460023
     H   24   0.000066   0.000199   4.724880   0.000024   0.000225   0.000097
     H   25   0.000107   0.000226   4.713588   0.000064   0.000284   0.000230
     H   26   0.000100   0.000201   4.751596   0.000048   0.000292   0.000101
     H   27   0.449773   0.000188   0.000045   4.749540   0.007254   0.052748
     H   28   0.464476   0.000223   0.000039   4.724341   0.001968   0.026855
     H   29   0.461322   0.000287   0.000043   4.744108   0.002416   0.016396
     H   30   0.003923   4.720456   0.000261   0.000203   0.050903   0.005669
     H   31   0.000756   4.717427   0.000190   0.000169   0.026436   0.001922
     H   32   0.000854   4.758464   0.000170   0.000273   0.022938   0.002750
     H   33   0.431047   0.009692   0.000381   0.027575   0.469073   4.753124
     H   34   0.084964   0.020807   0.000165   0.008363   4.759664   0.468590


                  H 13       H 14       H 15       H 16       H 17       H 18
 ------------------------------------------------------------------------------
     H   13   4.928666
     H   14   0.002620   4.924640
     H   15   0.000536   0.041396   4.625409
     H   16   0.043869   0.000533   0.010529   5.031573
     H   17   0.024760   0.000668   0.000334   0.568912   5.065046
     H   18   0.026920   0.026728   0.001419   0.001748   0.006004   5.333368
     H   19   0.030468   0.030492   0.018914   0.023193   0.003546   0.551978
     H   20   0.030705   0.030787   0.023064   0.016872   0.012335   0.000990
     H   21   0.026503   0.026754   0.001522   0.001296   0.001954   0.003438
     H   22   0.000060   0.000208   0.000389   0.000052   0.000040   0.000093
     H   23   0.000054   0.000209   0.000543   0.000047   0.000041   0.000135
     H   24   0.021710   0.000117   0.000196   0.048265   0.024484   0.000353
     H   25   0.001930   0.000302   0.000161   0.024447   0.048714   0.000790
     H   26   0.001995   0.000129   0.000137   0.030143   0.028925   0.000332
     H   27   0.000025   0.000087   0.000173   0.000037   0.000013   0.000053
     H   28   0.000031   0.000057   0.000199   0.000050   0.000018   0.000085
     H   29   0.000063   0.000063   0.000123   0.000063   0.000031   0.000108
     H   30   0.000338   0.001784   0.029696   0.000168   0.000131   0.000414
     H   31   0.000123   0.018773   0.045133   0.000156   0.000075   0.000345
     H   32   0.000152   0.001835   0.028842   0.000127   0.000121   0.001281
     H   33   0.000276   0.000737   0.029649   0.000297   0.000188   0.000388
     H   34   0.000321   0.013505   0.036985   0.000195   0.000187   0.000773


                  H 19       H 20       H 21       H 22       H 23       H 24
 ------------------------------------------------------------------------------
     H   19   5.254300
     H   20   0.002847   5.267085
     H   21   0.000988   0.553246   5.332452
     H   22   0.000295   0.000068   0.000089   5.017598
     H   23   0.000249   0.000062   0.000059   0.567049   5.052339
     H   24   0.000478   0.000462   0.000350   0.000024   0.000018   5.467199
     H   25   0.013137   0.000427   0.000412   0.000038   0.000036   0.576482
     H   26   0.000620   0.000718   0.001282   0.000038   0.000026   0.573087
     H   27   0.000169   0.000038   0.000073   0.028200   0.030593   0.000014
     H   28   0.000147   0.000022   0.000034   0.024201   0.048070   0.000017
     H   29   0.001060   0.000033   0.000041   0.049390   0.024007   0.000018
     H   30   0.000464   0.023153   0.000941   0.000880   0.000236   0.000051
     H   31   0.000484   0.000479   0.000395   0.000198   0.000188   0.000046
     H   32   0.000713   0.000696   0.000320   0.000236   0.000115   0.000043
     H   33   0.003881   0.000306   0.000430   0.016214   0.038813   0.000119
     H   34   0.001184   0.000743   0.000539   0.010383   0.030055   0.000062


                  H 25       H 26       H 27       H 28       H 29       H 30
 ------------------------------------------------------------------------------
     H   25   5.452283
     H   26   0.571753   5.487910
     H   27   0.000028   0.000019   5.487132
     H   28   0.000039   0.000015   0.573780   5.469313
     H   29   0.000049   0.000016   0.574144   0.578827   5.482299
     H   30   0.000067   0.000088   0.000063   0.000080   0.000100   5.458576
     H   31   0.000039   0.000044   0.000079   0.000061   0.000057   0.571583
     H   32   0.000067   0.000051   0.000117   0.000056   0.000079   0.567275
     H   33   0.000214   0.000149   0.002112   0.020483   0.002752   0.001931
     H   34   0.000113   0.000053   0.001649   0.000583   0.000491   0.001874


                  H 31       H 32       H 33       H 34
 ------------------------------------------------------
     H   31   5.461106
     H   32   0.572227   5.491473
     H   33   0.000619   0.000612   5.134457
     H   34   0.016076   0.002819   0.107246   5.143428


          HEAT OF FORMATION =     -22.653233 KCALS/MOLE

          ZERO POINT ENERGY     194.705 KCAL/MOL


           NORMAL COORDINATE ANALYSIS (Total motion = 1 Angstrom)


   Root No.       1         2         3         4         5         6         7         8

                 1 A       2 A       3 A       4 A       5 A       6 A       7 A       8 A   

                  20.2      33.5      56.3      64.6      88.9     105.9     162.9     177.5
  
           1   -0.0075   -0.0008   -0.0007    0.0048   -0.0045    0.0041   -0.0003    0.0009
           2   -0.0019   -0.0061   -0.0138   -0.0082   -0.0086   -0.0017   -0.0022   -0.0006
           3    0.0014    0.0183   -0.0024    0.0029    0.0010    0.0078   -0.0037   -0.0029
           4   -0.0075   -0.0008   -0.0006    0.0049   -0.0044    0.0042    0.0000    0.0007
           5    0.0034    0.0024   -0.0129   -0.0012    0.0095    0.0038    0.0027   -0.0012
           6   -0.0132    0.0071    0.0051    0.0080   -0.0128    0.0140    0.0005    0.0036
           7   -0.0074   -0.0011    0.0192    0.0072   -0.0001   -0.0028   -0.0048    0.0003
           8   -0.0016   -0.0063    0.0014   -0.0065   -0.0053   -0.0074   -0.0061   -0.0012
           9    0.0148    0.0032   -0.0070   -0.0111    0.0025    0.0002   -0.0079   -0.0016
          10   -0.0148   -0.0064    0.0031    0.0073   -0.0112    0.0069    0.0022    0.0037
          11    0.0057   -0.0227   -0.0257   -0.0213   -0.0169   -0.0049    0.0013   -0.0011
          12   -0.0059    0.0127    0.0013    0.0055   -0.0062    0.0112   -0.0017    0.0003
          13   -0.0003    0.0047   -0.0044    0.0024    0.0025    0.0015   -0.0021   -0.0023
          14   -0.0076    0.0141   -0.0274    0.0039    0.0002    0.0142    0.0058   -0.0009
          15   -0.0059    0.0128    0.0013    0.0055   -0.0061    0.0112   -0.0018    0.0004
          16   -0.0128   -0.0090   -0.0219   -0.0051   -0.0271    0.0074    0.0033   -0.0000
          17    0.0073    0.0090    0.0032    0.0065    0.0269    0.0015    0.0003   -0.0008
          18   -0.0121   -0.0191    0.0109   -0.0046   -0.0271    0.0025    0.0016    0.0015
          19    0.0246    0.0147    0.0003   -0.0140    0.0031    0.0021   -0.0038   -0.0001
          20    0.0109   -0.0115    0.0012    0.0295    0.0068    0.0225    0.0022    0.0101
          21    0.0036   -0.0054    0.0018    0.0092    0.0055    0.0070   -0.0053    0.0032
          22   -0.0051   -0.0103    0.0269   -0.0052    0.0046   -0.0150    0.0133    0.0006
          23   -0.0130    0.0005    0.0295   -0.0014   -0.0008   -0.0207    0.0154   -0.0051
          24    0.0163   -0.0038   -0.0011   -0.0202    0.0062   -0.0082    0.0051   -0.0010
          25   -0.0218   -0.0192   -0.0263   -0.0042    0.0316   -0.0053    0.0016   -0.0043
          26    0.0196   -0.0005    0.0323    0.0028   -0.0115   -0.0043    0.0010   -0.0032
          27   -0.0207   -0.0281    0.0064   -0.0037    0.0274   -0.0092    0.0000   -0.0024
          28    0.0376    0.0173   -0.0159    0.0083   -0.0034   -0.0291    0.0168   -0.0014
          29   -0.0304    0.0355    0.0041   -0.0243    0.0040    0.0043    0.0099   -0.0017
          30    0.0025    0.0075   -0.0083    0.0113    0.0005   -0.0177    0.0096   -0.0004
          31   -0.0077    0.0091    0.0103    0.0169   -0.0044    0.0040   -0.0187   -0.0020
          32    0.0104   -0.0127    0.0039   -0.0061    0.0007    0.0012   -0.0195    0.0038
          33    0.0151   -0.0036   -0.0010   -0.0174    0.0057   -0.0042    0.0003    0.0002
          34    0.0206    0.0036    0.0147   -0.0228    0.0106    0.0311   -0.0156    0.0051
          35   -0.0004   -0.0066   -0.0032    0.0281   -0.0059   -0.0094   -0.0190    0.0027
          36    0.0061    0.0022   -0.0081    0.0152   -0.0000   -0.0134    0.0012   -0.0006
          37   -0.0035    0.0053    0.0144    0.0121    0.0121    0.0025   -0.0018    0.0010
          38    0.0061    0.0065   -0.0027    0.0036    0.0205    0.0025    0.0014   -0.0009
          39   -0.0229    0.0196    0.0060    0.0202   -0.0080    0.0240    0.0033    0.0059
          40   -0.0075   -0.0001   -0.0146    0.0037   -0.0067    0.0097    0.0043    0.0017
          41   -0.0018   -0.0066   -0.0043   -0.0075   -0.0070   -0.0054   -0.0052   -0.0013
          42   -0.0004    0.0365   -0.0046    0.0118    0.0112    0.0131   -0.0029   -0.0059
          43   -0.0070   -0.0013    0.0354    0.0091    0.0045   -0.0081   -0.0047   -0.0020
          44   -0.0022   -0.0061   -0.0092   -0.0079   -0.0082   -0.0042   -0.0046    0.0004
          45    0.0228    0.0028   -0.0199   -0.0077    0.0002    0.0115   -0.0282   -0.0009
          46   -0.0175   -0.0161   -0.0395   -0.0128   -0.0403    0.0093    0.0060   -0.0010
          47    0.0050    0.0037   -0.0075    0.0006    0.0128    0.0030    0.0023   -0.0014
          48   -0.0008   -0.0272    0.0214   -0.0150   -0.1031    0.0068    0.0052    0.0016
          49   -0.0050   -0.0004   -0.0186   -0.0061   -0.0777    0.0182    0.0051    0.0029
          50    0.0029    0.0271    0.0044    0.0215    0.0846    0.0024   -0.0042    0.0015
          51   -0.0159   -0.0245    0.0092   -0.0049   -0.0036   -0.0033    0.0009   -0.0003
          52   -0.0169   -0.0064    0.0059    0.0116   -0.0083    0.0110    0.0056    0.0054
          53    0.0086   -0.0355   -0.0345   -0.0318   -0.0286   -0.0081    0.0021   -0.0012
          54   -0.0098    0.0299    0.0131    0.0196    0.0095    0.0155   -0.0028    0.0005
          55   -0.0218   -0.0134    0.0050    0.0063   -0.0223    0.0058    0.0019    0.0055
          56    0.0087   -0.0354   -0.0344   -0.0318   -0.0286   -0.0079    0.0021   -0.0012
          57   -0.0020   -0.0046   -0.0105   -0.0086   -0.0221    0.0070   -0.0006    0.0000
          58    0.0018    0.0042   -0.0065   -0.0021   -0.0003   -0.0025   -0.0051   -0.0048
          59   -0.0129    0.0234   -0.0373    0.0087   -0.0007    0.0226    0.0097   -0.0009
          60    0.0012    0.0002    0.0146   -0.0009   -0.0049   -0.0000   -0.0070    0.0004
          61    0.0062    0.0115   -0.0065    0.0037    0.0142    0.0021   -0.0014   -0.0043
          62   -0.0129    0.0234   -0.0373    0.0088   -0.0007    0.0226    0.0096   -0.0009
          63   -0.0130    0.0254   -0.0119    0.0121   -0.0072    0.0225    0.0033    0.0004
          64    0.0486   -0.0106    0.0027    0.0105    0.0117    0.0308    0.0056    0.0075
          65    0.0370   -0.0379    0.0016    0.0577    0.0140    0.0469    0.0114    0.0177
          66   -0.0083    0.0005    0.0141   -0.0140    0.0144    0.0357   -0.0035    0.0037
          67   -0.0050    0.0455   -0.0024   -0.0442   -0.0072   -0.0327   -0.0144   -0.0095
          68    0.0265   -0.0263    0.0022    0.0448    0.0127    0.0410    0.0112    0.0148
          69    0.0139   -0.0269    0.0060    0.0241    0.0058    0.0175   -0.0233    0.0080
          70   -0.0178   -0.0134   -0.0118    0.0030    0.0535   -0.0078   -0.0109    0.0187
          71    0.0216    0.0042    0.0421    0.0088    0.0112   -0.0065   -0.0093    0.0154
          72   -0.0325   -0.0220   -0.0063    0.0061    0.1145   -0.0148   -0.0130    0.0175
          73   -0.0297   -0.0281   -0.0297   -0.0033    0.0829   -0.0167    0.0001   -0.0082
          74    0.0250   -0.0170    0.0356   -0.0117   -0.0849   -0.0046    0.0217   -0.0414
          75   -0.0169   -0.0232    0.0079   -0.0037    0.0043   -0.0036    0.0002    0.0005
          76   -0.0251   -0.0242   -0.0407   -0.0115    0.0053   -0.0019    0.0144   -0.0272
          77    0.0219    0.0035    0.0425    0.0083    0.0081   -0.0066   -0.0086    0.0141
          78   -0.0194   -0.0463    0.0138   -0.0129    0.0071   -0.0185    0.0116   -0.0287
          79    0.0418    0.0249   -0.0280    0.0180   -0.0103   -0.0618    0.0138    0.0081
          80   -0.0238    0.0307    0.0079   -0.0170    0.0162    0.0536    0.1409   -0.0803
          81   -0.0001    0.0020    0.0003    0.0049    0.0058    0.0067    0.0167   -0.0099
          82    0.0663   -0.0142   -0.0136    0.0443    0.0085    0.0231    0.1161   -0.0573
          83   -0.0448    0.0507    0.0032   -0.0426   -0.0025   -0.0236   -0.0485    0.0313
          84   -0.0086    0.0286   -0.0122   -0.0012    0.0016   -0.0188    0.0771   -0.0395
          85    0.0152    0.0433   -0.0191   -0.0193   -0.0137   -0.0746   -0.0628    0.0444
          86   -0.0556    0.0627    0.0037   -0.0565   -0.0041   -0.0318   -0.0564    0.0342
          87    0.0155    0.0021   -0.0212    0.0326   -0.0100   -0.0621   -0.0534    0.0463
          88   -0.0032   -0.0169    0.0321   -0.0145    0.0081   -0.0240    0.0263   -0.0001
          89   -0.0215    0.0020    0.0346   -0.0049   -0.0026   -0.0234    0.0932    0.1578
          90    0.0151    0.0003   -0.0043   -0.0145    0.0040   -0.0027   -0.0032   -0.0013
          91   -0.0050   -0.0129    0.0154   -0.0103    0.0010   -0.0097    0.0553    0.1154
          92   -0.0132    0.0024    0.0382    0.0023    0.0018   -0.0248   -0.0139   -0.0871
          93    0.0095   -0.0056    0.0146   -0.0272    0.0093   -0.0201    0.0621    0.0824
          94   -0.0051   -0.0079    0.0385   -0.0002    0.0083   -0.0207   -0.0279   -0.1138
          95   -0.0131    0.0023    0.0382    0.0023    0.0019   -0.0249   -0.0144   -0.0885
          96    0.0257   -0.0116   -0.0090   -0.0267    0.0082   -0.0086   -0.0332   -0.0845
          97    0.0439   -0.0098    0.0274   -0.0622    0.0285    0.0662   -0.0099    0.0152
          98   -0.0190    0.0030   -0.0121    0.0567   -0.0197   -0.0366   -0.0242   -0.0052
          99   -0.0005    0.0137   -0.0206    0.0461   -0.0078   -0.0296    0.0100   -0.0052
         100   -0.0306    0.0223   -0.0023    0.0563   -0.0210   -0.0253   -0.0197   -0.0115
         101    0.0283   -0.0220    0.0125   -0.0341    0.0133    0.0237   -0.0189    0.0112
         102    0.0221   -0.0138    0.0106   -0.0488    0.0139    0.0067    0.0081    0.0044


   Root No.       9        10        11        12        13        14        15        16

                 9 A      10 A      11 A      12 A      13 A      14 A      15 A      16 A   

                 183.8     195.7     231.6     258.2     329.6     338.8     377.9     425.9
  
           1   -0.0023   -0.0014   -0.0015    0.0018    0.0065   -0.0096    0.0110    0.0071
           2   -0.0048    0.0048   -0.0066   -0.0092    0.0067   -0.0139    0.0347    0.0161
           3    0.0066    0.0111    0.0120   -0.0067   -0.0172   -0.0243    0.0012   -0.0173
           4   -0.0022   -0.0019    0.0009   -0.0022    0.0113   -0.0180   -0.0020    0.0105
           5    0.0019   -0.0054   -0.0010    0.0233   -0.0032    0.0098   -0.0211   -0.0233
           6   -0.0077   -0.0124   -0.0129    0.0127    0.0075   -0.0081   -0.0062    0.0115
           7    0.0002    0.0047   -0.0065    0.0063    0.0060    0.0041    0.0116   -0.0160
           8   -0.0031    0.0098   -0.0113   -0.0078    0.0086   -0.0110    0.0285    0.0003
           9    0.0016    0.0134   -0.0001   -0.0015   -0.0023   -0.0062   -0.0024    0.0083
          10   -0.0089   -0.0128   -0.0113    0.0096    0.0227   -0.0054   -0.0004    0.0268
          11   -0.0130    0.0090    0.0121    0.0336   -0.0133   -0.0008    0.0104    0.0020
          12   -0.0005   -0.0007   -0.0001    0.0022   -0.0048   -0.0222   -0.0066   -0.0037
          13    0.0043    0.0087    0.0109   -0.0087   -0.0035   -0.0244    0.0073   -0.0078
          14    0.0045   -0.0160   -0.0051   -0.0251   -0.0072    0.0388    0.0110    0.0013
          15   -0.0005   -0.0006   -0.0009    0.0038   -0.0072   -0.0176   -0.0000   -0.0050
          16   -0.0065   -0.0031    0.0113   -0.0102    0.0030   -0.0013   -0.0255   -0.0101
          17    0.0053   -0.0047   -0.0085    0.0285    0.0044   -0.0051   -0.0082   -0.0075
          18   -0.0103   -0.0040    0.0005    0.0003   -0.0025    0.0106   -0.0005   -0.0132
          19    0.0015    0.0074   -0.0014    0.0029   -0.0105    0.0152   -0.0127    0.0254
          20    0.0037   -0.0188    0.0141    0.0001   -0.0145   -0.0152    0.0025    0.0038
          21    0.0044    0.0028    0.0096    0.0072    0.0133    0.0279    0.0055    0.0049
          22   -0.0060   -0.0223   -0.0217    0.0036   -0.0283    0.0081    0.0072   -0.0137
          23    0.0026    0.0040    0.0307    0.0097    0.0092    0.0045   -0.0114    0.0114
          24   -0.0030   -0.0071   -0.0128   -0.0052   -0.0266   -0.0053   -0.0066    0.0135
          25    0.0126    0.0038    0.0117   -0.0190    0.0020   -0.0070   -0.0187    0.0009
          26    0.0055    0.0040    0.0113   -0.0319   -0.0002   -0.0019   -0.0056    0.0050
          27    0.0074    0.0023    0.0005   -0.0084   -0.0045    0.0075    0.0104   -0.0038
          28   -0.0033   -0.0095    0.0008   -0.0018    0.0062   -0.0056    0.0040   -0.0058
          29   -0.0015   -0.0038    0.0015   -0.0011   -0.0037   -0.0073    0.0011    0.0003
          30    0.0002   -0.0043    0.0084    0.0043    0.0288    0.0199    0.0175   -0.0173
          31    0.0045    0.0274   -0.0008    0.0123   -0.0162    0.0176    0.0178   -0.0102
          32   -0.0020    0.0072   -0.0276   -0.0128    0.0191   -0.0077   -0.0177   -0.0167
          33   -0.0010   -0.0012   -0.0050   -0.0048    0.0169   -0.0038   -0.0063    0.0053
          34    0.0063    0.0071    0.0078    0.0076    0.0050    0.0277    0.0065   -0.0017
          35   -0.0004    0.0140   -0.0233   -0.0054   -0.0018    0.0068   -0.0245   -0.0012
          36    0.0009    0.0045    0.0008    0.0030    0.0003    0.0151   -0.0114    0.0213
          37    0.0011   -0.0021   -0.0053    0.0082    0.0194   -0.0315   -0.0070    0.0094
          38    0.0038   -0.0053   -0.0051    0.0295    0.0021    0.0006   -0.0231   -0.0229
          39   -0.0049   -0.0301   -0.0299    0.0021    0.0217    0.0097   -0.0098    0.0305
          40   -0.0031   -0.0074    0.0051    0.0055   -0.0010    0.0003    0.0023    0.0117
          41   -0.0042    0.0085   -0.0106   -0.0111    0.0115   -0.0196    0.0392    0.0123
          42    0.0180    0.0094    0.0164   -0.0349   -0.0280   -0.0204    0.0046   -0.0363
          43    0.0022    0.0040   -0.0033    0.0112    0.0077    0.0137   -0.0100   -0.0281
          44   -0.0044    0.0090   -0.0123   -0.0106    0.0063   -0.0163    0.0425    0.0093
          45    0.0022    0.0288   -0.0112   -0.0039    0.0059   -0.0062   -0.0018    0.0051
          46   -0.0067   -0.0045    0.0164   -0.0057   -0.0041    0.0137   -0.0428   -0.0357
          47    0.0042   -0.0055   -0.0038    0.0290   -0.0009    0.0062   -0.0199   -0.0254
          48   -0.0230   -0.0026    0.0183   -0.0276   -0.0120    0.0309   -0.0164   -0.0423
          49   -0.0206   -0.0083    0.0135   -0.0090    0.0034    0.0025   -0.0391   -0.0201
          50    0.0099   -0.0084   -0.0291    0.0564    0.0192   -0.0342    0.0113    0.0343
          51   -0.0028   -0.0009    0.0006   -0.0026   -0.0037    0.0104    0.0055   -0.0106
          52   -0.0106   -0.0244   -0.0162    0.0301    0.0265    0.0107   -0.0302    0.0173
          53   -0.0209    0.0149    0.0236    0.0529   -0.0265    0.0008    0.0143    0.0067
          54    0.0100   -0.0087   -0.0153   -0.0235    0.0126   -0.0242   -0.0115   -0.0099
          55   -0.0149   -0.0157   -0.0208    0.0010    0.0362   -0.0109    0.0215    0.0585
          56   -0.0206    0.0147    0.0233    0.0517   -0.0259    0.0011    0.0136    0.0063
          57   -0.0106    0.0069    0.0148    0.0258   -0.0212   -0.0195   -0.0030    0.0021
          58    0.0051    0.0173    0.0141   -0.0273   -0.0090   -0.0400    0.0343   -0.0007
          59    0.0080   -0.0267   -0.0055   -0.0476   -0.0148    0.0728    0.0155    0.0064
          60   -0.0052    0.0134   -0.0005    0.0334    0.0027   -0.0610   -0.0054   -0.0117
          61    0.0116    0.0117    0.0211   -0.0002   -0.0152   -0.0195   -0.0173   -0.0374
          62    0.0081   -0.0269   -0.0057   -0.0484   -0.0150    0.0743    0.0161    0.0064
          63    0.0044   -0.0152   -0.0018   -0.0274   -0.0175    0.0296    0.0065    0.0017
          64    0.0057   -0.0146    0.0249    0.0070   -0.0221   -0.0013    0.0100    0.0262
          65    0.0074   -0.0404    0.0381    0.0032   -0.0264   -0.0332    0.0226    0.0050
          66    0.0075    0.0009    0.0243    0.0131    0.0112    0.0352    0.0221    0.0072
          67   -0.0037    0.0336   -0.0329   -0.0019    0.0043    0.0346   -0.0390    0.0235
          68    0.0061   -0.0351    0.0330    0.0027   -0.0229   -0.0286    0.0192    0.0041
          69    0.0077    0.0098    0.0050    0.0081    0.0123    0.0391   -0.0018    0.0070
          70   -0.0976    0.0140    0.0371   -0.0626   -0.0028   -0.0004   -0.0224    0.0042
          71   -0.0829    0.0120    0.0308   -0.0641   -0.0039    0.0032   -0.0082    0.0075
          72   -0.0802    0.0088    0.0067   -0.0023   -0.0060    0.0084    0.0134   -0.0054
          73    0.0301    0.0102    0.0125   -0.0302    0.0009   -0.0124   -0.0104    0.0148
          74    0.1789   -0.0044   -0.0093   -0.0229    0.0030   -0.0103   -0.0009    0.0149
          75   -0.0061   -0.0006    0.0008   -0.0034   -0.0041    0.0103    0.0060   -0.0109
          76    0.1227   -0.0069   -0.0139    0.0261    0.0070   -0.0138   -0.0166   -0.0037
          77   -0.0771    0.0118    0.0302   -0.0647   -0.0039    0.0031   -0.0076    0.0082
          78    0.1231    0.0040   -0.0056   -0.0283   -0.0050    0.0001    0.0195    0.0153
          79   -0.0026   -0.0305    0.0074   -0.0046    0.0227   -0.0204    0.0222   -0.0386
          80   -0.0341    0.0596   -0.0368   -0.0071    0.0135   -0.0026    0.0007   -0.0125
          81   -0.0015    0.0126    0.0024    0.0060    0.0185    0.0305    0.0055    0.0041
          82   -0.0261    0.0335   -0.0225   -0.0057    0.0119   -0.0059    0.0032   -0.0117
          83    0.0121   -0.0290    0.0156    0.0014   -0.0083   -0.0070    0.0010    0.0051
          84   -0.0180    0.0222   -0.0123   -0.0005    0.0517    0.0184    0.0274   -0.0437
          85    0.0149   -0.0465    0.0202    0.0009    0.0042   -0.0071    0.0074   -0.0062
          86    0.0132   -0.0299    0.0152    0.0015   -0.0068   -0.0053    0.0007    0.0051
          87    0.0169   -0.0551    0.0352    0.0051    0.0325    0.0031    0.0345   -0.0394
          88   -0.0107   -0.0430   -0.0344    0.0002   -0.0625    0.0093    0.0052   -0.0113
          89    0.0338    0.0462    0.0285    0.0114    0.0078    0.0108   -0.0280    0.0150
[...]
 REDUCED MASS        0.4529         C  7 -- C 12          +0.7% (  8.2%)     28.8%
 EFFECTIVE MASS      1.2885
 FORCE CONSTANT      2.4404

 VIBRATION         81   81A           ATOM PAIR      ENERGY CONTRIBUTION    RADIAL
 FREQUENCY          3027.33         C  6 -- H 17         +40.7% ( 63.8%)     98.4%
 TRANSITION DIPOLE   0.0392         C  6 -- H 16         +30.4% ( 55.2%)     96.7%
 TRAVEL (Ang.)       0.2730         C  4 -- H 19         +15.3% ( 39.1%)     98.5%
 REDUCED MASS        0.2988         C  4 -- H 18          +7.1% ( 26.6%)     93.8%
 EFFECTIVE MASS      1.3372
 FORCE CONSTANT      1.6133

 VIBRATION         82   82A           ATOM PAIR      ENERGY CONTRIBUTION    RADIAL
 FREQUENCY          3028.65         C  4 -- H 19         +35.0% ( 60.8%)     98.3%
 TRANSITION DIPOLE   0.0503         C  4 -- H 18         +17.3% ( 42.8%)     94.2%
 TRAVEL (Ang.)       0.3197         C  5 -- H 20         +14.6% ( 39.3%)     98.3%
 REDUCED MASS        0.2178         C  6 -- H 17         +13.0% ( 37.0%)     98.5%
 EFFECTIVE MASS      1.4728
 FORCE CONSTANT      1.1772

 VIBRATION         83   83A           ATOM PAIR      ENERGY CONTRIBUTION    RADIAL
 FREQUENCY          3031.63         C  5 -- H 20         +46.2% ( 70.6%)     98.3%
 TRANSITION DIPOLE   0.1227         C  5 -- H 21         +24.3% ( 51.3%)     94.4%
 TRAVEL (Ang.)       0.2580         C  4 -- H 19         +16.0% ( 41.6%)     98.4%
 REDUCED MASS        0.3340         C  4 -- H 18          +7.6% ( 28.7%)     93.9%
 EFFECTIVE MASS      1.5355
 FORCE CONSTANT      1.8087

 VIBRATION         84   84A           ATOM PAIR      ENERGY CONTRIBUTION    RADIAL
 FREQUENCY          3034.09         C 12 -- H 33         +83.1% ( 92.1%)    100.0%
 TRANSITION DIPOLE   0.2972         C 11 -- H 34         +12.4% ( 35.5%)     99.9%
 TRAVEL (Ang.)       0.1800         C  7 -- H 23          +1.3% ( 11.7%)     99.3%
 REDUCED MASS        0.6859         C  7 -- C 12          +1.1% ( 10.5%)     15.0%
 EFFECTIVE MASS      1.4545
 FORCE CONSTANT      3.7200

 VIBRATION         85   85A           ATOM PAIR      ENERGY CONTRIBUTION    RADIAL
 FREQUENCY          3037.13         C 11 -- H 34         +84.0% ( 93.1%)    100.0%
 TRANSITION DIPOLE   0.1455         C 12 -- H 33         +11.2% ( 34.0%)     99.7%
 TRAVEL (Ang.)       0.1762         C 11 -- C 12          +2.0% ( 14.2%)     40.5%
 REDUCED MASS        0.7149         C  3 -- C 11          +1.2% ( 11.2%)     11.7%
 EFFECTIVE MASS      1.5607
 FORCE CONSTANT      3.8852

 VIBRATION         86   86A           ATOM PAIR      ENERGY CONTRIBUTION    RADIAL
 FREQUENCY          3076.67         C  9 -- H 25         +57.7% ( 78.3%)     98.1%
 TRANSITION DIPOLE   0.0082         C  9 -- H 24         +39.0% ( 64.4%)     95.4%
 TRAVEL (Ang.)       0.2067         C  9 -- H 26          +1.9% ( 14.4%)     22.6%
 REDUCED MASS        0.5128         C  6 -- C  9          +1.0% ( 10.2%)      0.0%
 EFFECTIVE MASS      1.5012
 FORCE CONSTANT      2.8598

 VIBRATION         87   87A           ATOM PAIR      ENERGY CONTRIBUTION    RADIAL
 FREQUENCY          3077.58         C  8 -- H 31         +52.3% ( 74.6%)     97.6%
 TRANSITION DIPOLE   0.0063         C  8 -- H 30         +45.2% ( 69.4%)     96.5%
 TRAVEL (Ang.)       0.2079         C  8 -- H 32          +1.2% ( 11.4%)      6.8%
 REDUCED MASS        0.5071         C  3 -- C  8          +1.0% ( 10.4%)      0.0%
 EFFECTIVE MASS      1.5042
 FORCE CONSTANT      2.8297

 VIBRATION         88   88A           ATOM PAIR      ENERGY CONTRIBUTION    RADIAL
 FREQUENCY          3080.86         C 10 -- H 28         +63.4% ( 82.1%)     98.6%
 TRANSITION DIPOLE   0.0100         C 10 -- H 29         +29.6% ( 56.1%)     92.6%
 TRAVEL (Ang.)       0.2051         C 10 -- H 27          +5.8% ( 24.7%)     59.1%
 REDUCED MASS        0.5206         C  7 -- C 10          +1.0% ( 10.2%)      0.0%
 EFFECTIVE MASS      1.5012
 FORCE CONSTANT      2.9111

 VIBRATION         89   89A           ATOM PAIR      ENERGY CONTRIBUTION    RADIAL
 FREQUENCY          3084.02         C  9 -- H 26         +60.2% ( 80.0%)     98.6%
 TRANSITION DIPOLE   0.0040         C  9 -- H 24         +27.4% ( 54.0%)     91.4%
 TRAVEL (Ang.)       0.2139         C  9 -- H 25         +11.0% ( 34.1%)     75.5%
 REDUCED MASS        0.4781         C  6 -- C  9          +1.0% ( 10.3%)      0.0%
 EFFECTIVE MASS      1.5038
 FORCE CONSTANT      2.6789

 VIBRATION         90   90A           ATOM PAIR      ENERGY CONTRIBUTION    RADIAL
 FREQUENCY          3084.77         C  8 -- H 32         +60.3% ( 80.1%)     98.7%
 TRANSITION DIPOLE   0.0136         C  8 -- H 30         +23.0% ( 49.5%)     89.0%
 TRAVEL (Ang.)       0.2155         C  8 -- H 31         +15.6% ( 40.7%)     82.5%
 REDUCED MASS        0.4708         C  3 -- C  8          +1.0% ( 10.4%)      0.1%
 EFFECTIVE MASS      1.5066
 FORCE CONSTANT      2.6393

 VIBRATION         91   91A           ATOM PAIR      ENERGY CONTRIBUTION    RADIAL
 FREQUENCY          3085.70         C 10 -- H 27         +58.8% ( 79.1%)     98.3%
 TRANSITION DIPOLE   0.0109         C 10 -- H 29         +35.4% ( 61.4%)     94.3%
 TRAVEL (Ang.)       0.2088         C 10 -- H 28          +4.4% ( 21.6%)     49.7%
 REDUCED MASS        0.5011         C  7 -- C 10          +1.0% ( 10.3%)      0.0%
 EFFECTIVE MASS      1.5040
 FORCE CONSTANT      2.8114

 VIBRATION         92   92A           ATOM PAIR      ENERGY CONTRIBUTION    RADIAL
 FREQUENCY          3098.19         C  4 -- H 18         +43.1% ( 65.1%)     98.9%
 TRANSITION DIPOLE   0.1057         C  5 -- H 21         +23.4% ( 48.0%)     98.8%
 TRAVEL (Ang.)       0.2741         C  4 -- H 19         +19.7% ( 44.0%)     93.5%
 REDUCED MASS        0.2897         C  5 -- H 20         +11.8% ( 34.1%)     94.3%
 EFFECTIVE MASS      1.2708
 FORCE CONSTANT      1.6386

 VIBRATION         93   93A           ATOM PAIR      ENERGY CONTRIBUTION    RADIAL
 FREQUENCY          3101.11         C  5 -- H 21         +41.6% ( 64.1%)     98.7%
 TRANSITION DIPOLE   0.0270         C  4 -- H 18         +24.1% ( 48.8%)     98.7%
 TRAVEL (Ang.)       0.2755         C  5 -- H 20         +20.8% ( 45.3%)     93.7%
 REDUCED MASS        0.2865         C  4 -- H 19         +11.0% ( 33.0%)     93.0%
 EFFECTIVE MASS      1.3105
 FORCE CONSTANT      1.6232

 VIBRATION         94   94A           ATOM PAIR      ENERGY CONTRIBUTION    RADIAL
 FREQUENCY          3178.13         C  8 -- H 32         +38.3% ( 59.6%)     97.8%
 TRANSITION DIPOLE   0.0281         C  8 -- H 31         +31.0% ( 53.6%)     96.7%
 TRAVEL (Ang.)       0.2535         C  8 -- H 30         +30.4% ( 53.1%)     96.6%
 REDUCED MASS        0.3301         C  3 -- C  8          +0.3% (  5.0%)     98.9%
 EFFECTIVE MASS      1.1350
 FORCE CONSTANT      1.9645

 VIBRATION         95   95A           ATOM PAIR      ENERGY CONTRIBUTION    RADIAL
 FREQUENCY          3179.26         C  9 -- H 26         +37.2% ( 58.7%)     97.7%
 TRANSITION DIPOLE   0.0100         C  9 -- H 24         +32.6% ( 55.0%)     97.0%
 TRAVEL (Ang.)       0.2538         C  9 -- H 25         +29.9% ( 52.6%)     96.5%
 REDUCED MASS        0.3292         C  6 -- C  9          +0.3% (  5.1%)     99.3%
 EFFECTIVE MASS      1.1368
 FORCE CONSTANT      1.9606

 VIBRATION         96   96A           ATOM PAIR      ENERGY CONTRIBUTION    RADIAL
 FREQUENCY          3182.71         C 10 -- H 27         +34.5% ( 56.5%)     97.3%
 TRANSITION DIPOLE   0.0193         C 10 -- H 29         +34.2% ( 56.3%)     97.3%
 TRAVEL (Ang.)       0.2543         C 10 -- H 28         +31.0% ( 53.5%)     96.7%
 REDUCED MASS        0.3277         C  7 -- C 10          +0.3% (  5.1%)     99.8%
 EFFECTIVE MASS      1.1360
 FORCE CONSTANT      1.9555

      SYMMETRY NUMBER FOR POINT-GROUP C1  =  1


          SYSTEM IS A GROUND STATE



 InChI=1S/C12H22/c1-4-6-7-10(3)12-8-11(5-2)9-12/h6-7,10-12H,4-5,8-9H2,1-3H3


          MOLECULE IS NOT LINEAR

          THERE ARE 96 GENUINE VIBRATIONS IN THIS SYSTEM
          THIS THERMODYNAMICS CALCULATION IS LIMITED TO
          MOLECULES WHICH HAVE NO INTERNAL ROTATIONS




                    CALCULATED THERMODYNAMIC PROPERTIES
                                          *
   TEMP. (K)   PARTITION FUNCTION   H.O.F.    ENTHALPY  HEAT CAPACITY ENTROPY
                                   KCAL/MOL   CAL/MOLE    CAL/K/MOL  CAL/K/MOL


 298.00  VIB.     0.6320D+06                  7424.6777    47.8045    51.4573
         ROT.     0.1946D+07                   888.2803     2.9808    31.7579
         INT.     0.1230D+13                  8312.9580    50.7853    83.2152
         TRA.     0.2073D+28                  1480.4672     4.9680    41.2320
         TOT.                      -22.653    9793.4252    55.7533   124.4472

 200.00  VIB.     0.9269D+04                  3546.9656    32.0305    35.8867
         ROT.     0.1070D+07                   596.1613     2.9808    30.5692
         INT.     0.9916D+10                  4143.1269    35.0113    66.4559
         TRA.     0.1140D+28                   993.6021     4.9680    39.2509
         TOT.                      -27.310    5136.7290    39.9793   105.7068

 210.00  VIB.     0.1445D+05                  3874.2546    33.4352    37.4833
         ROT.     0.1151D+07                   625.9693     2.9808    30.7146
         INT.     0.1663D+11                  4500.2239    36.4160    68.1979
         TRA.     0.1227D+28                  1043.2822     4.9680    39.4932
         TOT.                      -26.903    5543.5061    41.3840   107.6912

 220.00  VIB.     0.2244D+05                  4215.8336    34.8890    39.0721
         ROT.     0.1234D+07                   655.7774     2.9808    30.8533
         INT.     0.2770D+11                  4871.6110    37.8698    69.9253
         TRA.     0.1315D+28                  1092.9623     4.9680    39.7244
         TOT.                      -26.482    5964.5734    42.8378   109.6497

 230.00  VIB.     0.3473D+05                  4572.2027    36.3933    40.6559
         ROT.     0.1319D+07                   685.5855     2.9808    30.9858
         INT.     0.4582D+11                  5257.7882    39.3741    71.6417
         TRA.     0.1406D+28                  1142.6424     4.9680    39.9452
         TOT.                      -26.046    6400.4306    44.3422   111.5869

 240.00  VIB.     0.5357D+05                  4943.8686    37.9481    42.2375
         ROT.     0.1406D+07                   715.3935     2.9808    31.1126
         INT.     0.7533D+11                  5659.2621    40.9289    73.3501
         TRA.     0.1499D+28                  1192.3226     4.9680    40.1566
         TOT.                      -25.595    6851.5847    45.8970   113.5068

 250.00  VIB.     0.8239D+05                  5331.3277    39.5516    43.8190
         ROT.     0.1495D+07                   745.2016     2.9808    31.2343
         INT.     0.1232D+12                  6076.5293    42.5324    75.0533
         TRA.     0.1593D+28                  1242.0027     4.9680    40.3594
         TOT.                      -25.128    7318.5320    47.5004   115.4127

 260.00  VIB.     0.1264D+06                  5735.0522    41.2006    45.4022
         ROT.     0.1586D+07                   775.0097     2.9808    31.3512
         INT.     0.2005D+12                  6510.0619    44.1814    76.7534
         TRA.     0.1690D+28                  1291.6828     4.9680    40.5543
         TOT.                      -24.645    7801.7447    49.1494   117.3077

 270.00  VIB.     0.1935D+06                  6155.4786    42.8912    46.9887
         ROT.     0.1678D+07                   804.8177     2.9808    31.4637
         INT.     0.3248D+12                  6960.2963    45.8720    78.4524
         TRA.     0.1788D+28                  1341.3629     4.9680    40.7418
         TOT.                      -24.145    8301.6592    50.8400   119.1942

 280.00  VIB.     0.2957D+06                  6592.9995    44.6187    48.5797
         ROT.     0.1772D+07                   834.6258     2.9808    31.5721
         INT.     0.5241D+12                  7427.6253    47.5995    80.1518
         TRA.     0.1888D+28                  1391.0430     4.9680    40.9225
         TOT.                      -23.628    8818.6683    52.5675   121.0743

 290.00  VIB.     0.4512D+06                  7047.9584    46.3779    50.1760
         ROT.     0.1868D+07                   864.4339     2.9808    31.6767
         INT.     0.8428D+12                  7912.3922    49.3587    81.8527
         TRA.     0.1990D+28                  1440.7231     4.9680    41.0968
         TOT.                      -23.094    9353.1153    54.3267   122.9495

 300.00  VIB.     0.6874D+06                  7520.6455    48.1635    51.7783
         ROT.     0.1965D+07                   894.2419     2.9808    31.7778
         INT.     0.1351D+13                  8414.8875    51.1443    83.5561
         TRA.     0.2094D+28                  1490.4032     4.9680    41.2652
         TOT.                      -22.541    9905.2906    56.1123   124.8213

 310.00  VIB.     0.1046D+07                  8011.2973    49.9699    53.3870
         ROT.     0.2064D+07                   924.0500     2.9808    31.8755
         INT.     0.2160D+13                  8935.3473    52.9507    85.2625
         TRA.     0.2200D+28                  1540.0833     4.9680    41.4281
         TOT.                      -21.971   10475.4306    57.9187   126.6906

 320.00  VIB.     0.1591D+07                  8520.0958    51.7919    55.0022
         ROT.     0.2165D+07                   953.8580     2.9808    31.9702
         INT.     0.3445D+13                  9473.9539    54.7727    86.9724
         TRA.     0.2307D+28                  1589.7634     4.9680    41.5859
         TOT.                      -21.383   11063.7173    59.7407   128.5582

 330.00  VIB.     0.2417D+07                  9047.1703    53.6243    56.6239
         ROT.     0.2267D+07                   983.6661     2.9808    32.0619
         INT.     0.5481D+13                 10030.8364    56.6051    88.6858
         TRA.     0.2416D+28                  1639.4435     4.9680    41.7387
         TOT.                      -20.776   11670.2799    61.5731   130.4246

 340.00  VIB.     0.3671D+07                  9592.5995    55.4621    58.2521
         ROT.     0.2371D+07                  1013.4742     2.9808    32.1509
         INT.     0.8705D+13                 10606.0736    58.4429    90.4029
         TRA.     0.2527D+28                  1689.1236     4.9680    41.8870
         TOT.                      -20.151   12295.1973    63.4109   132.2900

 350.00  VIB.     0.5573D+07                 10156.4147    57.3008    59.8863
         ROT.     0.2477D+07                  1043.2822     2.9808    32.2373
         INT.     0.1380D+14                 11199.6970    60.2816    92.1236
         TRA.     0.2639D+28                  1738.8037     4.9680    42.0310
         TOT.                      -19.508   12938.5007    65.2496   134.1546

 360.00  VIB.     0.8457D+07                 10738.6033    59.1361    61.5263
         ROT.     0.2584D+07                  1073.0903     2.9808    32.3213
         INT.     0.2185D+14                 11811.6936    62.1169    93.8475
         TRA.     0.2753D+28                  1788.4838     4.9680    42.1710
         TOT.                      -18.846   13600.1775    67.0849   136.0185

 370.00  VIB.     0.1283D+08                 11339.1123    60.9642    63.1715
         ROT.     0.2692D+07                  1102.8984     2.9808    32.4029
         INT.     0.3454D+14                 12442.0107    63.9450    95.5744
         TRA.     0.2869D+28                  1838.1639     4.9680    42.3071
         TOT.                      -18.166   14280.1746    68.9130   137.8815

 380.00  VIB.     0.1946D+08                 11957.8524    62.7818    64.8214
         ROT.     0.2802D+07                  1132.7064     2.9808    32.4824
         INT.     0.5454D+14                 13090.5589    65.7626    97.3039
         TRA.     0.2986D+28                  1887.8440     4.9680    42.4396
         TOT.                      -17.468   14978.4029    70.7306   139.7435

 390.00  VIB.     0.2953D+08                 12594.7020    64.5856    66.4756
         ROT.     0.2913D+07                  1162.5145     2.9808    32.5598
         INT.     0.8601D+14                 13757.2165    67.5664    99.0354
         TRA.     0.3104D+28                  1937.5242     4.9680    42.5687
         TOT.                      -16.752   15694.7406    72.5345   141.6041

 400.00  VIB.     0.4479D+08                 13249.5107    66.3732    68.1333
         ROT.     0.3026D+07                  1192.3226     2.9808    32.6353
         INT.     0.1355D+15                 14441.8333    69.3540   100.7686
         TRA.     0.3224D+28                  1987.2043     4.9680    42.6944
         TOT.                      -16.018   16429.0375    74.3220   143.4631

   *: NOTE: HEATS OF FORMATION ARE RELATIVE TO THE
            ELEMENTS IN THEIR STANDARD STATE AT 298K
              (=  Standard Enthalpy of Formation).

            Hvib:  Zero-point energy is not included.
                   frequencies of less than zero cm-1 are not included.
            Hrot = (3/2)RT
            Htra = (3/2)RT + pV = (5/2)RT

            Heat capacity is Cp, not Cv

          For more information, see: HTTP://OpenMOPAC.net/Manual/thermochemistry.html


           FORCE CONSTANT IN CARTESIAN COORDINATES (Millidynes/A)

    ATOM   CHEMICAL       X               Y               Z
   NUMBER   SYMBOL  FORCE CONSTANT  FORCE CONSTANT  FORCE CONSTANT

      1       C        9.802894        8.445353        6.402940
      2       C        9.848625        8.639091        6.345584
      3       C        8.490979        8.239257        8.693205
      4       C        5.998133        8.645805        9.735745
      5       C        5.988683        8.643524        9.732102
      6       C        8.403547        8.263050        8.426043
      7       C        8.428832        8.230482        8.755860
      8       C        8.232541        8.319051        8.265830
      9       C        8.344853        8.344525        8.207229
     10       C        8.240767        8.202042        8.410094
     11       C        5.850757       10.587711       10.785316
     12       C        5.865364       10.426909       10.868269
     13       H        2.034685        3.559630        0.665972
     14       H        2.032142        3.559525        0.666528
     15       H        1.959834        3.274187        0.766208
     16       H        2.032322        3.600919        0.738878
     17       H        1.674438        0.694802        4.006987
     18       H        0.666757        3.692320        2.275342
     19       H        0.676924        3.655526        2.249260
     20       H        0.700034        3.645897        2.267327
     21       H        0.666088        3.708877        2.258740
     22       H        2.672107        2.866522        0.734704
     23       H        1.639822        3.936407        0.820353
     24       H        2.294859        3.747061        0.736001
     25       H        1.711176        0.671550        4.371934
     26       H        2.254272        3.826843        0.709211
     27       H        2.336655        0.672467        3.780970
     28       H        1.680621        4.340356        0.760940
     29       H        2.937745        3.062918        0.777288
     30       H        2.098771        0.664162        4.003135
     31       H        2.268591        3.789490        0.718266
     32       H        2.298245        3.787585        0.702785
     33       H        2.315706        3.137802        0.744234
     34       H        2.280231        3.187341        0.742335

 **********************
 *                    *
 * JOB ENDED NORMALLY *
 *                    *
 **********************



 TOTAL JOB TIME:             9.15 SECONDS

 == MOPAC DONE ==
