 *******************************************************************************
 **                                                                           **
 **                              MOPAC v23.1.2                                **
 **                                                                           **
 *******************************************************************************
 **          Digital Object Identifier (DOI): 10.5281/zenodo.6511958          **
 **    Visit the DOI location for information on how to cite this program.    **
 *******************************************************************************

                              PM3 CALCULATION RESULTS

 *******************************************************************************
 *  CALCULATION DONE: (MAX THREADS = 1)              Tue Jun  3 16:29:32 2025  *
 *  PM3        - The PM3 Hamiltonian to be used
 *  PRECISE    - TIGHTER CRITERIA TO BE USED
 *  NOSYM      - POINT-GROUP SYMMETRY SET TO C1
 *  THREADS=1  - MULTI-THREADING NOT USED
 *  T=         - A TIME OF 172800.0 SECONDS REQUESTED
 *  DUMP=N     - RESTART FILE WRITTEN EVERY 7200.0 SECONDS REQUESTED
 *******************************************************************************
pm3  precise nosym THREADS=1
 InChI=1S/C10H12/c1-2-5-9-7-4-8-10(9)6-3-1/h1-5,7,9-10H,6,8H2

   ATOM   CHEMICAL          X               Y               Z
  NUMBER   SYMBOL      (ANGSTROMS)     (ANGSTROMS)     (ANGSTROMS)

     1       C         -0.56070000  *   0.69730000  *  -0.36340000  *
     2       C         -0.41340000  *  -0.83990000  *  -0.51100000  *
     3       C          0.65540000  *   1.44150000  *   0.21430000  *
     4       C         -1.83080000  *   0.90880000  *   0.47560000  *
     5       C         -1.76610000  *  -1.34390000  *  -0.13390000  *
     6       C          0.63860000  *  -1.48650000  *   0.36730000  *
     7       C         -2.52720000  *  -0.40160000  *   0.39860000  *
     8       C          1.90410000  *   1.12320000  *  -0.55840000  *
     9       C          2.48960000  *  -0.07840000  *  -0.50610000  *
    10       C          1.94480000  *  -1.20190000  *   0.28080000  *
    11       H         -0.75750000  *   1.11260000  *  -1.37920000  *
    12       H         -0.20770000  *  -1.10220000  *  -1.57220000  *
    13       H          0.46710000  *   2.53550000  *   0.15700000  *
    14       H          0.80500000  *   1.18530000  *   1.28630000  *
    15       H         -2.46610000  *   1.71480000  *   0.04960000  *
    16       H         -1.59820000  *   1.13090000  *   1.53970000  *
    17       H          2.38510000  *   1.91620000  *  -1.11780000  *
    18       H          0.34830000  *  -2.31290000  *   1.00680000  *
    19       H         -2.08460000  *  -2.37590000  *  -0.24250000  *
    20       H         -3.52700000  *  -0.58390000  *   0.77850000  *
    21       H          3.45310000  *  -0.20830000  *  -0.98200000  *
    22       H          2.64810000  *  -1.83070000  *   0.81190000  *



          CARTESIAN COORDINATES 

    NO.       ATOM           X           Y           Z

     1         C         -0.5607      0.6973     -0.3634
     2         C         -0.4134     -0.8399     -0.5110
     3         C          0.6554      1.4415      0.2143
     4         C         -1.8308      0.9088      0.4756
     5         C         -1.7661     -1.3439     -0.1339
     6         C          0.6386     -1.4865      0.3673
     7         C         -2.5272     -0.4016      0.3986
     8         C          1.9041      1.1232     -0.5584
     9         C          2.4896     -0.0784     -0.5061
    10         C          1.9448     -1.2019      0.2808
    11         H         -0.7575      1.1126     -1.3792
    12         H         -0.2077     -1.1022     -1.5722
    13         H          0.4671      2.5355      0.1570
    14         H          0.8050      1.1853      1.2863
    15         H         -2.4661      1.7148      0.0496
    16         H         -1.5982      1.1309      1.5397
    17         H          2.3851      1.9162     -1.1178
    18         H          0.3483     -2.3129      1.0068
    19         H         -2.0846     -2.3759     -0.2425
    20         H         -3.5270     -0.5839      0.7785
    21         H          3.4531     -0.2083     -0.9820
    22         H          2.6481     -1.8307      0.8119

  H: (PM3): J. J. P. STEWART, J. COMP. CHEM. 10, 209 (1989).
  C: (PM3): J. J. P. STEWART, J. COMP. CHEM. 10, 209 (1989).

           Empirical Formula: C10 H12  =    22 atoms



      MOLECULAR POINT GROUP   :   C1  


      RHF CALCULATION, NO. OF DOUBLY OCCUPIED LEVELS = 26


          Geometry optimization using EF

          DIAGONAL MATRIX USED AS START HESSIAN

 CYCLE:     1 TIME:   0.008 TIME LEFT:  2.00D  GRAD.:    73.310 HEAT:  44.09100
 CYCLE:     2 TIME:   0.016 TIME LEFT:  2.00D  GRAD.:    49.278 HEAT:  42.80586
 CYCLE:     3 TIME:   0.004 TIME LEFT:  2.00D  GRAD.:    73.255 HEAT:  42.64743
 CYCLE:     4 TIME:   0.008 TIME LEFT:  2.00D  GRAD.:    38.804 HEAT:  41.90449
 CYCLE:     5 TIME:   0.012 TIME LEFT:  2.00D  GRAD.:    22.540 HEAT:  41.46326
 CYCLE:     6 TIME:   0.012 TIME LEFT:  2.00D  GRAD.:    23.694 HEAT:  41.34897
 CYCLE:     7 TIME:   0.004 TIME LEFT:  2.00D  GRAD.:    21.846 HEAT:  41.22914
 CYCLE:     8 TIME:   0.008 TIME LEFT:  2.00D  GRAD.:    21.066 HEAT:  41.14539
 CYCLE:     9 TIME:   0.008 TIME LEFT:  2.00D  GRAD.:    24.528 HEAT:  41.11622
 CYCLE:    10 TIME:   0.008 TIME LEFT:  2.00D  GRAD.:    25.044 HEAT:  41.08458
 CYCLE:    11 TIME:   0.008 TIME LEFT:  2.00D  GRAD.:    12.556 HEAT:  40.94883
 CYCLE:    12 TIME:   0.012 TIME LEFT:  2.00D  GRAD.:    10.316 HEAT:  40.92443
 CYCLE:    13 TIME:   0.008 TIME LEFT:  2.00D  GRAD.:     5.051 HEAT:  40.89378
 CYCLE:    14 TIME:   0.008 TIME LEFT:  2.00D  GRAD.:     8.189 HEAT:  40.88520
 CYCLE:    15 TIME:   0.008 TIME LEFT:  2.00D  GRAD.:     6.936 HEAT:  40.86692
 CYCLE:    16 TIME:   0.004 TIME LEFT:  2.00D  GRAD.:     7.735 HEAT:  40.85013
 CYCLE:    17 TIME:   0.008 TIME LEFT:  2.00D  GRAD.:     8.049 HEAT:  40.83420
 CYCLE:    18 TIME:   0.012 TIME LEFT:  2.00D  GRAD.:     8.006 HEAT:  40.82380
 CYCLE:    19 TIME:   0.008 TIME LEFT:  2.00D  GRAD.:     4.443 HEAT:  40.80280
 CYCLE:    20 TIME:   0.004 TIME LEFT:  2.00D  GRAD.:     4.795 HEAT:  40.78778
 CYCLE:    21 TIME:   0.008 TIME LEFT:  2.00D  GRAD.:     6.173 HEAT:  40.77451
 CYCLE:    22 TIME:   0.008 TIME LEFT:  2.00D  GRAD.:     5.965 HEAT:  40.75279
 CYCLE:    23 TIME:   0.008 TIME LEFT:  2.00D  GRAD.:     7.334 HEAT:  40.73964
 CYCLE:    24 TIME:   0.008 TIME LEFT:  2.00D  GRAD.:     4.275 HEAT:  40.71890
 CYCLE:    25 TIME:   0.008 TIME LEFT:  2.00D  GRAD.:     6.140 HEAT:  40.71102
 CYCLE:    26 TIME:   0.004 TIME LEFT:  2.00D  GRAD.:     4.508 HEAT:  40.69574
 CYCLE:    27 TIME:   0.008 TIME LEFT:  2.00D  GRAD.:     7.369 HEAT:  40.68651
 CYCLE:    28 TIME:   0.008 TIME LEFT:  2.00D  GRAD.:     5.169 HEAT:  40.66555
 CYCLE:    29 TIME:   0.008 TIME LEFT:  2.00D  GRAD.:     6.468 HEAT:  40.64695
 CYCLE:    30 TIME:   0.008 TIME LEFT:  2.00D  GRAD.:     6.980 HEAT:  40.61790
 CYCLE:    31 TIME:   0.004 TIME LEFT:  2.00D  GRAD.:     4.806 HEAT:  40.57769
 CYCLE:    32 TIME:   0.008 TIME LEFT:  2.00D  GRAD.:     4.499 HEAT:  40.54472
 CYCLE:    33 TIME:   0.008 TIME LEFT:  2.00D  GRAD.:     4.584 HEAT:  40.51564
 CYCLE:    34 TIME:   0.008 TIME LEFT:  2.00D  GRAD.:     4.184 HEAT:  40.48730
 CYCLE:    35 TIME:   0.008 TIME LEFT:  2.00D  GRAD.:     3.872 HEAT:  40.45038
 CYCLE:    36 TIME:   0.008 TIME LEFT:  2.00D  GRAD.:     3.296 HEAT:  40.42953
 CYCLE:    37 TIME:   0.004 TIME LEFT:  2.00D  GRAD.:     3.512 HEAT:  40.40988
 CYCLE:    38 TIME:   0.008 TIME LEFT:  2.00D  GRAD.:     3.435 HEAT:  40.39239
 CYCLE:    39 TIME:   0.008 TIME LEFT:  2.00D  GRAD.:     3.132 HEAT:  40.37295
 CYCLE:    40 TIME:   0.008 TIME LEFT:  2.00D  GRAD.:     2.445 HEAT:  40.35756
 CYCLE:    41 TIME:   0.008 TIME LEFT:  2.00D  GRAD.:     2.157 HEAT:  40.34897
 CYCLE:    42 TIME:   0.004 TIME LEFT:  2.00D  GRAD.:     1.873 HEAT:  40.34091
 CYCLE:    43 TIME:   0.008 TIME LEFT:  2.00D  GRAD.:     1.689 HEAT:  40.33141
 CYCLE:    44 TIME:   0.008 TIME LEFT:  2.00D  GRAD.:     1.817 HEAT:  40.32549
 CYCLE:    45 TIME:   0.008 TIME LEFT:  2.00D  GRAD.:     1.413 HEAT:  40.32069
 CYCLE:    46 TIME:   0.008 TIME LEFT:  2.00D  GRAD.:     1.425 HEAT:  40.31546
 CYCLE:    47 TIME:   0.008 TIME LEFT:  2.00D  GRAD.:     1.491 HEAT:  40.31084
 CYCLE:    48 TIME:   0.004 TIME LEFT:  2.00D  GRAD.:     1.319 HEAT:  40.30669
 CYCLE:    49 TIME:   0.012 TIME LEFT:  2.00D  GRAD.:     1.266 HEAT:  40.30212
 CYCLE:    50 TIME:   0.008 TIME LEFT:  2.00D  GRAD.:     1.291 HEAT:  40.29797
 CYCLE:    51 TIME:   0.008 TIME LEFT:  2.00D  GRAD.:     1.083 HEAT:  40.29429
 CYCLE:    52 TIME:   0.008 TIME LEFT:  2.00D  GRAD.:     0.781 HEAT:  40.29212
 CYCLE:    53 TIME:   0.004 TIME LEFT:  2.00D  GRAD.:     0.674 HEAT:  40.29096
 CYCLE:    54 TIME:   0.008 TIME LEFT:  2.00D  GRAD.:     0.682 HEAT:  40.28985
 CYCLE:    55 TIME:   0.008 TIME LEFT:  2.00D  GRAD.:     0.644 HEAT:  40.28882
 CYCLE:    56 TIME:   0.004 TIME LEFT:  2.00D  GRAD.:     0.439 HEAT:  40.28804
 CYCLE:    57 TIME:   0.008 TIME LEFT:  2.00D  GRAD.:     0.285 HEAT:  40.28771
 CYCLE:    58 TIME:   0.008 TIME LEFT:  2.00D  GRAD.:     0.254 HEAT:  40.28754
 CYCLE:    59 TIME:   0.008 TIME LEFT:  2.00D  GRAD.:     0.220 HEAT:  40.28742
 CYCLE:    60 TIME:   0.004 TIME LEFT:  2.00D  GRAD.:     0.155 HEAT:  40.28731
 CYCLE:    61 TIME:   0.008 TIME LEFT:  2.00D  GRAD.:     0.122 HEAT:  40.28725
 CYCLE:    62 TIME:   0.008 TIME LEFT:  2.00D  GRAD.:     0.088 HEAT:  40.28723
 CYCLE:    63 TIME:   0.004 TIME LEFT:  2.00D  GRAD.:     0.099 HEAT:  40.28722
 CYCLE:    64 TIME:   0.008 TIME LEFT:  2.00D  GRAD.:     0.053 HEAT:  40.28721
 CYCLE:    65 TIME:   0.008 TIME LEFT:  2.00D  GRAD.:     0.052 HEAT:  40.28720
 CYCLE:    66 TIME:   0.004 TIME LEFT:  2.00D  GRAD.:     0.049 HEAT:  40.28720

     GRADIENT =  0.04929 IS LESS THAN CUTOFF =  0.05000



 -------------------------------------------------------------------------------
 pm3  precise nosym THREADS=1
 InChI=1S/C10H12/c1-2-5-9-7-4-8-10(9)6-3-1/h1-5,7,9-10H,6,8H2



     GEOMETRY OPTIMISED USING EIGENVECTOR FOLLOWING (EF).     
     SCF FIELD WAS ACHIEVED                                   


                              PM3 CALCULATION
                                                       MOPAC v23.1.2 MacOS
                                                       Tue Jun  3 16:29:32 2025




          FINAL HEAT OF FORMATION =         40.28720 KCAL/MOL =     168.56164 KJ/MOL


          COSMO AREA              =        171.99 SQUARE ANGSTROMS
          COSMO VOLUME            =        178.33 CUBIC ANGSTROMS

          GRADIENT NORM           =          0.04929          =       0.01051 PER ATOM
          IONIZATION POTENTIAL    =          9.257074 EV
          HOMO LUMO ENERGIES (EV) =         -9.257  0.431
          NO. OF FILLED LEVELS    =         26
          MOLECULAR WEIGHT        =        132.2048         POINT GROUP:  C1  

          MOLECULAR DIMENSIONS (Angstroms)

            Atom       Atom       Distance
            H    21    H    20     7.26183
            H    13    H    18     4.90837
            H    12    H    14     3.21611


          SCF CALCULATIONS        =         75

          WALL-CLOCK TIME         =      0.508 SECONDS
          COMPUTATION TIME        =      0.345 SECONDS




   ATOM   CHEMICAL          X               Y               Z
  NUMBER   SYMBOL      (ANGSTROMS)     (ANGSTROMS)     (ANGSTROMS)

     1       C         -0.53089209  *   0.67343149  *  -0.40957522  *
     2       C         -0.44134067  *  -0.87877397  *  -0.47799970  *
     3       C          0.62415506  *   1.35574620  *   0.31093046  *
     4       C         -1.87949868  *   0.98648926  *   0.27477378  *
     5       C         -1.75971946  *  -1.35006683  *   0.07588920  *
     6       C          0.69233551  *  -1.55594850  *   0.21375561  *
     7       C         -2.53538579  *  -0.33859111  *   0.47608801  *
     8       C          1.90324311  *   1.16434792  *  -0.42369000  *
     9       C          2.51160136  *  -0.02461951  *  -0.48815662  *
    10       C          1.98317218  *  -1.21129417  *   0.16142320  *
    11       H         -0.55512884  *   1.06093083  *  -1.45549995  *
    12       H         -0.37576184  *  -1.18867665  *  -1.55032449  *
    13       H          0.40400577  *   2.43577707  *   0.42032261  *
    14       H          0.71807213  *   0.95733748  *   1.34243034  *
    15       H         -2.50871811  *   1.65119161  *  -0.34505100  *
    16       H         -1.75023906  *   1.50366877  *   1.24492808  *
    17       H          2.33943483  *   2.04370739  *  -0.90912763  *
    18       H          0.41559207  *  -2.46774797  *   0.76040765  *
    19       H         -2.00085947  *  -2.41223933  *   0.12314891  *
    20       H         -3.53386465  *  -0.41600916  *   0.90574621  *
    21       H          3.46331689  *  -0.14605152  *  -1.01800013  *
    22       H          2.73455255  *  -1.84780960  *   0.64576255  *

                             CARTESIAN COORDINATES

   1    C       -0.530892094     0.673431488    -0.409575222
   2    C       -0.441340672    -0.878773972    -0.477999698
   3    C        0.624155061     1.355746202     0.310930458
   4    C       -1.879498681     0.986489260     0.274773781
   5    C       -1.759719458    -1.350066830     0.075889197
   6    C        0.692335507    -1.555948498     0.213755611
   7    C       -2.535385789    -0.338591110     0.476088013
   8    C        1.903243110     1.164347919    -0.423690000
   9    C        2.511601360    -0.024619514    -0.488156616
  10    C        1.983172181    -1.211294167     0.161423201
  11    H       -0.555128836     1.060930828    -1.455499949
  12    H       -0.375761845    -1.188676652    -1.550324486
  13    H        0.404005766     2.435777066     0.420322606
  14    H        0.718072132     0.957337481     1.342430336
  15    H       -2.508718106     1.651191610    -0.345051003
  16    H       -1.750239057     1.503668765     1.244928085
  17    H        2.339434833     2.043707385    -0.909127627
  18    H        0.415592071    -2.467747968     0.760407647
  19    H       -2.000859468    -2.412239335     0.123148911
  20    H       -3.533864652    -0.416009163     0.905746211
  21    H        3.463316887    -0.146051521    -1.018000129
  22    H        2.734552555    -1.847809595     0.645762550


           Empirical Formula: C10 H12  =    22 atoms



      MOLECULAR POINT GROUP   :   C1  


                  EIGENVALUES  
 -41.83119 -35.57950 -32.29551 -28.48707 -26.87382 -23.88045 -21.47814 -19.25440
 -18.74123 -17.64398 -17.52929 -16.80006 -15.31414 -15.04712 -14.89424 -13.82795
 -13.60467 -13.49769 -12.99335 -12.71948 -12.32442 -11.80358 -11.60243 -10.76439
  -9.67743  -9.25707   0.43137   1.07420   1.81407   3.27254   3.33367   3.42582
   3.54968   3.63075   3.73232   3.74948   3.90795   3.95961   4.09786   4.17978
   4.25920   4.44385   4.51458   4.62487   4.98827   5.08976   5.30691   5.43505
   5.71100   5.87136   5.97031   6.21894


              NET ATOMIC CHARGES AND DIPOLE CONTRIBUTIONS

  ATOM NO.   TYPE          CHARGE      No. of ELECS.   s-Pop       p-Pop       
    1          C          -0.062835        4.0628     1.18755     2.87529
    2          C          -0.005690        4.0057     1.16065     2.84504
    3          C          -0.062875        4.0629     1.14879     2.91408
    4          C          -0.071992        4.0720     1.15806     2.91393
    5          C          -0.157519        4.1575     1.20587     2.95165
    6          C          -0.116845        4.1168     1.19422     2.92262
    7          C          -0.147976        4.1480     1.20084     2.94714
    8          C          -0.135620        4.1356     1.19563     2.93999
    9          C          -0.109978        4.1100     1.17933     2.93064
   10          C          -0.118269        4.1183     1.17834     2.93993
   11          H           0.063371        0.9366     0.93663
   12          H           0.075007        0.9250     0.92499
   13          H           0.051638        0.9484     0.94836
   14          H           0.065521        0.9345     0.93448
   15          H           0.056652        0.9433     0.94335
   16          H           0.061319        0.9387     0.93868
   17          H           0.097940        0.9021     0.90206
   18          H           0.096800        0.9032     0.90320
   19          H           0.112528        0.8875     0.88747
   20          H           0.111114        0.8889     0.88889
   21          H           0.099810        0.9002     0.90019
   22          H           0.097898        0.9021     0.90210
 DIPOLE           X         Y         Z       TOTAL
 POINT-CHG.    -0.218     0.190    -0.036     0.292
 HYBRID        -0.012    -0.059     0.006     0.061
 SUM           -0.230     0.131    -0.030     0.266


          ATOMIC ORBITAL ELECTRON POPULATIONS

     Atom    s        px        py        pz   
    1  C   1.18755   0.94289   0.93771   0.99468
    2  C   1.16065   0.92189   0.93643   0.98672
    3  C   1.14879   0.93069   0.99609   0.98730
    4  C   1.15806   0.95367   0.95860   1.00166
    5  C   1.20587   0.96269   0.98092   1.00804
    6  C   1.19422   0.94212   0.99504   0.98546
    7  C   1.20084   0.98707   0.95704   1.00303
    8  C   1.19563   0.97121   0.97233   0.99645
    9  C   1.17933   0.98848   0.94169   1.00048
   10  C   1.17834   0.95671   0.97601   1.00721
   11  H   0.93663
   12  H   0.92499
   13  H   0.94836
   14  H   0.93448
   15  H   0.94335
   16  H   0.93868
   17  H   0.90206
   18  H   0.90320
   19  H   0.88747
   20  H   0.88889
   21  H   0.90019
   22  H   0.90210
 *******************************************************************************
 **                                                                           **
 **                              MOPAC v23.1.2                                **
 **                                                                           **
 *******************************************************************************
 **          Digital Object Identifier (DOI): 10.5281/zenodo.6511958          **
 **    Visit the DOI location for information on how to cite this program.    **
 *******************************************************************************

                              PM3 CALCULATION RESULTS

 *******************************************************************************
 *  CALCULATION DONE: (MAX THREADS = 1)              Tue Jun  3 16:29:32 2025  *
 *  PM3        - The PM3 Hamiltonian to be used
 *  OLDGEO     - PREVIOUS GEOMETRY TO BE USED
 *  PRECISE    - TIGHTER CRITERIA TO BE USED
 *  NOSYM      - POINT-GROUP SYMMETRY SET TO C1
 *  THREADS=1  - MULTI-THREADING NOT USED
 *  T=         - A TIME OF 172800.0 SECONDS REQUESTED
 *  DUMP=N     - RESTART FILE WRITTEN EVERY 7200.0 SECONDS REQUESTED
 *  THERMO     - THERMODYNAMIC QUANTITIES TO BE CALCULATED
 *******************************************************************************
oldgeo thermo nosym precise THREADS=1  pm3
 InChI=1S/C10H12/c1-2-5-9-7-4-8-10(9)6-3-1/h1-5,7,9-10H,6,8H2

   ATOM   CHEMICAL          X               Y               Z
  NUMBER   SYMBOL      (ANGSTROMS)     (ANGSTROMS)     (ANGSTROMS)

     1       C         -0.53089209  *   0.67343149  *  -0.40957522  *
     2       C         -0.44134067  *  -0.87877397  *  -0.47799970  *
     3       C          0.62415506  *   1.35574620  *   0.31093046  *
     4       C         -1.87949868  *   0.98648926  *   0.27477378  *
     5       C         -1.75971946  *  -1.35006683  *   0.07588920  *
     6       C          0.69233551  *  -1.55594850  *   0.21375561  *
     7       C         -2.53538579  *  -0.33859111  *   0.47608801  *
     8       C          1.90324311  *   1.16434792  *  -0.42369000  *
     9       C          2.51160136  *  -0.02461951  *  -0.48815662  *
    10       C          1.98317218  *  -1.21129417  *   0.16142320  *
    11       H         -0.55512884  *   1.06093083  *  -1.45549995  *
    12       H         -0.37576184  *  -1.18867665  *  -1.55032449  *
    13       H          0.40400577  *   2.43577707  *   0.42032261  *
    14       H          0.71807213  *   0.95733748  *   1.34243034  *
    15       H         -2.50871811  *   1.65119161  *  -0.34505100  *
    16       H         -1.75023906  *   1.50366877  *   1.24492808  *
    17       H          2.33943483  *   2.04370739  *  -0.90912763  *
    18       H          0.41559207  *  -2.46774797  *   0.76040765  *
    19       H         -2.00085947  *  -2.41223933  *   0.12314891  *
    20       H         -3.53386465  *  -0.41600916  *   0.90574621  *
    21       H          3.46331689  *  -0.14605152  *  -1.01800013  *
    22       H          2.73455255  *  -1.84780960  *   0.64576255  *



          CARTESIAN COORDINATES 

    NO.       ATOM           X           Y           Z

     1         C         -0.5309      0.6734     -0.4096
     2         C         -0.4413     -0.8788     -0.4780
     3         C          0.6242      1.3557      0.3109
     4         C         -1.8795      0.9865      0.2748
     5         C         -1.7597     -1.3501      0.0759
     6         C          0.6923     -1.5559      0.2138
     7         C         -2.5354     -0.3386      0.4761
     8         C          1.9032      1.1643     -0.4237
     9         C          2.5116     -0.0246     -0.4882
    10         C          1.9832     -1.2113      0.1614
    11         H         -0.5551      1.0609     -1.4555
    12         H         -0.3758     -1.1887     -1.5503
    13         H          0.4040      2.4358      0.4203
    14         H          0.7181      0.9573      1.3424
    15         H         -2.5087      1.6512     -0.3451
    16         H         -1.7502      1.5037      1.2449
    17         H          2.3394      2.0437     -0.9091
    18         H          0.4156     -2.4677      0.7604
    19         H         -2.0009     -2.4122      0.1231
    20         H         -3.5339     -0.4160      0.9057
    21         H          3.4633     -0.1461     -1.0180
    22         H          2.7346     -1.8478      0.6458

  H: (PM3): J. J. P. STEWART, J. COMP. CHEM. 10, 209 (1989).
  C: (PM3): J. J. P. STEWART, J. COMP. CHEM. 10, 209 (1989).

           Empirical Formula: C10 H12  =    22 atoms



      MOLECULAR POINT GROUP   :   C1  


      RHF CALCULATION, NO. OF DOUBLY OCCUPIED LEVELS = 26



          HEAT OF FORMATION =      40.287199 KCALS/MOLE


          CARTESIAN COORDINATE DERIVATIVES

   NUMBER  ATOM         X            Y            Z

     1       C      0.000706     0.002387     0.002031
     2       C      0.006521     0.005980    -0.004528
     3       C     -0.003633    -0.004556     0.002383
     4       C      0.007519     0.002815     0.010468
     5       C     -0.005790    -0.005067     0.003762
     6       C      0.002576    -0.005551    -0.001349
     7       C      0.002119     0.001817    -0.004565
     8       C      0.004836     0.004537    -0.001648
     9       C     -0.005967    -0.007485     0.002338
    10       C     -0.003302    -0.001978    -0.006069
    11       H      0.006787     0.005933     0.002407
    12       H      0.001308     0.010611    -0.000506
    13       H      0.004955     0.001066    -0.002059
    14       H     -0.000631    -0.006067    -0.000964
    15       H     -0.003763     0.005305     0.002922
    16       H      0.006175    -0.015286    -0.008375
    17       H     -0.000168     0.015448    -0.008928
    18       H      0.004786     0.001713    -0.001749
    19       H     -0.018206    -0.008109     0.005920
    20       H      0.002836     0.000073     0.005423
    21       H     -0.001529    -0.010593     0.008070
    22       H     -0.008135     0.007006    -0.004986



          GRADIENT NORM =   0.04959

          MOLECULAR WEIGHT =  132.20



          ROTATIONAL CONSTANTS IN CM(-1)

          A =    0.08854166   B =    0.04018885   C =    0.02989076



           PRINCIPAL MOMENTS OF INERTIA IN UNITS OF 10**(-40)*GRAM-CM**2

          A =      316.1534   B =      696.5302   C =      936.5019


          ORIENTATION OF MOLECULE IN FORCE CALCULATION

    NO.       ATOM         X         Y         Z

     1          C      -0.7859   -0.6710   -0.0956
     2          C       0.7704   -0.6710   -0.0956
     3          C      -1.4316    0.7081   -0.0956
     4          C      -1.2058   -1.4847    1.1480
     5          C       1.1402   -1.5458    1.0727
     6          C       1.4806    0.6375   -0.0189
     7          C       0.0692   -1.9874    1.7380
     8          C      -1.1348    1.4399   -1.3561
     9          C       0.0888    1.9005   -1.6360
    10          C       1.2134    1.7367   -0.7317
    11          H      -1.1278   -1.2061   -1.0129
    12          H       1.1304   -1.1610   -1.0340
    13          H      -2.5263    0.6027    0.0365
    14          H      -1.0742    1.2959    0.7752
    15          H      -1.8777   -2.3213    0.8823
    16          H      -1.7569   -0.8717    1.8869
    17          H      -1.9655    1.5977   -2.0521
    18          H       2.3500    0.6473    0.6525
    19          H       2.1837   -1.7600    1.3049
    20          H       0.0700   -2.6371    2.6129
    21          H       0.2880    2.4539   -2.5608
    22          H       1.8702    2.6117   -0.6459


    FIRST DERIVATIVES WILL BE USED IN THE CALCULATION OF SECOND DERIVATIVES

          ESTIMATED TIME TO COMPLETE CALCULATION =        1.03 SECONDS

    FOR POINT-GROUP C1   THERE ARE   1 UNIQUE SYMMETRY FUNCTIONS.

 STEP:   1 TIME =     0.02 SECS, INTEGRAL =      0.02 TIME LEFT: 172799.98
 STEP:   2 TIME =     0.02 SECS, INTEGRAL =      0.04 TIME LEFT: 172799.96
 STEP:   3 TIME =     0.02 SECS, INTEGRAL =      0.06 TIME LEFT: 172799.94
 STEP:   4 TIME =     0.02 SECS, INTEGRAL =      0.08 TIME LEFT: 172799.92
 STEP:   5 TIME =     0.02 SECS, INTEGRAL =      0.10 TIME LEFT: 172799.89
 STEP:   6 TIME =     0.02 SECS, INTEGRAL =      0.12 TIME LEFT: 172799.87
 STEP:   7 TIME =     0.02 SECS, INTEGRAL =      0.15 TIME LEFT: 172799.85
 STEP:   8 TIME =     0.02 SECS, INTEGRAL =      0.17 TIME LEFT: 172799.82
 STEP:   9 TIME =     0.02 SECS, INTEGRAL =      0.20 TIME LEFT: 172799.80
 STEP:  10 TIME =     0.02 SECS, INTEGRAL =      0.22 TIME LEFT: 172799.78
 STEP:  11 TIME =     0.02 SECS, INTEGRAL =      0.24 TIME LEFT: 172799.76
 STEP:  12 TIME =     0.02 SECS, INTEGRAL =      0.26 TIME LEFT: 172799.73
 STEP:  13 TIME =     0.02 SECS, INTEGRAL =      0.28 TIME LEFT: 172799.71
 STEP:  14 TIME =     0.02 SECS, INTEGRAL =      0.30 TIME LEFT: 172799.70
 STEP:  15 TIME =     0.02 SECS, INTEGRAL =      0.32 TIME LEFT: 172799.67
 STEP:  16 TIME =     0.02 SECS, INTEGRAL =      0.35 TIME LEFT: 172799.65
 STEP:  17 TIME =     0.02 SECS, INTEGRAL =      0.37 TIME LEFT: 172799.62
 STEP:  18 TIME =     0.02 SECS, INTEGRAL =      0.39 TIME LEFT: 172799.60
 STEP:  19 TIME =     0.02 SECS, INTEGRAL =      0.42 TIME LEFT: 172799.58
 STEP:  20 TIME =     0.02 SECS, INTEGRAL =      0.44 TIME LEFT: 172799.56
 STEP:  21 TIME =     0.02 SECS, INTEGRAL =      0.46 TIME LEFT: 172799.54
 STEP:  22 TIME =     0.02 SECS, INTEGRAL =      0.48 TIME LEFT: 172799.52
 STEP:  23 TIME =     0.02 SECS, INTEGRAL =      0.50 TIME LEFT: 172799.50
 STEP:  24 TIME =     0.02 SECS, INTEGRAL =      0.52 TIME LEFT: 172799.48
 STEP:  25 TIME =     0.02 SECS, INTEGRAL =      0.54 TIME LEFT: 172799.45
 STEP:  26 TIME =     0.02 SECS, INTEGRAL =      0.57 TIME LEFT: 172799.43
 STEP:  27 TIME =     0.02 SECS, INTEGRAL =      0.59 TIME LEFT: 172799.41
 STEP:  28 TIME =     0.02 SECS, INTEGRAL =      0.61 TIME LEFT: 172799.39
 STEP:  29 TIME =     0.02 SECS, INTEGRAL =      0.63 TIME LEFT: 172799.37
 STEP:  30 TIME =     0.02 SECS, INTEGRAL =      0.65 TIME LEFT: 172799.35
 STEP:  31 TIME =     0.02 SECS, INTEGRAL =      0.67 TIME LEFT: 172799.32
 STEP:  32 TIME =     0.02 SECS, INTEGRAL =      0.70 TIME LEFT: 172799.30
 STEP:  33 TIME =     0.02 SECS, INTEGRAL =      0.72 TIME LEFT: 172799.28
 STEP:  34 TIME =     0.02 SECS, INTEGRAL =      0.74 TIME LEFT: 172799.26
 STEP:  35 TIME =     0.02 SECS, INTEGRAL =      0.76 TIME LEFT: 172799.23
 STEP:  36 TIME =     0.02 SECS, INTEGRAL =      0.78 TIME LEFT: 172799.21
 STEP:  37 TIME =     0.02 SECS, INTEGRAL =      0.80 TIME LEFT: 172799.20
 STEP:  38 TIME =     0.02 SECS, INTEGRAL =      0.82 TIME LEFT: 172799.17
 STEP:  39 TIME =     0.02 SECS, INTEGRAL =      0.85 TIME LEFT: 172799.15
 STEP:  40 TIME =     0.02 SECS, INTEGRAL =      0.87 TIME LEFT: 172799.12
 STEP:  41 TIME =     0.02 SECS, INTEGRAL =      0.89 TIME LEFT: 172799.10
 STEP:  42 TIME =     0.02 SECS, INTEGRAL =      0.92 TIME LEFT: 172799.08
 STEP:  43 TIME =     0.02 SECS, INTEGRAL =      0.94 TIME LEFT: 172799.05
 STEP:  44 TIME =     0.02 SECS, INTEGRAL =      0.96 TIME LEFT: 172799.03
 STEP:  45 TIME =     0.02 SECS, INTEGRAL =      0.99 TIME LEFT: 172799.01
 STEP:  46 TIME =     0.02 SECS, INTEGRAL =      1.01 TIME LEFT: 172798.99
 STEP:  47 TIME =     0.02 SECS, INTEGRAL =      1.03 TIME LEFT: 172798.97
 STEP:  48 TIME =     0.02 SECS, INTEGRAL =      1.05 TIME LEFT: 172798.95
 STEP:  49 TIME =     0.02 SECS, INTEGRAL =      1.07 TIME LEFT: 172798.93
 STEP:  50 TIME =     0.02 SECS, INTEGRAL =      1.09 TIME LEFT: 172798.91
 STEP:  51 TIME =     0.02 SECS, INTEGRAL =      1.11 TIME LEFT: 172798.89
 STEP:  52 TIME =     0.02 SECS, INTEGRAL =      1.13 TIME LEFT: 172798.87
 STEP:  53 TIME =     0.02 SECS, INTEGRAL =      1.15 TIME LEFT: 172798.84
 STEP:  54 TIME =     0.02 SECS, INTEGRAL =      1.18 TIME LEFT: 172798.82
 STEP:  55 TIME =     0.02 SECS, INTEGRAL =      1.20 TIME LEFT: 172798.80
 STEP:  56 TIME =     0.02 SECS, INTEGRAL =      1.22 TIME LEFT: 172798.78
 STEP:  57 TIME =     0.02 SECS, INTEGRAL =      1.24 TIME LEFT: 172798.75
 STEP:  58 TIME =     0.02 SECS, INTEGRAL =      1.27 TIME LEFT: 172798.73
 STEP:  59 TIME =     0.02 SECS, INTEGRAL =      1.29 TIME LEFT: 172798.71
 STEP:  60 TIME =     0.02 SECS, INTEGRAL =      1.31 TIME LEFT: 172798.68
 STEP:  61 TIME =     0.02 SECS, INTEGRAL =      1.34 TIME LEFT: 172798.66
 STEP:  62 TIME =     0.02 SECS, INTEGRAL =      1.36 TIME LEFT: 172798.64
 STEP:  63 TIME =     0.02 SECS, INTEGRAL =      1.38 TIME LEFT: 172798.61
 STEP:  64 TIME =     0.02 SECS, INTEGRAL =      1.41 TIME LEFT: 172798.59
 STEP:  65 TIME =     0.02 SECS, INTEGRAL =      1.43 TIME LEFT: 172798.57
 STEP:  66 TIME =     0.02 SECS, INTEGRAL =      1.45 TIME LEFT: 172798.55

(To convert to Hartree/Bohr^2, multiply by (10^(-21) x N x a0^2)/(4.184 x 627.51) =  0.0642)


           FORCE MATRIX IN MILLIDYNES/ANGSTROM


                  C  1       C  2       C  3       C  4       C  5       C  6
 ------------------------------------------------------------------------------
     C    1  14.039521
     C    2   3.123764  14.726033
     C    3   4.035590   0.517192  14.736037
     C    4   3.494904   0.691731   0.603848  14.645752
     C    5   0.837990   4.385855   0.033264   1.195841  18.396782
     C    6   0.507864   4.779968   0.081029   0.031473   0.731495  17.991785
     C    7   0.863045   1.120184   0.036334   4.823594  10.657910   0.041952
     C    8   0.693662   0.052582   4.967123   0.048905   0.003265   0.120570
     C    9   0.048646   0.111955   0.847608   0.005041   0.006465   0.938217
     C   10   0.037411   0.730703   0.131278   0.004372   0.049725  10.384616
     H   11   4.283826   0.418505   0.426910   0.423756   0.024692   0.029617
     H   12   0.423478   4.174335   0.024918   0.028307   0.408058   0.387507
     H   13   0.439732   0.046497   4.474055   0.034976   0.004987   0.005469
     H   14   0.455665   0.017843   4.393810   0.021163   0.001563   0.023617
     H   15   0.435332   0.032432   0.024240   4.526440   0.040121   0.004666
     H   16   0.447785   0.024202   0.066809   4.473514   0.037287   0.002490
     H   17   0.022235   0.007171   0.432333   0.004028   0.000868   0.016069
     H   18   0.033809   0.441558   0.007983   0.002569   0.071291   4.739738
     H   19   0.040726   0.414424   0.004453   0.117802   4.998813   0.022280
     H   20   0.043237   0.114203   0.004346   0.414286   0.449800   0.018093
     H   21   0.015691   0.008949   0.119871   0.002516   0.000895   0.047333
     H   22   0.011979   0.122124   0.011351   0.001507   0.008594   0.443150


                  C  7       C  8       C  9       C 10       H 11       H 12
 ------------------------------------------------------------------------------
     C    7  18.435483
     C    8   0.006855  17.998167
     C    9   0.002753  10.430542  18.404410
     C   10   0.009165   1.017425   5.727966  18.327362
     H   11   0.023503   0.031066   0.004374   0.003152   4.721850
     H   12   0.038014   0.006388   0.016098   0.029181   0.019201   4.602608
     H   13   0.001905   0.437223   0.052204   0.003925   0.028195   0.004092
     H   14   0.001669   0.432552   0.037565   0.030022   0.044941   0.001905
     H   15   0.433213   0.004368   0.001053   0.001034   0.028281   0.001145
     H   16   0.426762   0.002572   0.000800   0.000685   0.029871   0.003185
     H   17   0.001061   4.848104   0.441029   0.129031   0.002670   0.001127
     H   18   0.003562   0.014028   0.130460   0.431980   0.003898   0.017155
     H   19   0.449504   0.001086   0.000502   0.002801   0.002496   0.015384
     H   20   5.014863   0.001256   0.000829   0.002991   0.002438   0.015036
     H   21   0.000698   0.447133   4.811140   0.426713   0.000620   0.001337
     H   22   0.001336   0.048009   0.424825   4.765568   0.000954   0.014937


                  H 13       H 14       H 15       H 16       H 17       H 18
 ------------------------------------------------------------------------------
     H   13   5.064114
     H   14   0.554749   4.997924
     H   15   0.001843   0.001279   5.130224
     H   16   0.027741   0.022868   0.571801   5.095176
     H   17   0.034201   0.027757   0.000554   0.000623   5.213888
     H   18   0.000603   0.001901   0.000705   0.000721   0.006722   5.103015
     H   19   0.001167   0.000589   0.016121   0.016200   0.000249   0.026101
     H   20   0.000495   0.000484   0.015435   0.014277   0.000338   0.000866
     H   21   0.006958   0.009305   0.000291   0.000196   0.069386   0.011718
     H   22   0.000705   0.002327   0.000312   0.000189   0.012113   0.075784


                  H 19       H 20       H 21       H 22
 ------------------------------------------------------
     H   19   5.399221
     H   20   0.049076   5.410025
     H   21   0.000346   0.000199   5.175089
     H   22   0.000560   0.000662   0.032451   5.120557


          HEAT OF FORMATION =      40.287199 KCALS/MOLE

          ZERO POINT ENERGY     118.785 KCAL/MOL


           NORMAL COORDINATE ANALYSIS (Total motion = 1 Angstrom)


   Root No.       1         2         3         4         5         6         7         8

                 1 A       2 A       3 A       4 A       5 A       6 A       7 A       8 A   

                  56.0     166.0     252.1     309.0     328.5     342.8     417.8     443.0
  
           1   -0.0074   -0.0013   -0.0093    0.0249   -0.0257   -0.0036   -0.0029   -0.0143
           2    0.0020   -0.0217   -0.0044   -0.0009   -0.0160    0.0289    0.0282   -0.0151
           3    0.0109   -0.0149   -0.0107   -0.0099    0.0194    0.0125    0.0256   -0.0187
           4   -0.0072   -0.0015   -0.0080    0.0248   -0.0273    0.0024   -0.0053   -0.0120
           5    0.0036   -0.0228   -0.0137   -0.0186    0.0075    0.0144   -0.0194   -0.0106
           6   -0.0091   -0.0200   -0.0292    0.0045    0.0021   -0.0049    0.0130   -0.0194
           7   -0.0122   -0.0193    0.0260    0.0370    0.0209   -0.0345   -0.0078    0.0021
           8   -0.0008   -0.0305    0.0128    0.0041    0.0012    0.0125    0.0382   -0.0035
           9   -0.0219   -0.0319    0.0196    0.0020    0.0008    0.0124   -0.0220    0.0002
          10    0.0102    0.0039   -0.0011   -0.0019   -0.0097   -0.0052    0.0190    0.0057
          11    0.0335    0.0122   -0.0099    0.0281   -0.0279    0.0042   -0.0263    0.0067
          12    0.0370    0.0116   -0.0124   -0.0019    0.0204   -0.0092    0.0021    0.0044
          13    0.0064    0.0020    0.0001   -0.0029   -0.0089   -0.0030    0.0175    0.0053
          14   -0.0270    0.0032    0.0017   -0.0153    0.0191    0.0170   -0.0096    0.0513
          15   -0.0363    0.0001   -0.0208    0.0194    0.0052   -0.0037    0.0171    0.0189
          16   -0.0153    0.0105   -0.0164    0.0054   -0.0132    0.0543   -0.0079   -0.0100
          17    0.0065   -0.0291   -0.0085   -0.0065    0.0057   -0.0133   -0.0241   -0.0161
          18    0.0264   -0.0271    0.0075   -0.0182   -0.0246   -0.0295   -0.0091   -0.0055
          19    0.0154    0.0056    0.0064   -0.0190    0.0038   -0.0043    0.0215    0.0097
          20   -0.0094    0.0373    0.0430   -0.0132   -0.0229    0.0023   -0.0201   -0.0150
          21   -0.0099    0.0278    0.0160   -0.0033   -0.0018   -0.0156    0.0144   -0.0215
          22    0.0092    0.0003    0.0074   -0.0153    0.0305   -0.0042   -0.0088    0.0039
          23   -0.0147    0.0136   -0.0137   -0.0104   -0.0307   -0.0369    0.0357    0.0197
          24   -0.0253    0.0003   -0.0013   -0.0162   -0.0197   -0.0070   -0.0336    0.0135
          25    0.0115   -0.0026    0.0065   -0.0234    0.0092   -0.0009    0.0029    0.0141
          26   -0.0061    0.0410   -0.0123    0.0189    0.0428   -0.0298    0.0122   -0.0211
          27   -0.0016    0.0350   -0.0026    0.0003    0.0043    0.0252   -0.0195   -0.0066
          28   -0.0089    0.0038   -0.0147   -0.0344    0.0124    0.0007   -0.0271   -0.0055
          29    0.0087   -0.0031    0.0047    0.0080    0.0257    0.0121   -0.0142   -0.0044
          30    0.0274    0.0169    0.0283    0.0158   -0.0061    0.0333    0.0152    0.0185
          31   -0.0154   -0.0029   -0.0334    0.0231   -0.0388    0.0016   -0.0132   -0.0308
          32   -0.0257   -0.0441    0.0147    0.0004   -0.0196    0.0373    0.0398   -0.0188
          33    0.0299   -0.0009   -0.0124   -0.0093    0.0264    0.0042    0.0214   -0.0092
          34   -0.0167   -0.0044   -0.0125    0.0365   -0.0359   -0.0278   -0.0308   -0.0040
          35    0.0339   -0.0367   -0.0028   -0.0381   -0.0026   -0.0088   -0.0445   -0.0404
          36   -0.0281   -0.0135   -0.0352    0.0192    0.0038   -0.0051    0.0163    0.0000
          37   -0.0140   -0.0223    0.0282    0.0426    0.0191   -0.0355   -0.0081    0.0016
          38   -0.0044   -0.0552    0.0521    0.0188    0.0519   -0.0063    0.0266    0.0098
          39   -0.0402   -0.0720    0.0650    0.0586    0.0219   -0.0099   -0.0349    0.0050
          40   -0.0313   -0.0629    0.0829    0.0883    0.0606   -0.0657   -0.0311    0.0167
          41    0.0133   -0.0364    0.0027    0.0097    0.0037    0.0353    0.0646   -0.0268
          42   -0.0234   -0.0098    0.0034   -0.0217   -0.0167    0.0080   -0.0313    0.0105
          43   -0.0364    0.0110    0.0487   -0.0482   -0.0096    0.0026    0.0647   -0.0544
          44    0.0589   -0.0017   -0.0475    0.0608   -0.0288    0.0049   -0.0491    0.0415
          45    0.0753    0.0369   -0.0222    0.0144    0.0232   -0.0323   -0.0449    0.0532
          46    0.0673   -0.0023   -0.0521    0.0380   -0.0018   -0.0148   -0.0250    0.0797
          47    0.0659    0.0294   -0.0312    0.0621   -0.0337   -0.0163   -0.0740    0.0478
          48    0.0529   -0.0071   -0.0336    0.0012    0.0305    0.0004    0.0060    0.0278
          49    0.0235    0.0084    0.0074   -0.0231    0.0412    0.0262   -0.0064   -0.0017
          50   -0.0307    0.0417   -0.0483   -0.0464   -0.0930   -0.1012    0.0558    0.0541
          51   -0.0460   -0.0034   -0.0082   -0.0138   -0.0467   -0.0578   -0.0314    0.0282
          52   -0.0347    0.0348   -0.0349    0.0228    0.0062    0.1057   -0.0022   -0.0239
          53    0.0077   -0.0531   -0.0099    0.0003   -0.0177   -0.0520   -0.0170   -0.0172
          54    0.0511   -0.0572    0.0315   -0.0407   -0.0482   -0.0957   -0.0160    0.0133
          55    0.0082    0.0024    0.0015   -0.0096   -0.0032   -0.0036    0.0220    0.0121
          56   -0.0568    0.0015   -0.0014   -0.0261    0.0485    0.0235    0.0079    0.1352
          57   -0.0721   -0.0031   -0.0301    0.0386    0.0076    0.0057    0.0132    0.0675
          58    0.0254    0.0094    0.0157   -0.0421    0.0241   -0.0032    0.0206    0.0175
          59   -0.0220    0.0745    0.0938   -0.0288   -0.0437   -0.0095   -0.0217   -0.0442
          60   -0.0193    0.0554    0.0537   -0.0149   -0.0172   -0.0244    0.0132   -0.0435
          61    0.0294   -0.0064    0.0231   -0.0154   -0.0080    0.0214    0.0429    0.0352
          62   -0.0133    0.0938   -0.0368    0.0337    0.0781   -0.0748    0.0089   -0.0572
          63   -0.0018    0.0654   -0.0130    0.0115    0.0219    0.0026   -0.0127   -0.0233
          64   -0.0238    0.0180   -0.0397   -0.0553    0.0433   -0.0269   -0.0449   -0.0352
          65    0.0175   -0.0151    0.0191    0.0211    0.0025    0.0315   -0.0050    0.0129
          66    0.0495    0.0342    0.0685    0.0472   -0.0083    0.0419    0.0620    0.0634


   Root No.       9        10        11        12        13        14        15        16

                 9 A      10 A      11 A      12 A      13 A      14 A      15 A      16 A   

                 532.5     593.2     672.0     743.3     761.5     776.8     783.3     810.9
  
           1    0.0082   -0.0146    0.0150    0.0124   -0.0094   -0.0249   -0.0231    0.0102
           2   -0.0141   -0.0222    0.0086    0.0067    0.0039   -0.0045   -0.0142    0.0113
           3    0.0138   -0.0034    0.0376   -0.0004   -0.0166   -0.0096    0.0117    0.0168
           4    0.0099   -0.0068    0.0206    0.0121   -0.0038   -0.0048    0.0276   -0.0110
           5    0.0002    0.0284   -0.0020   -0.0073    0.0019    0.0098   -0.0242   -0.0069
           6   -0.0040    0.0129   -0.0234   -0.0324   -0.0053    0.0258    0.0065    0.0022
           7    0.0046    0.0186    0.0125   -0.0061   -0.0162   -0.0155   -0.0205    0.0057
           8   -0.0167   -0.0083   -0.0084    0.0114    0.0022    0.0042    0.0057   -0.0073
           9    0.0034   -0.0271   -0.0003   -0.0043   -0.0011    0.0099   -0.0091   -0.0069
          10   -0.0139   -0.0119   -0.0280    0.0131    0.0209    0.0001   -0.0316    0.0023
          11   -0.0131   -0.0168   -0.0051   -0.0207    0.0070   -0.0100   -0.0059    0.0128
          12    0.0171    0.0168    0.0176    0.0052   -0.0027   -0.0174    0.0063   -0.0084
          13   -0.0170   -0.0108   -0.0071   -0.0326   -0.0125    0.0159    0.0445    0.0122
          14   -0.0191    0.0054    0.0201   -0.0140    0.0041   -0.0203   -0.0175   -0.0118
          15   -0.0030   -0.0127   -0.0144   -0.0098    0.0121   -0.0009    0.0117    0.0024
          16    0.0050    0.0408    0.0205    0.0095    0.0126    0.0201    0.0006   -0.0379
          17    0.0186    0.0083   -0.0060    0.0121    0.0015    0.0017    0.0067    0.0063
          18   -0.0393    0.0131    0.0070    0.0009   -0.0162    0.0015   -0.0139   -0.0126
          19   -0.0140    0.0014   -0.0102   -0.0059    0.0019    0.0041   -0.0004   -0.0012
          20   -0.0065    0.0013    0.0091   -0.0343   -0.0080   -0.0015    0.0204   -0.0013
          21    0.0157    0.0046   -0.0226    0.0229    0.0250   -0.0086   -0.0328   -0.0098
          22    0.0224   -0.0265    0.0035   -0.0188   -0.0039    0.0180   -0.0164    0.0009
          23    0.0217    0.0227   -0.0128    0.0082   -0.0129   -0.0132    0.0134   -0.0257
          24    0.0251   -0.0205   -0.0058   -0.0112   -0.0041    0.0041   -0.0053   -0.0098
          25    0.0171   -0.0046   -0.0025   -0.0058    0.0014    0.0055   -0.0025    0.0097
          26   -0.0053   -0.0186    0.0014   -0.0034   -0.0132    0.0030   -0.0002   -0.0357
          27   -0.0360    0.0052   -0.0079    0.0160    0.0083   -0.0223    0.0198    0.0115
          28   -0.0101   -0.0026   -0.0049    0.0208    0.0228   -0.0102    0.0257    0.0097
          29    0.0461   -0.0025   -0.0233    0.0156    0.0081   -0.0089    0.0209    0.0329
          30    0.0052    0.0140   -0.0074   -0.0047   -0.0113   -0.0062   -0.0074    0.0130
          31    0.0122    0.0016    0.0114   -0.0096   -0.0221   -0.0083   -0.0200    0.0077
          32   -0.0264   -0.0530   -0.0057    0.0117    0.0091    0.0178   -0.0271    0.0116
          33    0.0196    0.0099    0.0464    0.0052   -0.0148   -0.0281    0.0198    0.0159
          34    0.0043   -0.0034   -0.0104    0.0200   -0.0033   -0.0199    0.0127   -0.0308
          35   -0.0108    0.0553    0.0015    0.0130   -0.0385    0.0228   -0.0514   -0.0086
          36   -0.0004   -0.0006   -0.0363   -0.0389    0.0163    0.0137    0.0167   -0.0048
          37   -0.0010    0.0258    0.0119   -0.0013   -0.0132   -0.0204   -0.0177    0.0103
          38   -0.0457    0.0449   -0.0363   -0.0017    0.0380    0.0488    0.0586   -0.0164
          39   -0.0575    0.0588   -0.0213    0.0203    0.0459    0.0050    0.0474    0.0211
          40   -0.0553    0.1174   -0.0250    0.0028    0.0371    0.0007    0.0493    0.0197
          41   -0.0331   -0.0211    0.0247    0.0321    0.0031   -0.0098    0.0001    0.0352
          42    0.0377   -0.0559   -0.0074   -0.0221   -0.0222    0.0131   -0.0327   -0.0397
          43   -0.0031    0.0005   -0.0124   -0.0415    0.0461   -0.0600   -0.0260    0.0070
          44   -0.0194   -0.0321   -0.0062    0.0232   -0.0122    0.0215   -0.0208    0.0215
          45    0.0073    0.0325   -0.0232    0.0125   -0.0066    0.0429    0.0334   -0.0503
          46   -0.0326   -0.0186   -0.0541    0.0700   -0.0022    0.0774   -0.0307   -0.0125
          47   -0.0183   -0.0145   -0.0412    0.0089    0.0042    0.0359   -0.0165   -0.0106
          48    0.0069    0.0089    0.0272    0.0241   -0.0190    0.0058    0.0169   -0.0004
          49    0.0082   -0.0407   -0.0230   -0.0021   -0.0080    0.0012    0.0130   -0.0369
          50    0.0437    0.1029    0.0567   -0.0142    0.0520    0.0355   -0.0142    0.1840
          51    0.0461    0.0155    0.0416   -0.0364    0.0154    0.0349   -0.0472    0.0837
          52    0.0056    0.0895   -0.0434   -0.0318   -0.0733    0.0286   -0.0610    0.0152
          53    0.0195   -0.0204    0.0422    0.0237    0.0344    0.0197    0.0474   -0.0459
          54   -0.0407   -0.0499    0.0887    0.0538    0.0941   -0.0101    0.0657   -0.0811
          55   -0.0221   -0.0091   -0.0112   -0.0282   -0.0121    0.0176    0.0296    0.0133
          56   -0.0568   -0.0175    0.0500    0.1179   -0.0665    0.0272   -0.0346    0.0329
          57   -0.0154   -0.0405    0.0329    0.0924   -0.0557    0.0358    0.0651    0.0373
          58   -0.0064    0.0275    0.0211    0.0184   -0.0137   -0.0108   -0.0174   -0.0273
          59   -0.0040   -0.0070    0.0061    0.1105   -0.0894    0.1219    0.0344    0.0412
          60    0.0180   -0.0015   -0.0250    0.1310   -0.0351    0.0830   -0.0218    0.0216
          61    0.0249    0.0250   -0.0331   -0.0001   -0.0400   -0.0298    0.0085   -0.0256
          62   -0.0798   -0.0186    0.1104   -0.0365    0.0659    0.1002   -0.0684    0.0537
          63   -0.0784    0.0111    0.0508   -0.0030    0.0464    0.0280   -0.0191    0.0577
          64   -0.0800   -0.0132   -0.0647    0.0199   -0.0613   -0.0740    0.0115    0.0533
          65    0.0911    0.0094    0.0154    0.0190    0.0627    0.0328    0.0311    0.0052
          66    0.0797   -0.0215    0.0590   -0.0273    0.0789    0.0588    0.0050   -0.0422


   Root No.      17        18        19        20        21        22        23        24

                17 A      18 A      19 A      20 A      21 A      22 A      23 A      24 A   

                 879.6     896.7     954.8     965.3     983.3     995.2     999.4    1032.8
  
           1   -0.0149   -0.0110   -0.0183    0.0139   -0.0054    0.0069   -0.0092   -0.0005
           2   -0.0067   -0.0002   -0.0085   -0.0021    0.0018    0.0030    0.0004   -0.0097
           3   -0.0123   -0.0031   -0.0123   -0.0054   -0.0074   -0.0187   -0.0113   -0.0017
           4    0.0354   -0.0031   -0.0130    0.0033    0.0008   -0.0027    0.0044    0.0040
           5   -0.0190    0.0023   -0.0049    0.0008   -0.0020    0.0057   -0.0029    0.0190
           6   -0.0292   -0.0004    0.0039    0.0038    0.0025    0.0257    0.0023    0.0032
           7   -0.0227   -0.0116    0.0441   -0.0045    0.0074   -0.0032    0.0072    0.0066
           8    0.0183   -0.0138    0.0153    0.0105    0.0011    0.0073    0.0054    0.0145
           9    0.0116   -0.0067    0.0012    0.0016   -0.0051    0.0050    0.0017    0.0069
          10   -0.0007    0.0167   -0.0011   -0.0109    0.0003   -0.0165    0.0009    0.0082
          11   -0.0081    0.0404    0.0021   -0.0058    0.0153    0.0024    0.0106    0.0030
          12    0.0114    0.0099   -0.0006    0.0104    0.0118    0.0156    0.0108    0.0042
          13   -0.0050    0.0010    0.0106   -0.0009   -0.0033   -0.0085   -0.0050    0.0019
          14   -0.0002   -0.0244   -0.0177   -0.0042    0.0159   -0.0136    0.0102    0.0060
          15    0.0045   -0.0067    0.0010   -0.0081    0.0050   -0.0275    0.0003    0.0116
          16    0.0036    0.0077    0.0142   -0.0334    0.0023    0.0022   -0.0065   -0.0078
          17    0.0141    0.0022    0.0079    0.0020    0.0029   -0.0086    0.0033   -0.0158
          18    0.0186    0.0065    0.0042    0.0064   -0.0030   -0.0210    0.0140   -0.0352
          19   -0.0030   -0.0019    0.0022    0.0013    0.0008    0.0074    0.0000   -0.0061
          20    0.0035   -0.0109    0.0058    0.0053   -0.0237    0.0016   -0.0148   -0.0098
          21    0.0091   -0.0019    0.0031    0.0017   -0.0189    0.0036   -0.0151   -0.0112
          22    0.0121    0.0068   -0.0136   -0.0106   -0.0034    0.0051    0.0032    0.0009
          23   -0.0083    0.0019    0.0033    0.0192    0.0165   -0.0086   -0.0231   -0.0038
          24   -0.0020    0.0113   -0.0061    0.0037    0.0087   -0.0019   -0.0080   -0.0026
          25    0.0066    0.0000   -0.0093    0.0070    0.0053    0.0023   -0.0102    0.0016
          26   -0.0041    0.0087   -0.0156   -0.0238   -0.0247   -0.0013    0.0226   -0.0092
          27   -0.0168   -0.0076    0.0083    0.0041   -0.0041    0.0048    0.0141    0.0155
          28   -0.0184   -0.0030    0.0099    0.0227   -0.0078   -0.0121    0.0136   -0.0143
          29    0.0068   -0.0049    0.0102   -0.0068    0.0061    0.0023   -0.0099   -0.0079
          30    0.0107   -0.0045   -0.0001   -0.0206    0.0080    0.0090   -0.0152    0.0021
          31   -0.0660   -0.0250   -0.0936    0.0510   -0.0238    0.0899   -0.0626    0.0075
          32    0.0106   -0.0552    0.0314   -0.0023   -0.0262    0.0366    0.0164   -0.0493
          33   -0.0010    0.0335   -0.0088   -0.0175    0.0157   -0.0677   -0.0006    0.0198
          34    0.0984   -0.0210   -0.0405    0.0867    0.0329    0.0633    0.1054    0.0896
          35   -0.0054    0.0396   -0.0047    0.0545   -0.0894   -0.0678   -0.0331    0.2013
          36   -0.0109   -0.0258   -0.0053    0.0067    0.0600    0.0872    0.0568   -0.0584
          37   -0.0285   -0.0121    0.0327   -0.0005    0.0035   -0.0035    0.0041   -0.0012
          38    0.0603    0.0411   -0.0581   -0.0064    0.0108    0.0097   -0.0087    0.0343
          39   -0.0005    0.0286   -0.1330    0.0168   -0.0316    0.0017   -0.0270   -0.0448
          40   -0.0207    0.0533   -0.0980   -0.0015    0.0035   -0.0051   -0.0307   -0.0276
          41    0.0142   -0.0615    0.0295    0.0136   -0.0491    0.0055    0.0344    0.0090
          42    0.0132    0.0008    0.0457   -0.0018    0.0302    0.0070   -0.0035    0.0242
          43    0.0187    0.1219    0.0259   -0.0065    0.0360    0.0139    0.0441    0.0492
          44   -0.0364   -0.0217   -0.0365   -0.0144    0.0048   -0.0314   -0.0212   -0.0445
          45    0.0502   -0.0737    0.0511    0.0270   -0.0503    0.0475   -0.0009    0.0476
          46   -0.0078   -0.0997   -0.0158   -0.0216   -0.0397   -0.0577   -0.0329   -0.0129
          47    0.0001   -0.0432    0.0210    0.0074   -0.0426    0.0262   -0.0189    0.0089
          48   -0.0010   -0.0121   -0.0271   -0.0086    0.0273   -0.0355    0.0081   -0.0171
          49    0.0067    0.0128   -0.0356    0.0330    0.0208    0.0041   -0.0328    0.0153
          50    0.0462   -0.0284   -0.0359   -0.0709   -0.0708    0.0368    0.0703    0.0311
          51    0.0167   -0.0028    0.0101   -0.0688   -0.0401    0.0104    0.0558   -0.0112
          52    0.0636    0.0221    0.0019    0.0562   -0.0088   -0.0513    0.0382   -0.0656
          53    0.0044    0.0048    0.0052   -0.0560    0.0156    0.0503   -0.0208    0.0305
          54   -0.0588   -0.0123    0.0200   -0.1088    0.0108    0.0471   -0.0426    0.0371
          55   -0.0184    0.0051    0.0137   -0.0001   -0.0014    0.0109   -0.0063   -0.0141
          56   -0.0257    0.1293    0.0490    0.0316   -0.0518    0.1143   -0.0280   -0.0528
          57    0.0425    0.1159    0.0492    0.0233   -0.0648    0.0084   -0.0282    0.0258
          58    0.0061   -0.0443   -0.0306    0.0413    0.0271    0.1049    0.0308   -0.0506
          59   -0.0685   -0.0210   -0.0408   -0.0249    0.1030   -0.0247    0.0623    0.0379
          60   -0.0434   -0.0091   -0.0310   -0.0208    0.0747   -0.0171    0.0418    0.0252
          61   -0.0115   -0.0068   -0.0390   -0.0248   -0.0265    0.0203    0.0060    0.0503
          62    0.0704   -0.0089    0.0249    0.0790    0.0865   -0.0055   -0.0998   -0.0024
          63    0.0233   -0.0197    0.0267    0.0589    0.0558    0.0065   -0.0552    0.0309
          64    0.0420   -0.0252   -0.0257   -0.0699    0.0113    0.0385   -0.0437    0.0273
          65   -0.0275    0.0100    0.0405    0.0484   -0.0018   -0.0320    0.0245   -0.0410
          66   -0.0967    0.0149   -0.0289    0.1214   -0.0553   -0.0309    0.0718    0.0067


   Root No.      25        26        27        28        29        30        31        32

                25 A      26 A      27 A      28 A      29 A      30 A      31 A      32 A   

                1049.5    1068.9    1071.0    1083.8    1085.1    1097.6    1118.1    1139.0
  
           1   -0.0012    0.0061   -0.0125   -0.0013   -0.0023    0.0073   -0.0009    0.0010
           2   -0.0002   -0.0012    0.0060   -0.0064   -0.0149   -0.0133   -0.0131    0.0183
           3    0.0089    0.0131   -0.0019   -0.0098    0.0137    0.0122    0.0079    0.0276
           4    0.0066   -0.0005   -0.0007   -0.0014   -0.0034    0.0018    0.0004    0.0133
           5   -0.0069    0.0044    0.0056   -0.0076   -0.0007   -0.0021    0.0075    0.0030
           6   -0.0032    0.0027    0.0089   -0.0045    0.0054   -0.0054    0.0091    0.0037
           7    0.0093    0.0009    0.0063   -0.0045   -0.0028   -0.0061   -0.0010    0.0007
           8    0.0102   -0.0048   -0.0091   -0.0089    0.0025    0.0117    0.0022   -0.0279
           9   -0.0163   -0.0007    0.0067    0.0141   -0.0036    0.0265    0.0107   -0.0164
          10   -0.0072    0.0204    0.0085   -0.0168   -0.0005    0.0009    0.0113    0.0010
          11   -0.0025   -0.0048   -0.0050    0.0094    0.0008    0.0015    0.0058   -0.0024
          12   -0.0102   -0.0074   -0.0021    0.0065   -0.0167   -0.0081   -0.0208   -0.0104
          13    0.0011   -0.0137   -0.0051    0.0124    0.0013    0.0011   -0.0091   -0.0041
          14   -0.0005    0.0024   -0.0098    0.0005   -0.0024    0.0011    0.0001    0.0019
          15   -0.0015   -0.0124   -0.0123    0.0131   -0.0071   -0.0034   -0.0065   -0.0036
          16   -0.0076   -0.0068   -0.0025    0.0027    0.0074   -0.0003   -0.0018   -0.0056
          17    0.0054    0.0071    0.0002    0.0066   -0.0047    0.0062    0.0027    0.0015
          18   -0.0010    0.0010   -0.0104   -0.0004   -0.0040    0.0068   -0.0024   -0.0053
          19    0.0075   -0.0122   -0.0028    0.0072    0.0040    0.0008    0.0009   -0.0002
          20   -0.0013    0.0077    0.0238   -0.0163    0.0008   -0.0045    0.0027   -0.0046
          21    0.0168   -0.0147    0.0065    0.0064    0.0076    0.0026   -0.0017    0.0013
          22    0.0133    0.0081   -0.0034    0.0017    0.0021   -0.0156   -0.0047   -0.0060
          23   -0.0080    0.0041    0.0016    0.0030    0.0058   -0.0024    0.0017    0.0047
          24    0.0149    0.0084   -0.0116   -0.0066    0.0132   -0.0289   -0.0037    0.0025
          25   -0.0035    0.0061    0.0040    0.0077    0.0011   -0.0027    0.0008   -0.0003
          26   -0.0064   -0.0030   -0.0023    0.0031   -0.0012    0.0050   -0.0002   -0.0065
          27    0.0340    0.0160    0.0065    0.0043   -0.0086   -0.0064   -0.0018   -0.0014
          28   -0.0150   -0.0130   -0.0037   -0.0064   -0.0008    0.0121    0.0001    0.0008
          29   -0.0118   -0.0102   -0.0035   -0.0037    0.0026    0.0033   -0.0005   -0.0005
          30   -0.0139   -0.0103   -0.0043   -0.0076    0.0078   -0.0038   -0.0028   -0.0004
          31    0.0119   -0.0072   -0.0755   -0.0541   -0.0737    0.0517   -0.0727   -0.1448
          32   -0.0290   -0.0168    0.0178    0.0622   -0.0785   -0.0922   -0.0949    0.1582
          33    0.0209    0.0277    0.0139   -0.0315    0.0770    0.0433    0.0816    0.0012
          34   -0.0116   -0.0333    0.1034   -0.0355    0.1201   -0.0083   -0.0389    0.0330
          35    0.0028   -0.0960   -0.0008    0.0460    0.0107   -0.0567   -0.0313    0.0124
          36   -0.0154    0.0418    0.0528   -0.0450    0.0469    0.0182    0.0151    0.0072
          37   -0.0122    0.0072    0.0113    0.0106    0.0025   -0.0158   -0.0008   -0.0085
          38    0.1369   -0.0272   -0.0542   -0.0998   -0.0214    0.0464   -0.0104    0.0458
          39   -0.1116    0.0275    0.0173    0.0794    0.0262   -0.0200    0.0108   -0.0302
          40    0.0185    0.0079   -0.0028   -0.0123   -0.0166   -0.0291   -0.0229    0.0541
          41   -0.0371    0.0538   -0.0579    0.0375    0.1241   -0.0957    0.0297   -0.1044
          42    0.0125   -0.0426    0.0431   -0.0145   -0.0805    0.1093    0.0015    0.0139
          43   -0.0648    0.0702   -0.0294   -0.0248   -0.0365   -0.0097   -0.0163   -0.0021
          44    0.0629   -0.0798    0.0545    0.0246    0.0348    0.0021    0.0352   -0.0214
          45   -0.0720    0.1065   -0.0915   -0.0254   -0.0389    0.0116   -0.0448    0.0598
          46   -0.0056    0.0437    0.0852   -0.0716   -0.0126   -0.0231   -0.0142   -0.0162
          47    0.0124    0.0278   -0.0946    0.0201    0.0306    0.0344    0.0625    0.0773
          48   -0.0207   -0.0173    0.1278   -0.0414   -0.0490   -0.0511   -0.0865   -0.0858
          49    0.0573    0.0619    0.0076    0.0379   -0.0019   -0.0428   -0.0103   -0.0241
          50    0.0408    0.0198    0.0148    0.0256   -0.0299    0.0223   -0.0037   -0.0331
          51   -0.0253   -0.0497   -0.0208   -0.0424    0.0100    0.0072    0.0019    0.0144
          52    0.0155    0.0144   -0.0106    0.0127   -0.0081    0.0112   -0.0049    0.0046
          53    0.0723    0.0555    0.0371    0.0591    0.0019   -0.0138   -0.0042    0.0437
          54   -0.0350   -0.0295   -0.0015   -0.0161    0.0172   -0.0067    0.0016   -0.0192
          55    0.0170   -0.0204   -0.0090    0.0334    0.0392    0.0311   -0.0596    0.0049
          56    0.0287    0.0033    0.0175    0.0192    0.0834    0.0609   -0.0892    0.0208
          57   -0.0425    0.0112    0.0289   -0.0583   -0.0928   -0.0796    0.1316   -0.0255
          58    0.0367   -0.0884   -0.0256    0.0171   -0.0550   -0.0848    0.2053    0.0089
          59   -0.0284    0.0163   -0.0308    0.0052   -0.0111    0.0013   -0.0046    0.0009
          60   -0.0035   -0.0085   -0.0342    0.0230   -0.0018    0.0070   -0.0096    0.0050
          61   -0.0148    0.0573    0.0928    0.1139   -0.0540    0.1095    0.0725    0.0203
          62   -0.0448   -0.0038    0.0091    0.0135    0.0079    0.0184    0.0141    0.0034
          63    0.0101    0.0265    0.0320    0.0320   -0.0147    0.0244    0.0218    0.0098
          64   -0.0865   -0.0567   -0.0059   -0.0427    0.0255    0.0178    0.0102    0.0628
          65    0.0459    0.0257   -0.0020    0.0281   -0.0176   -0.0032   -0.0097   -0.0549
          66   -0.0585   -0.0420   -0.0002   -0.0432    0.0091    0.0309    0.0162    0.0770


   Root No.      33        34        35        36        37        38        39        40

                33 A      34 A      35 A      36 A      37 A      38 A      39 A      40 A   

                1163.0    1167.0    1200.0    1216.8    1242.1    1270.2    1309.3    1353.3
  
           1   -0.0118   -0.0041    0.0071   -0.0294   -0.0220    0.0450   -0.0286    0.0058
           2   -0.0048    0.0036    0.0251   -0.0331    0.0088   -0.0266   -0.0162   -0.0184
           3   -0.0148    0.0096   -0.0080    0.0369    0.0117   -0.0134    0.0008    0.0140
           4    0.0171   -0.0079    0.0015    0.0069   -0.0113   -0.0099    0.0722   -0.0051
           5   -0.0020   -0.0014   -0.0170   -0.0355    0.0025   -0.0003    0.0191    0.0429
           6    0.0018   -0.0070    0.0109    0.0158   -0.0132    0.0189    0.0278   -0.0338
           7    0.0027   -0.0047   -0.0061    0.0041    0.0016   -0.0144   -0.0012    0.0052
           8    0.0066   -0.0086    0.0095   -0.0111    0.0079    0.0026    0.0171   -0.0163
           9   -0.0075   -0.0140   -0.0091    0.0150   -0.0055    0.0075   -0.0090    0.0035
          10   -0.0007    0.0008   -0.0051    0.0187    0.0028    0.0116    0.0049   -0.0172
          11    0.0020   -0.0001   -0.0011    0.0229   -0.0049   -0.0127    0.0018    0.0211
          12    0.0040    0.0006   -0.0123   -0.0196    0.0014    0.0266    0.0003   -0.0248
          13   -0.0041    0.0026   -0.0043   -0.0205    0.0045   -0.0047   -0.0151    0.0133
          14    0.0011   -0.0000   -0.0030    0.0118    0.0066    0.0090    0.0120   -0.0199
          15   -0.0008    0.0008    0.0093   -0.0051   -0.0089   -0.0130   -0.0211    0.0203
          16   -0.0064   -0.0015   -0.0041    0.0027   -0.0017   -0.0063   -0.0220   -0.0051
          17    0.0087   -0.0024   -0.0090   -0.0085   -0.0052   -0.0152   -0.0036    0.0052
          18   -0.0017   -0.0011   -0.0012    0.0033    0.0006   -0.0023   -0.0125   -0.0055
          19   -0.0014    0.0029   -0.0111   -0.0112    0.0175   -0.0046    0.0068   -0.0044
          20   -0.0018   -0.0003    0.0032    0.0034   -0.0063    0.0097   -0.0056   -0.0075
          21    0.0043   -0.0003   -0.0033   -0.0084    0.0058   -0.0133    0.0087    0.0116
          22   -0.0018    0.0024    0.0061   -0.0092    0.0056    0.0002    0.0111    0.0074
          23   -0.0017    0.0016   -0.0017    0.0107    0.0036    0.0080    0.0049    0.0165
          24    0.0100    0.0107   -0.0053   -0.0145   -0.0102   -0.0175   -0.0092   -0.0236
          25    0.0024    0.0028    0.0076    0.0015    0.0106    0.0115    0.0138    0.0213
          26   -0.0078    0.0029    0.0026    0.0030    0.0004    0.0038   -0.0026   -0.0027
          27    0.0045   -0.0001    0.0035   -0.0077    0.0074    0.0012    0.0166    0.0182
          28   -0.0003    0.0044    0.0059    0.0142    0.0013    0.0103   -0.0100   -0.0122
          29   -0.0029    0.0005    0.0013    0.0087   -0.0063   -0.0030   -0.0081   -0.0154
          30   -0.0043   -0.0012    0.0054    0.0085    0.0057    0.0119   -0.0036   -0.0010
          31    0.0366    0.0508   -0.0337    0.1025    0.0738   -0.1005   -0.0292   -0.0003
          32   -0.0336    0.0365   -0.0810    0.0785   -0.0134    0.0504    0.0177    0.0281
          33   -0.0169   -0.0298    0.0697   -0.0772   -0.0105   -0.0041   -0.0176   -0.0114
          34   -0.0873    0.0619   -0.0054    0.0263    0.0592   -0.0439   -0.0990    0.0146
          35   -0.0192    0.0092    0.0515    0.0648   -0.0145    0.0111   -0.0113   -0.0534
          36   -0.0296    0.0141   -0.0270   -0.0282    0.0226   -0.0011   -0.0221    0.0232
          37    0.0001   -0.0132    0.0063   -0.0026    0.0164   -0.0233    0.0129   -0.0013
          38    0.0145    0.0602   -0.0591    0.0174   -0.0926    0.0906   -0.0748    0.0795
          39   -0.0192   -0.0230    0.0449   -0.0103    0.0411    0.0259    0.0532    0.0931
          40   -0.0190    0.0090    0.0175   -0.0249    0.0142   -0.0433   -0.0138   -0.1108
          41    0.0746    0.0410   -0.0650    0.0248   -0.0503    0.0104   -0.0254    0.0203
          42   -0.0455   -0.0534    0.0324    0.0022    0.0288    0.0161    0.0252    0.0355
          43    0.0083    0.0019    0.0229    0.0736   -0.0363   -0.0158   -0.0144    0.0220
          44    0.0026    0.0002   -0.0491   -0.0112    0.0288    0.0355    0.0230   -0.0335
          45   -0.0208   -0.0013    0.0697   -0.0384   -0.0105   -0.0560   -0.0228    0.0450
          46    0.0149    0.0002    0.0334    0.0577   -0.0418   -0.0205   -0.0178    0.0208
          47   -0.0386    0.0093   -0.0124    0.0107    0.0422    0.0056    0.0032   -0.0461
          48    0.0472   -0.0077    0.0246    0.0165   -0.0672   -0.0133   -0.0159    0.0601
          49   -0.0722   -0.1264   -0.0518    0.0037   -0.0350   -0.0522   -0.0376   -0.0428
          50   -0.0632   -0.1181   -0.0337    0.0109   -0.0226   -0.0263   -0.0286   -0.0287
          51    0.0797    0.1369    0.0562   -0.0317    0.0321    0.0347    0.0421    0.0253
          52    0.0352   -0.0194    0.0062    0.0170    0.0208    0.0072   -0.0456   -0.0040
          53    0.1592   -0.0726    0.0576    0.0675    0.1095    0.0870   -0.1536    0.0069
          54   -0.0598    0.0228   -0.0170   -0.0161   -0.0327   -0.0234    0.0220   -0.0097
          55    0.0024   -0.0047    0.0214   -0.0109   -0.0296   -0.0191   -0.0080    0.0266
          56    0.0095   -0.0144    0.0405    0.0213   -0.0627   -0.0156    0.0340    0.0092
          57   -0.0232    0.0205   -0.0653   -0.0457    0.0772    0.0216   -0.0276   -0.0061
          58   -0.0098   -0.0110    0.0835    0.0750   -0.0666   -0.0548   -0.0478    0.0601
          59   -0.0034    0.0004   -0.0019    0.0052   -0.0026    0.0136   -0.0022   -0.0097
          60    0.0037    0.0003   -0.0079   -0.0098    0.0094   -0.0116    0.0119    0.0117
          61    0.0595    0.1586   -0.0306   -0.0398   -0.0671   -0.0619   -0.0466   -0.0779
          62    0.0065    0.0230   -0.0044    0.0028   -0.0126   -0.0054   -0.0151   -0.0213
          63    0.0273    0.0452   -0.0088   -0.0182   -0.0165   -0.0206   -0.0025   -0.0130
          64    0.0836   -0.0801   -0.0386   -0.0143   -0.0129   -0.0354   -0.0337   -0.0125
          65   -0.0767    0.0748    0.0411    0.0362    0.0063    0.0378    0.0096   -0.0182
          66    0.1098   -0.0996   -0.0508   -0.0322   -0.0134   -0.0462   -0.0316   -0.0013


   Root No.      41        42        43        44        45        46        47        48

                41 A      42 A      43 A      44 A      45 A      46 A      47 A      48 A   

                1365.3    1393.0    1401.1    1408.7    1461.5    1836.3    1859.7    1887.8
  
           1    0.0054   -0.0352    0.0001   -0.0103   -0.0024    0.0051   -0.0010    0.0013
           2   -0.0263    0.0465    0.0084   -0.0033   -0.0226   -0.0060    0.0017    0.0014
           3    0.0115   -0.0187    0.0011    0.0055    0.0115    0.0046    0.0004   -0.0007
           4   -0.0149    0.0210   -0.0137   -0.0061    0.0173    0.0083   -0.0057   -0.0076
           5    0.0046    0.0184   -0.0389   -0.0035    0.0477    0.0151   -0.0161   -0.0271
           6   -0.0157   -0.0085    0.0153   -0.0052   -0.0169   -0.0138    0.0024    0.0046
           7   -0.0112    0.0204    0.0196    0.0027    0.0086   -0.0013    0.0113   -0.0069
           8    0.0361   -0.0459    0.0024    0.0027    0.0339    0.0003    0.0118   -0.0043
           9   -0.0157    0.0162   -0.0441   -0.0058   -0.0425    0.0013   -0.0178    0.0082
          10    0.0108    0.0171   -0.0009    0.0733    0.0037   -0.0181   -0.0004   -0.0006
          11   -0.0144   -0.0316   -0.0044   -0.0074    0.0020    0.0003   -0.0008   -0.0001
          12    0.0233    0.0364    0.0033    0.0040   -0.0025    0.0008    0.0003    0.0002
          13    0.0068    0.0046   -0.0056   -0.0052    0.0047   -0.1559   -0.0134   -0.0138
          14   -0.0159   -0.0147    0.0121   -0.0129   -0.0104   -0.0820   -0.0076   -0.0086
          15    0.0206    0.0178   -0.0112    0.0181    0.0096    0.1189    0.0092    0.0087
          16    0.0100   -0.0122    0.0149    0.0050   -0.0194    0.0012   -0.0048   -0.0181
          17    0.0178   -0.0120    0.0184    0.0088   -0.0426   -0.0217    0.0853    0.1554
          18   -0.0006   -0.0015    0.0032    0.0001    0.0040    0.0102   -0.0432   -0.0799
          19   -0.0294   -0.0249    0.0089   -0.0347   -0.0099    0.1835    0.0147    0.0146
          20    0.0129    0.0114    0.0008    0.0172   -0.0003    0.0578    0.0050    0.0050
          21   -0.0165   -0.0133   -0.0028   -0.0208    0.0021   -0.0896   -0.0077   -0.0078
          22    0.0110   -0.0066    0.0071    0.0040   -0.0151    0.0088   -0.1370    0.0798
          23   -0.0026    0.0074   -0.0067    0.0020   -0.0276    0.0047   -0.0650    0.0329
          24    0.0030   -0.0100    0.0153   -0.0008    0.0403   -0.0041    0.0558   -0.0281
          25    0.0047    0.0028   -0.0090    0.0026   -0.0381   -0.0061    0.1452   -0.1166
          26   -0.0048    0.0026   -0.0063   -0.0028    0.0093   -0.0044    0.0507   -0.0173
          27    0.0133   -0.0042    0.0050    0.0063   -0.0367    0.0041   -0.0185   -0.0180
          28   -0.0177    0.0093   -0.0130   -0.0083    0.0422   -0.0078    0.0071    0.0777
          29   -0.0023   -0.0041    0.0101    0.0007   -0.0026    0.0189   -0.0680   -0.1297
          30   -0.0127    0.0090   -0.0152   -0.0067    0.0321   -0.0150    0.0423    0.1152
          31    0.0096    0.0407    0.0151    0.0344   -0.0104   -0.0015    0.0033    0.0046
          32    0.0404   -0.0600   -0.0022    0.0205    0.0376    0.0037    0.0013   -0.0032
          33   -0.0285    0.0157    0.0019   -0.0250   -0.0201    0.0031   -0.0015    0.0007
          34    0.0137   -0.0034    0.0122    0.0077   -0.0098   -0.0170   -0.0019   -0.0075
          35   -0.0127   -0.0103    0.0334    0.0031   -0.0344    0.0096    0.0072    0.0097
          36    0.0046   -0.0025   -0.0117   -0.0023    0.0142   -0.0158   -0.0050   -0.0082
          37    0.0061    0.0041    0.0249    0.0050    0.0225   -0.0008    0.0075   -0.0039
          38   -0.0842    0.0717    0.0910   -0.0034   -0.0151   -0.0019    0.0186   -0.0114
          39    0.0046    0.0273    0.2211    0.0165    0.0750    0.0025   -0.0282    0.0172
          40    0.0509   -0.0806   -0.2119   -0.0136   -0.0570    0.0011   -0.0152    0.0125
          41   -0.0509    0.0501   -0.0230   -0.0009   -0.0395    0.0006   -0.0096    0.0009
          42    0.0137    0.0009    0.0910    0.0039    0.0409    0.0000    0.0108   -0.0071
          43    0.0689    0.0240    0.0080   -0.1788   -0.0023   -0.0224   -0.0023   -0.0016
          44   -0.0067    0.0127   -0.0032    0.1223    0.0035    0.0150    0.0015    0.0019
          45   -0.1163   -0.0954   -0.0152    0.1479    0.0024   -0.0190   -0.0010   -0.0014
          46    0.0716    0.0330    0.0100   -0.2033   -0.0027   -0.0190   -0.0011   -0.0015
          47    0.0990    0.1187    0.0275   -0.1673   -0.0123    0.0138    0.0002    0.0014
          48   -0.0360   -0.0832   -0.0171   -0.0385    0.0063   -0.0169   -0.0021   -0.0023
          49   -0.0178    0.0069    0.0249   -0.0047    0.0616    0.0006   -0.0383    0.0365
          50   -0.0162    0.0069    0.0056   -0.0063    0.0373   -0.0023    0.0286   -0.0134
          51    0.0357   -0.0270    0.0001    0.0084   -0.0362    0.0066   -0.0811    0.0360
          52   -0.0011   -0.0028    0.0019    0.0004    0.0081    0.0094   -0.0381   -0.0767
          53   -0.0286    0.0104   -0.0406   -0.0143    0.0850    0.0133   -0.0324   -0.0296
          54    0.0144   -0.0150    0.0231    0.0065   -0.0341    0.0014   -0.0220   -0.0460
          55    0.0308    0.0305   -0.0176    0.0172    0.0145   -0.1276   -0.0115   -0.0124
          56    0.0316    0.0358   -0.0147    0.0335    0.0114    0.0587    0.0045    0.0041
          57   -0.0428   -0.0462    0.0140   -0.0463   -0.0116   -0.0685   -0.0057   -0.0055
          58    0.0494    0.0225   -0.0265    0.0584    0.0205   -0.0493   -0.0036   -0.0035
          59    0.0113    0.0101    0.0013    0.0149   -0.0003    0.0881    0.0077    0.0080
          60   -0.0191   -0.0142   -0.0035   -0.0257    0.0031   -0.1165   -0.0102   -0.0104
          61   -0.0065   -0.0166    0.0301   -0.0051    0.0741    0.0042   -0.0297   -0.0106
          62   -0.0079   -0.0015   -0.0016   -0.0049    0.0292   -0.0034    0.0351   -0.0098
          63    0.0111   -0.0120    0.0178    0.0043   -0.0036    0.0087   -0.0940    0.0274
          64    0.0163   -0.0150    0.0277    0.0081   -0.0185    0.0114   -0.0587   -0.0523
          65   -0.0340    0.0173   -0.0252   -0.0143    0.0538    0.0066   -0.0261   -0.0506
          66    0.0334   -0.0252    0.0376    0.0147   -0.0486    0.0068   -0.0360   -0.0283


   Root No.      49        50        51        52        53        54        55        56

                49 A      50 A      51 A      52 A      53 A      54 A      55 A      56 A   

                2858.2    2891.0    2946.2    2970.4    3017.2    3022.8    3037.1    3045.7
  
           1    0.0039   -0.0169   -0.0015   -0.0010    0.0002   -0.0004    0.0001   -0.0000
           2    0.0044   -0.0265   -0.0023   -0.0017    0.0002    0.0007    0.0001    0.0000
           3    0.0075   -0.0460   -0.0037   -0.0031    0.0000    0.0002   -0.0000   -0.0000
           4    0.0209    0.0017    0.0003    0.0000   -0.0002    0.0002   -0.0001    0.0000
           5   -0.0275   -0.0033   -0.0004   -0.0001   -0.0003   -0.0001    0.0002   -0.0001
           6   -0.0545   -0.0067   -0.0003   -0.0002   -0.0003   -0.0000   -0.0001    0.0001
           7   -0.0006    0.0045   -0.0425   -0.0002   -0.0002   -0.0285    0.0003    0.0013
           8    0.0000    0.0019   -0.0235    0.0002    0.0001    0.0112    0.0001    0.0000
           9   -0.0002    0.0027   -0.0264   -0.0005    0.0002    0.0272    0.0002   -0.0001
          10   -0.0003    0.0006    0.0001   -0.0006   -0.0000   -0.0007   -0.0001    0.0002
          11   -0.0005    0.0040    0.0007   -0.0467   -0.0000   -0.0000   -0.0000    0.0000
          12    0.0000    0.0020    0.0003   -0.0341    0.0000    0.0001    0.0000   -0.0000
          13   -0.0003    0.0002    0.0000   -0.0000   -0.0004    0.0000   -0.0002    0.0001
          14    0.0006   -0.0000    0.0000   -0.0003   -0.0004    0.0000   -0.0002    0.0001
          15   -0.0008   -0.0000   -0.0000   -0.0001    0.0001   -0.0000    0.0001   -0.0000
          16   -0.0001    0.0002    0.0001    0.0000   -0.0351    0.0003   -0.0177    0.0066
          17   -0.0011   -0.0000    0.0000    0.0000    0.0006   -0.0000    0.0031   -0.0016
          18    0.0003    0.0000   -0.0002   -0.0000   -0.0276    0.0004   -0.0152    0.0058
          19   -0.0004    0.0000    0.0000    0.0001    0.0001    0.0000    0.0000   -0.0000
          20   -0.0004   -0.0002   -0.0000   -0.0001    0.0000   -0.0000   -0.0000    0.0000
          21    0.0002    0.0002    0.0000   -0.0000   -0.0000   -0.0000    0.0000   -0.0000
          22    0.0000   -0.0002    0.0022   -0.0000   -0.0004    0.0025    0.0038    0.0151
          23    0.0000   -0.0003   -0.0001   -0.0000    0.0001   -0.0006   -0.0012   -0.0034
          24   -0.0000   -0.0000    0.0012    0.0001   -0.0002    0.0022    0.0039    0.0136
          25    0.0001    0.0001   -0.0002    0.0000   -0.0006    0.0001    0.0041    0.0059
          26    0.0000   -0.0000    0.0000   -0.0000   -0.0017    0.0001    0.0089    0.0161
          27    0.0001    0.0000   -0.0002    0.0000    0.0027    0.0001   -0.0147   -0.0265
          28   -0.0002   -0.0000    0.0001    0.0000    0.0177   -0.0002   -0.0182    0.0091
          29    0.0002    0.0000   -0.0001    0.0000    0.0216    0.0000   -0.0283    0.0138
          30   -0.0004   -0.0001    0.0001    0.0000    0.0031   -0.0001   -0.0004    0.0004
          31   -0.0300    0.2052    0.0134    0.0118   -0.0001   -0.0010    0.0000    0.0001
          32   -0.0539    0.3234    0.0279    0.0174   -0.0003   -0.0009   -0.0001   -0.0000
          33   -0.0925    0.5531    0.0423    0.0376   -0.0005   -0.0003   -0.0002    0.0000
          34   -0.2516   -0.0344   -0.0016   -0.0010   -0.0014    0.0000   -0.0002    0.0002
          35    0.3401    0.0416    0.0020    0.0011    0.0016    0.0002    0.0006   -0.0003
          36    0.6596    0.0802    0.0037    0.0024    0.0017    0.0003   -0.0003   -0.0000
          37    0.0013   -0.0340    0.3566    0.0019    0.0042    0.4951   -0.0038   -0.0178
          38    0.0010   -0.0054    0.0275    0.0006    0.0006    0.0600   -0.0006   -0.0027
          39   -0.0001    0.0038   -0.0493   -0.0011   -0.0003   -0.0331    0.0009    0.0032
          40    0.0012   -0.0172    0.1489    0.0011   -0.0014   -0.1511   -0.0005    0.0012
          41    0.0015   -0.0229    0.2536    0.0029   -0.0020   -0.2054   -0.0011    0.0009
          42    0.0029   -0.0390    0.3717    0.0022   -0.0028   -0.2933   -0.0018    0.0002
          43    0.0014   -0.0210   -0.0043    0.2501    0.0001    0.0050    0.0005   -0.0012
          44    0.0010   -0.0245   -0.0051    0.2987    0.0002    0.0068    0.0007   -0.0016
          45    0.0014   -0.0118   -0.0021    0.0896    0.0001    0.0022    0.0003   -0.0006
          46   -0.0018    0.0150    0.0013   -0.2437    0.0001    0.0025    0.0003   -0.0007
          47    0.0022   -0.0186   -0.0027    0.2622   -0.0001   -0.0018   -0.0004    0.0009
          48    0.0022   -0.0188   -0.0027    0.3238   -0.0001   -0.0057   -0.0004    0.0011
          49   -0.0004    0.0020   -0.0231   -0.0002    0.0025   -0.0298   -0.0514   -0.1891
          50    0.0000   -0.0003    0.0011   -0.0000   -0.0004    0.0059    0.0106    0.0378
          51   -0.0002    0.0014   -0.0158   -0.0001    0.0026   -0.0230   -0.0450   -0.1618
          52   -0.0008    0.0006    0.0011    0.0000    0.4176   -0.0045    0.2029   -0.0719
          53    0.0000    0.0003    0.0000    0.0000    0.0114   -0.0001    0.0022   -0.0007
          54   -0.0039   -0.0000    0.0009   -0.0001    0.3206   -0.0035    0.1569   -0.0561
          55    0.0049    0.0024    0.0003   -0.0004    0.0017    0.0004    0.0010   -0.0003
          56   -0.0009   -0.0007   -0.0001   -0.0005   -0.0012   -0.0001   -0.0006    0.0002
          57   -0.0012    0.0005    0.0001   -0.0005    0.0007    0.0001    0.0004   -0.0001
          58   -0.0004    0.0003    0.0000   -0.0000   -0.0000    0.0000    0.0000    0.0000
          59   -0.0026   -0.0015   -0.0001   -0.0012    0.0002   -0.0001    0.0004   -0.0001
          60    0.0023    0.0019    0.0001   -0.0005   -0.0002    0.0001   -0.0004    0.0002
          61   -0.0000   -0.0000    0.0008    0.0000    0.0082    0.0006   -0.0387   -0.0639
          62   -0.0002    0.0001    0.0004    0.0000    0.0191    0.0016   -0.1050   -0.1852
          63    0.0004    0.0000   -0.0013   -0.0000   -0.0302   -0.0015    0.1745    0.3121
          64    0.0017    0.0001    0.0007   -0.0001   -0.2062    0.0006    0.2236   -0.1115
          65    0.0012   -0.0000    0.0010   -0.0001   -0.2698    0.0007    0.2997   -0.1466
[...]
 TRANSITION DIPOLE   0.0615         C  3 -- H 14         +19.0% ( 53.7%)      5.1%
 TRAVEL (Ang.)       0.2842         C  2 -- C  6          +9.4% ( 37.8%)     94.3%
 REDUCED MASS        0.5958         C  3 -- C  8          +8.6% ( 36.2%)     87.2%
 EFFECTIVE MASS      4.9653
 FORCE CONSTANT      0.6891

 VIBRATION         44   44A           ATOM PAIR      ENERGY CONTRIBUTION    RADIAL
 FREQUENCY          1408.67         C  4 -- H 16         +24.6% ( 61.5%)      5.6%
 TRANSITION DIPOLE   0.0514         C  4 -- H 15         +23.9% ( 60.6%)      6.2%
 TRAVEL (Ang.)       0.2126         C  4 -- C  7         +21.4% ( 57.2%)     94.6%
 REDUCED MASS        1.0588         C  1 -- C  4         +12.2% ( 43.2%)      6.8%
 EFFECTIVE MASS      5.2626
 FORCE CONSTANT      1.2379

 VIBRATION         45   45A           ATOM PAIR      ENERGY CONTRIBUTION    RADIAL
 FREQUENCY          1461.55         C  9 -- C 10         +13.1% ( 55.0%)     99.9%
 TRANSITION DIPOLE   0.1153         C  3 -- C  8         +11.2% ( 51.1%)     98.7%
 TRAVEL (Ang.)       0.1931         C  2 -- C  6         +10.2% ( 48.7%)     92.1%
 REDUCED MASS        1.2370         C  8 -- C  9          +7.2% ( 40.7%)      0.8%
 EFFECTIVE MASS      9.9218
 FORCE CONSTANT      1.5569

 VIBRATION         46   46A           ATOM PAIR      ENERGY CONTRIBUTION    RADIAL
 FREQUENCY          1836.26         C  5 -- C  7         +45.0% ( 99.3%)    100.0%
 TRANSITION DIPOLE   0.1015         C  2 -- C  5         +13.8% ( 55.0%)     26.3%
 TRAVEL (Ang.)       0.0839         C  4 -- C  7         +13.6% ( 54.6%)     26.3%
 REDUCED MASS        5.2141         C  5 -- H 19         +12.8% ( 53.0%)      9.7%
 EFFECTIVE MASS     11.8799         C  7 -- H 20         +12.7% ( 52.7%)      9.4%
 FORCE CONSTANT     10.3585

 VIBRATION         47   47A           ATOM PAIR      ENERGY CONTRIBUTION    RADIAL
 FREQUENCY          1859.71         C  8 -- C  9         +34.0% ( 85.7%)     99.8%
 TRANSITION DIPOLE   0.1315         C  9 -- C 10         +12.0% ( 50.8%)      8.4%
 TRAVEL (Ang.)       0.1031         C  3 -- C  8         +11.3% ( 49.5%)     50.5%
 REDUCED MASS        3.4131         C  6 -- C 10         +10.6% ( 47.8%)     97.8%
 EFFECTIVE MASS     11.8013         C  8 -- H 17         +10.4% ( 47.5%)      4.3%
 FORCE CONSTANT      6.9549

 VIBRATION         48   48A           ATOM PAIR      ENERGY CONTRIBUTION    RADIAL
 FREQUENCY          1887.76         C  6 -- C 10         +32.5% ( 84.3%)     99.5%
 TRANSITION DIPOLE   0.2971         C  9 -- C 10         +17.3% ( 61.6%)     88.9%
 TRAVEL (Ang.)       0.1005         C 10 -- H 22         +10.6% ( 48.2%)      1.9%
 REDUCED MASS        3.5334         C  8 -- C  9         +10.3% ( 47.5%)     96.3%
 EFFECTIVE MASS     11.9369
 FORCE CONSTANT      7.4189

 VIBRATION         49   49A           ATOM PAIR      ENERGY CONTRIBUTION    RADIAL
 FREQUENCY          2858.19         C  2 -- H 12         +95.0% ( 99.0%)    100.0%
 TRANSITION DIPOLE   0.0913         C  1 -- H 11          +2.0% ( 14.2%)    100.0%
 TRAVEL (Ang.)       0.1625         C  1 -- C  2          +1.0% ( 10.3%)      5.6%
 REDUCED MASS        0.8934         C  2 -- C  6          +1.0% ( 10.1%)      6.1%
 EFFECTIVE MASS      1.4418
 FORCE CONSTANT      4.3000

 VIBRATION         50   50A           ATOM PAIR      ENERGY CONTRIBUTION    RADIAL
 FREQUENCY          2891.04         C  1 -- H 11         +93.7% ( 98.4%)    100.0%
 TRANSITION DIPOLE   0.0552         C  2 -- H 12          +1.9% ( 13.9%)    100.0%
 TRAVEL (Ang.)       0.1636         C  1 -- C  3          +1.0% ( 10.3%)      7.6%
 REDUCED MASS        0.8713         C  1 -- C  4          +1.0% ( 10.3%)      9.0%
 EFFECTIVE MASS      1.4476
 FORCE CONSTANT      4.2907

 VIBRATION         51   51A           ATOM PAIR      ENERGY CONTRIBUTION    RADIAL
 FREQUENCY          2946.20         C  3 -- H 14         +60.2% ( 80.5%)     97.7%
 TRANSITION DIPOLE   0.0638         C  3 -- H 13         +36.6% ( 62.7%)     94.7%
 TRAVEL (Ang.)       0.2065         C  3 -- C  8          +1.2% ( 11.3%)      0.3%
 REDUCED MASS        0.5369         C  1 -- C  3          +1.1% ( 11.1%)      0.1%
 EFFECTIVE MASS      1.5432
 FORCE CONSTANT      2.7456

 VIBRATION         52   52A           ATOM PAIR      ENERGY CONTRIBUTION    RADIAL
 FREQUENCY          2970.41         C  4 -- H 16         +57.0% ( 78.3%)     97.5%
 TRANSITION DIPOLE   0.0487         C  4 -- H 15         +40.3% ( 65.9%)     95.5%
 TRAVEL (Ang.)       0.2076         C  4 -- C  7          +1.1% ( 10.9%)      0.1%
 REDUCED MASS        0.5269         C  1 -- C  4          +1.1% ( 10.8%)      0.1%
 EFFECTIVE MASS      1.5347
 FORCE CONSTANT      2.7391

 VIBRATION         53   53A           ATOM PAIR      ENERGY CONTRIBUTION    RADIAL
 FREQUENCY          3017.19         C  6 -- H 18         +68.6% ( 84.0%)    100.0%
 TRANSITION DIPOLE   0.2721         C 10 -- H 22         +28.7% ( 54.4%)    100.0%
 TRAVEL (Ang.)       0.2035         C  6 -- C 10          +1.1% ( 10.7%)      2.2%
 REDUCED MASS        0.5398         C  2 -- C  6          +0.9% (  9.5%)     15.1%
 EFFECTIVE MASS      1.4621
 FORCE CONSTANT      2.8950

 VIBRATION         54   54A           ATOM PAIR      ENERGY CONTRIBUTION    RADIAL
 FREQUENCY          3022.75         C  3 -- H 13         +62.0% ( 77.7%)     98.8%
 TRANSITION DIPOLE   0.0646         C  3 -- H 14         +36.3% ( 59.5%)     95.4%
 TRAVEL (Ang.)       0.2096         C  3 -- C  8          +0.6% (  7.9%)     27.2%
 REDUCED MASS        0.5078         C  1 -- C  3          +0.6% (  7.9%)     28.1%
 EFFECTIVE MASS      1.2811
 FORCE CONSTANT      2.7337

 VIBRATION         55   55A           ATOM PAIR      ENERGY CONTRIBUTION    RADIAL
 FREQUENCY          3037.07         C 10 -- H 22         +53.6% ( 74.3%)     99.9%
 TRANSITION DIPOLE   0.2116         C  6 -- H 18         +25.0% ( 50.7%)     99.9%
 TRAVEL (Ang.)       0.2434         C  9 -- H 21         +16.4% ( 41.1%)    100.0%
 REDUCED MASS        0.3749         C  8 -- H 17          +1.8% ( 13.7%)     99.8%
 EFFECTIVE MASS      1.5441
 FORCE CONSTANT      2.0374

 VIBRATION         56   56A           ATOM PAIR      ENERGY CONTRIBUTION    RADIAL
 FREQUENCY          3045.66         C  9 -- H 21         +54.7% ( 75.0%)    100.0%
 TRANSITION DIPOLE   0.3704         C  8 -- H 17         +25.5% ( 51.2%)    100.0%
 TRAVEL (Ang.)       0.2428         C 10 -- H 22         +13.7% ( 37.6%)    100.0%
 REDUCED MASS        0.3757         C  6 -- H 18          +3.4% ( 18.6%)     99.7%
 EFFECTIVE MASS      1.4830
 FORCE CONSTANT      2.0531

 VIBRATION         57   57A           ATOM PAIR      ENERGY CONTRIBUTION    RADIAL
 FREQUENCY          3049.81         C  4 -- H 15         +58.4% ( 75.4%)     98.5%
 TRANSITION DIPOLE   0.0944         C  4 -- H 16         +40.1% ( 62.4%)     96.2%
 TRAVEL (Ang.)       0.2110         C  1 -- C  4          +0.7% (  8.2%)     36.7%
 REDUCED MASS        0.4966         C  4 -- C  7          +0.7% (  8.2%)     30.6%
 EFFECTIVE MASS      1.2841
 FORCE CONSTANT      2.7213

 VIBRATION         58   58A           ATOM PAIR      ENERGY CONTRIBUTION    RADIAL
 FREQUENCY          3066.98         C  8 -- H 17         +69.2% ( 84.4%)     99.9%
 TRANSITION DIPOLE   0.3156         C  9 -- H 21         +25.7% ( 51.4%)     99.8%
 TRAVEL (Ang.)       0.2010         C  8 -- C  9          +1.9% ( 14.0%)     91.3%
 REDUCED MASS        0.5441         C  3 -- C  8          +1.1% ( 10.5%)     17.5%
 EFFECTIVE MASS      1.5798
 FORCE CONSTANT      3.0153

 VIBRATION         59   59A           ATOM PAIR      ENERGY CONTRIBUTION    RADIAL
 FREQUENCY          3111.24         C  5 -- H 19         +58.5% ( 77.6%)    100.0%
 TRANSITION DIPOLE   0.3641         C  7 -- H 20         +39.0% ( 63.4%)    100.0%
 TRAVEL (Ang.)       0.2117         C  5 -- C  7          +1.1% ( 10.7%)      1.0%
 REDUCED MASS        0.4836         C  2 -- C  5          +0.9% (  9.5%)     24.9%
 EFFECTIVE MASS      1.4626
 FORCE CONSTANT      2.7581

 VIBRATION         60   60A           ATOM PAIR      ENERGY CONTRIBUTION    RADIAL
 FREQUENCY          3130.94         C  7 -- H 20         +57.4% ( 77.2%)     99.9%
 TRANSITION DIPOLE   0.3681         C  5 -- H 19         +38.1% ( 62.9%)     99.9%
 TRAVEL (Ang.)       0.2107         C  5 -- C  7          +2.5% ( 16.0%)     98.9%
 REDUCED MASS        0.4849         C  4 -- C  7          +1.1% ( 10.7%)     21.2%
 EFFECTIVE MASS      1.6502
 FORCE CONSTANT      2.8008

      SYMMETRY NUMBER FOR POINT-GROUP C1  =  1


          SYSTEM IS A GROUND STATE



 InChI=1S/C10H12/c1-2-5-9-7-4-8-10(9)6-3-1/h1-5,7,9-10H,6,8H2


          MOLECULE IS NOT LINEAR

          THERE ARE 60 GENUINE VIBRATIONS IN THIS SYSTEM
          THIS THERMODYNAMICS CALCULATION IS LIMITED TO
          MOLECULES WHICH HAVE NO INTERNAL ROTATIONS




                    CALCULATED THERMODYNAMIC PROPERTIES
                                          *
   TEMP. (K)   PARTITION FUNCTION   H.O.F.    ENTHALPY  HEAT CAPACITY ENTROPY
                                   KCAL/MOL   CAL/MOLE    CAL/K/MOL  CAL/K/MOL


 298.00  VIB.     0.4461D+02                  3309.0936    27.5959    18.6518
         ROT.     0.5123D+06                   888.2803     2.9808    29.1059
         INT.     0.2285D+08                  4197.3739    30.5767    47.7576
         TRA.     0.1470D+28                  1480.4672     4.9680    40.5480
         TOT.                       40.287    5677.8410    35.5447    88.3056

 200.00  VIB.     0.8287D+01                  1235.3349    15.1002    10.3789
         ROT.     0.2817D+06                   596.1613     2.9808    27.9172
         INT.     0.2334D+07                  1831.4961    18.0810    38.2961
         TRA.     0.8080D+27                   993.6021     4.9680    38.5668
         TOT.                       37.434    2825.0983    23.0490    76.8629

 210.00  VIB.     0.9697D+01                  1392.0566    16.2505    11.1433
         ROT.     0.3031D+06                   625.9693     2.9808    28.0626
         INT.     0.2939D+07                  2018.0260    19.2314    39.2060
         TRA.     0.8694D+27                  1043.2822     4.9680    38.8092
         TOT.                       37.671    3061.3082    24.1994    78.0152

 220.00  VIB.     0.1139D+02                  1560.4702    17.4382    11.9266
         ROT.     0.3250D+06                   655.7774     2.9808    28.2013
         INT.     0.3700D+07                  2216.2476    20.4190    40.1279
         TRA.     0.9322D+27                  1092.9623     4.9680    39.0403
         TOT.                       37.919    3309.2099    25.3870    79.1682

 230.00  VIB.     0.1341D+02                  1740.9361    18.6605    12.7286
         ROT.     0.3474D+06                   685.5855     2.9808    28.3338
         INT.     0.4659D+07                  2426.5215    21.6413    41.0624
         TRA.     0.9965D+27                  1142.6424     4.9680    39.2612
         TOT.                       38.179    3569.1640    26.6093    80.3235

 240.00  VIB.     0.1586D+02                  1933.7850    19.9142    13.5491
         ROT.     0.3703D+06                   715.3935     2.9808    28.4607
         INT.     0.5871D+07                  2649.1785    22.8950    42.0098
         TRA.     0.1062D+28                  1192.3226     4.9680    39.4726
         TOT.                       38.451    3841.5011    27.8630    81.4824

 250.00  VIB.     0.1881D+02                  2139.3120    21.1955    14.3880
         ROT.     0.3936D+06                   745.2016     2.9808    28.5823
         INT.     0.7402D+07                  2884.5136    24.1763    42.9703
         TRA.     0.1129D+28                  1242.0027     4.9680    39.6754
         TOT.                       38.736    4126.5163    29.1443    82.6457

 260.00  VIB.     0.2238D+02                  2357.7722    22.5001    15.2446
         ROT.     0.4175D+06                   775.0097     2.9808    28.6993
         INT.     0.9342D+07                  3132.7819    25.4809    43.9439
         TRA.     0.1198D+28                  1291.6828     4.9680    39.8703
         TOT.                       39.034    4424.4646    30.4490    83.8141

 270.00  VIB.     0.2671D+02                  2589.3785    23.8240    16.1186
         ROT.     0.4418D+06                   804.8177     2.9808    28.8117
         INT.     0.1180D+08                  3394.1962    26.8048    44.9303
         TRA.     0.1267D+28                  1341.3629     4.9680    40.0578
         TOT.                       39.345    4735.5591    31.7728    84.9881

 280.00  VIB.     0.3199D+02                  2834.3006    25.1626    17.0091
         ROT.     0.4666D+06                   834.6258     2.9808    28.9202
         INT.     0.1493D+08                  3668.9263    28.1434    45.9293
         TRA.     0.1338D+28                  1391.0430     4.9680    40.2384
         TOT.                       39.669    5059.9693    33.1114    86.1677

 290.00  VIB.     0.3844D+02                  3092.6650    26.5117    17.9156
         ROT.     0.4918D+06                   864.4339     2.9808    29.0248
         INT.     0.1890D+08                  3957.0989    29.4925    46.9404
         TRA.     0.1411D+28                  1440.7231     4.9680    40.4128
         TOT.                       40.007    5397.8220    34.4606    87.3531

 300.00  VIB.     0.4632D+02                  3364.5568    27.8674    18.8372
         ROT.     0.5175D+06                   894.2419     2.9808    29.1258
         INT.     0.2397D+08                  4258.7987    30.8482    47.9631
         TRA.     0.1484D+28                  1490.4032     4.9680    40.5812
         TOT.                       40.359    5749.2019    35.8162    88.5443

 310.00  VIB.     0.5599D+02                  3650.0211    29.2256    19.7732
         ROT.     0.5435D+06                   924.0500     2.9808    29.2235
         INT.     0.3043D+08                  4574.0711    32.2064    48.9967
         TRA.     0.1559D+28                  1540.0833     4.9680    40.7441
         TOT.                       40.724    6114.1544    37.1744    89.7408

 320.00  VIB.     0.6788D+02                  3949.0658    30.5829    20.7225
         ROT.     0.5701D+06                   953.8580     2.9808    29.3182
         INT.     0.3870D+08                  4902.9239    33.5637    50.0407
         TRA.     0.1635D+28                  1589.7634     4.9680    40.9018
         TOT.                       41.102    6492.6873    38.5317    90.9425

 330.00  VIB.     0.8254D+02                  4261.6644    31.9359    21.6843
         ROT.     0.5970D+06                   983.6661     2.9808    29.4099
         INT.     0.4928D+08                  5245.3305    34.9167    51.0942
         TRA.     0.1713D+28                  1639.4435     4.9680    41.0547
         TOT.                       41.494    6884.7740    39.8847    92.1489

 340.00  VIB.     0.1006D+03                  4587.7589    33.2816    22.6577
         ROT.     0.6243D+06                  1013.4742     2.9808    29.4989
         INT.     0.6284D+08                  5601.2331    36.2624    52.1566
         TRA.     0.1791D+28                  1689.1236     4.9680    41.2030
         TOT.                       41.900    7290.3567    41.2304    93.3596

 350.00  VIB.     0.1231D+03                  4927.2636    34.6175    23.6417
         ROT.     0.6521D+06                  1043.2822     2.9808    29.5853
         INT.     0.8025D+08                  5970.5458    37.5983    53.2270
         TRA.     0.1871D+28                  1738.8037     4.9680    41.3470
         TOT.                       42.319    7709.3495    42.5663    94.5740

 360.00  VIB.     0.1509D+03                  5280.0674    35.9411    24.6355
         ROT.     0.6802D+06                  1073.0903     2.9808    29.6693
         INT.     0.1026D+09                  6353.1577    38.9219    54.3048
         TRA.     0.1951D+28                  1788.4838     4.9680    41.4870
         TOT.                       42.751    8141.6415    43.8899    95.7918

 370.00  VIB.     0.1854D+03                  5646.0376    37.2504    25.6382
         ROT.     0.7087D+06                  1102.8984     2.9808    29.7509
         INT.     0.1314D+09                  6748.9360    40.2312    55.3891
         TRA.     0.2033D+28                  1838.1639     4.9680    41.6231
         TOT.                       43.196    8587.0999    45.1992    97.0122

 380.00  VIB.     0.2285D+03                  6025.0226    38.5438    26.6488
         ROT.     0.7377D+06                  1132.7064     2.9808    29.8304
         INT.     0.1685D+09                  7157.7290    41.5246    56.4792
         TRA.     0.2116D+28                  1887.8440     4.9680    41.7556
         TOT.                       43.655    9045.5731    46.4926    98.2348

 390.00  VIB.     0.2822D+03                  6416.8548    39.8196    27.6665
         ROT.     0.7670D+06                  1162.5145     2.9808    29.9079
         INT.     0.2164D+09                  7579.3693    42.8004    57.5744
         TRA.     0.2200D+28                  1937.5242     4.9680    41.8846
         TOT.                       44.126    9516.8934    47.7685    99.4590

 400.00  VIB.     0.3493D+03                  6821.3531    41.0768    28.6905
         ROT.     0.7967D+06                  1192.3226     2.9808    29.9833
         INT.     0.2783D+09                  8013.6757    44.0576    58.6739
         TRA.     0.2285D+28                  1987.2043     4.9680    42.0104
         TOT.                       44.610   10000.8799    49.0256   100.6843

   *: NOTE: HEATS OF FORMATION ARE RELATIVE TO THE
            ELEMENTS IN THEIR STANDARD STATE AT 298K
              (=  Standard Enthalpy of Formation).

            Hvib:  Zero-point energy is not included.
                   frequencies of less than zero cm-1 are not included.
            Hrot = (3/2)RT
            Htra = (3/2)RT + pV = (5/2)RT

            Heat capacity is Cp, not Cv

          For more information, see: HTTP://OpenMOPAC.net/Manual/thermochemistry.html


           FORCE CONSTANT IN CARTESIAN COORDINATES (Millidynes/A)

    ATOM   CHEMICAL       X               Y               Z
   NUMBER   SYMBOL  FORCE CONSTANT  FORCE CONSTANT  FORCE CONSTANT

      1       C        7.428106        8.423015        8.332688
      2       C        7.754155        8.948489        8.600198
      3       C        8.617679        8.089366        8.748210
      4       C        9.659611        7.955911        7.597657
      5       C       14.609568        5.282782        7.535655
      6       C        7.022887       12.721451        7.055147
      7       C       12.078606        6.048206        9.400233
      8       C       13.969839        4.979664        8.126910
      9       C       14.036362        5.108853        8.514227
     10       C        8.147443       12.166004        7.201863
     11       H        1.061616        1.614871        3.349689
     12       H        1.051981        1.343671        3.377407
     13       H        4.880118        0.757099        0.749316
     14       H        1.167219        1.887634        3.221473
     15       H        2.184984        3.214078        0.988410
     16       H        1.647295        2.104744        2.657270
     17       H        3.253593        0.532747        2.461448
     18       H        3.295595        0.775499        2.113977
     19       H        4.935669        0.677801        0.802846
     20       H        0.710961        2.128913        3.575967
     21       H        0.860143        1.560760        3.778783
     22       H        2.159374        3.423490        0.559806

 **********************
 *                    *
 * JOB ENDED NORMALLY *
 *                    *
 **********************



 TOTAL JOB TIME:             2.59 SECONDS

 == MOPAC DONE ==
