 *******************************************************************************
 **                                                                           **
 **                              MOPAC v23.1.2                                **
 **                                                                           **
 *******************************************************************************
 **          Digital Object Identifier (DOI): 10.5281/zenodo.6511958          **
 **    Visit the DOI location for information on how to cite this program.    **
 *******************************************************************************

                              PM3 CALCULATION RESULTS

 *******************************************************************************
 *  CALCULATION DONE: (MAX THREADS = 1)              Tue Jun  3 16:30:05 2025  *
 *  PM3        - The PM3 Hamiltonian to be used
 *  PRECISE    - TIGHTER CRITERIA TO BE USED
 *  NOSYM      - POINT-GROUP SYMMETRY SET TO C1
 *  THREADS=1  - MULTI-THREADING NOT USED
 *  T=         - A TIME OF 172800.0 SECONDS REQUESTED
 *  DUMP=N     - RESTART FILE WRITTEN EVERY 7200.0 SECONDS REQUESTED
 *******************************************************************************
pm3  precise nosym THREADS=1
 InChI=1S/C8H8/c1-2-8-6-4-3-5-7-8/h2-7H,1H2

   ATOM   CHEMICAL          X               Y               Z
  NUMBER   SYMBOL      (ANGSTROMS)     (ANGSTROMS)     (ANGSTROMS)

     1       C          0.42020000  *   0.21390000  *  -0.05980000  *
     2       C         -0.16790000  *  -1.06390000  *   0.06420000  *
     3       C         -0.41210000  *   1.34690000  *  -0.00520000  *
     4       C          1.88030000  *   0.42310000  *  -0.24570000  *
     5       C         -1.54990000  *  -1.19300000  *   0.23740000  *
     6       C         -2.36110000  *  -0.05820000  *   0.28930000  *
     7       C         -1.79260000  *   1.21050000  *   0.16810000  *
     8       C          2.78920000  *  -0.55130000  *  -0.31650000  *
     9       H          2.24140000  *   1.44150000  *  -0.33110000  *
    10       H          0.42020000  *  -1.96820000  *   0.02990000  *
    11       H         -1.99280000  *  -2.17630000  *   0.33150000  *
    12       H         -3.43000000  *  -0.16220000  *   0.42340000  *
    13       H         -2.42190000  *   2.09020000  *   0.20840000  *
    14       H          0.00700000  *   2.34170000  *  -0.09700000  *
    15       H          3.83230000  *  -0.29690000  *  -0.45360000  *
    16       H          2.53780000  *  -1.59780000  *  -0.24340000  *



          CARTESIAN COORDINATES 

    NO.       ATOM           X           Y           Z

     1         C          0.4202      0.2139     -0.0598
     2         C         -0.1679     -1.0639      0.0642
     3         C         -0.4121      1.3469     -0.0052
     4         C          1.8803      0.4231     -0.2457
     5         C         -1.5499     -1.1930      0.2374
     6         C         -2.3611     -0.0582      0.2893
     7         C         -1.7926      1.2105      0.1681
     8         C          2.7892     -0.5513     -0.3165
     9         H          2.2414      1.4415     -0.3311
    10         H          0.4202     -1.9682      0.0299
    11         H         -1.9928     -2.1763      0.3315
    12         H         -3.4300     -0.1622      0.4234
    13         H         -2.4219      2.0902      0.2084
    14         H          0.0070      2.3417     -0.0970
    15         H          3.8323     -0.2969     -0.4536
    16         H          2.5378     -1.5978     -0.2434

  H: (PM3): J. J. P. STEWART, J. COMP. CHEM. 10, 209 (1989).
  C: (PM3): J. J. P. STEWART, J. COMP. CHEM. 10, 209 (1989).

           Empirical Formula: C8 H8  =    16 atoms



      MOLECULAR POINT GROUP   :   C1  


      RHF CALCULATION, NO. OF DOUBLY OCCUPIED LEVELS = 20


          Geometry optimization using EF

          DIAGONAL MATRIX USED AS START HESSIAN

 CYCLE:     1 TIME:   0.004 TIME LEFT:  2.00D  GRAD.:    65.211 HEAT:  41.16093
 CYCLE:     2 TIME:   0.012 TIME LEFT:  2.00D  GRAD.:    70.586 HEAT:  41.00235
 CYCLE:     3 TIME:   0.004 TIME LEFT:  2.00D  GRAD.:    59.934 HEAT:  40.48387
 CYCLE:     4 TIME:   0.008 TIME LEFT:  2.00D  GRAD.:    32.698 HEAT:  40.05989
 CYCLE:     5 TIME:   0.004 TIME LEFT:  2.00D  GRAD.:    27.551 HEAT:  39.94272
 CYCLE:     6 TIME:   0.004 TIME LEFT:  2.00D  GRAD.:    24.681 HEAT:  39.80864
 CYCLE:     7 TIME:   0.008 TIME LEFT:  2.00D  GRAD.:    28.611 HEAT:  39.76078
 CYCLE:     8 TIME:   0.004 TIME LEFT:  2.00D  GRAD.:    30.923 HEAT:  39.73162
 CYCLE:     9 TIME:   0.008 TIME LEFT:  2.00D  GRAD.:    14.428 HEAT:  39.57181
 CYCLE:    10 TIME:   0.008 TIME LEFT:  2.00D  GRAD.:     7.248 HEAT:  39.52156
 CYCLE:    11 TIME:   0.004 TIME LEFT:  2.00D  GRAD.:     5.649 HEAT:  39.48225
 CYCLE:    12 TIME:   0.004 TIME LEFT:  2.00D  GRAD.:     8.250 HEAT:  39.44947
 CYCLE:    13 TIME:   0.008 TIME LEFT:  2.00D  GRAD.:     6.588 HEAT:  39.42644
 CYCLE:    14 TIME:   0.004 TIME LEFT:  2.00D  GRAD.:     3.504 HEAT:  39.40666
 CYCLE:    15 TIME:   0.008 TIME LEFT:  2.00D  GRAD.:     3.792 HEAT:  39.39591
 CYCLE:    16 TIME:   0.004 TIME LEFT:  2.00D  GRAD.:     7.442 HEAT:  39.37371
 CYCLE:    17 TIME:   0.008 TIME LEFT:  2.00D  GRAD.:    11.324 HEAT:  39.35503
 CYCLE:    18 TIME:   0.004 TIME LEFT:  2.00D  GRAD.:     5.298 HEAT:  39.31236
 CYCLE:    19 TIME:   0.004 TIME LEFT:  2.00D  GRAD.:     5.905 HEAT:  39.27504
 CYCLE:    20 TIME:   0.008 TIME LEFT:  2.00D  GRAD.:     7.483 HEAT:  39.22396
 CYCLE:    21 TIME:   0.004 TIME LEFT:  2.00D  GRAD.:     8.576 HEAT:  39.18492
 CYCLE:    22 TIME:   0.004 TIME LEFT:  2.00D  GRAD.:     4.136 HEAT:  39.15697
 CYCLE:    23 TIME:   0.004 TIME LEFT:  2.00D  GRAD.:     3.926 HEAT:  39.14050
 CYCLE:    24 TIME:   0.008 TIME LEFT:  2.00D  GRAD.:     4.815 HEAT:  39.12495
 CYCLE:    25 TIME:   0.004 TIME LEFT:  2.00D  GRAD.:     2.914 HEAT:  39.11017
 CYCLE:    26 TIME:   0.004 TIME LEFT:  2.00D  GRAD.:     1.978 HEAT:  39.10409
 CYCLE:    27 TIME:   0.004 TIME LEFT:  2.00D  GRAD.:     2.173 HEAT:  39.09928
 CYCLE:    28 TIME:   0.008 TIME LEFT:  2.00D  GRAD.:     1.390 HEAT:  39.09580
 CYCLE:    29 TIME:   0.004 TIME LEFT:  2.00D  GRAD.:     1.348 HEAT:  39.09455
 CYCLE:    30 TIME:   0.008 TIME LEFT:  2.00D  GRAD.:     0.795 HEAT:  39.09373
 CYCLE:    31 TIME:   0.004 TIME LEFT:  2.00D  GRAD.:     0.382 HEAT:  39.09338
 CYCLE:    32 TIME:   0.004 TIME LEFT:  2.00D  GRAD.:     0.295 HEAT:  39.09304
 CYCLE:    33 TIME:   0.004 TIME LEFT:  2.00D  GRAD.:     0.415 HEAT:  39.09278
 CYCLE:    34 TIME:   0.008 TIME LEFT:  2.00D  GRAD.:     0.337 HEAT:  39.09253
 CYCLE:    35 TIME:   0.004 TIME LEFT:  2.00D  GRAD.:     0.296 HEAT:  39.09229
 CYCLE:    36 TIME:   0.004 TIME LEFT:  2.00D  GRAD.:     0.336 HEAT:  39.09209
 CYCLE:    37 TIME:   0.004 TIME LEFT:  2.00D  GRAD.:     0.359 HEAT:  39.09185
 CYCLE:    38 TIME:   0.008 TIME LEFT:  2.00D  GRAD.:     0.319 HEAT:  39.09158
 CYCLE:    39 TIME:   0.004 TIME LEFT:  2.00D  GRAD.:     0.246 HEAT:  39.09131
 CYCLE:    40 TIME:   0.043 TIME LEFT:  2.00D  GRAD.:     0.229 HEAT:  39.09110
 CYCLE:    41 TIME:   0.004 TIME LEFT:  2.00D  GRAD.:     0.197 HEAT:  39.09098
 CYCLE:    42 TIME:   0.008 TIME LEFT:  2.00D  GRAD.:     0.175 HEAT:  39.09087
 CYCLE:    43 TIME:   0.008 TIME LEFT:  2.00D  GRAD.:     0.197 HEAT:  39.09077
 CYCLE:    44 TIME:   0.004 TIME LEFT:  2.00D  GRAD.:     0.232 HEAT:  39.09064
 CYCLE:    45 TIME:   0.008 TIME LEFT:  2.00D  GRAD.:     0.253 HEAT:  39.09045
 CYCLE:    46 TIME:   0.004 TIME LEFT:  2.00D  GRAD.:     0.216 HEAT:  39.09025
 CYCLE:    47 TIME:   0.004 TIME LEFT:  2.00D  GRAD.:     0.254 HEAT:  39.09021
 CYCLE:    48 TIME:   0.008 TIME LEFT:  2.00D  GRAD.:     0.170 HEAT:  39.09008
 CYCLE:    49 TIME:   0.004 TIME LEFT:  2.00D  GRAD.:     0.109 HEAT:  39.09001
 CYCLE:    50 TIME:   0.004 TIME LEFT:  2.00D  GRAD.:     0.050 HEAT:  39.08999

     GRADIENT =  0.04975 IS LESS THAN CUTOFF =  0.05000



 -------------------------------------------------------------------------------
 pm3  precise nosym THREADS=1
 InChI=1S/C8H8/c1-2-8-6-4-3-5-7-8/h2-7H,1H2



     GEOMETRY OPTIMISED USING EIGENVECTOR FOLLOWING (EF).     
     SCF FIELD WAS ACHIEVED                                   


                              PM3 CALCULATION
                                                       MOPAC v23.1.2 MacOS
                                                       Tue Jun  3 16:30:05 2025




          FINAL HEAT OF FORMATION =         39.08999 KCAL/MOL =     163.55251 KJ/MOL


          COSMO AREA              =        150.34 SQUARE ANGSTROMS
          COSMO VOLUME            =        143.41 CUBIC ANGSTROMS

          GRADIENT NORM           =          0.04975          =       0.01244 PER ATOM
          IONIZATION POTENTIAL    =          9.130505 EV
          HOMO LUMO ENERGIES (EV) =         -9.131 -0.122
          NO. OF FILLED LEVELS    =         20
          MOLECULAR WEIGHT        =        104.1512         POINT GROUP:  C1  

          MOLECULAR DIMENSIONS (Angstroms)

            Atom       Atom       Distance
            H    15    H    12     7.24832
            H    14    H    11     4.63907
            H    16    H     9     0.00219


          SCF CALCULATIONS        =         55

          WALL-CLOCK TIME         =      0.324 SECONDS
          COMPUTATION TIME        =      0.164 SECONDS




   ATOM   CHEMICAL          X               Y               Z
  NUMBER   SYMBOL      (ANGSTROMS)     (ANGSTROMS)     (ANGSTROMS)

     1       C          0.42029438  *   0.24965763  *  -0.06141299  *
     2       C         -0.13175749  *  -1.02942413  *   0.05835306  *
     3       C         -0.41992472  *   1.36621040  *  -0.00533940  *
     4       C          1.85887339  *   0.43156024  *  -0.24362736  *
     5       C         -1.50019487  *  -1.19035648  *   0.23170590  *
     6       C         -2.33062470  *  -0.07559199  *   0.28679249  *
     7       C         -1.78865082  *   1.20038411  *   0.16801970  *
     8       C          2.71430302  *  -0.58703724  *  -0.30618197  *
     9       H          2.20801690  *   1.46843072  *  -0.32822836  *
    10       H          0.54141665  *  -1.89933153  *   0.01191195  *
    11       H         -1.92411841  *  -2.19538356  *   0.32490367  *
    12       H         -3.40939436  *  -0.20193498  *   0.42340099  *
    13       H         -2.44237304  *   2.07762835  *   0.21125550  *
    14       H          0.00187635  *   2.37345960  *  -0.09832548  *
    15       H          3.78263807  *  -0.45732324  *  -0.44119516  *
    16       H          2.37995129  *  -1.62266191  *  -0.22357333  *

                             CARTESIAN COORDINATES

   1    C        0.420294379     0.249657626    -0.061412987
   2    C       -0.131757487    -1.029424134     0.058353057
   3    C       -0.419924719     1.366210403    -0.005339403
   4    C        1.858873393     0.431560242    -0.243627364
   5    C       -1.500194865    -1.190356482     0.231705900
   6    C       -2.330624700    -0.075591987     0.286792489
   7    C       -1.788650815     1.200384112     0.168019695
   8    C        2.714303019    -0.587037243    -0.306181972
   9    H        2.208016896     1.468430717    -0.328228359
  10    H        0.541416651    -1.899331530     0.011911946
  11    H       -1.924118406    -2.195383559     0.324903673
  12    H       -3.409394363    -0.201934975     0.423400989
  13    H       -2.442373035     2.077628350     0.211255501
  14    H        0.001876351     2.373459595    -0.098325476
  15    H        3.782638073    -0.457323244    -0.441195163
  16    H        2.379951291    -1.622661911    -0.223573329


           Empirical Formula: C8 H8  =    16 atoms



      MOLECULAR POINT GROUP   :   C1  


                  EIGENVALUES  
 -40.03261 -33.80034 -29.74539 -27.78321 -22.60880 -21.48677 -19.49617 -18.09149
 -16.79118 -15.57368 -15.01175 -14.78465 -14.55756 -13.49474 -12.89619 -12.48350
 -12.04379 -11.23453  -9.78073  -9.13051  -0.12204   0.40250   1.53067   2.99146
   3.09972   3.32694   3.43171   3.51800   3.68584   3.85097   4.03893   4.08055
   4.82738   4.90007   5.02067   5.21596   5.55891   5.70166   6.20854   6.37207


              NET ATOMIC CHARGES AND DIPOLE CONTRIBUTIONS

  ATOM NO.   TYPE          CHARGE      No. of ELECS.   s-Pop       p-Pop       
    1          C          -0.051164        4.0512     1.16843     2.88273
    2          C          -0.098814        4.0988     1.18015     2.91866
    3          C          -0.089860        4.0899     1.17926     2.91060
    4          C          -0.090714        4.0907     1.17887     2.91185
    5          C          -0.099278        4.0993     1.17798     2.92129
    6          C          -0.100322        4.1003     1.17950     2.92082
    7          C          -0.103352        4.1034     1.17907     2.92429
    8          C          -0.158110        4.1581     1.18490     2.97321
    9          H           0.099169        0.9008     0.90083
   10          H           0.110879        0.8891     0.88912
   11          H           0.102645        0.8974     0.89736
   12          H           0.102514        0.8975     0.89749
   13          H           0.102537        0.8975     0.89746
   14          H           0.104772        0.8952     0.89523
   15          H           0.083827        0.9162     0.91617
   16          H           0.085270        0.9147     0.91473
 DIPOLE           X         Y         Z       TOTAL
 POINT-CHG.     0.004    -0.021     0.000     0.022
 HYBRID         0.007     0.003    -0.001     0.008
 SUM            0.011    -0.018    -0.001     0.021


          ATOMIC ORBITAL ELECTRON POPULATIONS

     Atom    s        px        py        pz   
    1  C   1.16843   0.93739   0.94459   1.00074
    2  C   1.18015   0.95600   0.96556   0.99710
    3  C   1.17926   0.94434   0.96992   0.99635
    4  C   1.17887   0.92843   0.98495   0.99846
    5  C   1.17798   0.94515   0.97584   1.00030
    6  C   1.17950   0.98173   0.94069   0.99840
    7  C   1.17907   0.95531   0.96783   1.00115
    8  C   1.18490   0.98664   0.98467   1.00191
    9  H   0.90083
   10  H   0.88912
   11  H   0.89736
   12  H   0.89749
   13  H   0.89746
   14  H   0.89523
   15  H   0.91617
   16  H   0.91473
 *******************************************************************************
 **                                                                           **
 **                              MOPAC v23.1.2                                **
 **                                                                           **
 *******************************************************************************
 **          Digital Object Identifier (DOI): 10.5281/zenodo.6511958          **
 **    Visit the DOI location for information on how to cite this program.    **
 *******************************************************************************

                              PM3 CALCULATION RESULTS

 *******************************************************************************
 *  CALCULATION DONE: (MAX THREADS = 1)              Tue Jun  3 16:30:05 2025  *
 *  PM3        - The PM3 Hamiltonian to be used
 *  OLDGEO     - PREVIOUS GEOMETRY TO BE USED
 *  PRECISE    - TIGHTER CRITERIA TO BE USED
 *  NOSYM      - POINT-GROUP SYMMETRY SET TO C1
 *  THREADS=1  - MULTI-THREADING NOT USED
 *  T=         - A TIME OF 172800.0 SECONDS REQUESTED
 *  DUMP=N     - RESTART FILE WRITTEN EVERY 7200.0 SECONDS REQUESTED
 *  THERMO     - THERMODYNAMIC QUANTITIES TO BE CALCULATED
 *******************************************************************************
oldgeo thermo nosym precise THREADS=1  pm3
 InChI=1S/C8H8/c1-2-8-6-4-3-5-7-8/h2-7H,1H2

   ATOM   CHEMICAL          X               Y               Z
  NUMBER   SYMBOL      (ANGSTROMS)     (ANGSTROMS)     (ANGSTROMS)

     1       C          0.42029438  *   0.24965763  *  -0.06141299  *
     2       C         -0.13175749  *  -1.02942413  *   0.05835306  *
     3       C         -0.41992472  *   1.36621040  *  -0.00533940  *
     4       C          1.85887339  *   0.43156024  *  -0.24362736  *
     5       C         -1.50019487  *  -1.19035648  *   0.23170590  *
     6       C         -2.33062470  *  -0.07559199  *   0.28679249  *
     7       C         -1.78865082  *   1.20038411  *   0.16801970  *
     8       C          2.71430302  *  -0.58703724  *  -0.30618197  *
     9       H          2.20801690  *   1.46843072  *  -0.32822836  *
    10       H          0.54141665  *  -1.89933153  *   0.01191195  *
    11       H         -1.92411841  *  -2.19538356  *   0.32490367  *
    12       H         -3.40939436  *  -0.20193498  *   0.42340099  *
    13       H         -2.44237304  *   2.07762835  *   0.21125550  *
    14       H          0.00187635  *   2.37345960  *  -0.09832548  *
    15       H          3.78263807  *  -0.45732324  *  -0.44119516  *
    16       H          2.37995129  *  -1.62266191  *  -0.22357333  *



          CARTESIAN COORDINATES 

    NO.       ATOM           X           Y           Z

     1         C          0.4203      0.2497     -0.0614
     2         C         -0.1318     -1.0294      0.0584
     3         C         -0.4199      1.3662     -0.0053
     4         C          1.8589      0.4316     -0.2436
     5         C         -1.5002     -1.1904      0.2317
     6         C         -2.3306     -0.0756      0.2868
     7         C         -1.7887      1.2004      0.1680
     8         C          2.7143     -0.5870     -0.3062
     9         H          2.2080      1.4684     -0.3282
    10         H          0.5414     -1.8993      0.0119
    11         H         -1.9241     -2.1954      0.3249
    12         H         -3.4094     -0.2019      0.4234
    13         H         -2.4424      2.0776      0.2113
    14         H          0.0019      2.3735     -0.0983
    15         H          3.7826     -0.4573     -0.4412
    16         H          2.3800     -1.6227     -0.2236

  H: (PM3): J. J. P. STEWART, J. COMP. CHEM. 10, 209 (1989).
  C: (PM3): J. J. P. STEWART, J. COMP. CHEM. 10, 209 (1989).

           Empirical Formula: C8 H8  =    16 atoms



      MOLECULAR POINT GROUP   :   C1  


      RHF CALCULATION, NO. OF DOUBLY OCCUPIED LEVELS = 20



          HEAT OF FORMATION =      39.089987 KCALS/MOLE


          CARTESIAN COORDINATE DERIVATIVES

   NUMBER  ATOM         X            Y            Z

     1       C      0.016328     0.001402    -0.005523
     2       C     -0.022751    -0.014805    -0.001235
     3       C      0.005895     0.020926     0.000808
     4       C     -0.000000     0.010870    -0.011570
     5       C     -0.002334     0.004312    -0.004476
     6       C      0.017800    -0.017483    -0.000049
     7       C     -0.010095    -0.000671     0.003704
     8       C     -0.000627     0.009678    -0.003107
     9       H      0.011831    -0.002942     0.003713
    10       H      0.010087     0.009613     0.014866
    11       H     -0.003731    -0.011564    -0.005442
    12       H     -0.007253    -0.000994    -0.000147
    13       H     -0.016337    -0.017595     0.000344
    14       H      0.002215     0.005145     0.004500
    15       H     -0.002502     0.002344    -0.001989
    16       H      0.001474     0.001763     0.005603



          GRADIENT NORM =   0.06433

          MOLECULAR WEIGHT =  104.15



          ROTATIONAL CONSTANTS IN CM(-1)

          A =    0.17077898   B =    0.05329591   C =    0.04061955



           PRINCIPAL MOMENTS OF INERTIA IN UNITS OF 10**(-40)*GRAM-CM**2

          A =      163.9122   B =      525.2327   C =      689.1448


          ORIENTATION OF MOLECULE IN FORCE CALCULATION

    NO.       ATOM         X         Y         Z

     1          C      -0.4155   -0.4184    0.0001
     2          C       0.9828   -0.4184    0.0001
     3          C      -1.1004    0.8010    0.0001
     4          C      -1.1655   -1.6727    0.0000
     5          C       1.6851    0.7797   -0.0004
     6          C       0.9979    1.9893   -0.0005
     7          C      -0.3934    1.9973   -0.0001
     8          C      -0.5768   -2.8671    0.0006
     9          H      -2.2591   -1.5819   -0.0005
    10          H       1.5088   -1.3855    0.0006
    11          H       2.7798    0.7706   -0.0007
    12          H       1.5511    2.9339   -0.0008
    13          H      -0.9341    2.9494   -0.0001
    14          H      -2.1963    0.8129    0.0003
    15          H      -1.1288   -3.8008    0.0005
    16          H       0.5096   -2.9711    0.0013


    FIRST DERIVATIVES WILL BE USED IN THE CALCULATION OF SECOND DERIVATIVES

          ESTIMATED TIME TO COMPLETE CALCULATION =        0.75 SECONDS

    FOR POINT-GROUP C1   THERE ARE   1 UNIQUE SYMMETRY FUNCTIONS.

 STEP:   1 TIME =     0.01 SECS, INTEGRAL =      0.01 TIME LEFT: 172799.98
 STEP:   2 TIME =     0.02 SECS, INTEGRAL =      0.03 TIME LEFT: 172799.97
 STEP:   3 TIME =     0.02 SECS, INTEGRAL =      0.04 TIME LEFT: 172799.95
 STEP:   4 TIME =     0.02 SECS, INTEGRAL =      0.06 TIME LEFT: 172799.93
 STEP:   5 TIME =     0.02 SECS, INTEGRAL =      0.08 TIME LEFT: 172799.92
 STEP:   6 TIME =     0.02 SECS, INTEGRAL =      0.09 TIME LEFT: 172799.90
 STEP:   7 TIME =     0.01 SECS, INTEGRAL =      0.11 TIME LEFT: 172799.89
 STEP:   8 TIME =     0.02 SECS, INTEGRAL =      0.12 TIME LEFT: 172799.88
 STEP:   9 TIME =     0.02 SECS, INTEGRAL =      0.14 TIME LEFT: 172799.86
 STEP:  10 TIME =     0.01 SECS, INTEGRAL =      0.15 TIME LEFT: 172799.85
 STEP:  11 TIME =     0.01 SECS, INTEGRAL =      0.16 TIME LEFT: 172799.84
 STEP:  12 TIME =     0.02 SECS, INTEGRAL =      0.18 TIME LEFT: 172799.82
 STEP:  13 TIME =     0.01 SECS, INTEGRAL =      0.19 TIME LEFT: 172799.81
 STEP:  14 TIME =     0.02 SECS, INTEGRAL =      0.20 TIME LEFT: 172799.79
 STEP:  15 TIME =     0.01 SECS, INTEGRAL =      0.21 TIME LEFT: 172799.78
 STEP:  16 TIME =     0.02 SECS, INTEGRAL =      0.23 TIME LEFT: 172799.77
 STEP:  17 TIME =     0.02 SECS, INTEGRAL =      0.25 TIME LEFT: 172799.75
 STEP:  18 TIME =     0.01 SECS, INTEGRAL =      0.26 TIME LEFT: 172799.74
 STEP:  19 TIME =     0.02 SECS, INTEGRAL =      0.27 TIME LEFT: 172799.72
 STEP:  20 TIME =     0.02 SECS, INTEGRAL =      0.29 TIME LEFT: 172799.71
 STEP:  21 TIME =     0.02 SECS, INTEGRAL =      0.30 TIME LEFT: 172799.69
 STEP:  22 TIME =     0.01 SECS, INTEGRAL =      0.32 TIME LEFT: 172799.68
 STEP:  23 TIME =     0.02 SECS, INTEGRAL =      0.33 TIME LEFT: 172799.66
 STEP:  24 TIME =     0.02 SECS, INTEGRAL =      0.35 TIME LEFT: 172799.65
 STEP:  25 TIME =     0.01 SECS, INTEGRAL =      0.36 TIME LEFT: 172799.64
 STEP:  26 TIME =     0.02 SECS, INTEGRAL =      0.38 TIME LEFT: 172799.62
 STEP:  27 TIME =     0.02 SECS, INTEGRAL =      0.39 TIME LEFT: 172799.61
 STEP:  28 TIME =     0.01 SECS, INTEGRAL =      0.40 TIME LEFT: 172799.59
 STEP:  29 TIME =     0.01 SECS, INTEGRAL =      0.41 TIME LEFT: 172799.58
 STEP:  30 TIME =     0.01 SECS, INTEGRAL =      0.43 TIME LEFT: 172799.57
 STEP:  31 TIME =     0.01 SECS, INTEGRAL =      0.44 TIME LEFT: 172799.56
 STEP:  32 TIME =     0.02 SECS, INTEGRAL =      0.45 TIME LEFT: 172799.54
 STEP:  33 TIME =     0.01 SECS, INTEGRAL =      0.46 TIME LEFT: 172799.53
 STEP:  34 TIME =     0.02 SECS, INTEGRAL =      0.48 TIME LEFT: 172799.52
 STEP:  35 TIME =     0.01 SECS, INTEGRAL =      0.49 TIME LEFT: 172799.50
 STEP:  36 TIME =     0.01 SECS, INTEGRAL =      0.50 TIME LEFT: 172799.49
 STEP:  37 TIME =     0.01 SECS, INTEGRAL =      0.52 TIME LEFT: 172799.48
 STEP:  38 TIME =     0.01 SECS, INTEGRAL =      0.53 TIME LEFT: 172799.47
 STEP:  39 TIME =     0.01 SECS, INTEGRAL =      0.54 TIME LEFT: 172799.46
 STEP:  40 TIME =     0.01 SECS, INTEGRAL =      0.55 TIME LEFT: 172799.45
 STEP:  41 TIME =     0.02 SECS, INTEGRAL =      0.57 TIME LEFT: 172799.43
 STEP:  42 TIME =     0.02 SECS, INTEGRAL =      0.58 TIME LEFT: 172799.41
 STEP:  43 TIME =     0.01 SECS, INTEGRAL =      0.59 TIME LEFT: 172799.40
 STEP:  44 TIME =     0.01 SECS, INTEGRAL =      0.61 TIME LEFT: 172799.39
 STEP:  45 TIME =     0.02 SECS, INTEGRAL =      0.62 TIME LEFT: 172799.37
 STEP:  46 TIME =     0.01 SECS, INTEGRAL =      0.64 TIME LEFT: 172799.36
 STEP:  47 TIME =     0.02 SECS, INTEGRAL =      0.65 TIME LEFT: 172799.34
 STEP:  48 TIME =     0.02 SECS, INTEGRAL =      0.67 TIME LEFT: 172799.33

(To convert to Hartree/Bohr^2, multiply by (10^(-21) x N x a0^2)/(4.184 x 627.51) =  0.0642)


           FORCE MATRIX IN MILLIDYNES/ANGSTROM


                  C  1       C  2       C  3       C  4       C  5       C  6
 ------------------------------------------------------------------------------
     C    1  18.034137
     C    2   6.657080  17.291990
     C    3   6.644059   2.394019  17.286001
     C    4   5.303624   0.810678   0.900887  18.429468
     C    5   2.448172   7.063353   1.872746   0.102972  17.257604
     C    6   1.810153   2.515194   2.533655   0.031253   6.986483  17.243321
     C    7   2.440628   1.829524   7.036108   0.123577   2.549123   6.964626
     C    8   1.026121   0.122764   0.079473  10.760701   0.012683   0.012933
     H    9   0.443760   0.042758   0.047228   4.774504   0.008793   0.001604
     H   10   0.452208   4.659648   0.083410   0.051856   0.436089   0.089925
     H   11   0.092193   0.438459   0.010905   0.008651   4.864471   0.440241
     H   12   0.008564   0.088946   0.089108   0.009936   0.439128   4.867090
     H   13   0.091938   0.010455   0.437855   0.008478   0.089460   0.439330
     H   14   0.448962   0.083025   4.825162   0.053301   0.011265   0.091114
     H   15   0.138580   0.010117   0.007689   0.460335   0.003108   0.000933
     H   16   0.103170   0.091258   0.003875   0.492616   0.004568   0.000758


                  C  7       C  8       H  9       H 10       H 11       H 12
 ------------------------------------------------------------------------------
     C    7  17.255118
     C    8   0.033140  17.825898
     H    9   0.002088   0.453877   5.139383
     H   10   0.010587   0.094860   0.002118   5.047132
     H   11   0.089720   0.000996   0.001409   0.041048   5.229567
     H   12   0.439263   0.000975   0.000400   0.006941   0.041313   5.233076
     H   13   4.861401   0.001593   0.000637   0.007965   0.007169   0.041500
     H   14   0.438162   0.003949   0.029348   0.006887   0.008125   0.007131
     H   15   0.006846   5.142821   0.078267   0.004831   0.000501   0.000451
     H   16   0.003706   4.911302   0.118921   0.064260   0.000516   0.000379


                  H 13       H 14       H 15       H 16
 ------------------------------------------------------
     H   13   5.226103
     H   14   0.042730   5.199441
     H   15   0.000561   0.002615   5.507285
     H   16   0.000316   0.001665   0.391470   5.292285


          HEAT OF FORMATION =      39.089987 KCALS/MOLE

          ZERO POINT ENERGY      82.755 KCAL/MOL


           NORMAL COORDINATE ANALYSIS (Total motion = 1 Angstrom)


   Root No.       1         2         3         4         5         6         7         8

                 1 A       2 A       3 A       4 A       5 A       6 A       7 A       8 A   

                  80.8     190.7     271.9     359.7     431.3     471.5     576.2     603.9
  
           1    0.0000   -0.0000   -0.0481   -0.0000   -0.0000    0.0388    0.0100   -0.0000
           2   -0.0000   -0.0000    0.0164    0.0000    0.0000    0.0047    0.0531    0.0000
           3   -0.0405   -0.0352   -0.0000   -0.0055    0.0647    0.0000   -0.0000   -0.0165
           4    0.0000   -0.0000   -0.0472   -0.0000   -0.0000    0.0419    0.0038   -0.0000
           5   -0.0000   -0.0000   -0.0138   -0.0000    0.0000   -0.0310   -0.0206    0.0000
           6   -0.0481   -0.0497    0.0000   -0.0652   -0.0116    0.0000   -0.0000    0.0306
           7    0.0000   -0.0000   -0.0213    0.0000   -0.0000   -0.0130   -0.0414   -0.0000
           8   -0.0000    0.0000    0.0300    0.0000    0.0000   -0.0348    0.0342    0.0000
           9   -0.0025   -0.0539    0.0000    0.0668   -0.0038   -0.0000   -0.0000    0.0266
          10    0.0000   -0.0000   -0.0069   -0.0000    0.0000   -0.0274    0.0873    0.0000
          11   -0.0000   -0.0000   -0.0087    0.0000   -0.0000    0.0633    0.0245   -0.0000
          12   -0.0556    0.0572   -0.0000   -0.0046    0.0087   -0.0000    0.0000   -0.0335
          13    0.0000    0.0000   -0.0115    0.0000   -0.0000    0.0166    0.0061   -0.0000
          14    0.0000   -0.0000   -0.0401    0.0000   -0.0000   -0.0207   -0.0331   -0.0000
          15   -0.0159    0.0063   -0.0000    0.0659   -0.0327   -0.0000    0.0000   -0.0265
          16   -0.0000    0.0000    0.0177    0.0000    0.0000   -0.0336   -0.0261    0.0000
          17    0.0000    0.0000   -0.0241   -0.0000    0.0000   -0.0464   -0.0503   -0.0000
          18    0.0303    0.0570   -0.0000   -0.0026    0.0453    0.0001   -0.0000    0.0274
          19   -0.0000    0.0000    0.0179   -0.0000   -0.0000   -0.0328   -0.0293   -0.0000
          20   -0.0000    0.0000    0.0104   -0.0000    0.0000   -0.0343    0.0235    0.0000
          21    0.0371   -0.0023    0.0000   -0.0617   -0.0361   -0.0000    0.0000   -0.0262
          22   -0.0000    0.0000    0.0803    0.0000   -0.0000    0.0092    0.0006   -0.0000
          23    0.0000    0.0000    0.0317    0.0000   -0.0000    0.0886   -0.0195   -0.0000
          24    0.0828    0.0083    0.0000    0.0039   -0.0061   -0.0000    0.0000    0.0025
          25    0.0001   -0.0001   -0.0101   -0.0000    0.0001   -0.0252    0.0859    0.0000
          26   -0.0000   -0.0000   -0.0664   -0.0000   -0.0000    0.0813    0.0266    0.0000
          27   -0.1770    0.1884   -0.0001   -0.0038   -0.0888   -0.0000    0.0000    0.0355
          28    0.0000   -0.0000   -0.0622   -0.0000   -0.0000    0.0390   -0.0392   -0.0000
          29   -0.0000   -0.0000   -0.0240   -0.0001   -0.0000   -0.0327   -0.0438    0.0000
          30   -0.0687   -0.0827    0.0001   -0.1650   -0.0637   -0.0000   -0.0001    0.0863
          31    0.0000    0.0000   -0.0119    0.0000   -0.0000    0.0168    0.0058   -0.0000
          32    0.0000   -0.0000   -0.0731    0.0000   -0.0000    0.0223   -0.0157   -0.0000
          33   -0.0238    0.0199   -0.0000    0.1823   -0.1066   -0.0001    0.0001   -0.1018
          34   -0.0000    0.0000    0.0426    0.0000    0.0001   -0.0518   -0.0084    0.0000
          35    0.0000    0.0000   -0.0387   -0.0000    0.0000   -0.0357   -0.0604    0.0000
          36    0.0612    0.1331   -0.0000   -0.0067    0.1282    0.0001   -0.0001    0.0986
          37   -0.0000    0.0000    0.0464   -0.0000   -0.0000   -0.0347    0.0169   -0.0000
          38   -0.0000    0.0000    0.0267   -0.0000    0.0000   -0.0361    0.0498    0.0000
          39    0.0738    0.0026    0.0001   -0.1681   -0.1191   -0.0001    0.0001   -0.0973
          40    0.0000   -0.0000   -0.0204    0.0000   -0.0000   -0.0138   -0.0414    0.0000
          41   -0.0000    0.0000    0.0581    0.0000    0.0000   -0.0767    0.0110    0.0000
          42    0.0008   -0.0889    0.0000    0.1854   -0.0510   -0.0001   -0.0001    0.0913
          43   -0.0000    0.0000    0.1540    0.0001    0.0000    0.0569   -0.1332   -0.0001
          44    0.0000    0.0000   -0.0113    0.0000   -0.0000    0.0628    0.0572    0.0000
          45    0.0838    0.0944   -0.0000    0.0116   -0.1357   -0.0000   -0.0001    0.1863
          46   -0.0001    0.0001    0.0894    0.0000   -0.0001    0.0164   -0.0169    0.0001
          47    0.0001    0.0000    0.1059    0.0001   -0.0001    0.1419   -0.1654   -0.0001
          48    0.1980   -0.1202    0.0001   -0.0009    0.0979   -0.0000    0.0000   -0.1131


   Root No.       9        10        11        12        13        14        15        16

                 9 A      10 A      11 A      12 A      13 A      14 A      15 A      16 A   

                 630.5     680.9     783.2     844.7     850.4     926.3     952.4     980.5
  
           1   -0.0314   -0.0000   -0.0000    0.0040   -0.0000    0.0000    0.0000   -0.0000
           2    0.0225   -0.0000    0.0000    0.0056   -0.0000    0.0000   -0.0000   -0.0000
           3   -0.0000    0.0488    0.0478    0.0000   -0.0019   -0.0118    0.0338   -0.0001
           4   -0.0219   -0.0000   -0.0000    0.0274   -0.0000    0.0000   -0.0000   -0.0000
           5    0.0935    0.0000   -0.0000    0.0186   -0.0000    0.0000   -0.0000   -0.0000
           6   -0.0000   -0.0045   -0.0079   -0.0001   -0.0247    0.0210   -0.0236   -0.0427
           7   -0.0949   -0.0000   -0.0000    0.0045    0.0000   -0.0000   -0.0000    0.0000
           8   -0.0235   -0.0000   -0.0000    0.0312   -0.0001    0.0000   -0.0000    0.0000
           9    0.0000   -0.0024   -0.0112    0.0001    0.0326    0.0260   -0.0251    0.0410
          10    0.0048    0.0000    0.0000   -0.0375    0.0001    0.0000    0.0000   -0.0000
          11    0.0023   -0.0000    0.0000   -0.0353    0.0001   -0.0000   -0.0000    0.0000
          12    0.0000   -0.0313   -0.0138   -0.0000   -0.0023   -0.0303   -0.0296    0.0060
          13    0.1009    0.0000   -0.0000    0.0689   -0.0001    0.0000   -0.0000    0.0000
          14    0.0264    0.0000   -0.0000    0.0008   -0.0000    0.0000   -0.0000    0.0000
          15   -0.0000    0.0176   -0.0168   -0.0001   -0.0332    0.0075   -0.0088    0.0365
          16    0.0349    0.0000   -0.0000   -0.0303    0.0000   -0.0000    0.0000    0.0000
          17   -0.0221    0.0000    0.0000   -0.0511    0.0001   -0.0000    0.0000    0.0000
          18    0.0000   -0.0034   -0.0303    0.0000   -0.0033   -0.0252    0.0301    0.0068
          19    0.0241    0.0000    0.0000   -0.0332    0.0001   -0.0000   -0.0000   -0.0000
          20   -0.0982   -0.0000   -0.0000    0.0583   -0.0001    0.0000   -0.0000   -0.0000
          21    0.0000    0.0174   -0.0182    0.0001    0.0294   -0.0066   -0.0068   -0.0438
          22   -0.0094   -0.0000    0.0000   -0.0189    0.0000    0.0000    0.0000    0.0000
          23   -0.0023    0.0000    0.0000   -0.0357    0.0001   -0.0000   -0.0000    0.0000
          24   -0.0000    0.0016   -0.0024   -0.0000   -0.0018   -0.0008   -0.0146   -0.0038
          25    0.0029   -0.0000    0.0000   -0.0369    0.0001   -0.0001   -0.0001    0.0000
          26   -0.0075   -0.0000    0.0000   -0.0341    0.0001    0.0000    0.0001   -0.0000
          27    0.0000   -0.0095   -0.0465    0.0000    0.0222    0.2446    0.1786   -0.0359
          28   -0.0602    0.0000    0.0000    0.0102   -0.0000    0.0000   -0.0000   -0.0000
          29    0.0723   -0.0001    0.0000    0.0084    0.0001   -0.0001    0.0000    0.0001
          30    0.0001   -0.1691    0.0052    0.0005    0.1882   -0.1118    0.1038    0.2020
          31    0.1002   -0.0000    0.0000    0.0712   -0.0001   -0.0000    0.0000   -0.0000
          32   -0.0118   -0.0000    0.0000    0.0721   -0.0001   -0.0000    0.0000   -0.0001
          33    0.0000   -0.0496    0.1920    0.0005    0.2134   -0.0415    0.0482   -0.1614
          34   -0.0535   -0.0000    0.0001   -0.0324    0.0001    0.0000   -0.0000   -0.0000
          35    0.0297   -0.0000    0.0001   -0.0495    0.0001    0.0000   -0.0000   -0.0000
          36    0.0001   -0.1306    0.2132    0.0001    0.0246    0.1353   -0.1478   -0.0276
          37    0.0607   -0.0000    0.0001    0.0237   -0.0001    0.0000    0.0000    0.0000
          38   -0.0770   -0.0000    0.0000    0.0924   -0.0002    0.0000    0.0000    0.0000
          39    0.0000   -0.0550    0.2031   -0.0005   -0.1967    0.0295    0.0395    0.1867
          40   -0.0942   -0.0000    0.0000    0.0043   -0.0000   -0.0000    0.0000   -0.0000
          41    0.0156    0.0000    0.0000    0.0133   -0.0000    0.0000    0.0000   -0.0000
          42    0.0001   -0.1751    0.0225   -0.0005   -0.2072   -0.1175    0.1068   -0.1750
          43   -0.0283   -0.0001   -0.0001    0.1401   -0.0003    0.0000   -0.0000   -0.0000
          44    0.0085    0.0000    0.0000   -0.1290    0.0002   -0.0000   -0.0000    0.0000
          45   -0.0001    0.1754    0.1042    0.0001    0.0046   -0.0437    0.0609    0.0216
          46   -0.0116    0.0001    0.0000    0.0005   -0.0000   -0.0001   -0.0001    0.0000
          47   -0.0142    0.0000   -0.0000    0.1173   -0.0002    0.0000    0.0001   -0.0000
          48    0.0000   -0.1088   -0.0649   -0.0000    0.0138    0.1471    0.1417   -0.0090


   Root No.      17        18        19        20        21        22        23        24

                17 A      18 A      19 A      20 A      21 A      22 A      23 A      24 A   

                 997.2    1013.7    1036.7    1053.5    1108.7    1121.4    1153.4    1163.0
  
           1    0.0180    0.0000    0.0000   -0.0044    0.0086   -0.0042    0.0118   -0.0029
           2    0.0231    0.0000    0.0000    0.0013   -0.0039   -0.0243   -0.0076    0.0068
           3   -0.0000   -0.0148   -0.0244    0.0000    0.0000   -0.0000    0.0000    0.0000
           4    0.0161    0.0000    0.0000    0.0353    0.0055   -0.0277   -0.0038   -0.0198
           5   -0.0259    0.0000    0.0000   -0.0316    0.0166    0.0335   -0.0036    0.0032
           6   -0.0000    0.0276    0.0219    0.0000   -0.0000   -0.0000   -0.0000    0.0000
           7   -0.0420   -0.0000   -0.0000   -0.0337   -0.0271    0.0299   -0.0005    0.0166
           8    0.0084    0.0000    0.0000    0.0119   -0.0102   -0.0087    0.0029   -0.0097
           9    0.0000    0.0244    0.0161   -0.0000    0.0000   -0.0000    0.0000   -0.0000
          10    0.0283    0.0000   -0.0000   -0.0252   -0.0068    0.0177   -0.0029    0.0089
          11    0.0065   -0.0000    0.0000   -0.0110   -0.0024    0.0052   -0.0010    0.0058
          12    0.0000   -0.0089    0.0419   -0.0000    0.0000    0.0000   -0.0000    0.0000
          13   -0.0319   -0.0000   -0.0000   -0.0098   -0.0126   -0.0239   -0.0041   -0.0063
          14    0.0011   -0.0000   -0.0000    0.0081    0.0068    0.0063    0.0045    0.0026
          15    0.0000   -0.0393   -0.0167    0.0000    0.0000    0.0000   -0.0000    0.0000
          16    0.0155    0.0000    0.0000    0.0002    0.0116   -0.0227   -0.0016    0.0003
          17    0.0227    0.0000    0.0000    0.0055    0.0011   -0.0410    0.0029   -0.0031
          18   -0.0000    0.0420    0.0127    0.0000   -0.0000    0.0000   -0.0000    0.0000
          19    0.0130   -0.0000   -0.0000    0.0166   -0.0111    0.0067   -0.0034    0.0139
          20   -0.0214   -0.0000   -0.0000   -0.0101    0.0133   -0.0148    0.0031   -0.0044
          21    0.0000   -0.0371   -0.0131   -0.0000    0.0000   -0.0000    0.0000   -0.0000
          22   -0.0360   -0.0000    0.0000    0.0131   -0.0005    0.0005    0.0013   -0.0050
          23   -0.0289    0.0000   -0.0000    0.0046    0.0033    0.0007    0.0015    0.0014
          24   -0.0000    0.0246   -0.0576    0.0000   -0.0000   -0.0000   -0.0000   -0.0000
          25    0.0385   -0.0000    0.0001   -0.0329   -0.0113    0.0314   -0.0033    0.0069
          26    0.1155    0.0000   -0.0000   -0.0993   -0.0487    0.1689   -0.0033   -0.0196
          27   -0.0000    0.0208   -0.1083   -0.0000    0.0000   -0.0000   -0.0000    0.0000
          28    0.0194    0.0000    0.0000    0.1068    0.1160    0.0837    0.0404   -0.2148
          29   -0.0265   -0.0000   -0.0000    0.0075    0.0796    0.0997    0.0199   -0.1043
          30    0.0000   -0.0893   -0.0888    0.0000   -0.0000   -0.0000   -0.0000    0.0000
          31   -0.0327    0.0000    0.0000   -0.0079   -0.0122   -0.0255   -0.0073   -0.0060
          32    0.0033    0.0000    0.0000    0.1913   -0.0627    0.0805   -0.2180    0.2515
          33   -0.0000    0.1346    0.0521   -0.0001    0.0000   -0.0000    0.0001   -0.0001
          34    0.0280   -0.0000   -0.0000   -0.0205    0.2566    0.0204   -0.2324   -0.0077
          35    0.0166   -0.0000   -0.0000    0.0193   -0.1415   -0.0698    0.1385    0.0029
          36    0.0000   -0.1432   -0.0365   -0.0000   -0.0000    0.0000    0.0000   -0.0000
          37    0.0476    0.0000    0.0000    0.1316    0.0895    0.1399    0.2490    0.1230
          38   -0.0021    0.0000   -0.0000    0.0554    0.0698    0.0587    0.1476    0.0552
          39   -0.0001    0.1252    0.0373   -0.0000   -0.0000   -0.0000   -0.0001   -0.0000
          40   -0.0432   -0.0000   -0.0000   -0.0332   -0.0313    0.0344   -0.0011    0.0156
          41    0.0339   -0.0000   -0.0000    0.1133   -0.1998    0.1378   -0.1187   -0.2211
          42    0.0000   -0.0736   -0.0503    0.0000    0.0000   -0.0000    0.0000    0.0000
          43    0.1774    0.0001   -0.0001   -0.0522   -0.0183   -0.0041   -0.0062    0.0167
          44   -0.1518   -0.0000    0.0000    0.0410    0.0135    0.0055    0.0059   -0.0109
          45    0.0001   -0.1036    0.2120   -0.0000   -0.0000   -0.0000   -0.0000    0.0000
          46   -0.0084    0.0001   -0.0001    0.0027   -0.0028    0.0035    0.0003   -0.0018
          47    0.1817   -0.0000    0.0001   -0.0747   -0.0032    0.0336   -0.0034    0.0170
          48   -0.0001   -0.0909    0.2103    0.0000    0.0000   -0.0000    0.0000   -0.0000


   Root No.      25        26        27        28        29        30        31        32

                25 A      26 A      27 A      28 A      29 A      30 A      31 A      32 A   

                1212.1    1236.3    1310.4    1349.1    1392.3    1542.1    1606.7    1777.2
  
           1    0.0087    0.0133   -0.0166    0.0832    0.0311    0.0679    0.0573    0.1178
           2   -0.0184   -0.0005   -0.0232   -0.0512    0.0546   -0.0409    0.0892   -0.0668
           3   -0.0000    0.0000   -0.0000    0.0000    0.0000    0.0000   -0.0000    0.0000
           4    0.0113    0.0182    0.0010   -0.0779    0.0292    0.0100   -0.0482   -0.0778
           5   -0.0118    0.0138   -0.0124   -0.0505    0.0256    0.0650    0.0118    0.0058
           6    0.0000   -0.0000    0.0000    0.0000   -0.0000   -0.0000   -0.0000   -0.0000
           7   -0.0222    0.0080   -0.0135    0.0047    0.0105   -0.0546    0.0290   -0.0389
           8   -0.0054   -0.0234   -0.0112    0.0940    0.0384   -0.0329   -0.0414    0.0784
           9    0.0000   -0.0000    0.0000   -0.0000   -0.0000    0.0000   -0.0000   -0.0000
          10   -0.0282    0.0070    0.0261    0.0016   -0.0403   -0.0068   -0.0348   -0.0009
          11   -0.0187    0.0075   -0.0230    0.0027   -0.0339   -0.0050   -0.0082   -0.0196
          12   -0.0000    0.0000    0.0000   -0.0000   -0.0000    0.0000   -0.0000    0.0000
          13    0.0164   -0.0051    0.0182    0.0009   -0.0432   -0.0541    0.0077    0.0443
          14    0.0116    0.0105   -0.0102    0.1005    0.0190   -0.0361   -0.0718   -0.0741
          15   -0.0000   -0.0000   -0.0000   -0.0000    0.0000    0.0000    0.0000    0.0000
          16    0.0059   -0.0248    0.0076    0.0829   -0.0223    0.0612    0.0304   -0.1177
          17    0.0224    0.0087    0.0173   -0.0487   -0.0351   -0.0409    0.0408    0.0731
          18   -0.0000    0.0000   -0.0000   -0.0000    0.0000   -0.0000   -0.0000    0.0000
          19   -0.0191   -0.0066   -0.0072   -0.0876    0.0359    0.0152   -0.0683    0.0741
          20    0.0104   -0.0090    0.0210   -0.0498   -0.0321    0.0652   -0.0226   -0.0131
          21    0.0000    0.0000    0.0000    0.0000   -0.0000   -0.0000    0.0000   -0.0000
          22    0.0297   -0.0115    0.0010   -0.0028    0.0227   -0.0026    0.0160   -0.0069
          23   -0.0039    0.0066   -0.0099    0.0066   -0.0276    0.0119   -0.0285    0.0211
          24    0.0000   -0.0000    0.0000   -0.0000    0.0000   -0.0000    0.0000   -0.0000
          25   -0.0066   -0.0051    0.0307   -0.0053   -0.0378   -0.0085   -0.0395    0.0036
          26    0.2812   -0.1658    0.0068   -0.1295    0.0411   -0.0394   -0.0119   -0.0344
          27   -0.0001    0.0000    0.0000    0.0000   -0.0000   -0.0000   -0.0000    0.0000
          28   -0.1373   -0.1601    0.0015   -0.0447   -0.0616   -0.0960    0.0561    0.0004
          29   -0.0973   -0.0863   -0.0168   -0.0348   -0.0221    0.0160    0.0790    0.0561
          30    0.0000    0.0000   -0.0000    0.0000    0.0000   -0.0000   -0.0000   -0.0000
          31    0.0177   -0.0070    0.0210    0.0004   -0.0506   -0.0633    0.0107    0.0535
          32   -0.0347   -0.1043    0.0301    0.0229   -0.0739    0.0585    0.0856    0.0286
          33    0.0000    0.0000   -0.0000    0.0001    0.0000   -0.0000   -0.0000   -0.0000
          34    0.0739    0.0844   -0.0017    0.0305   -0.0197   -0.1128    0.0251    0.0520
          35   -0.0144   -0.0559    0.0260   -0.0182   -0.0449    0.0600    0.0547   -0.0255
          36   -0.0000   -0.0000   -0.0000    0.0000    0.0000    0.0000   -0.0000   -0.0000
          37    0.0465    0.0967    0.0002   -0.0185   -0.0332   -0.0920    0.0624    0.0085
          38    0.0502    0.0493    0.0288   -0.0108   -0.0794    0.0148    0.0548   -0.0606
          39   -0.0000   -0.0000   -0.0000   -0.0000    0.0000    0.0000   -0.0000    0.0000
          40   -0.0243    0.0125   -0.0153    0.0054    0.0121   -0.0620    0.0379   -0.0458
          41    0.0466    0.1665    0.0152    0.0542   -0.0643    0.0661    0.0878   -0.0276
          42   -0.0000   -0.0000    0.0000   -0.0001    0.0000    0.0000   -0.0000    0.0000
          43   -0.0210    0.0051   -0.2647   -0.0283   -0.1236    0.0075   -0.0427    0.0100
          44    0.0253   -0.0027    0.1602    0.0239    0.0596    0.0069    0.0019    0.0152
          45   -0.0000    0.0000   -0.0002   -0.0000   -0.0001   -0.0000   -0.0000   -0.0000
          46    0.0227   -0.0088    0.0314    0.0012    0.0317   -0.0058    0.0208   -0.0120
          47   -0.0912    0.0303    0.3628    0.0500    0.0785   -0.0184    0.0125   -0.0090
          48    0.0000   -0.0000   -0.0001   -0.0000    0.0000    0.0000    0.0000    0.0000


   Root No.      33        34        35        36        37        38        39        40

                33 A      34 A      35 A      36 A      37 A      38 A      39 A      40 A   

                1797.5    1848.5    3003.4    3035.9    3051.8    3059.1    3067.0    3078.8
  
           1   -0.0493   -0.0069   -0.0021   -0.0001    0.0006   -0.0001    0.0005    0.0002
           2   -0.0643   -0.0649   -0.0003    0.0005   -0.0012   -0.0009   -0.0007    0.0008
           3    0.0000    0.0000    0.0000   -0.0000    0.0000    0.0000    0.0000   -0.0000
           4    0.1002    0.0053    0.0284   -0.0000    0.0006    0.0008   -0.0003   -0.0004
           5    0.0817    0.0120   -0.0521    0.0014   -0.0005   -0.0027    0.0031    0.0024
           6   -0.0000   -0.0000    0.0000   -0.0000    0.0000    0.0000   -0.0000   -0.0000
           7    0.0282   -0.0110    0.0007   -0.0040   -0.0381   -0.0160   -0.0160    0.0092
           8    0.1173    0.0154    0.0002   -0.0005    0.0012   -0.0000   -0.0009    0.0008
           9   -0.0000   -0.0000    0.0000    0.0000    0.0000    0.0000    0.0000   -0.0000
          10    0.0169   -0.0552   -0.0011   -0.0665    0.0024    0.0008    0.0005   -0.0000
          11   -0.0099    0.2166    0.0010    0.0092   -0.0001    0.0002   -0.0001   -0.0005
          12    0.0000   -0.0001   -0.0000   -0.0000    0.0000    0.0000    0.0000    0.0000
          13   -0.0294    0.0023   -0.0052    0.0002   -0.0041    0.0216   -0.0287   -0.0197
          14   -0.1078   -0.0131    0.0024   -0.0001   -0.0001    0.0009    0.0002    0.0011
          15    0.0000    0.0000    0.0000    0.0000    0.0000   -0.0000    0.0000    0.0000
          16    0.0309   -0.0108   -0.0002    0.0000    0.0045   -0.0145   -0.0005   -0.0138
          17    0.0360    0.0071    0.0001   -0.0001    0.0087   -0.0240   -0.0051   -0.0234
          18   -0.0000    0.0000    0.0000    0.0000   -0.0000    0.0000    0.0000    0.0000
          19   -0.0895    0.0086    0.0002    0.0006    0.0128   -0.0034   -0.0125    0.0112
          20   -0.0766    0.0014   -0.0001   -0.0007   -0.0204    0.0090    0.0238   -0.0183
          21    0.0000   -0.0000    0.0000   -0.0000   -0.0000   -0.0000    0.0000   -0.0000
          22   -0.0106    0.0776    0.0108    0.0040   -0.0001    0.0013   -0.0022   -0.0046
          23    0.0207   -0.1656   -0.0021    0.0004   -0.0001   -0.0003    0.0005    0.0011
          24   -0.0000    0.0001    0.0000    0.0000   -0.0000    0.0000   -0.0000   -0.0000
          25    0.0219   -0.1101    0.0151    0.7645   -0.0286   -0.0091   -0.0054    0.0015
          26    0.0096   -0.0623   -0.0001   -0.0585    0.0035    0.0013    0.0008   -0.0007
          27    0.0000   -0.0001    0.0000    0.0004   -0.0000   -0.0000   -0.0000    0.0000
          28   -0.0649   -0.0171   -0.3307    0.0070   -0.0023   -0.0115    0.0113    0.0076
          29   -0.0040   -0.0002    0.5855   -0.0114    0.0035    0.0233   -0.0234   -0.0152
          30   -0.0000    0.0000   -0.0003    0.0000   -0.0000   -0.0000    0.0000    0.0000
          31   -0.0335    0.0031    0.0755   -0.0028    0.0471   -0.2495    0.3251    0.2125
          32    0.0394    0.0044   -0.0045    0.0001    0.0003    0.0001   -0.0030   -0.0034
          33   -0.0000   -0.0000   -0.0000    0.0000   -0.0000    0.0001   -0.0001   -0.0001
          34    0.0248    0.0025    0.0022    0.0003   -0.0563    0.1661    0.0241    0.1495
          35    0.0494   -0.0005    0.0048    0.0004   -0.0991    0.2819    0.0483    0.2552
          36   -0.0000   -0.0000   -0.0000   -0.0000    0.0000   -0.0001   -0.0000   -0.0001
          37    0.0504   -0.0029   -0.0010   -0.0057   -0.1420    0.0506    0.1488   -0.1151
          38   -0.0019   -0.0051    0.0019    0.0096    0.2462   -0.0951   -0.2645    0.2004
          39   -0.0000    0.0000    0.0000    0.0000    0.0000   -0.0000   -0.0000    0.0000
          40    0.0306   -0.0164   -0.0149    0.0441    0.4368    0.1808    0.1754   -0.0952
          41   -0.0543   -0.0149    0.0002   -0.0029   -0.0080   -0.0019   -0.0008    0.0001
          42   -0.0000    0.0000    0.0000   -0.0000   -0.0001   -0.0000   -0.0000    0.0000
          43    0.0198   -0.1061    0.0050   -0.0381    0.0016    0.0014   -0.0010   -0.0031
          44    0.0067   -0.0894    0.0029   -0.0554    0.0024    0.0016   -0.0007   -0.0028
          45    0.0000   -0.0000    0.0000   -0.0000    0.0000    0.0000   -0.0000   -0.0000
          46   -0.0165    0.1288   -0.1266    0.0151   -0.0012   -0.0164    0.0258    0.0564
          47   -0.0106    0.0620    0.0169   -0.0040    0.0002    0.0019   -0.0028   -0.0059
          48   -0.0000    0.0001   -0.0001    0.0000   -0.0000   -0.0000    0.0000    0.0000


   Root No.      41        42

                41 A      42 A   

                3085.4    3152.0
  
           1   -0.0007   -0.0001
           2    0.0001    0.0008
           3    0.0000   -0.0000
           4    0.0050    0.0003
           5   -0.0095   -0.0002
           6    0.0000    0.0000
           7   -0.0012    0.0001
           8    0.0000   -0.0002
           9    0.0000    0.0000
          10    0.0026   -0.0079
          11   -0.0042    0.0054
          12    0.0000   -0.0000
          13    0.0057    0.0001
          14    0.0002    0.0000
          15   -0.0000   -0.0000
          16    0.0018    0.0000
          17    0.0034    0.0001
          18   -0.0000   -0.0000
          19   -0.0013   -0.0000
          20    0.0020    0.0000
          21    0.0000   -0.0000
          22   -0.0490   -0.0355
          23    0.0119   -0.0613
          24   -0.0000   -0.0000
          25   -0.0086    0.0622
          26   -0.0017   -0.0089
          27   -0.0000    0.0000
          28   -0.0563   -0.0014
          29    0.1078    0.0055
          30   -0.0001   -0.0000
          31   -0.0604   -0.0010
          32    0.0000   -0.0000
          33    0.0000    0.0000
          34   -0.0203   -0.0004
          35   -0.0350   -0.0008
          36    0.0000    0.0000
          37    0.0122    0.0002
          38   -0.0212   -0.0004
          39   -0.0000   -0.0000
          40    0.0117   -0.0004
          41    0.0000   -0.0002
          42   -0.0000   -0.0000
          43   -0.0356    0.4093
          44   -0.0363    0.6855
          45   -0.0000    0.0001
          46    0.5989    0.0440
          47   -0.0600   -0.0202
          48    0.0004    0.0000


           MASS-WEIGHTED COORDINATE ANALYSIS (NORMAL COORDINATES)


   Root No.       1         2         3         4         5         6         7         8

                 1 A       2 A       3 A       4 A       5 A       6 A       7 A       8 A   

                  80.8     190.7     271.9     359.7     431.3     471.5     576.2     603.9
  
           1    0.0001   -0.0001   -0.3198   -0.0001   -0.0001    0.2286    0.0617   -0.0000
           2   -0.0001   -0.0000    0.1089    0.0000    0.0001    0.0276    0.3268    0.0001
           3   -0.2603   -0.2433   -0.0000   -0.0332    0.5119    0.0003   -0.0001   -0.1444
           4    0.0001   -0.0001   -0.3133   -0.0001   -0.0001    0.2470    0.0232   -0.0000
           5   -0.0000   -0.0001   -0.0918   -0.0001    0.0000   -0.1826   -0.1269    0.0000
           6   -0.3094   -0.3433    0.0002   -0.3945   -0.0921    0.0001   -0.0002    0.2675
           7    0.0000   -0.0001   -0.1413    0.0000   -0.0001   -0.0764   -0.2549   -0.0001
           8   -0.0001    0.0000    0.1994    0.0001    0.0002   -0.2051    0.2107    0.0002
           9   -0.0161   -0.3724    0.0001    0.4045   -0.0301   -0.0000   -0.0002    0.2324
          10    0.0001   -0.0002   -0.0460   -0.0001    0.0003   -0.1617    0.5376    0.0004
          11   -0.0001   -0.0000   -0.0577    0.0000   -0.0001    0.3730    0.1506   -0.0001
          12   -0.3577    0.3949   -0.0003   -0.0281    0.0691   -0.0001    0.0002   -0.2930
          13    0.0000    0.0000   -0.0765    0.0001   -0.0001    0.0978    0.0374   -0.0001
          14    0.0001   -0.0000   -0.2662    0.0000   -0.0001   -0.1221   -0.2036   -0.0002
          15   -0.1025    0.0434   -0.0001    0.3991   -0.2585   -0.0002    0.0002   -0.2315
          16   -0.0000    0.0001    0.1174    0.0000    0.0002   -0.1977   -0.1610    0.0000
          17    0.0001    0.0001   -0.1599   -0.0000    0.0001   -0.2732   -0.3099   -0.0001
          18    0.1950    0.3941   -0.0001   -0.0156    0.3588    0.0003   -0.0001    0.2400
          19   -0.0000    0.0000    0.1189   -0.0001   -0.0000   -0.1935   -0.1804   -0.0001
          20   -0.0000    0.0000    0.0691   -0.0001    0.0001   -0.2022    0.1449    0.0001
          21    0.2388   -0.0156    0.0002   -0.3736   -0.2859   -0.0001    0.0002   -0.2288
          22   -0.0002    0.0003    0.5336    0.0001   -0.0000    0.0540    0.0038   -0.0000
          23    0.0002    0.0001    0.2110    0.0001   -0.0003    0.5218   -0.1200   -0.0001
          24    0.5324    0.0571    0.0001    0.0238   -0.0484   -0.0001    0.0000    0.0214
          25    0.0001   -0.0002   -0.0195   -0.0000    0.0002   -0.0429    0.1533    0.0000
          26   -0.0001   -0.0000   -0.1278   -0.0000   -0.0001    0.1387    0.0475    0.0000
          27   -0.3296    0.3772   -0.0002   -0.0066   -0.2035   -0.0001    0.0001    0.0899
          28    0.0000   -0.0000   -0.1197   -0.0000   -0.0000    0.0666   -0.0700   -0.0001
          29   -0.0000   -0.0001   -0.0463   -0.0001   -0.0000   -0.0558   -0.0781    0.0001
          30   -0.1280   -0.1655    0.0001   -0.2893   -0.1460   -0.0000   -0.0002    0.2186
          31    0.0000    0.0000   -0.0230    0.0001   -0.0001    0.0286    0.0103   -0.0001
          32    0.0000   -0.0000   -0.1406    0.0001   -0.0001    0.0380   -0.0280   -0.0001
          33   -0.0443    0.0398   -0.0001    0.3197   -0.2443   -0.0002    0.0002   -0.2580
          34   -0.0000    0.0001    0.0819    0.0000    0.0001   -0.0884   -0.0150    0.0001
          35    0.0001    0.0000   -0.0745   -0.0000    0.0001   -0.0609   -0.1078    0.0000
          36    0.1139    0.2665   -0.0001   -0.0118    0.2938    0.0002   -0.0002    0.2498
          37   -0.0000    0.0000    0.0894   -0.0000   -0.0000   -0.0592    0.0302   -0.0000
          38   -0.0000    0.0000    0.0514   -0.0000    0.0000   -0.0616    0.0888    0.0000
          39    0.1374    0.0052    0.0001   -0.2948   -0.2731   -0.0002    0.0002   -0.2465
          40    0.0000   -0.0000   -0.0392    0.0000   -0.0000   -0.0235   -0.0739    0.0000
          41   -0.0001    0.0000    0.1118    0.0000    0.0001   -0.1310    0.0197    0.0000
          42    0.0015   -0.1779    0.0000    0.3252   -0.1168   -0.0001   -0.0001    0.2314
          43   -0.0000    0.0001    0.2964    0.0001    0.0000    0.0971   -0.2376   -0.0004
          44    0.0000    0.0000   -0.0217    0.0000   -0.0001    0.1071    0.1021    0.0001
          45    0.1561    0.1890   -0.0000    0.0203   -0.3110   -0.0000   -0.0001    0.4718
          46   -0.0002    0.0002    0.1721    0.0000   -0.0002    0.0279   -0.0302    0.0002
          47    0.0001    0.0000    0.2039    0.0001   -0.0002    0.2422   -0.2950   -0.0002
          48    0.3688   -0.2406    0.0002   -0.0016    0.2245   -0.0000    0.0000   -0.2864


   Root No.       9        10        11        12        13        14        15        16

                 9 A      10 A      11 A      12 A      13 A      14 A      15 A      16 A   

                 630.5     680.9     783.2     844.7     850.4     926.3     952.4     980.5
  
           1   -0.1452   -0.0001   -0.0000    0.0250   -0.0001    0.0000    0.0000   -0.0000
           2    0.1040   -0.0000    0.0000    0.0350   -0.0001    0.0000   -0.0000   -0.0000
           3   -0.0000    0.4061    0.3770    0.0001   -0.0143   -0.1006    0.2947   -0.0008
           4   -0.1014   -0.0001   -0.0000    0.1716   -0.0003    0.0000   -0.0000   -0.0000
           5    0.4324    0.0001   -0.0001    0.1162   -0.0003    0.0001   -0.0001   -0.0002
           6   -0.0001   -0.0375   -0.0623   -0.0004   -0.1874    0.1781   -0.2062   -0.3169
           7   -0.4388   -0.0001   -0.0000    0.0279    0.0000   -0.0000   -0.0001    0.0000
           8   -0.1085   -0.0000   -0.0001    0.1951   -0.0004    0.0000   -0.0000    0.0000
           9    0.0001   -0.0201   -0.0881    0.0005    0.2469    0.2206   -0.2186    0.3043
          10    0.0223    0.0000    0.0001   -0.2345    0.0005    0.0001    0.0002   -0.0000
          11    0.0108   -0.0001    0.0000   -0.2207    0.0004   -0.0001   -0.0000    0.0000
          12    0.0001   -0.2601   -0.1087   -0.0001   -0.0178   -0.2575   -0.2584    0.0444
          13    0.4663    0.0001   -0.0002    0.4311   -0.0009    0.0000   -0.0001    0.0001
          14    0.1222    0.0001   -0.0001    0.0048   -0.0001    0.0000   -0.0000    0.0001
          15   -0.0001    0.1463   -0.1328   -0.0006   -0.2513    0.0635   -0.0768    0.2710
          16    0.1611    0.0001   -0.0000   -0.1898    0.0003   -0.0001    0.0001    0.0000
          17   -0.1021    0.0001    0.0000   -0.3193    0.0006   -0.0001    0.0001    0.0000
          18    0.0000   -0.0284   -0.2390    0.0000   -0.0253   -0.2138    0.2629    0.0501
          19    0.1114    0.0001    0.0000   -0.2077    0.0005   -0.0000   -0.0000   -0.0001
          20   -0.4540   -0.0001   -0.0001    0.3646   -0.0007    0.0000   -0.0000   -0.0000
          21    0.0000    0.1446   -0.1433    0.0004    0.2230   -0.0564   -0.0592   -0.3245
          22   -0.0432   -0.0000    0.0000   -0.1184    0.0003    0.0000    0.0000    0.0000
          23   -0.0108    0.0000    0.0001   -0.2235    0.0005   -0.0000   -0.0000    0.0000
          24   -0.0000    0.0135   -0.0192   -0.0000   -0.0139   -0.0064   -0.1277   -0.0285
          25    0.0039   -0.0000    0.0001   -0.0668    0.0001   -0.0003   -0.0002    0.0000
          26   -0.0101   -0.0000    0.0000   -0.0617    0.0001    0.0000    0.0002   -0.0000
          27    0.0000   -0.0228   -0.1064    0.0000    0.0486    0.6018    0.4513   -0.0772
          28   -0.0806    0.0000    0.0000    0.0184   -0.0001    0.0000   -0.0000   -0.0001
          29    0.0968   -0.0001    0.0000    0.0153    0.0002   -0.0001    0.0001    0.0002
          30    0.0001   -0.4073    0.0119    0.0009    0.4132   -0.2750    0.2623    0.4339
          31    0.1342   -0.0000    0.0001    0.1289   -0.0001   -0.0000    0.0000   -0.0001
          32   -0.0158   -0.0000    0.0001    0.1307   -0.0001   -0.0000    0.0000   -0.0001
          33    0.0000   -0.1194    0.4390    0.0009    0.4684   -0.1020    0.1218   -0.3468
          34   -0.0717   -0.0001    0.0002   -0.0587    0.0001    0.0001   -0.0001   -0.0000
          35    0.0398   -0.0000    0.0001   -0.0897    0.0002    0.0001   -0.0001   -0.0000
          36    0.0001   -0.3146    0.4874    0.0002    0.0540    0.3328   -0.3733   -0.0593
          37    0.0813   -0.0000    0.0001    0.0430   -0.0002    0.0001    0.0000    0.0001
          38   -0.1031   -0.0000    0.0000    0.1675   -0.0004    0.0000    0.0000    0.0000
          39    0.0000   -0.1326    0.4643   -0.0008   -0.4318    0.0725    0.0999    0.4012
          40   -0.1261   -0.0001    0.0000    0.0077   -0.0001   -0.0001    0.0001   -0.0001
          41    0.0209    0.0000    0.0000    0.0242   -0.0001    0.0000    0.0000   -0.0000
          42    0.0001   -0.4218    0.0514   -0.0009   -0.4548   -0.2891    0.2698   -0.3761
          43   -0.0379   -0.0002   -0.0001    0.2537   -0.0006    0.0001   -0.0000   -0.0000
          44    0.0114    0.0001    0.0001   -0.2337    0.0005   -0.0000   -0.0000    0.0000
          45   -0.0001    0.4226    0.2383    0.0003    0.0101   -0.1075    0.1539    0.0464
          46   -0.0155    0.0002    0.0001    0.0009   -0.0000   -0.0002   -0.0002    0.0000
          47   -0.0190    0.0000   -0.0000    0.2126   -0.0005    0.0001    0.0002   -0.0000
          48    0.0000   -0.2620   -0.1484   -0.0000    0.0303    0.3619    0.3580   -0.0194


   Root No.      17        18        19        20        21        22        23        24

                17 A      18 A      19 A      20 A      21 A      22 A      23 A      24 A   

                 997.2    1013.7    1036.7    1053.5    1108.7    1121.4    1153.4    1163.0
  
           1    0.1331    0.0000    0.0000   -0.0377    0.0678   -0.0338    0.0860   -0.0221
           2    0.1708    0.0000    0.0000    0.0109   -0.0306   -0.1949   -0.0555    0.0517
           3   -0.0001   -0.1240   -0.1879    0.0000    0.0000   -0.0001    0.0000    0.0000
           4    0.1189    0.0001    0.0000    0.3007    0.0439   -0.2221   -0.0280   -0.1518
           5   -0.1915    0.0000    0.0000   -0.2687    0.1316    0.2684   -0.0265    0.0243
           6   -0.0000    0.2315    0.1686    0.0001   -0.0001   -0.0001   -0.0000    0.0000
           7   -0.3104   -0.0001   -0.0000   -0.2872   -0.2150    0.2398   -0.0037    0.1273
           8    0.0619    0.0000    0.0000    0.1011   -0.0810   -0.0696    0.0210   -0.0743
           9    0.0000    0.2045    0.1240   -0.0000    0.0000   -0.0000    0.0000   -0.0000
          10    0.2093    0.0001   -0.0001   -0.2148   -0.0542    0.1421   -0.0212    0.0685
          11    0.0482   -0.0000    0.0001   -0.0932   -0.0191    0.0421   -0.0074    0.0442
          12    0.0001   -0.0748    0.3234   -0.0001    0.0000    0.0001   -0.0000    0.0000
          13   -0.2357   -0.0001   -0.0000   -0.0832   -0.0995   -0.1918   -0.0301   -0.0485
          14    0.0080   -0.0001   -0.0000    0.0688    0.0539    0.0502    0.0330    0.0198
          15    0.0001   -0.3295   -0.1285    0.0000    0.0000    0.0001   -0.0000    0.0000
          16    0.1144    0.0001    0.0000    0.0019    0.0921   -0.1824   -0.0115    0.0025
          17    0.1680    0.0001    0.0000    0.0465    0.0085   -0.3291    0.0208   -0.0237
          18   -0.0002    0.3513    0.0981    0.0000   -0.0000    0.0001   -0.0000    0.0000
          19    0.0958   -0.0001   -0.0000    0.1409   -0.0877    0.0535   -0.0248    0.1063
          20   -0.1578   -0.0001   -0.0000   -0.0861    0.1053   -0.1189    0.0227   -0.0337
          21    0.0001   -0.3106   -0.1009   -0.0000    0.0000   -0.0000    0.0000   -0.0000
          22   -0.2660   -0.0002    0.0002    0.1119   -0.0043    0.0037    0.0091   -0.0386
          23   -0.2133    0.0000   -0.0001    0.0394    0.0262    0.0054    0.0112    0.0106
          24   -0.0001    0.2062   -0.4442    0.0000   -0.0000   -0.0000   -0.0000   -0.0000
          25    0.0825   -0.0000    0.0001   -0.0812   -0.0259    0.0729   -0.0070    0.0154
          26    0.2473    0.0000   -0.0000   -0.2448   -0.1117    0.3923   -0.0070   -0.0435
          27   -0.0000    0.0504   -0.2420   -0.0000    0.0000   -0.0001   -0.0000    0.0000
          28    0.0415    0.0001    0.0000    0.2633    0.2663    0.1945    0.0852   -0.4761
          29   -0.0567   -0.0001   -0.0001    0.0185    0.1829    0.2316    0.0421   -0.2311
          30    0.0001   -0.2165   -0.1983    0.0001   -0.0000   -0.0001   -0.0000    0.0001
          31   -0.0701    0.0001    0.0000   -0.0194   -0.0281   -0.0593   -0.0154   -0.0132
          32    0.0072    0.0001    0.0000    0.4716   -0.1439    0.1870   -0.4601    0.5573
          33   -0.0001    0.3265    0.1164   -0.0001    0.0000   -0.0001    0.0001   -0.0002
          34    0.0599   -0.0001   -0.0000   -0.0506    0.5893    0.0475   -0.4903   -0.0170
          35    0.0355   -0.0001   -0.0000    0.0477   -0.3250   -0.1622    0.2923    0.0064
          36    0.0001   -0.3474   -0.0815   -0.0000   -0.0001    0.0000    0.0001   -0.0000
          37    0.1019    0.0001    0.0000    0.3244    0.2055    0.3251    0.5255    0.2727
          38   -0.0046    0.0000   -0.0000    0.1365    0.1603    0.1364    0.3115    0.1224
          39   -0.0002    0.3037    0.0834   -0.0001   -0.0001   -0.0001   -0.0002   -0.0001
          40   -0.0924   -0.0001   -0.0000   -0.0819   -0.0718    0.0799   -0.0022    0.0346
          41    0.0726   -0.0000   -0.0000    0.2793   -0.4588    0.3202   -0.2505   -0.4901
          42    0.0000   -0.1786   -0.1124    0.0001    0.0000   -0.0001    0.0000    0.0000
          43    0.3799    0.0002   -0.0002   -0.1286   -0.0421   -0.0096   -0.0131    0.0370
          44   -0.3251   -0.0001    0.0000    0.1011    0.0310    0.0127    0.0125   -0.0241
          45    0.0002   -0.2513    0.4735   -0.0001   -0.0000   -0.0000   -0.0000    0.0000
          46   -0.0180    0.0001   -0.0003    0.0066   -0.0065    0.0082    0.0007   -0.0039
          47    0.3892   -0.0000    0.0002   -0.1841   -0.0073    0.0780   -0.0073    0.0377
          48   -0.0002   -0.2206    0.4698    0.0001    0.0000   -0.0000    0.0000   -0.0000


   Root No.      25        26        27        28        29        30        31        32

                25 A      26 A      27 A      28 A      29 A      30 A      31 A      32 A   

                1212.1    1236.3    1310.4    1349.1    1392.3    1542.1    1606.7    1777.2
  
           1    0.0692    0.1172   -0.1084    0.3424    0.2096    0.3715    0.3061    0.4556
           2   -0.1466   -0.0047   -0.1517   -0.2107    0.3681   -0.2240    0.4770   -0.2584
           3   -0.0000    0.0000   -0.0000    0.0000    0.0000    0.0000   -0.0000    0.0000
           4    0.0901    0.1607    0.0068   -0.3207    0.1966    0.0549   -0.2576   -0.3008
           5   -0.0944    0.1221   -0.0811   -0.2080    0.1723    0.3555    0.0632    0.0225
           6    0.0000   -0.0000    0.0000    0.0001   -0.0001   -0.0001   -0.0000   -0.0000
           7   -0.1772    0.0705   -0.0880    0.0193    0.0707   -0.2986    0.1549   -0.1506
           8   -0.0433   -0.2067   -0.0729    0.3868    0.2585   -0.1801   -0.2213    0.3031
           9    0.0000   -0.0000    0.0000   -0.0000   -0.0000    0.0001   -0.0000   -0.0000
          10   -0.2251    0.0622    0.1704    0.0064   -0.2714   -0.0371   -0.1860   -0.0033
          11   -0.1494    0.0659   -0.1501    0.0110   -0.2282   -0.0274   -0.0436   -0.0759
          12   -0.0001    0.0000    0.0001   -0.0000   -0.0001    0.0000   -0.0001    0.0000
          13    0.1307   -0.0451    0.1188    0.0036   -0.2908   -0.2959    0.0410    0.1715
          14    0.0927    0.0931   -0.0665    0.4137    0.1283   -0.1977   -0.3839   -0.2865
          15   -0.0001   -0.0000   -0.0000   -0.0001    0.0000    0.0001    0.0001    0.0000
          16    0.0472   -0.2188    0.0493    0.3412   -0.1500    0.3349    0.1625   -0.4553
          17    0.1784    0.0766    0.1132   -0.2006   -0.2365   -0.2239    0.2182    0.2828
          18   -0.0001    0.0001   -0.0000   -0.0001    0.0001   -0.0000   -0.0001    0.0000
          19   -0.1523   -0.0583   -0.0473   -0.3605    0.2421    0.0831   -0.3651    0.2868
          20    0.0828   -0.0796    0.1374   -0.2050   -0.2166    0.3567   -0.1209   -0.0507
          21    0.0000    0.0000    0.0000    0.0001   -0.0000   -0.0000    0.0001   -0.0001
          22    0.2365   -0.1016    0.0064   -0.0113    0.1530   -0.0141    0.0855   -0.0267
          23   -0.0312    0.0585   -0.0644    0.0272   -0.1862    0.0653   -0.1523    0.0816
          24    0.0001   -0.0001    0.0000   -0.0000    0.0001   -0.0000    0.0001   -0.0000
          25   -0.0153   -0.0131    0.0580   -0.0063   -0.0737   -0.0135   -0.0612    0.0041
          26    0.6493   -0.4242    0.0128   -0.1544    0.0803   -0.0625   -0.0184   -0.0385
          27   -0.0001    0.0001    0.0000    0.0000   -0.0000   -0.0000   -0.0000    0.0000
          28   -0.3170   -0.4096    0.0028   -0.0533   -0.1203   -0.1521    0.0868    0.0004
          29   -0.2248   -0.2207   -0.0317   -0.0415   -0.0431    0.0254    0.1223    0.0629
          30    0.0001    0.0001   -0.0000    0.0000    0.0000   -0.0000   -0.0000   -0.0000
          31    0.0408   -0.0180    0.0397    0.0005   -0.0988   -0.1002    0.0165    0.0599
          32   -0.0802   -0.2669    0.0569    0.0274   -0.1443    0.0928    0.1326    0.0321
          33    0.0000    0.0001   -0.0000    0.0001    0.0001   -0.0000   -0.0000   -0.0000
          34    0.1708    0.2159   -0.0032    0.0364   -0.0385   -0.1787    0.0388    0.0583
          35   -0.0333   -0.1431    0.0493   -0.0217   -0.0877    0.0951    0.0847   -0.0285
          36   -0.0000   -0.0000   -0.0000    0.0000    0.0000    0.0000   -0.0000   -0.0000
          37    0.1074    0.2474    0.0004   -0.0220   -0.0647   -0.1457    0.0967    0.0095
          38    0.1158    0.1261    0.0545   -0.0129   -0.1551    0.0234    0.0849   -0.0680
          39   -0.0000   -0.0001   -0.0000   -0.0000    0.0000    0.0000   -0.0000    0.0000
          40   -0.0562    0.0321   -0.0289    0.0065    0.0237   -0.0983    0.0587   -0.0514
          41    0.1076    0.4260    0.0287    0.0647   -0.1256    0.1048    0.1360   -0.0309
          42   -0.0000   -0.0000    0.0000   -0.0001    0.0000    0.0000   -0.0000    0.0000
          43   -0.0485    0.0132   -0.5012   -0.0338   -0.2413    0.0119   -0.0662    0.0112
          44    0.0585   -0.0070    0.3033    0.0285    0.1163    0.0109    0.0029    0.0170
          45   -0.0000    0.0000   -0.0004   -0.0000   -0.0002   -0.0000   -0.0000   -0.0000
          46    0.0524   -0.0225    0.0595    0.0014    0.0620   -0.0093    0.0323   -0.0134
          47   -0.2105    0.0776    0.6868    0.0597    0.1532   -0.0291    0.0193   -0.0101
          48    0.0001   -0.0000   -0.0001   -0.0000    0.0000    0.0000    0.0000    0.0000


   Root No.      33        34        35        36        37        38        39        40

                33 A      34 A      35 A      36 A      37 A      38 A      39 A      40 A   

                1797.5    1848.5    3003.4    3035.9    3051.8    3059.1    3067.0    3078.8
  
           1   -0.1880   -0.0224   -0.0101   -0.0005    0.0036   -0.0004    0.0037    0.0011
           2   -0.2451   -0.2124   -0.0013    0.0023   -0.0075   -0.0063   -0.0048    0.0056
           3    0.0000    0.0000    0.0000   -0.0000    0.0000    0.0000    0.0000   -0.0000
           4    0.3817    0.0174    0.1360   -0.0001    0.0034    0.0055   -0.0022   -0.0031
           5    0.3114    0.0394   -0.2497    0.0061   -0.0031   -0.0190    0.0209    0.0180
           6   -0.0001   -0.0000    0.0001   -0.0000    0.0000    0.0000   -0.0000   -0.0000
           7    0.1075   -0.0361    0.0034   -0.0171   -0.2349   -0.1139   -0.1093    0.0677
           8    0.4470    0.0503    0.0009   -0.0020    0.0073   -0.0003   -0.0058    0.0062
           9   -0.0001   -0.0000    0.0000    0.0000    0.0000    0.0000    0.0000   -0.0000
          10    0.0643   -0.1806   -0.0054   -0.2850    0.0149    0.0054    0.0035   -0.0000
          11   -0.0376    0.7089    0.0047    0.0394   -0.0005    0.0012   -0.0009   -0.0035
          12    0.0000   -0.0003   -0.0000   -0.0001    0.0000    0.0000    0.0000    0.0000
          13   -0.1120    0.0075   -0.0249    0.0008   -0.0254    0.1543   -0.1960   -0.1450
          14   -0.4107   -0.0430    0.0114   -0.0003   -0.0008    0.0067    0.0012    0.0085
          15    0.0001    0.0000    0.0000    0.0000    0.0000   -0.0000    0.0001    0.0000
          16    0.1178   -0.0354   -0.0010    0.0002    0.0278   -0.1035   -0.0037   -0.1017
          17    0.1371    0.0234    0.0004   -0.0002    0.0538   -0.1715   -0.0350   -0.1726
          18   -0.0001    0.0000    0.0000    0.0000   -0.0000    0.0001    0.0000    0.0001
          19   -0.3412    0.0283    0.0010    0.0024    0.0791   -0.0239   -0.0852    0.0826
          20   -0.2919    0.0045   -0.0005   -0.0030   -0.1259    0.0641    0.1625   -0.1348
          21    0.0001   -0.0000    0.0000   -0.0000   -0.0000   -0.0000    0.0000   -0.0000
          22   -0.0406    0.2540    0.0520    0.0172   -0.0005    0.0093   -0.0148   -0.0343
          23    0.0788   -0.5420   -0.0103    0.0016   -0.0004   -0.0024    0.0031    0.0078
          24   -0.0000    0.0003    0.0000    0.0000   -0.0000    0.0000   -0.0000   -0.0000
          25    0.0242   -0.1044    0.0210    0.9489   -0.0512   -0.0188   -0.0108    0.0031
          26    0.0105   -0.0591   -0.0002   -0.0726    0.0063    0.0027    0.0016   -0.0014
          27    0.0000   -0.0001    0.0000    0.0005   -0.0000   -0.0000   -0.0000    0.0000
          28   -0.0716   -0.0162   -0.4592    0.0087   -0.0040   -0.0238    0.0224    0.0163
          29   -0.0044   -0.0002    0.8131   -0.0141    0.0062    0.0481   -0.0463   -0.0324
          30   -0.0000    0.0000   -0.0004    0.0000   -0.0000   -0.0000    0.0000    0.0000
          31   -0.0370    0.0030    0.1048   -0.0035    0.0842   -0.5158    0.6441    0.4543
          32    0.0435    0.0042   -0.0063    0.0001    0.0005    0.0002   -0.0060   -0.0072
          33   -0.0000   -0.0000   -0.0000    0.0000   -0.0000    0.0001   -0.0002   -0.0001
          34    0.0274    0.0023    0.0030    0.0004   -0.1006    0.3435    0.0478    0.3196
          35    0.0546   -0.0005    0.0067    0.0005   -0.1770    0.5830    0.0957    0.5454
          36   -0.0000   -0.0000   -0.0000   -0.0000    0.0001   -0.0002   -0.0000   -0.0002
          37    0.0556   -0.0028   -0.0014   -0.0071   -0.2536    0.1046    0.2947   -0.2460
          38   -0.0021   -0.0048    0.0027    0.0119    0.4398   -0.1967   -0.5240    0.4283
          39   -0.0000    0.0000    0.0000    0.0000    0.0000   -0.0000   -0.0000    0.0000
          40    0.0338   -0.0156   -0.0207    0.0547    0.7803    0.3738    0.3475   -0.2034
          41   -0.0600   -0.0142    0.0003   -0.0037   -0.0142   -0.0040   -0.0015    0.0002
          42   -0.0000    0.0000    0.0000   -0.0000   -0.0002   -0.0001   -0.0001    0.0000
          43    0.0219   -0.1006    0.0070   -0.0473    0.0029    0.0029   -0.0020   -0.0065
          44    0.0074   -0.0848    0.0040   -0.0688    0.0042    0.0032   -0.0014   -0.0061
          45    0.0000   -0.0000    0.0000   -0.0000    0.0000    0.0000   -0.0000   -0.0000
          46   -0.0182    0.1221   -0.1758    0.0188   -0.0022   -0.0339    0.0511    0.1206
          47   -0.0117    0.0588    0.0235   -0.0049    0.0004    0.0039   -0.0055   -0.0126
          48   -0.0000    0.0001   -0.0001    0.0000   -0.0000   -0.0000    0.0000    0.0001


   Root No.      41        42

                41 A      42 A   

                3085.4    3152.0
  
           1   -0.0037   -0.0004
           2    0.0005    0.0034
           3    0.0000   -0.0000
           4    0.0267    0.0011
           5   -0.0508   -0.0010
           6    0.0000    0.0000
           7   -0.0063    0.0004
           8    0.0002   -0.0008
           9    0.0000    0.0000
          10    0.0140   -0.0325
          11   -0.0223    0.0221
          12    0.0000   -0.0000
          13    0.0304    0.0003
          14    0.0011    0.0000
          15   -0.0000   -0.0000
          16    0.0097    0.0002
          17    0.0182    0.0002
          18   -0.0000   -0.0000
          19   -0.0069   -0.0001
          20    0.0105    0.0001
          21    0.0000   -0.0000
          22   -0.2616   -0.1459
          23    0.0634   -0.2522
          24   -0.0002   -0.0000
          25   -0.0133    0.0741
          26   -0.0026   -0.0106
          27   -0.0000    0.0000
          28   -0.0871   -0.0016
          29    0.1667    0.0065
          30   -0.0001   -0.0000
          31   -0.0934   -0.0012
          32    0.0000   -0.0000
          33    0.0000    0.0000
          34   -0.0313   -0.0005
          35   -0.0541   -0.0009
          36    0.0000    0.0000
          37    0.0189    0.0003
          38   -0.0328   -0.0004
          39   -0.0000   -0.0000
          40    0.0180   -0.0004
          41    0.0001   -0.0002
          42   -0.0000   -0.0000
          43   -0.0550    0.4875
          44   -0.0561    0.8166
          45   -0.0000    0.0001
          46    0.9259    0.0525
          47   -0.0928   -0.0240
          48    0.0006    0.0000


          DESCRIPTION OF VIBRATIONS


 VIBRATION          1    1A           ATOM PAIR      ENERGY CONTRIBUTION    RADIAL
 FREQUENCY            80.82         C  4 -- C  8         +35.7% (514.2%)      0.0%
 TRANSITION DIPOLE   0.0381         C  8 -- H 15          +8.9% (256.4%)      0.0%
 TRAVEL (Ang.)       0.7674         C  1 -- C  4          +7.4% (233.8%)      0.0%
 REDUCED MASS        1.4166         C  8 -- H 16          +7.3% (231.9%)      0.0%
 EFFECTIVE MASS    172.0796
 FORCE CONSTANT      0.0055

 VIBRATION          2    2A           ATOM PAIR      ENERGY CONTRIBUTION    RADIAL
 FREQUENCY           190.70         C  1 -- C  4         +17.8% (166.6%)      0.0%
 TRANSITION DIPOLE   0.0958         C  6 -- C  7          +9.4% (120.9%)      0.0%
 TRAVEL (Ang.)       0.5792         C  5 -- C  6          +8.1% (112.4%)      0.0%
 REDUCED MASS        1.0541         C  8 -- H 16          +7.9% (110.8%)      0.0%
 EFFECTIVE MASS     30.1958
 FORCE CONSTANT      0.0226

 VIBRATION          3    3A           ATOM PAIR      ENERGY CONTRIBUTION    RADIAL
 FREQUENCY           271.93         C  4 -- C  8         +16.1% (244.8%)      0.1%
 TRANSITION DIPOLE   0.0483         C  8 -- H 15         +10.8% (200.6%)     93.3%
 TRAVEL (Ang.)       0.3769         C  8 -- H 16         +10.0% (192.9%)     98.7%
 REDUCED MASS        1.7459         C  1 -- C  2          +8.3% (175.9%)      0.1%
 EFFECTIVE MASS     52.0329
 FORCE CONSTANT      0.0761

 VIBRATION          4    4A           ATOM PAIR      ENERGY CONTRIBUTION    RADIAL
 FREQUENCY           359.70         C  2 -- C  5         +24.2% (109.3%)      0.0%
 TRANSITION DIPOLE   0.0200         C  3 -- C  7         +23.4% (107.3%)      0.0%
 TRAVEL (Ang.)       0.3973         C  1 -- C  3          +9.2% ( 67.4%)      0.0%
 REDUCED MASS        1.1876         C  5 -- C  6          +8.5% ( 64.8%)      0.0%
 EFFECTIVE MASS     16.9726
 FORCE CONSTANT      0.0905

 VIBRATION          5    5A           ATOM PAIR      ENERGY CONTRIBUTION    RADIAL
[...]
 REDUCED MASS        0.2582         C  7 -- H 13          +8.0% ( 29.4%)      5.5%
 EFFECTIVE MASS      1.9664
 FORCE CONSTANT      0.2058

 VIBRATION         25   25A           ATOM PAIR      ENERGY CONTRIBUTION    RADIAL
 FREQUENCY          1212.05         C  4 -- H  9         +30.3% ( 68.8%)      3.0%
 TRANSITION DIPOLE   0.0497         C  2 -- H 10         +10.1% ( 39.8%)      3.5%
 TRAVEL (Ang.)       0.3893         C  4 -- C  8          +8.6% ( 36.7%)      4.2%
 REDUCED MASS        0.3671         C  1 -- C  3          +5.5% ( 29.2%)     62.2%
 EFFECTIVE MASS      4.4756
 FORCE CONSTANT      0.3177

 VIBRATION         26   26A           ATOM PAIR      ENERGY CONTRIBUTION    RADIAL
 FREQUENCY          1236.31         C  2 -- H 10         +19.9% ( 52.6%)      0.2%
 TRANSITION DIPOLE   0.0293         C  3 -- H 14         +17.4% ( 49.2%)      0.5%
 TRAVEL (Ang.)       0.4990         C  4 -- H  9         +12.6% ( 41.8%)      0.5%
 REDUCED MASS        0.2191         C  6 -- H 12          +9.9% ( 37.2%)      0.4%
 EFFECTIVE MASS      2.5437
 FORCE CONSTANT      0.1973

 VIBRATION         27   27A           ATOM PAIR      ENERGY CONTRIBUTION    RADIAL
 FREQUENCY          1310.36         C  8 -- H 16         +33.3% ( 60.3%)      0.1%
 TRANSITION DIPOLE   0.1432         C  8 -- H 15         +22.0% ( 49.0%)      0.9%
 TRAVEL (Ang.)       0.3552         C  1 -- C  4          +8.7% ( 30.8%)     26.9%
 REDUCED MASS        0.4079         C  4 -- H  9          +4.7% ( 22.6%)     40.2%
 EFFECTIVE MASS      2.8875
 FORCE CONSTANT      0.4127

 VIBRATION         28   28A           ATOM PAIR      ENERGY CONTRIBUTION    RADIAL
 FREQUENCY          1349.09         C  6 -- C  7         +12.2% ( 63.0%)    100.0%
 TRANSITION DIPOLE   0.0398         C  3 -- C  7         +12.2% ( 63.0%)     99.9%
 TRAVEL (Ang.)       0.1647         C  5 -- C  6         +12.2% ( 62.9%)    100.0%
 REDUCED MASS        1.8432         C  2 -- C  5         +12.2% ( 62.8%)     99.8%
 EFFECTIVE MASS     11.5079         C  1 -- C  3         +11.6% ( 61.4%)    100.0%
 FORCE CONSTANT      1.9765         C  1 -- C  2         +11.4% ( 60.8%)    100.0%

 VIBRATION         29   29A           ATOM PAIR      ENERGY CONTRIBUTION    RADIAL
 FREQUENCY          1392.32         C  1 -- C  4         +16.3% ( 60.6%)     98.1%
 TRANSITION DIPOLE   0.3200         C  6 -- C  7          +8.7% ( 44.2%)     99.7%
 TRAVEL (Ang.)       0.2124         C  3 -- C  7          +8.4% ( 43.7%)     40.6%
 REDUCED MASS        1.0738         C  5 -- C  6          +8.4% ( 43.7%)     97.8%
 EFFECTIVE MASS     10.2640
 FORCE CONSTANT      1.2265

 VIBRATION         30   30A           ATOM PAIR      ENERGY CONTRIBUTION    RADIAL
 FREQUENCY          1542.08         C  2 -- C  5         +12.7% ( 52.7%)     99.9%
 TRANSITION DIPOLE   0.5300         C  3 -- C  7         +12.6% ( 52.5%)     99.3%
 TRAVEL (Ang.)       0.1689         C  1 -- C  3         +11.8% ( 50.7%)     29.8%
 REDUCED MASS        1.5331         C  1 -- C  2         +11.6% ( 50.3%)     23.0%
 EFFECTIVE MASS     10.9165         C  5 -- C  6         +10.6% ( 48.1%)     28.1%
 FORCE CONSTANT      2.1480         C  6 -- C  7         +10.4% ( 47.5%)     16.2%

 VIBRATION         31   31A           ATOM PAIR      ENERGY CONTRIBUTION    RADIAL
 FREQUENCY          1606.70         C  1 -- C  3         +15.5% ( 57.5%)     56.0%
 TRANSITION DIPOLE   0.4208         C  1 -- C  2         +15.5% ( 57.5%)     65.0%
 TRAVEL (Ang.)       0.1453         C  1 -- C  4         +13.6% ( 53.9%)     95.3%
 REDUCED MASS        1.9875         C  6 -- C  7          +9.4% ( 44.8%)     70.2%
 EFFECTIVE MASS     11.0304
 FORCE CONSTANT      3.0229

 VIBRATION         32   32A           ATOM PAIR      ENERGY CONTRIBUTION    RADIAL
 FREQUENCY          1777.25         C  5 -- C  6         +15.6% ( 54.6%)     90.3%
 TRANSITION DIPOLE   0.0635         C  1 -- C  3         +15.1% ( 53.8%)     90.6%
 TRAVEL (Ang.)       0.1260         C  6 -- C  7         +14.3% ( 52.3%)     83.6%
 REDUCED MASS        2.3895         C  1 -- C  2         +14.2% ( 52.2%)     87.9%
 EFFECTIVE MASS     11.8654
 FORCE CONSTANT      4.4469

 VIBRATION         33   33A           ATOM PAIR      ENERGY CONTRIBUTION    RADIAL
 FREQUENCY          1797.55         C  2 -- C  5         +16.8% ( 56.8%)     99.5%
 TRANSITION DIPOLE   0.1251         C  3 -- C  7         +16.2% ( 55.9%)    100.0%
 TRAVEL (Ang.)       0.1291         C  1 -- C  2         +12.3% ( 48.7%)     51.2%
 REDUCED MASS        2.2497         C  1 -- C  3         +10.7% ( 45.3%)     37.2%
 EFFECTIVE MASS     11.8240
 FORCE CONSTANT      4.2830

 VIBRATION         34   34A           ATOM PAIR      ENERGY CONTRIBUTION    RADIAL
 FREQUENCY          1848.50         C  4 -- C  8         +42.9% ( 96.8%)     98.5%
 TRANSITION DIPOLE   0.0541         C  1 -- C  4         +18.5% ( 63.6%)     57.6%
 TRAVEL (Ang.)       0.0854         C  4 -- H  9         +15.6% ( 58.3%)      3.3%
 REDUCED MASS        5.0066         C  8 -- H 16         +10.0% ( 46.8%)      9.4%
 EFFECTIVE MASS     11.8151
 FORCE CONSTANT     10.0793

 VIBRATION         35   35A           ATOM PAIR      ENERGY CONTRIBUTION    RADIAL
 FREQUENCY          3003.38         C  2 -- H 10         +92.2% ( 97.7%)    100.0%
 TRANSITION DIPOLE   0.3513         C  8 -- H 16          +3.5% ( 19.0%)     99.7%
 TRAVEL (Ang.)       0.1629         C  1 -- C  2          +1.5% ( 12.4%)     25.7%
 REDUCED MASS        0.8460         C  2 -- C  5          +1.5% ( 12.4%)     22.0%
 EFFECTIVE MASS      1.5242
 FORCE CONSTANT      4.4960

 VIBRATION         36   36A           ATOM PAIR      ENERGY CONTRIBUTION    RADIAL
 FREQUENCY          3035.95         C  4 -- H  9         +96.0% ( 99.4%)    100.0%
 TRANSITION DIPOLE   0.2661         C  4 -- C  8          +1.5% ( 12.3%)     30.2%
 TRAVEL (Ang.)       0.1563         C  1 -- C  4          +1.4% ( 12.1%)     15.8%
 REDUCED MASS        0.9092         C  8 -- H 15          +0.7% (  8.6%)     95.8%
 EFFECTIVE MASS      1.5125
 FORCE CONSTANT      4.9374

 VIBRATION         37   37A           ATOM PAIR      ENERGY CONTRIBUTION    RADIAL
 FREQUENCY          3051.77         C  3 -- H 14         +64.4% ( 81.6%)    100.0%
 TRANSITION DIPOLE   0.1802         C  7 -- H 13         +27.3% ( 53.1%)    100.0%
 TRAVEL (Ang.)       0.2134         C  6 -- H 12          +4.4% ( 21.3%)    100.0%
 REDUCED MASS        0.4853         C  3 -- C  7          +1.3% ( 11.5%)      1.7%
 EFFECTIVE MASS      1.5004
 FORCE CONSTANT      2.6628

 VIBRATION         38   38A           ATOM PAIR      ENERGY CONTRIBUTION    RADIAL
 FREQUENCY          3059.05         C  6 -- H 12         +48.5% ( 70.8%)    100.0%
 TRANSITION DIPOLE   0.1881         C  5 -- H 11         +28.2% ( 54.0%)    100.0%
 TRAVEL (Ang.)       0.2572         C  3 -- H 14         +14.8% ( 39.0%)    100.0%
 REDUCED MASS        0.3333         C  7 -- H 13          +5.3% ( 23.3%)     99.7%
 EFFECTIVE MASS      1.5015
 FORCE CONSTANT      1.8378

 VIBRATION         39   39A           ATOM PAIR      ENERGY CONTRIBUTION    RADIAL
 FREQUENCY          3067.02         C  5 -- H 11         +43.9% ( 67.3%)    100.0%
 TRANSITION DIPOLE   0.5263         C  7 -- H 13         +38.3% ( 62.8%)    100.0%
 TRAVEL (Ang.)       0.2495         C  3 -- H 14         +12.8% ( 36.3%)    100.0%
 REDUCED MASS        0.3531         C  6 -- H 12          +1.2% ( 11.2%)     97.6%
 EFFECTIVE MASS      1.5341
 FORCE CONSTANT      1.9571

 VIBRATION         40   40A           ATOM PAIR      ENERGY CONTRIBUTION    RADIAL
 FREQUENCY          3078.82         C  6 -- H 12         +42.5% ( 66.1%)    100.0%
 TRANSITION DIPOLE   0.3947         C  7 -- H 13         +25.9% ( 51.6%)    100.0%
 TRAVEL (Ang.)       0.2709         C  5 -- H 11         +22.0% ( 47.5%)    100.0%
 REDUCED MASS        0.2984         C  3 -- H 14          +4.4% ( 21.3%)     99.9%
 EFFECTIVE MASS      1.5908
 FORCE CONSTANT      1.6663

 VIBRATION         41   41A           ATOM PAIR      ENERGY CONTRIBUTION    RADIAL
 FREQUENCY          3085.44         C  8 -- H 16         +91.9% ( 96.7%)     99.9%
 TRANSITION DIPOLE   0.1721         C  2 -- H 10          +3.6% ( 19.1%)    100.0%
 TRAVEL (Ang.)       0.1632         C  8 -- H 15          +1.4% ( 11.9%)      0.0%
 REDUCED MASS        0.8203         C  4 -- C  8          +1.3% ( 11.7%)     47.4%
 EFFECTIVE MASS      1.4828
 FORCE CONSTANT      4.6012

 VIBRATION         42   42A           ATOM PAIR      ENERGY CONTRIBUTION    RADIAL
 FREQUENCY          3152.02         C  8 -- H 15         +96.0% ( 99.4%)    100.0%
 TRANSITION DIPOLE   0.3092         C  8 -- H 16          +1.9% ( 13.9%)     33.8%
 TRAVEL (Ang.)       0.1532         C  4 -- C  8          +1.5% ( 12.4%)     43.6%
 REDUCED MASS        0.9113         C  4 -- H  9          +0.6% (  7.9%)     95.5%
 EFFECTIVE MASS      1.5292
 FORCE CONSTANT      5.3347

      SYMMETRY NUMBER FOR POINT-GROUP C1  =  1


          SYSTEM IS A GROUND STATE



 InChI=1S/C8H8/c1-2-8-6-4-3-5-7-8/h2-7H,1H2


          MOLECULE IS NOT LINEAR

          THERE ARE 42 GENUINE VIBRATIONS IN THIS SYSTEM
          THIS THERMODYNAMICS CALCULATION IS LIMITED TO
          MOLECULES WHICH HAVE NO INTERNAL ROTATIONS




                    CALCULATED THERMODYNAMIC PROPERTIES
                                          *
   TEMP. (K)   PARTITION FUNCTION   H.O.F.    ENTHALPY  HEAT CAPACITY ENTROPY
                                   KCAL/MOL   CAL/MOLE    CAL/K/MOL  CAL/K/MOL


 298.00  VIB.     0.1543D+02                  2453.3215    20.2178    13.6708
         ROT.     0.2748D+06                   888.2803     2.9808    27.8680
         INT.     0.4241D+07                  3341.6018    23.1986    41.5388
         TRA.     0.1028D+28                  1480.4672     4.9680    39.8370
         TOT.                       39.090    4822.0689    28.1666    81.3758

 200.00  VIB.     0.4415D+01                   918.9805    11.2674     7.5460
         ROT.     0.1511D+06                   596.1613     2.9808    26.6793
         INT.     0.6670D+06                  1515.1418    14.2482    34.2253
         TRA.     0.5650D+27                   993.6021     4.9680    37.8559
         TOT.                       36.777    2508.7439    19.2162    72.0812

 210.00  VIB.     0.4963D+01                  1035.8918    12.1185     8.1163
         ROT.     0.1625D+06                   625.9693     2.9808    26.8247
         INT.     0.8067D+06                  1661.8612    15.0993    34.9410
         TRA.     0.6079D+27                  1043.2822     4.9680    38.0983
         TOT.                       36.973    2705.1434    20.0673    73.0393

 220.00  VIB.     0.5593D+01                  1161.4199    12.9904     8.7001
         ROT.     0.1743D+06                   655.7774     2.9808    26.9634
         INT.     0.9748D+06                  1817.1973    15.9712    35.6635
         TRA.     0.6518D+27                  1092.9623     4.9680    38.3294
         TOT.                       37.178    2910.1596    20.9392    73.9929

 230.00  VIB.     0.6318D+01                  1295.7605    13.8806     9.2971
         ROT.     0.1863D+06                   685.5855     2.9808    27.0959
         INT.     0.1177D+07                  1981.3460    16.8614    36.3930
         TRA.     0.6968D+27                  1142.6424     4.9680    38.5502
         TOT.                       37.392    3123.9885    21.8294    74.9432

 240.00  VIB.     0.7156D+01                  1439.0851    14.7867     9.9070
         ROT.     0.1986D+06                   715.3935     2.9808    27.2228
         INT.     0.1421D+07                  2154.4786    17.7675    37.1297
         TRA.     0.7427D+27                  1192.3226     4.9680    38.7617
         TOT.                       37.615    3346.8011    22.7355    75.8914

 250.00  VIB.     0.8125D+01                  1591.5386    15.7060    10.5292
         ROT.     0.2111D+06                   745.2016     2.9808    27.3444
         INT.     0.1715D+07                  2336.7402    18.6868    37.8736
         TRA.     0.7896D+27                  1242.0027     4.9680    38.9645
         TOT.                       37.847    3578.7429    23.6548    76.8381

 260.00  VIB.     0.9246D+01                  1753.2393    16.6357    11.1633
         ROT.     0.2239D+06                   775.0097     2.9808    27.4614
         INT.     0.2071D+07                  2528.2490    19.6165    38.6246
         TRA.     0.8374D+27                  1291.6828     4.9680    39.1593
         TOT.                       38.088    3819.9318    24.5845    77.7839

 270.00  VIB.     0.1055D+02                  1924.2785    17.5732    11.8087
         ROT.     0.2370D+06                   804.8177     2.9808    27.5739
         INT.     0.2500D+07                  2729.0962    20.5540    39.3825
         TRA.     0.8862D+27                  1341.3629     4.9680    39.3468
         TOT.                       38.338    4070.4591    25.5220    78.7293

 280.00  VIB.     0.1206D+02                  2104.7207    18.5159    12.4648
         ROT.     0.2503D+06                   834.6258     2.9808    27.6823
         INT.     0.3018D+07                  2939.3465    21.4967    40.1470
         TRA.     0.9359D+27                  1391.0430     4.9680    39.5275
         TOT.                       38.598    4330.3895    26.4647    79.6745

 290.00  VIB.     0.1382D+02                  2294.6050    19.4612    13.1310
         ROT.     0.2638D+06                   864.4339     2.9808    27.7869
         INT.     0.3645D+07                  3159.0389    22.4420    40.9179
         TRA.     0.9865D+27                  1440.7231     4.9680    39.7018
         TOT.                       38.868    4599.7620    27.4100    80.6197

 300.00  VIB.     0.1587D+02                  2493.9462    20.4069    13.8067
         ROT.     0.2775D+06                   894.2419     2.9808    27.8879
         INT.     0.4405D+07                  3388.1881    23.3877    41.6946
         TRA.     0.1038D+28                  1490.4032     4.9680    39.8702
         TOT.                       39.147    4878.5913    28.3557    81.5649

 310.00  VIB.     0.1826D+02                  2702.7362    21.3506    14.4912
         ROT.     0.2915D+06                   924.0500     2.9808    27.9857
         INT.     0.5325D+07                  3626.7862    24.3315    42.4769
         TRA.     0.1090D+28                  1540.0833     4.9680    40.0331
         TOT.                       39.435    5166.8695    29.2995    82.5100

 320.00  VIB.     0.2106D+02                  2920.9462    22.2905    15.1840
         ROT.     0.3058D+06                   953.8580     2.9808    28.0803
         INT.     0.6440D+07                  3874.8042    25.2713    43.2642
         TRA.     0.1143D+28                  1589.7634     4.9680    40.1909
         TOT.                       39.732    5464.5676    30.2394    83.4551

 330.00  VIB.     0.2434D+02                  3148.5280    23.2247    15.8842
         ROT.     0.3202D+06                   983.6661     2.9808    28.1720
         INT.     0.7793D+07                  4132.1941    26.2055    44.0562
         TRA.     0.1197D+28                  1639.4435     4.9680    40.3437
         TOT.                       40.040    5771.6376    31.1736    84.3999

 340.00  VIB.     0.2818D+02                  3385.4165    24.1516    16.5913
         ROT.     0.3349D+06                  1013.4742     2.9808    28.2610
         INT.     0.9435D+07                  4398.8907    27.1324    44.8523
         TRA.     0.1252D+28                  1689.1236     4.9680    40.4921
         TOT.                       40.356    6088.0143    32.1004    85.3444

 350.00  VIB.     0.3268D+02                  3631.5310    25.0697    17.3047
         ROT.     0.3497D+06                  1043.2822     2.9808    28.3474
         INT.     0.1143D+08                  4674.8132    28.0505    45.6521
         TRA.     0.1308D+28                  1738.8037     4.9680    40.6361
         TOT.                       40.682    6413.6170    33.0185    86.2881

 360.00  VIB.     0.3797D+02                  3886.7775    25.9778    18.0237
         ROT.     0.3648D+06                  1073.0903     2.9808    28.4314
         INT.     0.1385D+08                  4959.8678    28.9586    46.4550
         TRA.     0.1364D+28                  1788.4838     4.9680    40.7760
         TOT.                       41.016    6748.3516    33.9266    87.2311

 370.00  VIB.     0.4419D+02                  4151.0503    26.8748    18.7477
         ROT.     0.3802D+06                  1102.8984     2.9808    28.5130
         INT.     0.1680D+08                  5253.9486    29.8556    47.2607
         TRA.     0.1422D+28                  1838.1639     4.9680    40.9121
         TOT.                       41.360    7092.1126    34.8236    88.1729

 380.00  VIB.     0.5152D+02                  4424.2336    27.7598    19.4762
         ROT.     0.3957D+06                  1132.7064     2.9808    28.5925
         INT.     0.2038D+08                  5556.9400    30.7406    48.0687
         TRA.     0.1480D+28                  1887.8440     4.9680    41.0446
         TOT.                       41.713    7444.7841    35.7086    89.1133

 390.00  VIB.     0.6015D+02                  4706.2034    28.6320    20.2085
         ROT.     0.4114D+06                  1162.5145     2.9808    28.6700
         INT.     0.2475D+08                  5868.7179    31.6128    48.8785
         TRA.     0.1538D+28                  1937.5242     4.9680    41.1737
         TOT.                       42.074    7806.2420    36.5808    90.0522

 400.00  VIB.     0.7034D+02                  4996.8285    29.4908    20.9443
         ROT.     0.4273D+06                  1192.3226     2.9808    28.7454
         INT.     0.3006D+08                  6189.1511    32.4716    49.6897
         TRA.     0.1598D+28                  1987.2043     4.9680    41.2995
         TOT.                       42.444    8176.3553    37.4396    90.9892

   *: NOTE: HEATS OF FORMATION ARE RELATIVE TO THE
            ELEMENTS IN THEIR STANDARD STATE AT 298K
              (=  Standard Enthalpy of Formation).

            Hvib:  Zero-point energy is not included.
                   frequencies of less than zero cm-1 are not included.
            Hrot = (3/2)RT
            Htra = (3/2)RT + pV = (5/2)RT

            Heat capacity is Cp, not Cv

          For more information, see: HTTP://OpenMOPAC.net/Manual/thermochemistry.html


           FORCE CONSTANT IN CARTESIAN COORDINATES (Millidynes/A)

    ATOM   CHEMICAL       X               Y               Z
   NUMBER   SYMBOL  FORCE CONSTANT  FORCE CONSTANT  FORCE CONSTANT

      1       C       12.425939       12.811681        2.576207
      2       C       11.893628       12.321143        2.329014
      3       C       12.026366       12.192990        2.325945
      4       C       10.800422       14.442408        2.231576
      5       C       12.132374       12.051896        2.319666
      6       C       12.043541       12.119632        2.323446
      7       C       12.065399       12.114814        2.323020
      8       C       10.002260       14.304328        1.938403
      9       H        5.040792        0.816959        0.351739
     10       H        1.813037        3.969861        0.375679
     11       H        5.162178        0.756889        0.352869
     12       H        1.884344        4.040438        0.351056
     13       H        1.832778        4.085507        0.352175
     14       H        5.127379        0.783072        0.350703
     15       H        1.930094        4.204850        0.331299
     16       H        5.179175        0.784950        0.359027

 **********************
 *                    *
 * JOB ENDED NORMALLY *
 *                    *
 **********************



 TOTAL JOB TIME:             1.45 SECONDS

 == MOPAC DONE ==
