 *******************************************************************************
 **                                                                           **
 **                              MOPAC v23.1.2                                **
 **                                                                           **
 *******************************************************************************
 **          Digital Object Identifier (DOI): 10.5281/zenodo.6511958          **
 **    Visit the DOI location for information on how to cite this program.    **
 *******************************************************************************

                              PM3 CALCULATION RESULTS

 *******************************************************************************
 *  CALCULATION DONE: (MAX THREADS = 1)              Tue Jun  3 16:30:24 2025  *
 *  PM3        - The PM3 Hamiltonian to be used
 *  PRECISE    - TIGHTER CRITERIA TO BE USED
 *  NOSYM      - POINT-GROUP SYMMETRY SET TO C1
 *  THREADS=1  - MULTI-THREADING NOT USED
 *  T=         - A TIME OF 172800.0 SECONDS REQUESTED
 *  DUMP=N     - RESTART FILE WRITTEN EVERY 7200.0 SECONDS REQUESTED
 *******************************************************************************
pm3  precise nosym THREADS=1
 InChI=1S/C9H10/c1-2-5-9-7-3-6-8(9)4-1/h1-2,4-5H,3,6-7H2

   ATOM   CHEMICAL          X               Y               Z
  NUMBER   SYMBOL      (ANGSTROMS)     (ANGSTROMS)     (ANGSTROMS)

     1       C         -2.24080000  *   0.04440000  *   0.07140000  *
     2       C         -1.30960000  *   1.26670000  *  -0.04960000  *
     3       C         -1.35290000  *  -1.21390000  *   0.13440000  *
     4       C          0.05090000  *   0.68330000  *  -0.05200000  *
     5       C          0.02700000  *  -0.68480000  *   0.04950000  *
     6       C          1.25890000  *   1.37960000  *  -0.14350000  *
     7       C          1.20990000  *  -1.42860000  *   0.06480000  *
     8       C          2.45940000  *   0.65270000  *  -0.13000000  *
     9       C          2.43490000  *  -0.74980000  *  -0.02600000  *
    10       H         -2.85930000  *   0.12350000  *   0.99210000  *
    11       H         -2.91930000  *  -0.00900000  *  -0.80800000  *
    12       H         -1.49340000  *   1.81480000  *  -0.99870000  *
    13       H         -1.43280000  *   1.94860000  *   0.81930000  *
    14       H         -1.49750000  *  -1.75550000  *   1.09410000  *
    15       H         -1.55810000  *  -1.88930000  *  -0.72400000  *
    16       H          1.27040000  *   2.45900000  *  -0.22330000  *
    17       H          3.40600000  *   1.17270000  *  -0.19980000  *
    18       H          3.36270000  *  -1.30680000  *  -0.01590000  *
    19       H          1.18370000  *  -2.50770000  *   0.14510000  *



          CARTESIAN COORDINATES 

    NO.       ATOM           X           Y           Z

     1         C         -2.2408      0.0444      0.0714
     2         C         -1.3096      1.2667     -0.0496
     3         C         -1.3529     -1.2139      0.1344
     4         C          0.0509      0.6833     -0.0520
     5         C          0.0270     -0.6848      0.0495
     6         C          1.2589      1.3796     -0.1435
     7         C          1.2099     -1.4286      0.0648
     8         C          2.4594      0.6527     -0.1300
     9         C          2.4349     -0.7498     -0.0260
    10         H         -2.8593      0.1235      0.9921
    11         H         -2.9193     -0.0090     -0.8080
    12         H         -1.4934      1.8148     -0.9987
    13         H         -1.4328      1.9486      0.8193
    14         H         -1.4975     -1.7555      1.0941
    15         H         -1.5581     -1.8893     -0.7240
    16         H          1.2704      2.4590     -0.2233
    17         H          3.4060      1.1727     -0.1998
    18         H          3.3627     -1.3068     -0.0159
    19         H          1.1837     -2.5077      0.1451

  H: (PM3): J. J. P. STEWART, J. COMP. CHEM. 10, 209 (1989).
  C: (PM3): J. J. P. STEWART, J. COMP. CHEM. 10, 209 (1989).

           Empirical Formula: C9 H10  =    19 atoms



      MOLECULAR POINT GROUP   :   C1  


      RHF CALCULATION, NO. OF DOUBLY OCCUPIED LEVELS = 23


          Geometry optimization using EF

          DIAGONAL MATRIX USED AS START HESSIAN

 CYCLE:     1 TIME:   0.008 TIME LEFT:  2.00D  GRAD.:    88.079 HEAT:  13.34231
 CYCLE:     2 TIME:   0.012 TIME LEFT:  2.00D  GRAD.:    45.388 HEAT:  12.08131
 CYCLE:     3 TIME:   0.008 TIME LEFT:  2.00D  GRAD.:    55.430 HEAT:  11.94558
 CYCLE:     4 TIME:   0.008 TIME LEFT:  2.00D  GRAD.:    46.032 HEAT:  11.79664
 CYCLE:     5 TIME:   0.008 TIME LEFT:  2.00D  GRAD.:    29.468 HEAT:  11.52088
 CYCLE:     6 TIME:   0.004 TIME LEFT:  2.00D  GRAD.:    31.321 HEAT:  11.48506
 CYCLE:     7 TIME:   0.012 TIME LEFT:  2.00D  GRAD.:    11.640 HEAT:  11.23105
 CYCLE:     8 TIME:   0.008 TIME LEFT:  2.00D  GRAD.:    11.704 HEAT:  11.21730
 CYCLE:     9 TIME:   0.008 TIME LEFT:  2.00D  GRAD.:     8.246 HEAT:  11.18669
 CYCLE:    10 TIME:   0.008 TIME LEFT:  2.00D  GRAD.:     4.964 HEAT:  11.16486
 CYCLE:    11 TIME:   0.008 TIME LEFT:  2.00D  GRAD.:     4.196 HEAT:  11.15767
 CYCLE:    12 TIME:   0.008 TIME LEFT:  2.00D  GRAD.:     5.331 HEAT:  11.15138
 CYCLE:    13 TIME:   0.004 TIME LEFT:  2.00D  GRAD.:     7.271 HEAT:  11.15000
 CYCLE:    14 TIME:   0.012 TIME LEFT:  2.00D  GRAD.:     2.403 HEAT:  11.13895
 CYCLE:    15 TIME:   0.004 TIME LEFT:  2.00D  GRAD.:     4.561 HEAT:  11.14063
 CYCLE:    16 TIME:   0.008 TIME LEFT:  2.00D  GRAD.:     3.007 HEAT:  11.13619
 CYCLE:    17 TIME:   0.004 TIME LEFT:  2.00D  GRAD.:     4.080 HEAT:  11.13742
 CYCLE:    18 TIME:   0.008 TIME LEFT:  2.00D  GRAD.:     0.902 HEAT:  11.13222
 CYCLE:    19 TIME:   0.012 TIME LEFT:  2.00D  GRAD.:     1.264 HEAT:  11.13208
 CYCLE:    20 TIME:   0.004 TIME LEFT:  2.00D  GRAD.:     0.818 HEAT:  11.13162
 CYCLE:    21 TIME:   0.008 TIME LEFT:  2.00D  GRAD.:     1.400 HEAT:  11.13183
 CYCLE:    22 TIME:   0.008 TIME LEFT:  2.00D  GRAD.:     0.586 HEAT:  11.13140
 CYCLE:    23 TIME:   0.004 TIME LEFT:  2.00D  GRAD.:     1.141 HEAT:  11.13163
 CYCLE:    24 TIME:   0.008 TIME LEFT:  2.00D  GRAD.:     0.221 HEAT:  11.13131
 CYCLE:    25 TIME:   0.004 TIME LEFT:  2.00D  GRAD.:     0.416 HEAT:  11.13132
 CYCLE:    26 TIME:   0.008 TIME LEFT:  2.00D  GRAD.:     0.103 HEAT:  11.13128
 CYCLE:    27 TIME:   0.004 TIME LEFT:  2.00D  GRAD.:     0.133 HEAT:  11.13128
 CYCLE:    28 TIME:   0.008 TIME LEFT:  2.00D  GRAD.:     0.097 HEAT:  11.13127
 CYCLE:    29 TIME:   0.008 TIME LEFT:  2.00D  GRAD.:     0.090 HEAT:  11.13127
 CYCLE:    30 TIME:   0.004 TIME LEFT:  2.00D  GRAD.:     0.043 HEAT:  11.13126

     GRADIENT =  0.04350 IS LESS THAN CUTOFF =  0.05000



 -------------------------------------------------------------------------------
 pm3  precise nosym THREADS=1
 InChI=1S/C9H10/c1-2-5-9-7-3-6-8(9)4-1/h1-2,4-5H,3,6-7H2



     GEOMETRY OPTIMISED USING EIGENVECTOR FOLLOWING (EF).     
     SCF FIELD WAS ACHIEVED                                   


                              PM3 CALCULATION
                                                       MOPAC v23.1.2 MacOS
                                                       Tue Jun  3 16:30:24 2025




          FINAL HEAT OF FORMATION =         11.13126 KCAL/MOL =      46.57321 KJ/MOL


          COSMO AREA              =        159.89 SQUARE ANGSTROMS
          COSMO VOLUME            =        156.87 CUBIC ANGSTROMS

          GRADIENT NORM           =          0.04350          =       0.00998 PER ATOM
          IONIZATION POTENTIAL    =          9.219028 EV
          HOMO LUMO ENERGIES (EV) =         -9.219  0.413
          NO. OF FILLED LEVELS    =         23
          MOLECULAR WEIGHT        =        118.1780         POINT GROUP:  C1  

          MOLECULAR DIMENSIONS (Angstroms)

            Atom       Atom       Distance
            H    17    H    11     6.49041
            H    19    H    13     4.96325
            H    14    H    12     2.64017


          SCF CALCULATIONS        =         37

          WALL-CLOCK TIME         =      0.227 SECONDS
          COMPUTATION TIME        =      0.137 SECONDS




   ATOM   CHEMICAL          X               Y               Z
  NUMBER   SYMBOL      (ANGSTROMS)     (ANGSTROMS)     (ANGSTROMS)

     1       C         -2.24644099  *   0.04454432  *   0.07176327  *
     2       C         -1.31539252  *   1.26262358  *  -0.04935613  *
     3       C         -1.35854625  *  -1.20963822  *   0.13439932  *
     4       C          0.06573413  *   0.69856875  *  -0.05377762  *
     5       C          0.04129613  *  -0.70073725  *   0.04996953  *
     6       C          1.26777700  *   1.38037637  *  -0.14373520  *
     7       C          1.21869090  *  -1.42969960  *   0.06430329  *
     8       C          2.45403901  *   0.64474865  *  -0.12896823  *
     9       C          2.42982795  *  -0.74156878  *  -0.02641905  *
    10       H         -2.88383700  *   0.12248825  *   0.97077301  *
    11       H         -2.94289983  *  -0.00692616  *  -0.78431560  *
    12       H         -1.50836410  *   1.84038825  *  -0.97209346  *
    13       H         -1.44955559  *   1.97064268  *   0.78920463  *
    14       H         -1.51478763  *  -1.78061959  *   1.06823842  *
    15       H         -1.57407293  *  -1.91058820  *  -0.69306093  *
    16       H          1.28635374  *   2.47145586  *  -0.22452764  *
    17       H          3.41348830  *   1.16744077  *  -0.19902786  *
    18       H          3.37035097  *  -1.30189074  *  -0.01646548  *
    19       H          1.19914950  *  -2.52077178  *   0.14500843  *

                             CARTESIAN COORDINATES

   1    C       -2.246440990     0.044544317     0.071763270
   2    C       -1.315392524     1.262623577    -0.049356131
   3    C       -1.358546249    -1.209638221     0.134399322
   4    C        0.065734129     0.698568752    -0.053777622
   5    C        0.041296132    -0.700737247     0.049969533
   6    C        1.267776995     1.380376370    -0.143735195
   7    C        1.218690896    -1.429699600     0.064303293
   8    C        2.454039011     0.644748648    -0.128968233
   9    C        2.429827950    -0.741568777    -0.026419055
  10    H       -2.883836998     0.122488247     0.970773009
  11    H       -2.942899833    -0.006926163    -0.784315596
  12    H       -1.508364099     1.840388247    -0.972093456
  13    H       -1.449555587     1.970642676     0.789204633
  14    H       -1.514787631    -1.780619594     1.068238421
  15    H       -1.574072933    -1.910588199    -0.693060929
  16    H        1.286353745     2.471455864    -0.224527641
  17    H        3.413488300     1.167440765    -0.199027864
  18    H        3.370350968    -1.301890735    -0.016465483
  19    H        1.199149496    -2.520771782     0.145008430


           Empirical Formula: C9 H10  =    19 atoms



      MOLECULAR POINT GROUP   :   C1  


                  EIGENVALUES  
 -41.42512 -35.42801 -30.81705 -27.34686 -26.27202 -21.64973 -20.63213 -19.99622
 -17.51415 -16.46927 -16.39194 -15.08867 -14.62349 -14.46698 -13.73169 -13.13903
 -12.97782 -12.88459 -12.56529 -12.21226 -11.55984  -9.57579  -9.21903   0.41273
   0.46218   2.81369   3.17621   3.35803   3.53062   3.55583   3.68256   3.69484
   3.78026   4.01023   4.06008   4.22464   4.29687   4.48891   4.85608   4.97808
   5.12991   5.26607   5.35370   5.51459   6.21903   6.45421


              NET ATOMIC CHARGES AND DIPOLE CONTRIBUTIONS

  ATOM NO.   TYPE          CHARGE      No. of ELECS.   s-Pop       p-Pop       
    1          C          -0.096329        4.0963     1.16636     2.92996
    2          C          -0.044902        4.0449     1.14840     2.89650
    3          C          -0.044902        4.0449     1.14840     2.89650
    4          C          -0.086245        4.0862     1.18650     2.89975
    5          C          -0.086245        4.0862     1.18650     2.89975
    6          C          -0.087800        4.0878     1.17203     2.91577
    7          C          -0.087800        4.0878     1.17203     2.91577
    8          C          -0.104663        4.1047     1.17905     2.92561
    9          C          -0.104662        4.1047     1.17905     2.92561
   10          H           0.050068        0.9499     0.94993
   11          H           0.050072        0.9499     0.94993
   12          H           0.057765        0.9422     0.94223
   13          H           0.057763        0.9422     0.94224
   14          H           0.057759        0.9422     0.94224
   15          H           0.057769        0.9422     0.94223
   16          H           0.105270        0.8947     0.89473
   17          H           0.100904        0.8991     0.89910
   18          H           0.100905        0.8991     0.89909
   19          H           0.105270        0.8947     0.89473
 DIPOLE           X         Y         Z       TOTAL
 POINT-CHG.    -0.466     0.009     0.015     0.467
 HYBRID         0.017    -0.000    -0.001     0.017
 SUM           -0.449     0.009     0.015     0.449


          ATOMIC ORBITAL ELECTRON POPULATIONS

     Atom    s        px        py        pz   
    1  C   1.16636   0.96934   0.94474   1.01589
    2  C   1.14840   0.91955   0.96463   1.01231
    3  C   1.14840   0.91946   0.96473   1.01230
    4  C   1.18650   0.95157   0.94805   1.00012
    5  C   1.18650   0.95190   0.94768   1.00017
    6  C   1.17203   0.92869   0.97908   1.00800
    7  C   1.17203   0.92911   0.97860   1.00806
    8  C   1.17905   0.97055   0.94860   1.00647
    9  C   1.17905   0.96921   0.95011   1.00629
   10  H   0.94993
   11  H   0.94993
   12  H   0.94223
   13  H   0.94224
   14  H   0.94224
   15  H   0.94223
   16  H   0.89473
   17  H   0.89910
   18  H   0.89909
   19  H   0.89473
 *******************************************************************************
 **                                                                           **
 **                              MOPAC v23.1.2                                **
 **                                                                           **
 *******************************************************************************
 **          Digital Object Identifier (DOI): 10.5281/zenodo.6511958          **
 **    Visit the DOI location for information on how to cite this program.    **
 *******************************************************************************

                              PM3 CALCULATION RESULTS

 *******************************************************************************
 *  CALCULATION DONE: (MAX THREADS = 1)              Tue Jun  3 16:30:24 2025  *
 *  PM3        - The PM3 Hamiltonian to be used
 *  OLDGEO     - PREVIOUS GEOMETRY TO BE USED
 *  PRECISE    - TIGHTER CRITERIA TO BE USED
 *  NOSYM      - POINT-GROUP SYMMETRY SET TO C1
 *  THREADS=1  - MULTI-THREADING NOT USED
 *  T=         - A TIME OF 172800.0 SECONDS REQUESTED
 *  DUMP=N     - RESTART FILE WRITTEN EVERY 7200.0 SECONDS REQUESTED
 *  THERMO     - THERMODYNAMIC QUANTITIES TO BE CALCULATED
 *******************************************************************************
oldgeo thermo nosym precise THREADS=1  pm3
 InChI=1S/C9H10/c1-2-5-9-7-3-6-8(9)4-1/h1-2,4-5H,3,6-7H2

   ATOM   CHEMICAL          X               Y               Z
  NUMBER   SYMBOL      (ANGSTROMS)     (ANGSTROMS)     (ANGSTROMS)

     1       C         -2.24644099  *   0.04454432  *   0.07176327  *
     2       C         -1.31539252  *   1.26262358  *  -0.04935613  *
     3       C         -1.35854625  *  -1.20963822  *   0.13439932  *
     4       C          0.06573413  *   0.69856875  *  -0.05377762  *
     5       C          0.04129613  *  -0.70073725  *   0.04996953  *
     6       C          1.26777700  *   1.38037637  *  -0.14373520  *
     7       C          1.21869090  *  -1.42969960  *   0.06430329  *
     8       C          2.45403901  *   0.64474865  *  -0.12896823  *
     9       C          2.42982795  *  -0.74156878  *  -0.02641905  *
    10       H         -2.88383700  *   0.12248825  *   0.97077301  *
    11       H         -2.94289983  *  -0.00692616  *  -0.78431560  *
    12       H         -1.50836410  *   1.84038825  *  -0.97209346  *
    13       H         -1.44955559  *   1.97064268  *   0.78920463  *
    14       H         -1.51478763  *  -1.78061959  *   1.06823842  *
    15       H         -1.57407293  *  -1.91058820  *  -0.69306093  *
    16       H          1.28635374  *   2.47145586  *  -0.22452764  *
    17       H          3.41348830  *   1.16744077  *  -0.19902786  *
    18       H          3.37035097  *  -1.30189074  *  -0.01646548  *
    19       H          1.19914950  *  -2.52077178  *   0.14500843  *



          CARTESIAN COORDINATES 

    NO.       ATOM           X           Y           Z

     1         C         -2.2464      0.0445      0.0718
     2         C         -1.3154      1.2626     -0.0494
     3         C         -1.3585     -1.2096      0.1344
     4         C          0.0657      0.6986     -0.0538
     5         C          0.0413     -0.7007      0.0500
     6         C          1.2678      1.3804     -0.1437
     7         C          1.2187     -1.4297      0.0643
     8         C          2.4540      0.6447     -0.1290
     9         C          2.4298     -0.7416     -0.0264
    10         H         -2.8838      0.1225      0.9708
    11         H         -2.9429     -0.0069     -0.7843
    12         H         -1.5084      1.8404     -0.9721
    13         H         -1.4496      1.9706      0.7892
    14         H         -1.5148     -1.7806      1.0682
    15         H         -1.5741     -1.9106     -0.6931
    16         H          1.2864      2.4715     -0.2245
    17         H          3.4135      1.1674     -0.1990
    18         H          3.3704     -1.3019     -0.0165
    19         H          1.1991     -2.5208      0.1450

  H: (PM3): J. J. P. STEWART, J. COMP. CHEM. 10, 209 (1989).
  C: (PM3): J. J. P. STEWART, J. COMP. CHEM. 10, 209 (1989).

           Empirical Formula: C9 H10  =    19 atoms



      MOLECULAR POINT GROUP   :   C1  


      RHF CALCULATION, NO. OF DOUBLY OCCUPIED LEVELS = 23



          HEAT OF FORMATION =      11.131264 KCALS/MOLE


          CARTESIAN COORDINATE DERIVATIVES

   NUMBER  ATOM         X            Y            Z

     1       C      0.006467     0.004944    -0.001331
     2       C     -0.000236     0.000197    -0.001737
     3       C      0.002643     0.005821     0.002143
     4       C      0.017377     0.010227     0.004603
     5       C     -0.002098     0.020930     0.000314
     6       C     -0.004207    -0.013537    -0.003493
     7       C     -0.018271    -0.019926     0.001785
     8       C     -0.007850     0.009541    -0.001603
     9       C      0.022199     0.006998     0.000123
    10       H     -0.001935    -0.002811    -0.000893
    11       H     -0.004632    -0.006376     0.002508
    12       H     -0.004176    -0.001497     0.003967
    13       H     -0.001556     0.002491     0.000079
    14       H      0.008518     0.000719    -0.003175
    15       H     -0.003882    -0.005848    -0.002172
    16       H      0.003806    -0.001978     0.000395
    17       H     -0.005879    -0.002805    -0.004084
    18       H     -0.001133    -0.011026    -0.001559
    19       H     -0.005155     0.003936     0.004130



          GRADIENT NORM =   0.05617

          MOLECULAR WEIGHT =  118.18



          ROTATIONAL CONSTANTS IN CM(-1)

          A =    0.11809164   B =    0.05030306   C =    0.03598581



           PRINCIPAL MOMENTS OF INERTIA IN UNITS OF 10**(-40)*GRAM-CM**2

          A =      237.0426   B =      556.4821   C =      777.8831


          ORIENTATION OF MOLECULE IN FORCE CALCULATION

    NO.       ATOM         X         Y         Z

     1          C      -1.4711   -2.0039    0.0005
     2          C       0.0668   -2.0039    0.0005
     3          C      -1.9318   -0.5366    0.0005
     4          C       0.4566   -0.5638    0.0001
     5          C      -0.6747    0.2667    0.0004
     6          C       1.7314   -0.0227   -0.0006
     7          C      -0.5404    1.6450    0.0002
     8          C       1.8657    1.3667   -0.0010
     9          C       0.7450    2.1895   -0.0005
    10          H      -1.8660   -2.5418   -0.8799
    11          H      -1.8661   -2.5419    0.8809
    12          H       0.4803   -2.5240    0.8842
    13          H       0.4804   -2.5246   -0.8829
    14          H      -2.5522   -0.2980   -0.8831
    15          H      -2.5523   -0.2980    0.8840
    16          H       2.6131   -0.6706   -0.0009
    17          H       2.8661    1.8117   -0.0018
    18          H       0.8698    3.2772   -0.0008
    19          H      -1.4227    2.2922    0.0006


    FIRST DERIVATIVES WILL BE USED IN THE CALCULATION OF SECOND DERIVATIVES

          ESTIMATED TIME TO COMPLETE CALCULATION =        0.89 SECONDS

    FOR POINT-GROUP C1   THERE ARE   1 UNIQUE SYMMETRY FUNCTIONS.

 STEP:   1 TIME =     0.02 SECS, INTEGRAL =      0.02 TIME LEFT: 172799.98
 STEP:   2 TIME =     0.02 SECS, INTEGRAL =      0.04 TIME LEFT: 172799.96
 STEP:   3 TIME =     0.02 SECS, INTEGRAL =      0.05 TIME LEFT: 172799.94
 STEP:   4 TIME =     0.02 SECS, INTEGRAL =      0.07 TIME LEFT: 172799.93
 STEP:   5 TIME =     0.02 SECS, INTEGRAL =      0.09 TIME LEFT: 172799.91
 STEP:   6 TIME =     0.02 SECS, INTEGRAL =      0.11 TIME LEFT: 172799.89
 STEP:   7 TIME =     0.02 SECS, INTEGRAL =      0.12 TIME LEFT: 172799.87
 STEP:   8 TIME =     0.02 SECS, INTEGRAL =      0.14 TIME LEFT: 172799.86
 STEP:   9 TIME =     0.02 SECS, INTEGRAL =      0.16 TIME LEFT: 172799.84
 STEP:  10 TIME =     0.02 SECS, INTEGRAL =      0.18 TIME LEFT: 172799.82
 STEP:  11 TIME =     0.02 SECS, INTEGRAL =      0.20 TIME LEFT: 172799.80
 STEP:  12 TIME =     0.02 SECS, INTEGRAL =      0.21 TIME LEFT: 172799.79
 STEP:  13 TIME =     0.02 SECS, INTEGRAL =      0.23 TIME LEFT: 172799.77
 STEP:  14 TIME =     0.02 SECS, INTEGRAL =      0.25 TIME LEFT: 172799.75
 STEP:  15 TIME =     0.02 SECS, INTEGRAL =      0.27 TIME LEFT: 172799.73
 STEP:  16 TIME =     0.02 SECS, INTEGRAL =      0.29 TIME LEFT: 172799.71
 STEP:  17 TIME =     0.02 SECS, INTEGRAL =      0.31 TIME LEFT: 172799.69
 STEP:  18 TIME =     0.02 SECS, INTEGRAL =      0.33 TIME LEFT: 172799.67
 STEP:  19 TIME =     0.02 SECS, INTEGRAL =      0.35 TIME LEFT: 172799.65
 STEP:  20 TIME =     0.02 SECS, INTEGRAL =      0.37 TIME LEFT: 172799.63
 STEP:  21 TIME =     0.02 SECS, INTEGRAL =      0.39 TIME LEFT: 172799.61
 STEP:  22 TIME =     0.02 SECS, INTEGRAL =      0.41 TIME LEFT: 172799.59
 STEP:  23 TIME =     0.02 SECS, INTEGRAL =      0.43 TIME LEFT: 172799.57
 STEP:  24 TIME =     0.02 SECS, INTEGRAL =      0.45 TIME LEFT: 172799.55
 STEP:  25 TIME =     0.02 SECS, INTEGRAL =      0.46 TIME LEFT: 172799.53
 STEP:  26 TIME =     0.02 SECS, INTEGRAL =      0.48 TIME LEFT: 172799.52
 STEP:  27 TIME =     0.02 SECS, INTEGRAL =      0.50 TIME LEFT: 172799.50
 STEP:  28 TIME =     0.02 SECS, INTEGRAL =      0.52 TIME LEFT: 172799.48
 STEP:  29 TIME =     0.02 SECS, INTEGRAL =      0.54 TIME LEFT: 172799.46
 STEP:  30 TIME =     0.02 SECS, INTEGRAL =      0.55 TIME LEFT: 172799.44
 STEP:  31 TIME =     0.02 SECS, INTEGRAL =      0.57 TIME LEFT: 172799.43
 STEP:  32 TIME =     0.02 SECS, INTEGRAL =      0.59 TIME LEFT: 172799.41
 STEP:  33 TIME =     0.02 SECS, INTEGRAL =      0.60 TIME LEFT: 172799.39
 STEP:  34 TIME =     0.02 SECS, INTEGRAL =      0.62 TIME LEFT: 172799.38
 STEP:  35 TIME =     0.02 SECS, INTEGRAL =      0.63 TIME LEFT: 172799.36
 STEP:  36 TIME =     0.02 SECS, INTEGRAL =      0.65 TIME LEFT: 172799.35
 STEP:  37 TIME =     0.02 SECS, INTEGRAL =      0.66 TIME LEFT: 172799.33
 STEP:  38 TIME =     0.02 SECS, INTEGRAL =      0.68 TIME LEFT: 172799.31
 STEP:  39 TIME =     0.02 SECS, INTEGRAL =      0.70 TIME LEFT: 172799.30
 STEP:  40 TIME =     0.02 SECS, INTEGRAL =      0.71 TIME LEFT: 172799.28
 STEP:  41 TIME =     0.02 SECS, INTEGRAL =      0.73 TIME LEFT: 172799.27
 STEP:  42 TIME =     0.02 SECS, INTEGRAL =      0.75 TIME LEFT: 172799.25
 STEP:  43 TIME =     0.02 SECS, INTEGRAL =      0.76 TIME LEFT: 172799.23
 STEP:  44 TIME =     0.02 SECS, INTEGRAL =      0.78 TIME LEFT: 172799.21
 STEP:  45 TIME =     0.02 SECS, INTEGRAL =      0.80 TIME LEFT: 172799.20
 STEP:  46 TIME =     0.02 SECS, INTEGRAL =      0.82 TIME LEFT: 172799.18
 STEP:  47 TIME =     0.02 SECS, INTEGRAL =      0.83 TIME LEFT: 172799.16
 STEP:  48 TIME =     0.02 SECS, INTEGRAL =      0.85 TIME LEFT: 172799.14
 STEP:  49 TIME =     0.02 SECS, INTEGRAL =      0.87 TIME LEFT: 172799.12
 STEP:  50 TIME =     0.02 SECS, INTEGRAL =      0.89 TIME LEFT: 172799.11
 STEP:  51 TIME =     0.02 SECS, INTEGRAL =      0.91 TIME LEFT: 172799.09
 STEP:  52 TIME =     0.02 SECS, INTEGRAL =      0.92 TIME LEFT: 172799.07
 STEP:  53 TIME =     0.02 SECS, INTEGRAL =      0.94 TIME LEFT: 172799.06
 STEP:  54 TIME =     0.02 SECS, INTEGRAL =      0.95 TIME LEFT: 172799.04
 STEP:  55 TIME =     0.02 SECS, INTEGRAL =      0.97 TIME LEFT: 172799.03
 STEP:  56 TIME =     0.02 SECS, INTEGRAL =      0.99 TIME LEFT: 172799.01
 STEP:  57 TIME =     0.02 SECS, INTEGRAL =      1.01 TIME LEFT: 172798.99

(To convert to Hartree/Bohr^2, multiply by (10^(-21) x N x a0^2)/(4.184 x 627.51) =  0.0642)


           FORCE MATRIX IN MILLIDYNES/ANGSTROM


                  C  1       C  2       C  3       C  4       C  5       C  6
 ------------------------------------------------------------------------------
     C    1  14.201404
     C    2   3.718571  14.658173
     C    3   3.718279   0.695763  14.657709
     C    4   0.875169   4.783002   0.990363  18.300696
     C    5   0.875295   0.990274   4.783624   6.394522  18.326246
     C    6   0.051858   0.570773   0.088217   7.166840   2.397083  17.350790
     C    7   0.051850   0.088159   0.570820   2.413829   7.173832   1.815910
     C    8   0.009039   0.100484   0.016272   2.599669   1.878330   6.788326
     C    9   0.009052   0.016273   0.100447   1.896749   2.585324   2.511343
     H   10   4.568436   0.439532   0.439650   0.027577   0.027603   0.003923
     H   11   4.568358   0.439525   0.439653   0.027603   0.027602   0.003928
     H   12   0.437285   4.521078   0.025857   0.436724   0.030822   0.017924
     H   13   0.437280   4.521320   0.025881   0.436737   0.030854   0.017913
     H   14   0.437427   0.025838   4.521039   0.030735   0.436649   0.010568
     H   15   0.437419   0.025834   4.521224   0.030749   0.436725   0.010567
     H   16   0.001857   0.038455   0.008599   0.450365   0.091552   4.877427
     H   17   0.001554   0.007284   0.008133   0.090045   0.008763   0.436667
     H   18   0.001563   0.008117   0.007304   0.009447   0.090171   0.089257
     H   19   0.001880   0.008612   0.038459   0.091584   0.450371   0.011179


                  C  7       C  8       C  9       H 10       H 11       H 12
 ------------------------------------------------------------------------------
     C    7  17.348267
     C    8   2.510529  17.098933
     C    9   6.789916   6.973188  17.097889
     H   10   0.003924   0.000631   0.000642   5.171027
     H   11   0.003924   0.000632   0.000641   0.586278   5.170973
     H   12   0.010544   0.011007   0.002740   0.027512   0.028460   5.121742
     H   13   0.010544   0.010997   0.002734   0.028461   0.027491   0.572850
     H   14   0.018025   0.002812   0.011075   0.028468   0.027489   0.003340
     H   15   0.018004   0.002809   0.011069   0.027489   0.028472   0.000727
     H   16   0.011274   0.440175   0.088277   0.000268   0.000268   0.005650
     H   17   0.089079   4.859571   0.438002   0.000184   0.000184   0.000642
     H   18   0.437372   0.438977   4.859579   0.000182   0.000182   0.001059
     H   19   4.877327   0.088235   0.440000   0.000268   0.000268   0.001058


                  H 13       H 14       H 15       H 16       H 17       H 18
 ------------------------------------------------------------------------------
     H   13   5.121993
     H   14   0.000728   5.121661
     H   15   0.003342   0.572870   5.121935
     H   16   0.005652   0.001064   0.001064   5.247985
     H   17   0.000641   0.001068   0.001068   0.039931   5.225534
     H   18   0.001058   0.000651   0.000650   0.006951   0.043540   5.225572
     H   19   0.001058   0.005661   0.005661   0.008788   0.006868   0.039928


                  H 19
 ------------------
     H   19   5.247891


          HEAT OF FORMATION =      11.131264 KCALS/MOLE

          ZERO POINT ENERGY     102.060 KCAL/MOL


           NORMAL COORDINATE ANALYSIS (Total motion = 1 Angstrom)


   Root No.       1         2         3         4         5         6         7         8

                 1 A       2 A       3 A       4 A       5 A       6 A       7 A       8 A   

                  72.3     160.9     227.3     391.3     394.7     467.2     543.9     582.9
  
           1   -0.0000    0.0000   -0.0000   -0.0310   -0.0001   -0.0000   -0.0403    0.0240
           2   -0.0000   -0.0000    0.0000    0.0228    0.0001    0.0000   -0.0549   -0.0178
           3    0.0622   -0.0002   -0.0129    0.0000   -0.0051    0.0000    0.0000   -0.0000
           4   -0.0000    0.0000   -0.0000   -0.0224   -0.0001   -0.0000   -0.0374    0.0101
           5   -0.0000    0.0000   -0.0000   -0.0277   -0.0001   -0.0000   -0.0221   -0.0591
           6   -0.0320    0.0481   -0.0248    0.0000   -0.0011   -0.0011    0.0000    0.0000
           7   -0.0000   -0.0000    0.0000    0.0198    0.0001    0.0000   -0.0099    0.0594
           8   -0.0000   -0.0000    0.0000    0.0297    0.0001    0.0000   -0.0423    0.0080
           9   -0.0322   -0.0481   -0.0246   -0.0000   -0.0011    0.0011    0.0000   -0.0000
          10   -0.0000   -0.0000    0.0000    0.0392    0.0001    0.0000   -0.0094   -0.0312
          11   -0.0000   -0.0000    0.0000   -0.0349   -0.0001   -0.0000   -0.0087   -0.0390
          12   -0.0172   -0.0013    0.0495   -0.0002    0.0565    0.0430    0.0000   -0.0000
          13   -0.0000   -0.0000    0.0000    0.0450    0.0002    0.0000   -0.0055    0.0280
          14   -0.0000    0.0000    0.0000   -0.0269   -0.0001   -0.0000   -0.0116    0.0413
          15   -0.0172    0.0015    0.0495   -0.0001    0.0566   -0.0430    0.0000   -0.0000
          16    0.0000   -0.0000    0.0000    0.0230    0.0000    0.0000   -0.0244   -0.0531
          17    0.0000   -0.0000    0.0000    0.0143    0.0000    0.0000    0.0531   -0.0239
          18   -0.0007   -0.0392    0.0348    0.0001   -0.0538    0.0258    0.0000    0.0000
          19   -0.0000    0.0000    0.0000   -0.0068   -0.0001   -0.0000    0.0580    0.0070
          20   -0.0000    0.0000    0.0000   -0.0263   -0.0001   -0.0000   -0.0075    0.0580
          21   -0.0006    0.0393    0.0346    0.0001   -0.0537   -0.0259   -0.0000    0.0000
          22    0.0000   -0.0000   -0.0000   -0.0207   -0.0001   -0.0000    0.0367   -0.0589
          23    0.0000   -0.0000   -0.0000    0.0239    0.0001   -0.0000    0.0534   -0.0220
          24    0.0173   -0.0303   -0.0380   -0.0000    0.0195   -0.0555   -0.0000    0.0000
          25    0.0000    0.0000   -0.0000   -0.0289   -0.0001    0.0000    0.0399    0.0032
          26    0.0000    0.0000   -0.0000    0.0125    0.0000    0.0000    0.0509    0.0628
          27    0.0174    0.0301   -0.0380   -0.0001    0.0194    0.0556   -0.0000   -0.0000
          28   -0.0587    0.0279   -0.0100   -0.0501    0.0014    0.0004   -0.0434    0.0014
          29   -0.0801   -0.0203   -0.0135    0.0368    0.0022   -0.0003   -0.0592   -0.0011
          30    0.1379   -0.0003    0.0000    0.0000   -0.0071    0.0000    0.0028   -0.0000
          31    0.0586   -0.0279    0.0100   -0.0501   -0.0017   -0.0004   -0.0434    0.0014
          32    0.0801    0.0203    0.0135    0.0368   -0.0019    0.0004   -0.0592   -0.0011
          33    0.1379   -0.0003    0.0000    0.0000   -0.0071    0.0000   -0.0028   -0.0000
          34    0.0557   -0.0303    0.0103   -0.0493    0.0013    0.0099   -0.0412    0.0155
          35   -0.0304    0.0473   -0.0616   -0.0478   -0.0524   -0.0591   -0.0240   -0.0604
          36   -0.0764    0.0907   -0.0666    0.0003   -0.0334   -0.0419    0.0002   -0.0023
          37   -0.0557    0.0303   -0.0103   -0.0492   -0.0016   -0.0100   -0.0412    0.0155
          38    0.0304   -0.0473    0.0616   -0.0481    0.0521    0.0590   -0.0240   -0.0604
          39   -0.0764    0.0907   -0.0666   -0.0000   -0.0334   -0.0419   -0.0002    0.0024
          40    0.0460    0.0543    0.0617    0.0308    0.0505   -0.0593   -0.0105    0.0623
          41   -0.0442   -0.0145    0.0087    0.0613    0.0145   -0.0082   -0.0465    0.0033
          42   -0.0768   -0.0906   -0.0662    0.0002   -0.0334    0.0419   -0.0002   -0.0023
          43   -0.0460   -0.0543   -0.0616    0.0311   -0.0503    0.0593   -0.0106    0.0624
          44    0.0441    0.0145   -0.0087    0.0614   -0.0141    0.0082   -0.0465    0.0033
          45   -0.0768   -0.0906   -0.0662   -0.0001   -0.0334    0.0419    0.0002    0.0024
          46    0.0000   -0.0000    0.0000    0.0534    0.0001    0.0000   -0.0193   -0.0434
          47    0.0000   -0.0000    0.0000    0.0557    0.0001    0.0000    0.0592   -0.0103
          48    0.0001   -0.0705    0.0505    0.0004   -0.1910    0.0528   -0.0000    0.0000
          49    0.0000   -0.0000   -0.0001   -0.0310   -0.0001   -0.0001    0.0509   -0.0354
          50    0.0000   -0.0000   -0.0000    0.0480    0.0002   -0.0000    0.0224   -0.0746
          51    0.0322   -0.0629   -0.0974   -0.0001    0.0440   -0.1749   -0.0000    0.0001
          52    0.0000    0.0000   -0.0001   -0.0552   -0.0001    0.0001    0.0060    0.0608
          53    0.0000    0.0000   -0.0000    0.0152    0.0001    0.0000    0.0552    0.0562
          54    0.0325    0.0624   -0.0975   -0.0001    0.0438    0.1748   -0.0000   -0.0001
          55   -0.0000    0.0000    0.0000   -0.0371   -0.0002   -0.0000    0.0623   -0.0032
          56   -0.0000    0.0000    0.0000   -0.0677   -0.0002   -0.0000   -0.0007    0.0445
          57    0.0004    0.0707    0.0502    0.0005   -0.1910   -0.0531   -0.0000    0.0001


   Root No.       9        10        11        12        13        14        15        16

                 9 A      10 A      11 A      12 A      13 A      14 A      15 A      16 A   

                 664.8     687.7     747.2     783.4     856.7     858.7     912.6     926.1
  
           1    0.0000    0.0389   -0.0000    0.0000   -0.0000   -0.0027   -0.0030    0.0000
           2    0.0000    0.0530   -0.0000    0.0000    0.0000    0.0020   -0.0042    0.0000
           3   -0.0000    0.0000    0.0145   -0.0183   -0.0000    0.0000   -0.0000    0.0000
           4    0.0000    0.0508   -0.0000    0.0000   -0.0000   -0.0022   -0.0096    0.0000
           5   -0.0000   -0.0378    0.0000   -0.0000    0.0001    0.0446    0.0478   -0.0000
           6    0.0154   -0.0000    0.0125   -0.0068   -0.0198    0.0001   -0.0000   -0.0234
           7   -0.0000   -0.0513    0.0000    0.0000   -0.0001   -0.0431    0.0485   -0.0000
           8    0.0000    0.0371   -0.0000    0.0000   -0.0000   -0.0113    0.0052   -0.0000
           9   -0.0154    0.0000    0.0125   -0.0069    0.0198   -0.0001    0.0000    0.0233
          10    0.0000   -0.0205    0.0000    0.0000    0.0001    0.0205   -0.0200    0.0000
          11   -0.0000   -0.0297    0.0000    0.0000    0.0000    0.0001    0.0069    0.0000
          12    0.0484   -0.0001   -0.0024    0.0142    0.0090   -0.0001    0.0000    0.0299
          13   -0.0000   -0.0222    0.0000    0.0000    0.0000    0.0059    0.0126   -0.0000
          14   -0.0000   -0.0284    0.0000   -0.0000   -0.0001   -0.0194   -0.0170    0.0000
          15   -0.0484    0.0001   -0.0025    0.0142   -0.0089    0.0001   -0.0000   -0.0299
          16   -0.0000   -0.0497    0.0000   -0.0000    0.0001    0.0316   -0.0474    0.0000
          17    0.0000    0.0190   -0.0000    0.0000   -0.0001   -0.0388    0.0064   -0.0000
          18   -0.0199    0.0000   -0.0095   -0.0086    0.0250   -0.0002    0.0000   -0.0144
          19    0.0000    0.0330   -0.0000   -0.0000    0.0001    0.0464    0.0203   -0.0000
          20   -0.0000   -0.0416    0.0000   -0.0000   -0.0001   -0.0187   -0.0433    0.0000
          21    0.0199   -0.0000   -0.0095   -0.0086   -0.0251    0.0002    0.0000    0.0146
          22    0.0000    0.0056    0.0000   -0.0000   -0.0002   -0.0656   -0.0045   -0.0000
          23    0.0000    0.0150   -0.0000   -0.0000   -0.0001   -0.0272   -0.0040   -0.0000
          24    0.0198   -0.0000   -0.0113   -0.0172    0.0130   -0.0001   -0.0000   -0.0162
          25   -0.0000    0.0127   -0.0000   -0.0000    0.0000    0.0065   -0.0025    0.0000
          26    0.0000    0.0099   -0.0000   -0.0000    0.0002    0.0707   -0.0055    0.0000
          27   -0.0198    0.0000   -0.0112   -0.0171   -0.0131    0.0001    0.0000    0.0161
          28    0.0171    0.0451    0.0543   -0.0555   -0.0373    0.0346   -0.0017   -0.0646
          29   -0.0126    0.0614    0.0741   -0.0757    0.0273   -0.0254   -0.0022    0.0475
          30    0.0000   -0.0055   -0.0585    0.0563    0.0001    0.0000   -0.0011   -0.0000
          31   -0.0171    0.0450   -0.0543    0.0555    0.0376    0.0340   -0.0016    0.0646
          32    0.0127    0.0612   -0.0741    0.0757   -0.0274   -0.0250   -0.0023   -0.0475
          33    0.0000    0.0054   -0.0585    0.0563    0.0001   -0.0000    0.0010   -0.0000
          34    0.0115    0.0466    0.0465   -0.0500   -0.0375    0.0101    0.0290   -0.0771
          35   -0.0809   -0.0494   -0.0521    0.0181    0.0541    0.0622    0.0977    0.0332
          36   -0.0397   -0.0037   -0.0426    0.0292    0.0318    0.0042    0.0092    0.0351
          37   -0.0115    0.0465   -0.0465    0.0500    0.0376    0.0095    0.0291    0.0770
          38    0.0808   -0.0496    0.0521   -0.0181   -0.0537    0.0630    0.0977   -0.0333
          39   -0.0398    0.0037   -0.0426    0.0293    0.0318   -0.0047   -0.0092    0.0351
          40   -0.0807   -0.0610    0.0636   -0.0324    0.0624   -0.0572    0.0845    0.0544
          41   -0.0132    0.0295   -0.0288    0.0424   -0.0197   -0.0282    0.0570   -0.0639
          42    0.0398    0.0036   -0.0426    0.0293   -0.0318    0.0047   -0.0092   -0.0350
          43    0.0806   -0.0613   -0.0636    0.0324   -0.0628   -0.0563    0.0845   -0.0545
          44    0.0132    0.0295    0.0288   -0.0424    0.0195   -0.0285    0.0571    0.0638
          45    0.0398   -0.0038   -0.0426    0.0293   -0.0318   -0.0042    0.0091   -0.0350
          46   -0.0001   -0.0528    0.0001    0.0000    0.0001    0.0662   -0.0924    0.0001
          47   -0.0000    0.0146    0.0000    0.0000   -0.0000    0.0068   -0.0522    0.0000
          48   -0.1256    0.0002    0.0784    0.0704   -0.1590    0.0012    0.0001    0.0588
          49    0.0001    0.0218    0.0001    0.0001   -0.0002   -0.0554    0.0174    0.0000
          50    0.0000   -0.0226    0.0000    0.0000   -0.0002   -0.0521   -0.0571    0.0001
          51    0.0678   -0.0000    0.1063    0.1430   -0.0816    0.0007    0.0001    0.0950
          52   -0.0001   -0.0281    0.0001    0.0001    0.0001    0.0332   -0.0599   -0.0000
          53   -0.0000    0.0141    0.0000    0.0000    0.0002    0.0684   -0.0005   -0.0000
          54   -0.0678    0.0001    0.1062    0.1428    0.0819   -0.0006   -0.0001   -0.0946
          55    0.0001    0.0298    0.0000    0.0000    0.0001    0.0134   -0.0221   -0.0000
          56   -0.0000   -0.0459    0.0000    0.0000   -0.0002   -0.0651   -0.1038    0.0000
          57    0.1256   -0.0001    0.0784    0.0701    0.1592   -0.0012   -0.0001   -0.0595


   Root No.      17        18        19        20        21        22        23        24

                17 A      18 A      19 A      20 A      21 A      22 A      23 A      24 A   

                 943.0    1003.6    1005.9    1011.3    1060.4    1086.5    1101.0    1102.7
  
           1   -0.0000    0.0000   -0.0000    0.0418   -0.0000    0.0033    0.0385    0.0001
           2    0.0000    0.0000   -0.0001    0.0569   -0.0000    0.0046   -0.0282   -0.0001
           3   -0.0136   -0.0004   -0.0212   -0.0000    0.0002   -0.0000   -0.0000   -0.0002
           4    0.0000   -0.0000    0.0000   -0.0452    0.0000   -0.0063   -0.0423   -0.0001
           5    0.0000    0.0000   -0.0000    0.0129   -0.0000    0.0122    0.0068    0.0000
           6    0.0126    0.0039    0.0278    0.0000   -0.0018   -0.0000    0.0001   -0.0333
           7    0.0000    0.0000   -0.0000    0.0259   -0.0000    0.0135   -0.0191   -0.0000
           8    0.0000   -0.0000    0.0000   -0.0393   -0.0000   -0.0024    0.0382    0.0001
           9    0.0127   -0.0027    0.0279    0.0000    0.0016   -0.0000   -0.0001    0.0334
          10    0.0000   -0.0000   -0.0000    0.0035    0.0000   -0.0031   -0.0010    0.0000
          11    0.0000   -0.0000   -0.0000   -0.0016    0.0000   -0.0102   -0.0116   -0.0000
          12    0.0006   -0.0100   -0.0231   -0.0000    0.0280    0.0000   -0.0000    0.0170
          13   -0.0000    0.0000   -0.0000   -0.0026   -0.0000   -0.0087    0.0108    0.0000
          14   -0.0000   -0.0000   -0.0000    0.0029   -0.0000   -0.0061    0.0044    0.0000
          15    0.0004    0.0090   -0.0235   -0.0000   -0.0280   -0.0000    0.0000   -0.0170
          16   -0.0000    0.0000    0.0000   -0.0099   -0.0000   -0.0196   -0.0042   -0.0000
          17   -0.0000    0.0000    0.0000   -0.0021   -0.0000    0.0140    0.0013   -0.0000
          18   -0.0322    0.0315    0.0183    0.0000   -0.0119    0.0000    0.0000   -0.0056
          19   -0.0000   -0.0000    0.0000    0.0009    0.0000    0.0191   -0.0025    0.0000
          20   -0.0000   -0.0000    0.0000   -0.0100    0.0000   -0.0145    0.0037    0.0000
          21   -0.0320   -0.0308    0.0193    0.0000    0.0118   -0.0000   -0.0000    0.0056
          22    0.0000   -0.0000   -0.0000    0.0001    0.0000   -0.0334    0.0066    0.0000
          23    0.0000   -0.0000   -0.0000    0.0045    0.0000   -0.0077    0.0028    0.0000
          24    0.0220   -0.0470   -0.0066   -0.0000    0.0074    0.0000   -0.0000    0.0022
          25    0.0000    0.0000   -0.0000    0.0043   -0.0000    0.0026   -0.0007   -0.0000
          26    0.0000    0.0000   -0.0000    0.0014   -0.0000   -0.0342   -0.0072   -0.0000
          27    0.0221    0.0468   -0.0080   -0.0000   -0.0074    0.0000    0.0000   -0.0022
          28   -0.0259    0.0229   -0.0364    0.0443   -0.0331    0.0051    0.1686    0.2459
          29   -0.0350   -0.0183   -0.0488    0.0605    0.0247    0.0070   -0.1238   -0.1808
          30    0.0210    0.0005    0.0272   -0.0052   -0.0001   -0.0019    0.0000    0.0000
          31    0.0259   -0.0229    0.0363    0.0445    0.0330    0.0051    0.1694   -0.2451
          32    0.0350    0.0183    0.0487    0.0607   -0.0247    0.0070   -0.1244    0.1803
          33    0.0210    0.0005    0.0272    0.0053   -0.0001    0.0019   -0.0000    0.0000
          34   -0.0289    0.0479   -0.0421   -0.1327    0.1429    0.0036   -0.0742   -0.0243
          35   -0.0560    0.0193   -0.1091   -0.0507    0.1115    0.0311   -0.0225    0.0532
          36   -0.0073   -0.0079   -0.0180    0.0036   -0.0030    0.0055   -0.0001    0.0082
          37    0.0289   -0.0479    0.0423   -0.1327   -0.1429    0.0036   -0.0743    0.0240
          38    0.0560   -0.0193    0.1091   -0.0505   -0.1115    0.0311   -0.0223   -0.0533
          39   -0.0073   -0.0079   -0.0180   -0.0037   -0.0029   -0.0055    0.0001    0.0082
          40    0.0451    0.0078    0.0915   -0.0083    0.0632    0.0285   -0.0010    0.0580
          41    0.0442    0.0545    0.0719   -0.1418    0.1702    0.0127    0.0775   -0.0081
          42   -0.0075    0.0072   -0.0183   -0.0037    0.0031   -0.0055   -0.0001   -0.0083
          43   -0.0451   -0.0078   -0.0915   -0.0086   -0.0632    0.0285   -0.0008   -0.0580
          44   -0.0441   -0.0545   -0.0716   -0.1421   -0.1701    0.0128    0.0775    0.0084
          45   -0.0075    0.0072   -0.0183    0.0037    0.0031    0.0055    0.0001   -0.0084
          46    0.0001   -0.0000   -0.0000   -0.0157    0.0000    0.1318    0.0134    0.0000
          47    0.0000   -0.0000   -0.0000   -0.0094    0.0000    0.2237    0.0257    0.0000
          48    0.1447   -0.1062   -0.0813   -0.0001    0.0325   -0.0001   -0.0000    0.0160
          49   -0.0001    0.0001   -0.0000    0.0102   -0.0000   -0.0624    0.0010   -0.0000
          50   -0.0000    0.0000    0.0000   -0.0187   -0.0000    0.0535    0.0164    0.0001
          51   -0.1059    0.1676    0.0240    0.0000   -0.0145    0.0000   -0.0000   -0.0028
          52   -0.0001   -0.0001    0.0000   -0.0212    0.0000    0.0711   -0.0154   -0.0001
          53   -0.0000   -0.0000    0.0000    0.0042   -0.0000   -0.0437   -0.0059    0.0000
          54   -0.1063   -0.1669    0.0290    0.0001    0.0145   -0.0000    0.0000    0.0028
          55    0.0001    0.0001   -0.0000   -0.0041   -0.0000    0.1734   -0.0204   -0.0000
          56    0.0000    0.0000    0.0000   -0.0175    0.0000    0.1924   -0.0204   -0.0000
          57    0.1442    0.1029   -0.0846   -0.0001   -0.0324   -0.0001    0.0000   -0.0160


   Root No.      25        26        27        28        29        30        31        32

                25 A      26 A      27 A      28 A      29 A      30 A      31 A      32 A   

                1107.4    1114.3    1150.3    1178.2    1196.2    1271.0    1273.2    1326.1
  
           1   -0.0066    0.0000    0.0030   -0.0041   -0.0119   -0.0137    0.0595   -0.0263
           2    0.0049    0.0000    0.0040    0.0030    0.0087   -0.0201   -0.0433    0.0192
           3   -0.0000    0.0564   -0.0000    0.0000   -0.0000    0.0000   -0.0000   -0.0000
           4    0.0028   -0.0000   -0.0032    0.0124   -0.0123    0.0348   -0.0393   -0.0181
           5    0.0081   -0.0000   -0.0001    0.0081    0.0044    0.0213   -0.0187   -0.0271
           6   -0.0000   -0.0273    0.0000   -0.0000    0.0000   -0.0000    0.0000    0.0000
           7   -0.0069    0.0000    0.0009   -0.0040   -0.0079    0.0101    0.0058    0.0206
           8   -0.0052   -0.0000   -0.0031   -0.0142    0.0105    0.0407    0.0419    0.0258
           9    0.0000   -0.0272    0.0000   -0.0000    0.0000    0.0000   -0.0000   -0.0000
          10    0.0078   -0.0000   -0.0096    0.0170    0.0173    0.0067    0.0004   -0.0092
          11   -0.0099   -0.0000    0.0018    0.0098   -0.0372    0.0191    0.0160    0.0252
          12    0.0000   -0.0027    0.0000   -0.0000   -0.0000   -0.0000    0.0000    0.0000
          13    0.0119    0.0000    0.0044   -0.0043    0.0407    0.0157   -0.0157   -0.0277
          14   -0.0046   -0.0000   -0.0089   -0.0190   -0.0053    0.0120   -0.0055    0.0018
          15   -0.0000   -0.0027    0.0000    0.0000   -0.0000   -0.0000    0.0000    0.0000
          16   -0.0165   -0.0000   -0.0052    0.0048   -0.0138   -0.0127    0.0210    0.0224
          17    0.0229    0.0000    0.0089    0.0126    0.0090    0.0157    0.0050    0.0002
          18    0.0000    0.0002    0.0000   -0.0000    0.0000    0.0000   -0.0000   -0.0000
          19   -0.0267   -0.0000    0.0103   -0.0108   -0.0128    0.0189    0.0009    0.0054
          20    0.0090    0.0000   -0.0027   -0.0084    0.0104   -0.0080   -0.0214   -0.0223
          21    0.0000    0.0002   -0.0000    0.0000    0.0000   -0.0000    0.0000    0.0000
          22    0.0065   -0.0000   -0.0075   -0.0114    0.0039   -0.0209   -0.0070   -0.0064
          23   -0.0043   -0.0000    0.0008    0.0076    0.0103   -0.0088    0.0105    0.0076
          24   -0.0000   -0.0002    0.0000    0.0000   -0.0000    0.0000    0.0000    0.0000
          25    0.0059    0.0000    0.0026   -0.0105   -0.0086   -0.0025   -0.0119   -0.0081
          26   -0.0048   -0.0000   -0.0067    0.0087   -0.0068   -0.0225    0.0043    0.0042
          27   -0.0000   -0.0002   -0.0000    0.0000    0.0000    0.0000    0.0000    0.0000
          28    0.0027    0.0631    0.0048    0.0156    0.0346   -0.0443   -0.1120    0.0811
          29   -0.0019    0.0844    0.0063   -0.0114   -0.0255   -0.0577    0.0837   -0.0601
          30   -0.0000   -0.0224   -0.0019    0.0000    0.0000    0.0317   -0.0005    0.0003
          31    0.0026   -0.0631    0.0048    0.0155    0.0346   -0.0443   -0.1120    0.0812
          32   -0.0018   -0.0844    0.0063   -0.0115   -0.0255   -0.0577    0.0837   -0.0601
          33    0.0000   -0.0224    0.0019   -0.0000   -0.0000   -0.0317    0.0005   -0.0003
          34    0.0087   -0.1594   -0.0032   -0.0575    0.0688   -0.0787    0.0115    0.0960
          35    0.0191   -0.0457    0.0022   -0.0559    0.0936   -0.0927    0.0545   -0.0260
          36    0.0030    0.0215    0.0011   -0.0044    0.0127   -0.0124    0.0173   -0.0460
          37    0.0087    0.1594   -0.0032   -0.0575    0.0688   -0.0787    0.0114    0.0960
          38    0.0191    0.0457    0.0022   -0.0559    0.0936   -0.0927    0.0545   -0.0259
          39   -0.0031    0.0215   -0.0011    0.0045   -0.0128    0.0125   -0.0173    0.0460
          40   -0.0157   -0.0041    0.0037    0.0361   -0.0687   -0.0657   -0.0465    0.0543
          41   -0.0143    0.1648   -0.0012    0.0717   -0.0938   -0.1034   -0.0241   -0.0841
          42    0.0030    0.0214   -0.0012   -0.0044    0.0127    0.0127    0.0168   -0.0465
          43   -0.0158    0.0041    0.0037    0.0361   -0.0688   -0.0657   -0.0465    0.0543
          44   -0.0142   -0.1648   -0.0012    0.0717   -0.0938   -0.1035   -0.0241   -0.0841
          45   -0.0031    0.0214    0.0012    0.0044   -0.0128   -0.0127   -0.0168    0.0465
          46    0.0772    0.0000   -0.0832   -0.0886   -0.0838   -0.0303   -0.0090    0.0136
          47    0.1516    0.0001   -0.0936   -0.1144   -0.0851   -0.0037   -0.0381   -0.0147
          48   -0.0001   -0.0002    0.0001    0.0001    0.0001    0.0000    0.0000   -0.0000
          49    0.0945    0.0000   -0.1392    0.0381    0.0122   -0.0182    0.0296    0.0180
          50   -0.1983   -0.0000    0.2975   -0.1054   -0.0085   -0.0223   -0.0713   -0.0469
          51   -0.0000    0.0001    0.0000    0.0000   -0.0000    0.0000    0.0000    0.0000
          52    0.2208    0.0000    0.3242    0.1094    0.0114   -0.0137    0.0770    0.0509
          53   -0.0310   -0.0000   -0.0433   -0.0044   -0.0090   -0.0242   -0.0060   -0.0026
          54   -0.0001    0.0001   -0.0002   -0.0001   -0.0000    0.0000   -0.0000   -0.0000
          55   -0.1230   -0.0000   -0.0609    0.0829    0.0562    0.0064    0.0335    0.0180
          56   -0.1213   -0.0000   -0.1034    0.1195    0.1055   -0.0295    0.0211   -0.0079
          57    0.0001   -0.0002    0.0000   -0.0001   -0.0000    0.0000   -0.0000   -0.0000


   Root No.      33        34        35        36        37        38        39        40

                33 A      34 A      35 A      36 A      37 A      38 A      39 A      40 A   

                1327.4    1381.1    1403.2    1420.1    1439.9    1588.3    1614.6    1799.7
  
           1    0.0062    0.0086   -0.0189   -0.0294   -0.0001   -0.0012    0.0016   -0.0045
           2    0.0099    0.0116    0.0141   -0.0399   -0.0002    0.0008    0.0022   -0.0061
           3   -0.0000    0.0000    0.0000   -0.0000    0.0000   -0.0000   -0.0000    0.0000
           4   -0.0211    0.0195    0.0166    0.0216    0.0109    0.0178   -0.0040   -0.0076
           5   -0.0229   -0.0143   -0.0363    0.0037    0.0389    0.0214   -0.0488   -0.0082
           6    0.0000    0.0000    0.0000   -0.0000   -0.0000   -0.0000    0.0000    0.0000
           7   -0.0147   -0.0196    0.0396   -0.0028    0.0337   -0.0149   -0.0455   -0.0055
           8   -0.0258    0.0143   -0.0050    0.0217    0.0220   -0.0234   -0.0186   -0.0096
           9    0.0000   -0.0000   -0.0000   -0.0000   -0.0000    0.0000    0.0000   -0.0000
          10   -0.0523   -0.0112   -0.0082   -0.0035   -0.0454   -0.0569   -0.0177    0.1264
          11    0.0361   -0.0069    0.0160   -0.0038   -0.0205   -0.0421    0.1266   -0.0231
          12    0.0000    0.0000    0.0000    0.0000    0.0000    0.0000   -0.0000   -0.0000
          13    0.0489   -0.0031   -0.0178   -0.0026   -0.0059    0.0223    0.1262   -0.0600
          14   -0.0389   -0.0128    0.0031   -0.0045   -0.0493    0.0672    0.0214    0.1132
          15   -0.0000    0.0000    0.0000    0.0000    0.0000   -0.0000   -0.0000    0.0000
          16    0.0342    0.0080    0.0102    0.0009    0.0044    0.0262   -0.0559   -0.0542
          17    0.0802    0.0040   -0.0011   -0.0035   -0.0222   -0.0608   -0.0577    0.0214
          18   -0.0000   -0.0000   -0.0000    0.0000    0.0000    0.0000    0.0000    0.0000
          19    0.0669    0.0015    0.0041   -0.0036   -0.0223    0.0659   -0.0379    0.0369
          20    0.0549    0.0088   -0.0094   -0.0003   -0.0026   -0.0067   -0.0705   -0.0448
          21   -0.0000   -0.0000   -0.0000    0.0000    0.0000   -0.0000    0.0000   -0.0000
          22    0.0018    0.0109   -0.0025    0.0055    0.0589    0.0062    0.0306    0.0737
          23   -0.0729   -0.0089    0.0023   -0.0006   -0.0197    0.0941   -0.0028   -0.0974
          24    0.0000   -0.0000    0.0000   -0.0000   -0.0000   -0.0000   -0.0000   -0.0000
          25   -0.0710   -0.0118   -0.0029   -0.0022   -0.0367   -0.0873   -0.0125   -0.1152
          26   -0.0199    0.0078    0.0018    0.0051    0.0502   -0.0345    0.0281    0.0410
          27    0.0000    0.0000    0.0000    0.0000    0.0000    0.0001    0.0000    0.0001
          28    0.0400   -0.0476    0.0538    0.1173   -0.0157   -0.0087    0.0042    0.0000
          29    0.0507   -0.0645   -0.0402    0.1594   -0.0212    0.0064    0.0058    0.0000
          30   -0.0347    0.0624    0.0005   -0.1618    0.0182   -0.0000   -0.0039   -0.0073
          31    0.0400   -0.0476    0.0538    0.1173   -0.0157   -0.0087    0.0042    0.0000
          32    0.0507   -0.0645   -0.0402    0.1594   -0.0212    0.0064    0.0058    0.0000
          33    0.0347   -0.0624   -0.0005    0.1618   -0.0182    0.0000    0.0039    0.0073
          34    0.0317   -0.0877   -0.0756   -0.0689   -0.0058   -0.0171   -0.0030    0.0150
          35   -0.0156    0.0885    0.0969    0.0204   -0.0562   -0.0115   -0.0043    0.0139
          36   -0.0182    0.0962    0.1053    0.0452   -0.0423   -0.0017    0.0214    0.0039
          37    0.0317   -0.0877   -0.0756   -0.0689   -0.0058   -0.0171   -0.0030    0.0150
          38   -0.0156    0.0885    0.0969    0.0204   -0.0561   -0.0115   -0.0043    0.0140
          39    0.0182   -0.0963   -0.1054   -0.0452    0.0423    0.0017   -0.0214   -0.0039
          40   -0.0223    0.1109   -0.1151    0.0395   -0.0518    0.0059   -0.0031    0.0088
          41    0.0218   -0.0570    0.0432   -0.0592   -0.0222    0.0199   -0.0041    0.0184
          42    0.0163   -0.0964    0.1053   -0.0446    0.0422   -0.0016   -0.0214   -0.0039
          43   -0.0223    0.1108   -0.1151    0.0395   -0.0517    0.0059   -0.0031    0.0088
          44    0.0218   -0.0570    0.0432   -0.0592   -0.0223    0.0199   -0.0041    0.0184
          45   -0.0163    0.0964   -0.1054    0.0446   -0.0422    0.0016    0.0214    0.0039
          46   -0.0311    0.0077    0.0108    0.0067    0.0638    0.0639    0.0499   -0.0505
          47   -0.0043    0.0022   -0.0018    0.0036    0.0524   -0.0283    0.0952    0.0449
          48    0.0000   -0.0000   -0.0000   -0.0000   -0.0000   -0.0000   -0.0000    0.0000
          49   -0.0075    0.0059    0.0047    0.0034    0.0309    0.0904    0.0125    0.0097
          50   -0.0616    0.0050   -0.0140    0.0060    0.0622   -0.0764    0.0494    0.0593
          51    0.0000   -0.0000    0.0000   -0.0000   -0.0000   -0.0000   -0.0000   -0.0000
          52   -0.0535    0.0030    0.0148    0.0047    0.0503    0.0994    0.0440    0.0536
          53   -0.0258    0.0071   -0.0003    0.0051    0.0480   -0.0636    0.0262    0.0268
          54    0.0000   -0.0000   -0.0000   -0.0000   -0.0000   -0.0000   -0.0000   -0.0000
          55    0.0075   -0.0001    0.0049    0.0014    0.0312    0.0457    0.0760    0.0578
          56   -0.0307    0.0081   -0.0097    0.0074    0.0765   -0.0531    0.0758   -0.0348
          57   -0.0000   -0.0000   -0.0000   -0.0000   -0.0000   -0.0000   -0.0000   -0.0000


   Root No.      41        42        43        44        45        46        47        48

                41 A      42 A      43 A      44 A      45 A      46 A      47 A      48 A   

                1819.8    2969.1    2974.8    2992.2    3053.5    3054.0    3056.1    3064.8
  
           1    0.0007   -0.0000    0.0000    0.0000    0.0005    0.0033   -0.0000   -0.0003
           2   -0.0006   -0.0000    0.0000    0.0000   -0.0004    0.0044    0.0000   -0.0004
           3   -0.0000    0.0187    0.0000   -0.0331   -0.0000    0.0000    0.0000   -0.0000
           4    0.0136   -0.0000    0.0000   -0.0000    0.0129    0.0120   -0.0005    0.0001
           5    0.0188   -0.0000    0.0000    0.0000   -0.0164   -0.0152    0.0006   -0.0000
           6   -0.0000   -0.0216    0.0305   -0.0142   -0.0000   -0.0000    0.0000   -0.0000
           7   -0.0139   -0.0000   -0.0000   -0.0000    0.0196   -0.0181   -0.0007   -0.0001
           8   -0.0186    0.0000    0.0000    0.0000   -0.0074    0.0069    0.0003    0.0001
           9    0.0000   -0.0215   -0.0305   -0.0142   -0.0000    0.0000    0.0000   -0.0000
          10   -0.1070    0.0000   -0.0000   -0.0000   -0.0004    0.0003    0.0003   -0.0006
          11   -0.0758    0.0000   -0.0000    0.0000   -0.0003   -0.0003   -0.0001   -0.0004
          12    0.0001   -0.0001   -0.0001   -0.0001    0.0000   -0.0000   -0.0000    0.0000
          13    0.0400   -0.0000   -0.0000   -0.0000    0.0002   -0.0003    0.0002   -0.0002
          14    0.1255   -0.0000   -0.0000   -0.0000    0.0005    0.0002   -0.0002   -0.0007
          15   -0.0000   -0.0001    0.0001   -0.0001   -0.0000    0.0000   -0.0000    0.0000
          16    0.0964   -0.0000    0.0000   -0.0000   -0.0002   -0.0001   -0.0084    0.0156
          17    0.1049   -0.0000    0.0000   -0.0000    0.0002    0.0001    0.0051   -0.0103
          18   -0.0001   -0.0000    0.0000   -0.0000    0.0000   -0.0000    0.0000   -0.0000
          19   -0.0713    0.0000    0.0000    0.0000   -0.0003    0.0001   -0.0073   -0.0146
          20   -0.1238   -0.0000   -0.0000   -0.0000    0.0001   -0.0000    0.0064    0.0118
          21    0.0000   -0.0000   -0.0000   -0.0000    0.0000    0.0000    0.0000    0.0000
          22   -0.0108   -0.0000    0.0000   -0.0000    0.0007   -0.0000    0.0258   -0.0192
          23   -0.0624    0.0000   -0.0000    0.0000    0.0003   -0.0001    0.0121   -0.0071
          24    0.0000   -0.0000    0.0000   -0.0000   -0.0000    0.0000   -0.0000    0.0000
          25    0.0561   -0.0000   -0.0000    0.0000   -0.0001   -0.0001   -0.0038   -0.0010
          26    0.0291   -0.0000   -0.0000   -0.0000   -0.0008   -0.0001   -0.0281   -0.0206
          27   -0.0000   -0.0000   -0.0000   -0.0000    0.0000    0.0000    0.0000    0.0000
          28   -0.0044   -0.0507   -0.0029    0.0921    0.0010   -0.0183   -0.0000    0.0018
          29    0.0032   -0.0690    0.0020    0.1255   -0.0007   -0.0249    0.0000    0.0025
          30   -0.0000   -0.1124   -0.0001    0.1977    0.0001   -0.0474   -0.0000    0.0047
          31   -0.0044    0.0507    0.0029   -0.0922    0.0010   -0.0183   -0.0000    0.0018
          32    0.0032    0.0690   -0.0020   -0.1255   -0.0007   -0.0249    0.0000    0.0025
          33    0.0000   -0.1124   -0.0001    0.1977   -0.0000    0.0474    0.0000   -0.0047
          34   -0.0145    0.0615   -0.0891    0.0436   -0.0789   -0.0712    0.0027   -0.0003
          35   -0.0069   -0.0789    0.1117   -0.0519    0.0986    0.0896   -0.0035    0.0005
          36    0.0009    0.1299   -0.1840    0.0851   -0.1932   -0.1753    0.0068   -0.0008
          37   -0.0145   -0.0615    0.0890   -0.0435   -0.0790   -0.0713    0.0027   -0.0003
          38   -0.0069    0.0789   -0.1117    0.0519    0.0988    0.0898   -0.0035    0.0005
          39   -0.0009    0.1297   -0.1837    0.0849    0.1933    0.1754   -0.0068    0.0008
          40    0.0023    0.0936    0.1334    0.0626   -0.1179    0.1067    0.0042    0.0005
          41    0.0160   -0.0350   -0.0516   -0.0261    0.0457   -0.0410   -0.0016   -0.0001
          42    0.0009    0.1297    0.1841    0.0851   -0.1934    0.1750    0.0069    0.0008
          43    0.0022   -0.0936   -0.1333   -0.0626   -0.1181    0.1068    0.0042    0.0005
          44    0.0160    0.0350    0.0515    0.0260    0.0458   -0.0411   -0.0016   -0.0001
          45   -0.0009    0.1296    0.1838    0.0850    0.1936   -0.1752   -0.0069   -0.0008
          46   -0.0158   -0.0000    0.0000   -0.0000    0.0033    0.0009    0.0932   -0.1760
          47   -0.0571    0.0000   -0.0000    0.0000   -0.0026   -0.0009   -0.0661    0.1278
          48    0.0000    0.0001   -0.0000    0.0000   -0.0000   -0.0000   -0.0000    0.0001
          49   -0.0414    0.0000    0.0000   -0.0000   -0.0088    0.0008   -0.3021    0.2143
          50   -0.0071    0.0000    0.0000   -0.0000   -0.0039    0.0004   -0.1358    0.0924
          51    0.0000    0.0000    0.0000    0.0000    0.0000   -0.0000    0.0002   -0.0002
          52   -0.0054    0.0000    0.0000    0.0000    0.0011    0.0001    0.0389    0.0241
          53    0.0417   -0.0000    0.0000    0.0000    0.0095    0.0007    0.3274    0.2332
          54    0.0000    0.0000   -0.0000    0.0000   -0.0000   -0.0000   -0.0001   -0.0001
          55    0.0500   -0.0000   -0.0000   -0.0000    0.0035   -0.0012    0.0905    0.1757
          56    0.0320    0.0000    0.0000    0.0000   -0.0023    0.0006   -0.0687   -0.1304
          57   -0.0000    0.0001    0.0000    0.0000   -0.0000    0.0000   -0.0000   -0.0001


   Root No.      49        50        51

                49 A      50 A      51 A   

                3069.2    3074.5    3081.1
  
           1   -0.0199    0.0000   -0.0001
           2   -0.0270   -0.0000   -0.0002
           3   -0.0000    0.0000   -0.0000
           4    0.0023   -0.0002   -0.0002
           5   -0.0037   -0.0000   -0.0000
           6   -0.0000    0.0000   -0.0000
           7   -0.0042   -0.0000   -0.0000
           8    0.0011    0.0002   -0.0002
           9    0.0000   -0.0000    0.0000
          10    0.0005    0.0015    0.0010
          11    0.0002    0.0005    0.0010
          12   -0.0000   -0.0000   -0.0000
          13   -0.0000   -0.0001    0.0007
          14    0.0005   -0.0016    0.0012
          15   -0.0000    0.0000   -0.0000
          16   -0.0003   -0.0242   -0.0169
          17    0.0002    0.0179    0.0132
          18    0.0000    0.0000    0.0000
          19    0.0002   -0.0244    0.0176
          20   -0.0002    0.0177   -0.0122
          21   -0.0000    0.0000   -0.0000
          22    0.0005   -0.0089   -0.0186
          23    0.0001   -0.0056   -0.0081
          24   -0.0000    0.0000    0.0000
          25   -0.0000    0.0027   -0.0022
          26    0.0005    0.0103   -0.0202
          27   -0.0000   -0.0000    0.0000
          28    0.1196    0.0000    0.0006
          29    0.1629    0.0000    0.0009
          30    0.3081    0.0000    0.0016
          31    0.1196    0.0000    0.0006
          32    0.1629    0.0000    0.0009
          33   -0.3080   -0.0000   -0.0016
          34   -0.0178    0.0001    0.0002
          35    0.0209   -0.0003   -0.0005
          36   -0.0418    0.0005    0.0008
          37   -0.0179    0.0001    0.0002
          38    0.0210   -0.0003   -0.0005
          39    0.0418   -0.0005   -0.0008
          40    0.0253    0.0003   -0.0005
          41   -0.0108   -0.0000    0.0001
          42    0.0418    0.0005   -0.0008
          43    0.0254    0.0003   -0.0005
          44   -0.0108   -0.0000    0.0001
          45   -0.0418   -0.0005    0.0008
          46    0.0023    0.2731    0.1888
          47   -0.0017   -0.2015   -0.1402
          48   -0.0000   -0.0001   -0.0001
          49   -0.0056    0.1052    0.1991
          50   -0.0024    0.0495    0.0886
          51    0.0000   -0.0001   -0.0001
          52   -0.0006   -0.0159    0.0249
          53   -0.0060   -0.1164    0.2168
          54    0.0000    0.0000   -0.0001
          55   -0.0025    0.2741   -0.1896
          56    0.0017   -0.2002    0.1376
          57    0.0000   -0.0001    0.0001


           MASS-WEIGHTED COORDINATE ANALYSIS (NORMAL COORDINATES)


   Root No.       1         2         3         4         5         6         7         8

                 1 A       2 A       3 A       4 A       5 A       6 A       7 A       8 A   

                  72.3     160.9     227.3     391.3     394.7     467.2     543.9     582.9
  
           1   -0.0000    0.0001   -0.0000   -0.2393   -0.0006   -0.0000   -0.2464    0.1374
           2   -0.0000   -0.0000    0.0001    0.1759    0.0005    0.0001   -0.3354   -0.1015
           3    0.5001   -0.0012   -0.1003    0.0001   -0.0356    0.0001    0.0000   -0.0000
           4   -0.0000    0.0001   -0.0000   -0.1727   -0.0004   -0.0000   -0.2285    0.0577
           5   -0.0001    0.0001   -0.0001   -0.2143   -0.0007   -0.0001   -0.1351   -0.3378
           6   -0.2571    0.3924   -0.1932    0.0002   -0.0078   -0.0082    0.0001    0.0001
           7   -0.0000   -0.0000    0.0001    0.1526    0.0005    0.0000   -0.0608    0.3398
           8   -0.0000   -0.0000    0.0001    0.2292    0.0007    0.0001   -0.2585    0.0457
           9   -0.2586   -0.3919   -0.1917   -0.0000   -0.0077    0.0081    0.0001   -0.0001
          10   -0.0000   -0.0000    0.0001    0.3030    0.0010    0.0002   -0.0571   -0.1783
          11   -0.0000   -0.0000    0.0000   -0.2694   -0.0007   -0.0000   -0.0531   -0.2232
          12   -0.1383   -0.0103    0.3862   -0.0013    0.3927    0.3154    0.0002   -0.0000
          13   -0.0000   -0.0000    0.0001    0.3473    0.0011    0.0000   -0.0337    0.1601
          14   -0.0000    0.0000    0.0000   -0.2078   -0.0005   -0.0001   -0.0706    0.2363
          15   -0.1381    0.0123    0.3861   -0.0011    0.3930   -0.3152    0.0002   -0.0003
          16    0.0000   -0.0002    0.0001    0.1778    0.0002    0.0001   -0.1493   -0.3038
          17    0.0000   -0.0001    0.0000    0.1101    0.0002    0.0001    0.3243   -0.1365
          18   -0.0060   -0.3193    0.2714    0.0009   -0.3737    0.1892    0.0000    0.0001
          19   -0.0000    0.0001    0.0001   -0.0521   -0.0004   -0.0001    0.3541    0.0399
          20   -0.0000    0.0000    0.0000   -0.2035   -0.0005   -0.0001   -0.0456    0.3319
          21   -0.0046    0.3202    0.2701    0.0010   -0.3735   -0.1898   -0.0001    0.0000
          22    0.0001   -0.0002   -0.0002   -0.1595   -0.0004   -0.0003    0.2242   -0.3369
          23    0.0001   -0.0000   -0.0001    0.1848    0.0005   -0.0000    0.3260   -0.1258
          24    0.1390   -0.2470   -0.2961   -0.0002    0.1354   -0.4069   -0.0002    0.0002
          25    0.0001    0.0001   -0.0002   -0.2232   -0.0006    0.0002    0.2438    0.0182
          26    0.0000    0.0000   -0.0001    0.0967    0.0003    0.0001    0.3112    0.3593
          27    0.1399    0.2455   -0.2967   -0.0004    0.1348    0.4074   -0.0002   -0.0001
          28   -0.1366    0.0659   -0.0225   -0.1120    0.0027    0.0009   -0.0769    0.0024
          29   -0.1865   -0.0479   -0.0304    0.0823    0.0044   -0.0007   -0.1047   -0.0019
          30    0.3212   -0.0007    0.0001    0.0000   -0.0143    0.0001    0.0050   -0.0000
          31    0.1366   -0.0658    0.0225   -0.1120   -0.0034   -0.0009   -0.0769    0.0023
          32    0.1865    0.0479    0.0305    0.0823   -0.0039    0.0007   -0.1047   -0.0019
          33    0.3212   -0.0007    0.0001    0.0001   -0.0143    0.0001   -0.0050   -0.0000
          34    0.1298   -0.0715    0.0232   -0.1102    0.0027    0.0211   -0.0729    0.0257
          35   -0.0709    0.1118   -0.1393   -0.1068   -0.1056   -0.1255   -0.0424   -0.1001
          36   -0.1779    0.2142   -0.1504    0.0006   -0.0672   -0.0890    0.0004   -0.0039
          37   -0.1298    0.0716   -0.0233   -0.1101   -0.0033   -0.0211   -0.0729    0.0257
          38    0.0708   -0.1117    0.1392   -0.1076    0.1049    0.1253   -0.0424   -0.1001
          39   -0.1779    0.2143   -0.1505   -0.0000   -0.0672   -0.0891   -0.0003    0.0039
          40    0.1071    0.1281    0.1394    0.0690    0.1017   -0.1260   -0.0187    0.1032
          41   -0.1029   -0.0343    0.0197    0.1372    0.0291   -0.0174   -0.0822    0.0054
          42   -0.1788   -0.2140   -0.1497    0.0005   -0.0673    0.0890   -0.0003   -0.0039
          43   -0.1071   -0.1282   -0.1393    0.0695   -0.1012    0.1260   -0.0188    0.1034
          44    0.1028    0.0343   -0.0196    0.1374   -0.0283    0.0175   -0.0823    0.0055
          45   -0.1788   -0.2140   -0.1497   -0.0002   -0.0673    0.0891    0.0003    0.0039
          46    0.0000   -0.0001    0.0000    0.1195    0.0001    0.0001   -0.0341   -0.0718
          47    0.0000   -0.0000    0.0000    0.1246    0.0002    0.0001    0.1048   -0.0170
          48    0.0003   -0.1666    0.1141    0.0010   -0.3846    0.1121   -0.0000    0.0001
          49    0.0000   -0.0001   -0.0001   -0.0694   -0.0002   -0.0002    0.0900   -0.0587
          50    0.0000   -0.0000   -0.0001    0.1074    0.0003   -0.0001    0.0397   -0.1236
          51    0.0751   -0.1485   -0.2202   -0.0001    0.0886   -0.3715   -0.0001    0.0001
          52    0.0000    0.0001   -0.0001   -0.1234   -0.0003    0.0002    0.0106    0.1007
          53    0.0000    0.0000   -0.0000    0.0340    0.0001    0.0001    0.0977    0.0930
          54    0.0756    0.1473   -0.2203   -0.0003    0.0882    0.3714   -0.0000   -0.0001
          55   -0.0000    0.0001    0.0000   -0.0830   -0.0004   -0.0001    0.1102   -0.0052
          56   -0.0000    0.0000    0.0000   -0.1514   -0.0004   -0.0001   -0.0012    0.0737
          57    0.0010    0.1669    0.1134    0.0011   -0.3845   -0.1128   -0.0000    0.0001


   Root No.       9        10        11        12        13        14        15        16

                 9 A      10 A      11 A      12 A      13 A      14 A      15 A      16 A   

                 664.8     687.7     747.2     783.4     856.7     858.7     912.6     926.1
  
           1    0.0002    0.2497   -0.0001    0.0000   -0.0001   -0.0176   -0.0238    0.0000
           2    0.0003    0.3397   -0.0001    0.0000    0.0001    0.0130   -0.0326    0.0000
           3   -0.0001    0.0000    0.1607   -0.1920   -0.0002    0.0000   -0.0000    0.0002
           4    0.0003    0.3258   -0.0001    0.0001   -0.0000   -0.0142   -0.0751    0.0001
           5   -0.0002   -0.2427    0.0001   -0.0000    0.0015    0.2923    0.3744   -0.0003
           6    0.1351   -0.0000    0.1388   -0.0716   -0.1974    0.0009   -0.0002   -0.2363
           7   -0.0004   -0.3289    0.0002    0.0000   -0.0014   -0.2828    0.3796   -0.0003
           8    0.0002    0.2380   -0.0001    0.0001   -0.0003   -0.0743    0.0404   -0.0000
           9   -0.1353    0.0002    0.1389   -0.0720    0.1974   -0.0010    0.0001    0.2354
          10    0.0001   -0.1315    0.0000    0.0000    0.0007    0.1342   -0.1567    0.0002
          11   -0.0001   -0.1908    0.0001    0.0000    0.0000    0.0010    0.0542    0.0000
          12    0.4247   -0.0004   -0.0268    0.1490    0.0894   -0.0005    0.0002    0.3029
          13   -0.0002   -0.1427    0.0000    0.0000    0.0002    0.0387    0.0986   -0.0002
          14   -0.0003   -0.1822    0.0001   -0.0000   -0.0007   -0.1273   -0.1331    0.0001
          15   -0.4245    0.0004   -0.0273    0.1493   -0.0891    0.0006   -0.0003   -0.3027
          16   -0.0003   -0.3184    0.0001   -0.0001    0.0011    0.2071   -0.3705    0.0001
          17    0.0001    0.1217   -0.0000    0.0000   -0.0012   -0.2542    0.0498   -0.0001
          18   -0.1746    0.0002   -0.1054   -0.0908    0.2495   -0.0013    0.0000   -0.1458
          19    0.0003    0.2118   -0.0002   -0.0000    0.0015    0.3039    0.1588   -0.0000
          20   -0.0003   -0.2668    0.0001   -0.0000   -0.0007   -0.1222   -0.3385    0.0002
          21    0.1746   -0.0002   -0.1054   -0.0906   -0.2499    0.0011    0.0001    0.1475
          22    0.0002    0.0357    0.0000   -0.0001   -0.0021   -0.4298   -0.0355   -0.0001
          23    0.0001    0.0965   -0.0000   -0.0000   -0.0009   -0.1784   -0.0314   -0.0000
          24    0.1735   -0.0002   -0.1251   -0.1801    0.1299   -0.0004   -0.0001   -0.1637
          25   -0.0000    0.0816   -0.0001   -0.0001    0.0001    0.0427   -0.0192    0.0001
          26    0.0000    0.0636   -0.0001   -0.0001    0.0023    0.4633   -0.0432    0.0000
          27   -0.1736    0.0001   -0.1246   -0.1793   -0.1302    0.0005    0.0002    0.1627
          28    0.0436    0.0837    0.1745   -0.1687   -0.1078    0.0657   -0.0038   -0.1894
          29   -0.0320    0.1140    0.2379   -0.2302    0.0788   -0.0482   -0.0050    0.1393
          30    0.0001   -0.0103   -0.1879    0.1713    0.0002    0.0000   -0.0024   -0.0001
          31   -0.0434    0.0836   -0.1746    0.1687    0.1085    0.0646   -0.0036    0.1894
          32    0.0322    0.1137   -0.2380    0.2302   -0.0792   -0.0475   -0.0051   -0.1393
          33    0.0001    0.0100   -0.1879    0.1713    0.0002   -0.0000    0.0024   -0.0001
          34    0.0293    0.0865    0.1493   -0.1520   -0.1084    0.0192    0.0658   -0.2259
          35   -0.2055   -0.0918   -0.1674    0.0552    0.1563    0.1180    0.2214    0.0974
          36   -0.1009   -0.0068   -0.1367    0.0890    0.0919    0.0079    0.0208    0.1029
          37   -0.0292    0.0864   -0.1494    0.1521    0.1086    0.0180    0.0660    0.2257
          38    0.2052   -0.0921    0.1673   -0.0552   -0.1550    0.1196    0.2214   -0.0976
          39   -0.1010    0.0069   -0.1369    0.0890    0.0920   -0.0089   -0.0208    0.1030
          40   -0.2050   -0.1133    0.2044   -0.0984    0.1804   -0.1087    0.1916    0.1595
          41   -0.0335    0.0549   -0.0924    0.1290   -0.0569   -0.0534    0.1292   -0.1871
          42    0.1010    0.0067   -0.1368    0.0891   -0.0917    0.0088   -0.0209   -0.1026
          43    0.2047   -0.1138   -0.2043    0.0984   -0.1814   -0.1069    0.1914   -0.1598
          44    0.0336    0.0548    0.0924   -0.1289    0.0564   -0.0540    0.1294    0.1870
          45    0.1010   -0.0070   -0.1368    0.0892   -0.0918   -0.0079    0.0207   -0.1027
          46   -0.0002   -0.0982    0.0002    0.0001    0.0004    0.1257   -0.2095    0.0002
          47   -0.0000    0.0272    0.0001    0.0000   -0.0001    0.0129   -0.1184    0.0001
          48   -0.3189    0.0005    0.2519    0.2141   -0.4593    0.0023    0.0003    0.1723
          49    0.0001    0.0405    0.0002    0.0003   -0.0007   -0.1051    0.0394    0.0001
          50    0.0000   -0.0420    0.0001    0.0001   -0.0006   -0.0990   -0.1294    0.0001
          51    0.1723   -0.0000    0.3415    0.4349   -0.2357    0.0014    0.0002    0.2784
          52   -0.0002   -0.0522    0.0002    0.0002    0.0004    0.0630   -0.1357   -0.0001
          53   -0.0000    0.0263    0.0000    0.0001    0.0007    0.1299   -0.0011   -0.0000
          54   -0.1722    0.0002    0.3412    0.4344    0.2365   -0.0012   -0.0002   -0.2771
          55    0.0002    0.0554    0.0001    0.0001    0.0004    0.0255   -0.0501   -0.0001
          56   -0.0001   -0.0853    0.0001    0.0000   -0.0006   -0.1236   -0.2353    0.0001
          57    0.3190   -0.0002    0.2519    0.2131    0.4599   -0.0023   -0.0001   -0.1744


   Root No.      17        18        19        20        21        22        23        24

                17 A      18 A      19 A      20 A      21 A      22 A      23 A      24 A   

                 943.0    1003.6    1005.9    1011.3    1060.4    1086.5    1101.0    1102.7
  
           1   -0.0000    0.0000   -0.0004    0.3153   -0.0001    0.0255    0.3049    0.0006
           2    0.0000    0.0001   -0.0005    0.4294   -0.0001    0.0350   -0.2235   -0.0004
           3   -0.1321   -0.0035   -0.2063   -0.0003    0.0015   -0.0000   -0.0000   -0.0012
           4    0.0000   -0.0000    0.0004   -0.3414    0.0001   -0.0482   -0.3348   -0.0007
           5    0.0000    0.0000   -0.0001    0.0972   -0.0000    0.0937    0.0539    0.0000
           6    0.1218    0.0324    0.2700    0.0003   -0.0154   -0.0000    0.0004   -0.2372
           7    0.0000    0.0000   -0.0002    0.1956   -0.0000    0.1036   -0.1516   -0.0002
           8    0.0000   -0.0001    0.0003   -0.2965   -0.0000   -0.0183    0.3030    0.0005
           9    0.1231   -0.0230    0.2713    0.0003    0.0134   -0.0000   -0.0004    0.2384
          10    0.0000   -0.0000   -0.0001    0.0265    0.0001   -0.0241   -0.0081    0.0000
          11    0.0000   -0.0000   -0.0000   -0.0119    0.0000   -0.0782   -0.0920   -0.0001
          12    0.0056   -0.0838   -0.2242   -0.0002    0.2411    0.0000   -0.0002    0.1212
          13   -0.0000    0.0000   -0.0001   -0.0195   -0.0001   -0.0670    0.0855    0.0001
          14   -0.0000   -0.0000   -0.0000    0.0219   -0.0000   -0.0468    0.0351    0.0001
          15    0.0036    0.0759   -0.2281   -0.0003   -0.2406   -0.0000    0.0002   -0.1209
          16   -0.0001    0.0001    0.0002   -0.0744   -0.0001   -0.1507   -0.0335   -0.0000
          17   -0.0001    0.0001    0.0000   -0.0158   -0.0000    0.1078    0.0103   -0.0000
          18   -0.3112    0.2647    0.1780    0.0002   -0.1020    0.0000    0.0001   -0.0400
          19   -0.0002   -0.0001    0.0001    0.0070    0.0000    0.1465   -0.0197    0.0001
          20   -0.0000   -0.0000    0.0001   -0.0754    0.0001   -0.1111    0.0291    0.0000
          21   -0.3099   -0.2585    0.1875    0.0003    0.1018   -0.0001   -0.0001    0.0400
          22    0.0001   -0.0002   -0.0001    0.0005    0.0000   -0.2566    0.0524    0.0001
          23    0.0001   -0.0001   -0.0001    0.0342    0.0000   -0.0594    0.0221    0.0000
          24    0.2132   -0.3946   -0.0638   -0.0000    0.0637    0.0002   -0.0001    0.0157
          25    0.0001    0.0002   -0.0001    0.0325   -0.0000    0.0203   -0.0057   -0.0000
          26    0.0001    0.0000   -0.0000    0.0104   -0.0000   -0.2629   -0.0567   -0.0001
          27    0.2136    0.3925   -0.0776   -0.0002   -0.0636    0.0000    0.0000   -0.0158
          28   -0.0727    0.0558   -0.1024    0.0968   -0.0824    0.0114    0.3869    0.5077
          29   -0.0980   -0.0445   -0.1374    0.1324    0.0616    0.0156   -0.2841   -0.3734
          30    0.0589    0.0013    0.0765   -0.0114   -0.0003   -0.0043    0.0001    0.0000
          31    0.0727   -0.0558    0.1022    0.0973    0.0824    0.0114    0.3888   -0.5062
          32    0.0980    0.0446    0.1371    0.1327   -0.0617    0.0156   -0.2854    0.3723
          33    0.0589    0.0013    0.0765    0.0116   -0.0003    0.0043   -0.0000    0.0000
          34   -0.0811    0.1164   -0.1184   -0.2903    0.3563    0.0081   -0.1703   -0.0501
          35   -0.1571    0.0469   -0.3069   -0.1110    0.2779    0.0692   -0.0516    0.1099
          36   -0.0205   -0.0193   -0.0506    0.0080   -0.0074    0.0122   -0.0003    0.0169
          37    0.0811   -0.1165    0.1191   -0.2902   -0.3562    0.0080   -0.1705    0.0495
          38    0.1570   -0.0469    0.3070   -0.1104   -0.2779    0.0692   -0.0512   -0.1101
[...]
 FORCE CONSTANT      1.7765

 VIBRATION         34   34A           ATOM PAIR      ENERGY CONTRIBUTION    RADIAL
 FREQUENCY          1381.07         C  3 -- H 14         +13.7% ( 38.8%)      4.1%
 TRANSITION DIPOLE   0.0879         C  3 -- H 15         +13.7% ( 38.8%)      4.1%
 TRAVEL (Ang.)       0.5021         C  2 -- H 12         +13.7% ( 38.8%)      4.0%
 REDUCED MASS        0.1936         C  2 -- H 13         +13.7% ( 38.8%)      4.0%
 EFFECTIVE MASS      2.7708
 FORCE CONSTANT      0.2176

 VIBRATION         35   35A           ATOM PAIR      ENERGY CONTRIBUTION    RADIAL
 FREQUENCY          1403.24         C  3 -- H 14         +13.3% ( 43.1%)      6.3%
 TRANSITION DIPOLE   0.0056         C  3 -- H 15         +13.3% ( 43.1%)      6.3%
 TRAVEL (Ang.)       0.3340         C  2 -- H 12         +13.3% ( 43.1%)      6.3%
 REDUCED MASS        0.4307         C  2 -- H 13         +13.3% ( 43.1%)      6.3%
 EFFECTIVE MASS      4.3902
 FORCE CONSTANT      0.4996

 VIBRATION         36   36A           ATOM PAIR      ENERGY CONTRIBUTION    RADIAL
 FREQUENCY          1420.10         C  1 -- H 11         +28.6% ( 56.6%)      5.4%
 TRANSITION DIPOLE   0.0702         C  1 -- H 10         +28.6% ( 56.6%)      5.4%
 TRAVEL (Ang.)       0.3117         C  1 -- C  2         +11.3% ( 35.6%)     57.9%
 REDUCED MASS        0.4886         C  1 -- C  3         +11.3% ( 35.6%)     57.3%
 EFFECTIVE MASS      3.0846
 FORCE CONSTANT      0.5805

 VIBRATION         37   37A           ATOM PAIR      ENERGY CONTRIBUTION    RADIAL
 FREQUENCY          1439.87         C  8 -- C  9         +19.5% ( 68.3%)    100.0%
 TRANSITION DIPOLE   0.3758         C  4 -- C  5          +9.2% ( 46.9%)    100.0%
 TRAVEL (Ang.)       0.1868         C  2 -- C  4          +8.4% ( 44.8%)     77.6%
 REDUCED MASS        1.3415         C  3 -- C  5          +8.4% ( 44.6%)     77.5%
 EFFECTIVE MASS     10.2795
 FORCE CONSTANT      1.6387

 VIBRATION         38   38A           ATOM PAIR      ENERGY CONTRIBUTION    RADIAL
 FREQUENCY          1588.35         C  6 -- C  8         +14.3% ( 56.2%)     95.0%
 TRANSITION DIPOLE   0.4997         C  7 -- C  9         +14.2% ( 56.1%)     95.2%
 TRAVEL (Ang.)       0.1565         C  8 -- C  9         +13.4% ( 54.4%)      0.0%
 REDUCED MASS        1.7325         C  4 -- C  5          +9.5% ( 45.9%)      0.0%
 EFFECTIVE MASS     11.4093
 FORCE CONSTANT      2.5752

 VIBRATION         39   39A           ATOM PAIR      ENERGY CONTRIBUTION    RADIAL
 FREQUENCY          1614.58         C  4 -- C  5         +21.3% ( 68.5%)    100.0%
 TRANSITION DIPOLE   0.6195         C  5 -- C  7         +14.7% ( 56.9%)     32.6%
 TRAVEL (Ang.)       0.1287         C  4 -- C  6         +14.7% ( 56.9%)     32.4%
 REDUCED MASS        2.5223         C  3 -- C  5         +11.9% ( 51.2%)     88.9%
 EFFECTIVE MASS     11.4559         C  2 -- C  4         +11.8% ( 51.1%)     88.7%
 FORCE CONSTANT      3.8741

 VIBRATION         40   40A           ATOM PAIR      ENERGY CONTRIBUTION    RADIAL
 FREQUENCY          1799.73         C  4 -- C  5         +17.8% ( 58.4%)    100.0%
 TRANSITION DIPOLE   0.2141         C  8 -- C  9         +16.3% ( 56.0%)    100.0%
 TRAVEL (Ang.)       0.1254         C  4 -- C  6         +10.6% ( 45.2%)     64.1%
 REDUCED MASS        2.3832         C  5 -- C  7         +10.6% ( 45.0%)     63.6%
 EFFECTIVE MASS     11.8821
 FORCE CONSTANT      4.5481

 VIBRATION         41   41A           ATOM PAIR      ENERGY CONTRIBUTION    RADIAL
 FREQUENCY          1819.84         C  5 -- C  7         +17.9% ( 59.6%)     90.0%
 TRANSITION DIPOLE   0.3085         C  4 -- C  6         +17.7% ( 59.3%)     89.8%
 TRAVEL (Ang.)       0.1241         C  4 -- C  5         +13.5% ( 51.7%)      0.0%
 REDUCED MASS        2.4054         C  7 -- C  9          +9.5% ( 43.3%)     79.0%
 EFFECTIVE MASS     11.8976
 FORCE CONSTANT      4.6936

 VIBRATION         42   42A           ATOM PAIR      ENERGY CONTRIBUTION    RADIAL
 FREQUENCY          2969.11         C  2 -- H 12         +17.8% ( 43.9%)     96.5%
 TRANSITION DIPOLE   0.0390         C  2 -- H 13         +17.7% ( 43.9%)     96.4%
 TRAVEL (Ang.)       0.3591         C  3 -- H 14         +17.7% ( 43.9%)     96.5%
 REDUCED MASS        0.1762         C  3 -- H 15         +17.7% ( 43.9%)     96.4%
 EFFECTIVE MASS      1.5602         C  1 -- H 11         +13.3% ( 38.1%)     96.1%
 FORCE CONSTANT      0.9150         C  1 -- H 10         +13.3% ( 38.1%)     96.1%

 VIBRATION         43   43A           ATOM PAIR      ENERGY CONTRIBUTION    RADIAL
 FREQUENCY          2974.84         C  3 -- H 14         +24.5% ( 51.4%)     96.6%
 TRANSITION DIPOLE   0.0001         C  2 -- H 12         +24.5% ( 51.3%)     96.6%
 TRAVEL (Ang.)       0.2958         C  3 -- H 15         +24.4% ( 51.3%)     96.6%
 REDUCED MASS        0.2591         C  2 -- H 13         +24.4% ( 51.3%)     96.6%
 EFFECTIVE MASS      1.5397
 FORCE CONSTANT      1.3511

 VIBRATION         44   44A           ATOM PAIR      ENERGY CONTRIBUTION    RADIAL
 FREQUENCY          2992.16         C  1 -- H 11         +35.8% ( 61.8%)     96.6%
 TRANSITION DIPOLE   0.0618         C  1 -- H 10         +35.8% ( 61.8%)     96.6%
 TRAVEL (Ang.)       0.2767         C  3 -- H 14          +6.6% ( 26.6%)     96.9%
 REDUCED MASS        0.2944         C  2 -- H 12          +6.6% ( 26.6%)     96.9%
 EFFECTIVE MASS      1.5275
 FORCE CONSTANT      1.5529

 VIBRATION         45   45A           ATOM PAIR      ENERGY CONTRIBUTION    RADIAL
 FREQUENCY          3053.48         C  3 -- H 15         +24.7% ( 49.0%)     97.7%
 TRANSITION DIPOLE   0.1187         C  3 -- H 14         +24.6% ( 49.0%)     97.6%
 TRAVEL (Ang.)       0.3024         C  2 -- H 13         +24.6% ( 48.9%)     97.7%
 REDUCED MASS        0.2415         C  2 -- H 12         +24.6% ( 48.9%)     97.6%
 EFFECTIVE MASS      1.2746
 FORCE CONSTANT      1.3268

 VIBRATION         46   46A           ATOM PAIR      ENERGY CONTRIBUTION    RADIAL
 FREQUENCY          3053.99         C  2 -- H 13         +23.8% ( 48.2%)     97.5%
 TRANSITION DIPOLE   0.0596         C  2 -- H 12         +23.8% ( 48.1%)     97.5%
 TRAVEL (Ang.)       0.3126         C  3 -- H 15         +23.8% ( 48.1%)     97.5%
 REDUCED MASS        0.2260         C  3 -- H 14         +23.7% ( 48.0%)     97.5%
 EFFECTIVE MASS      1.2921
 FORCE CONSTANT      1.2418

 VIBRATION         47   47A           ATOM PAIR      ENERGY CONTRIBUTION    RADIAL
 FREQUENCY          3056.05         C  8 -- H 17         +43.6% ( 67.2%)    100.0%
 TRANSITION DIPOLE   0.0719         C  9 -- H 18         +43.2% ( 66.8%)    100.0%
 TRAVEL (Ang.)       0.2423         C  6 -- H 16          +5.2% ( 23.2%)     99.9%
 REDUCED MASS        0.3760         C  7 -- H 19          +5.2% ( 23.1%)     99.9%
 EFFECTIVE MASS      1.4919
 FORCE CONSTANT      2.0687

 VIBRATION         48   48A           ATOM PAIR      ENERGY CONTRIBUTION    RADIAL
 FREQUENCY          3064.83         C  9 -- H 18         +26.0% ( 51.9%)     99.9%
 TRANSITION DIPOLE   0.2977         C  8 -- H 17         +25.8% ( 51.6%)     99.9%
 TRAVEL (Ang.)       0.3069         C  7 -- H 19         +22.7% ( 48.4%)    100.0%
 REDUCED MASS        0.2336         C  6 -- H 16         +22.5% ( 48.2%)    100.0%
 EFFECTIVE MASS      1.5053
 FORCE CONSTANT      1.2928

 VIBRATION         49   49A           ATOM PAIR      ENERGY CONTRIBUTION    RADIAL
 FREQUENCY          3069.16         C  1 -- H 10         +47.6% ( 67.9%)     97.7%
 TRANSITION DIPOLE   0.0572         C  1 -- H 11         +47.6% ( 67.9%)     97.7%
 TRAVEL (Ang.)       0.2208         C  2 -- H 13          +0.9% (  9.2%)     97.8%
 REDUCED MASS        0.4505         C  3 -- H 15          +0.9% (  9.2%)     97.8%
 EFFECTIVE MASS      1.2801
 FORCE CONSTANT      2.5001

 VIBRATION         50   50A           ATOM PAIR      ENERGY CONTRIBUTION    RADIAL
 FREQUENCY          3074.55         C  7 -- H 19         +43.3% ( 66.8%)    100.0%
 TRANSITION DIPOLE   0.5334         C  6 -- H 16         +43.3% ( 66.8%)    100.0%
 TRAVEL (Ang.)       0.2413         C  9 -- H 18          +5.2% ( 23.1%)     99.7%
 REDUCED MASS        0.3768         C  8 -- H 17          +5.1% ( 22.8%)     99.7%
 EFFECTIVE MASS      1.5386
 FORCE CONSTANT      2.0985

 VIBRATION         51   51A           ATOM PAIR      ENERGY CONTRIBUTION    RADIAL
 FREQUENCY          3081.12         C  6 -- H 16         +26.0% ( 51.7%)    100.0%
 TRANSITION DIPOLE   0.3156         C  7 -- H 19         +25.8% ( 51.5%)    100.0%
 TRAVEL (Ang.)       0.3057         C  9 -- H 18         +22.4% ( 47.9%)    100.0%
 REDUCED MASS        0.2342         C  8 -- H 17         +22.3% ( 47.9%)    100.0%
 EFFECTIVE MASS      1.5883
 FORCE CONSTANT      1.3101

      SYMMETRY NUMBER FOR POINT-GROUP C1  =  1


          SYSTEM IS A GROUND STATE



 InChI=1S/C9H10/c1-2-5-9-7-3-6-8(9)4-1/h1-2,4-5H,3,6-7H2


          MOLECULE IS NOT LINEAR

          THERE ARE 51 GENUINE VIBRATIONS IN THIS SYSTEM
          THIS THERMODYNAMICS CALCULATION IS LIMITED TO
          MOLECULES WHICH HAVE NO INTERNAL ROTATIONS




                    CALCULATED THERMODYNAMIC PROPERTIES
                                          *
   TEMP. (K)   PARTITION FUNCTION   H.O.F.    ENTHALPY  HEAT CAPACITY ENTROPY
                                   KCAL/MOL   CAL/MOLE    CAL/K/MOL  CAL/K/MOL


 298.00  VIB.     0.2196D+02                  2678.2867    22.4792    15.1267
         ROT.     0.3614D+06                   888.2803     2.9808    28.4123
         INT.     0.7936D+07                  3566.5670    25.4600    43.5390
         TRA.     0.1242D+28                  1480.4672     4.9680    40.2136
         TOT.                       11.131    5047.0342    30.4280    83.7526

 200.00  VIB.     0.5624D+01                  1003.8939    12.0421     8.4516
         ROT.     0.1987D+06                   596.1613     2.9808    27.2236
         INT.     0.1117D+07                  1600.0551    15.0229    35.6752
         TRA.     0.6829D+27                   993.6021     4.9680    38.2325
         TOT.                        8.678    2593.6573    19.9909    73.9077

 210.00  VIB.     0.6390D+01                  1129.0293    12.9910     9.0620
         ROT.     0.2138D+06                   625.9693     2.9808    27.3691
         INT.     0.1366D+07                  1754.9986    15.9718    36.4310
         TRA.     0.7347D+27                  1043.2822     4.9680    38.4749
         TOT.                        8.883    2798.2808    20.9398    74.9059

 220.00  VIB.     0.7278D+01                  1263.8310    13.9749     9.6889
         ROT.     0.2292D+06                   655.7774     2.9808    27.5077
         INT.     0.1668D+07                  1919.6084    16.9557    37.1966
         TRA.     0.7878D+27                  1092.9623     4.9680    38.7060
         TOT.                        9.097    3012.5707    21.9237    75.9026

 230.00  VIB.     0.8310D+01                  1408.6344    14.9909    10.3324
         ROT.     0.2450D+06                   685.5855     2.9808    27.6402
         INT.     0.2036D+07                  2094.2199    17.9717    37.9726
         TRA.     0.8422D+27                  1142.6424     4.9680    38.9268
         TOT.                        9.321    3236.8623    22.9397    76.8995

 240.00  VIB.     0.9514D+01                  1563.7444    16.0357    10.9924
         ROT.     0.2612D+06                   715.3935     2.9808    27.7671
         INT.     0.2485D+07                  2279.1380    19.0165    38.7595
         TRA.     0.8977D+27                  1192.3226     4.9680    39.1383
         TOT.                        9.556    3471.4605    23.9845    77.8978

 250.00  VIB.     0.1092D+02                  1729.4321    17.1058    11.6686
         ROT.     0.2777D+06                   745.2016     2.9808    27.8888
         INT.     0.3033D+07                  2474.6337    20.0866    39.5574
         TRA.     0.9544D+27                  1242.0027     4.9680    39.3411
         TOT.                        9.801    3716.6364    25.0546    78.8985

 260.00  VIB.     0.1257D+02                  1905.9327    18.1976    12.3607
         ROT.     0.2945D+06                   775.0097     2.9808    28.0057
         INT.     0.3702D+07                  2680.9423    21.1784    40.3664
         TRA.     0.1012D+28                  1291.6828     4.9680    39.5359
         TOT.                       10.057    3972.6251    26.1464    79.9023

 270.00  VIB.     0.1451D+02                  2093.4442    19.3074    13.0683
         ROT.     0.3116D+06                   804.8177     2.9808    28.1182
         INT.     0.4520D+07                  2898.2619    22.2882    41.1864
         TRA.     0.1071D+28                  1341.3629     4.9680    39.7234
         TOT.                       10.324    4239.6248    27.2562    80.9099

 280.00  VIB.     0.1678D+02                  2292.1278    20.4314    13.7907
         ROT.     0.3291D+06                   834.6258     2.9808    28.2266
         INT.     0.5523D+07                  3126.7536    23.4122    42.0173
         TRA.     0.1131D+28                  1391.0430     4.9680    39.9041
         TOT.                       10.602    4517.7966    28.3802    81.9214

 290.00  VIB.     0.1947D+02                  2502.1079    21.5661    14.5274
         ROT.     0.3469D+06                   864.4339     2.9808    28.3312
         INT.     0.6753D+07                  3366.5418    24.5469    42.8586
         TRA.     0.1192D+28                  1440.7231     4.9680    40.0784
         TOT.                       10.891    4807.2649    29.5149    82.9371

 300.00  VIB.     0.2264D+02                  2723.4739    22.7080    15.2778
         ROT.     0.3650D+06                   894.2419     2.9808    28.4322
         INT.     0.8264D+07                  3617.7158    25.6888    43.7100
         TRA.     0.1255D+28                  1490.4032     4.9680    40.2469
         TOT.                       11.192    5108.1190    30.6568    83.9569

 310.00  VIB.     0.2640D+02                  2956.2812    23.8539    16.0411
         ROT.     0.3834D+06                   924.0500     2.9808    28.5300
         INT.     0.1012D+08                  3880.3312    26.8347    44.5710
         TRA.     0.1318D+28                  1540.0833     4.9680    40.4098
         TOT.                       11.505    5420.4145    31.8027    84.9808

 320.00  VIB.     0.3086D+02                  3200.5540    25.0006    16.8165
         ROT.     0.4021D+06                   953.8580     2.9808    28.6246
         INT.     0.1241D+08                  4154.4121    27.9814    45.4411
         TRA.     0.1382D+28                  1589.7634     4.9680    40.5675
         TOT.                       11.828    5744.1755    32.9494    86.0086

 330.00  VIB.     0.3616D+02                  3456.2873    26.1455    17.6033
         ROT.     0.4211D+06                   983.6661     2.9808    28.7163
         INT.     0.1522D+08                  4439.9534    29.1263    46.3197
         TRA.     0.1447D+28                  1639.4435     4.9680    40.7204
         TOT.                       12.164    6079.3969    34.0943    87.0400

 340.00  VIB.     0.4247D+02                  3723.4492    27.2860    18.4008
         ROT.     0.4404D+06                  1013.4742     2.9808    28.8053
         INT.     0.1870D+08                  4736.9234    30.2668    47.2061
         TRA.     0.1514D+28                  1689.1236     4.9680    40.8687
         TOT.                       12.510    6426.0470    35.2348    88.0748

 350.00  VIB.     0.5000D+02                  4001.9839    28.4197    19.2081
         ROT.     0.4600D+06                  1043.2822     2.9808    28.8917
         INT.     0.2300D+08                  5045.2661    31.4005    48.0999
         TRA.     0.1581D+28                  1738.8037     4.9680    41.0127
         TOT.                       12.868    6784.0699    36.3685    89.1126

 360.00  VIB.     0.5900D+02                  4291.8137    29.5447    20.0245
         ROT.     0.4798D+06                  1073.0903     2.9808    28.9757
         INT.     0.2831D+08                  5364.9040    32.5255    49.0002
         TRA.     0.1649D+28                  1788.4838     4.9680    41.1526
         TOT.                       13.238    7153.3878    37.4935    90.1529

 370.00  VIB.     0.6977D+02                  4592.8420    30.6591    20.8493
         ROT.     0.4999D+06                  1102.8984     2.9808    29.0574
         INT.     0.3488D+08                  5695.7403    33.6399    49.9066
         TRA.     0.1718D+28                  1838.1639     4.9680    41.2888
         TOT.                       13.618    7533.9043    38.6079    91.1954

 380.00  VIB.     0.8269D+02                  4904.9552    31.7614    21.6815
         ROT.     0.5203D+06                  1132.7064     2.9808    29.1369
         INT.     0.4303D+08                  6037.6616    34.7422    50.8184
         TRA.     0.1788D+28                  1887.8440     4.9680    41.4213
         TOT.                       14.010    7925.5057    39.7102    92.2397

 390.00  VIB.     0.9821D+02                  5228.0256    32.8503    22.5207
         ROT.     0.5410D+06                  1162.5145     2.9808    29.2143
         INT.     0.5313D+08                  6390.5401    35.8311    51.7350
         TRA.     0.1860D+28                  1937.5242     4.9680    41.5503
         TOT.                       14.412    8328.0642    40.7991    93.2853

 400.00  VIB.     0.1169D+03                  5561.9129    33.9246    23.3659
         ROT.     0.5620D+06                  1192.3226     2.9808    29.2898
         INT.     0.6567D+08                  6754.2354    36.9054    52.6557
         TRA.     0.1932D+28                  1987.2043     4.9680    41.6761
         TOT.                       14.826    8741.4397    41.8735    94.3318

   *: NOTE: HEATS OF FORMATION ARE RELATIVE TO THE
            ELEMENTS IN THEIR STANDARD STATE AT 298K
              (=  Standard Enthalpy of Formation).

            Hvib:  Zero-point energy is not included.
                   frequencies of less than zero cm-1 are not included.
            Hrot = (3/2)RT
            Htra = (3/2)RT + pV = (5/2)RT

            Heat capacity is Cp, not Cv

          For more information, see: HTTP://OpenMOPAC.net/Manual/thermochemistry.html


           FORCE CONSTANT IN CARTESIAN COORDINATES (Millidynes/A)

    ATOM   CHEMICAL       X               Y               Z
   NUMBER   SYMBOL  FORCE CONSTANT  FORCE CONSTANT  FORCE CONSTANT

      1       C        7.749889        8.364115        8.351616
      2       C        7.841533        9.329149        8.090144
      3       C        9.576976        7.592698        8.090197
      4       C       13.580164       11.877608        2.644118
      5       C       11.403686       14.088341        2.644120
      6       C       12.381306       11.932654        2.315060
      7       C       12.007153       12.303274        2.315559
      8       C       12.067558       11.888482        2.326126
      9       C       11.910099       12.044190        2.327261
     10       H        1.234099        1.674586        3.579076
     11       H        1.234197        1.674777        3.578767
     12       H        1.275125        1.552341        3.552100
     13       H        1.275309        1.554434        3.550074
     14       H        1.942195        0.885467        3.551288
     15       H        1.942774        0.885507        3.550982
     16       H        3.622825        2.295167        0.350957
     17       H        4.432361        1.486715        0.349029
     18       H        0.817024        5.101132        0.349360
     19       H        3.628829        2.289059        0.350940

 **********************
 *                    *
 * JOB ENDED NORMALLY *
 *                    *
 **********************



 TOTAL JOB TIME:             1.62 SECONDS

 == MOPAC DONE ==
