 *******************************************************************************
 **                                                                           **
 **                              MOPAC v23.1.2                                **
 **                                                                           **
 *******************************************************************************
 **          Digital Object Identifier (DOI): 10.5281/zenodo.6511958          **
 **    Visit the DOI location for information on how to cite this program.    **
 *******************************************************************************

                              PM3 CALCULATION RESULTS

 *******************************************************************************
 *  CALCULATION DONE: (MAX THREADS = 1)              Tue Jun  3 16:31:15 2025  *
 *  PM3        - The PM3 Hamiltonian to be used
 *  PRECISE    - TIGHTER CRITERIA TO BE USED
 *  NOSYM      - POINT-GROUP SYMMETRY SET TO C1
 *  THREADS=1  - MULTI-THREADING NOT USED
 *  T=         - A TIME OF 172800.0 SECONDS REQUESTED
 *  DUMP=N     - RESTART FILE WRITTEN EVERY 7200.0 SECONDS REQUESTED
 *******************************************************************************
pm3  precise nosym THREADS=1
 InChI=1S/C10H10/c1-2-3-7-10-8-5-4-6-9-10/h3,5-9H,1,4H2

   ATOM   CHEMICAL          X               Y               Z
  NUMBER   SYMBOL      (ANGSTROMS)     (ANGSTROMS)     (ANGSTROMS)

     1       C         -3.16120000  *   0.06180000  *   0.27250000  *
     2       C         -0.27820000  *  -0.16780000  *  -0.11810000  *
     3       C         -2.16390000  *   0.90060000  *   1.03040000  *
     4       C         -2.54220000  *  -0.90510000  *  -0.70380000  *
     5       C         -0.84380000  *   0.79850000  *   0.85450000  *
     6       C         -1.22350000  *  -1.00930000  *  -0.88170000  *
     7       C          1.04320000  *  -0.31520000  *  -0.33820000  *
     8       C          2.10790000  *   0.44840000  *   0.34270000  *
     9       C          4.60770000  *  -0.00480000  *  -0.24320000  *
    10       C          3.35890000  *   0.22180000  *   0.04970000  *
    11       H         -3.84240000  *   0.73890000  *  -0.28410000  *
    12       H         -3.76770000  *  -0.51310000  *   1.00320000  *
    13       H         -2.54250000  *   1.61700000  *   1.74910000  *
    14       H         -3.20090000  *  -1.54010000  *  -1.28320000  *
    15       H          1.36400000  *  -1.04950000  *  -1.07100000  *
    16       H         -0.21190000  *   1.44380000  *   1.44540000  *
    17       H         -0.85170000  *  -1.72840000  *  -1.60270000  *
    18       H          1.89660000  *   1.20030000  *   1.08630000  *
    19       H          5.38950000  *   0.55300000  *   0.25390000  *
    20       H          4.86220000  *  -0.75090000  *  -0.98350000  *



          CARTESIAN COORDINATES 

    NO.       ATOM           X           Y           Z

     1         C         -3.1612      0.0618      0.2725
     2         C         -0.2782     -0.1678     -0.1181
     3         C         -2.1639      0.9006      1.0304
     4         C         -2.5422     -0.9051     -0.7038
     5         C         -0.8438      0.7985      0.8545
     6         C         -1.2235     -1.0093     -0.8817
     7         C          1.0432     -0.3152     -0.3382
     8         C          2.1079      0.4484      0.3427
     9         C          4.6077     -0.0048     -0.2432
    10         C          3.3589      0.2218      0.0497
    11         H         -3.8424      0.7389     -0.2841
    12         H         -3.7677     -0.5131      1.0032
    13         H         -2.5425      1.6170      1.7491
    14         H         -3.2009     -1.5401     -1.2832
    15         H          1.3640     -1.0495     -1.0710
    16         H         -0.2119      1.4438      1.4454
    17         H         -0.8517     -1.7284     -1.6027
    18         H          1.8966      1.2003      1.0863
    19         H          5.3895      0.5530      0.2539
    20         H          4.8622     -0.7509     -0.9835

  H: (PM3): J. J. P. STEWART, J. COMP. CHEM. 10, 209 (1989).
  C: (PM3): J. J. P. STEWART, J. COMP. CHEM. 10, 209 (1989).

           Empirical Formula: C10 H10  =    20 atoms



      MOLECULAR POINT GROUP   :   C1  


      RHF CALCULATION, NO. OF DOUBLY OCCUPIED LEVELS = 25


          Geometry optimization using EF

          DIAGONAL MATRIX USED AS START HESSIAN

 CYCLE:     1 TIME:   0.020 TIME LEFT:  2.00D  GRAD.:   121.137 HEAT:  136.8509
 CYCLE:     2 TIME:   0.012 TIME LEFT:  2.00D  GRAD.:   108.292 HEAT:  132.3973
 CYCLE:     3 TIME:   0.008 TIME LEFT:  2.00D  GRAD.:    73.229 HEAT:  126.7116
 CYCLE:     4 TIME:   0.008 TIME LEFT:  2.00D  GRAD.:   126.011 HEAT:  120.8249
 CYCLE:     5 TIME:   0.008 TIME LEFT:  2.00D  GRAD.:   148.303 HEAT:  111.8958
 CYCLE:     6 TIME:   0.004 TIME LEFT:  2.00D  GRAD.:   267.902 HEAT:  111.1616
 CYCLE:     7 TIME:   0.008 TIME LEFT:  2.00D  GRAD.:   231.981 HEAT:  105.2912
 CYCLE:     8 TIME:   0.016 TIME LEFT:  2.00D  GRAD.:   156.023 HEAT:  96.53437
 CYCLE:     9 TIME:   0.008 TIME LEFT:  2.00D  GRAD.:   152.850 HEAT:  96.40757
 CYCLE:    10 TIME:   0.008 TIME LEFT:  2.00D  GRAD.:   125.653 HEAT:  92.81720
 CYCLE:    11 TIME:   0.012 TIME LEFT:  2.00D  GRAD.:    88.042 HEAT:  91.71888
 CYCLE:    12 TIME:   0.008 TIME LEFT:  2.00D  GRAD.:    45.366 HEAT:  90.45224
 CYCLE:    13 TIME:   0.016 TIME LEFT:  2.00D  GRAD.:    39.275 HEAT:  90.04469
 CYCLE:    14 TIME:   0.004 TIME LEFT:  2.00D  GRAD.:    35.397 HEAT:  89.57976
 CYCLE:    15 TIME:   0.008 TIME LEFT:  2.00D  GRAD.:    48.229 HEAT:  89.37421
 CYCLE:    16 TIME:   0.008 TIME LEFT:  2.00D  GRAD.:    32.197 HEAT:  88.69705
 CYCLE:    17 TIME:   0.012 TIME LEFT:  2.00D  GRAD.:    41.472 HEAT:  88.61901
 CYCLE:    18 TIME:   0.008 TIME LEFT:  2.00D  GRAD.:    30.309 HEAT:  88.19901
 CYCLE:    19 TIME:   0.008 TIME LEFT:  2.00D  GRAD.:    43.203 HEAT:  88.15113
 CYCLE:    20 TIME:   0.008 TIME LEFT:  2.00D  GRAD.:    18.164 HEAT:  87.59049
 CYCLE:    21 TIME:   0.012 TIME LEFT:  2.00D  GRAD.:    27.545 HEAT:  87.49926
 CYCLE:    22 TIME:   0.008 TIME LEFT:  2.00D  GRAD.:    14.096 HEAT:  87.19486
 CYCLE:    23 TIME:   0.008 TIME LEFT:  2.00D  GRAD.:    24.477 HEAT:  87.04666
 CYCLE:    24 TIME:   0.008 TIME LEFT:  2.00D  GRAD.:    25.143 HEAT:  86.78767
 CYCLE:    25 TIME:   0.008 TIME LEFT:  2.00D  GRAD.:    34.661 HEAT:  86.58451
 CYCLE:    26 TIME:   0.008 TIME LEFT:  2.00D  GRAD.:    20.568 HEAT:  86.21625
 CYCLE:    27 TIME:   0.008 TIME LEFT:  2.00D  GRAD.:    24.505 HEAT:  86.03155
 CYCLE:    28 TIME:   0.008 TIME LEFT:  2.00D  GRAD.:    17.258 HEAT:  85.89950
 CYCLE:    29 TIME:   0.008 TIME LEFT:  2.00D  GRAD.:    14.730 HEAT:  85.78208
 CYCLE:    30 TIME:   0.008 TIME LEFT:  2.00D  GRAD.:    13.447 HEAT:  85.70141
 CYCLE:    31 TIME:   0.008 TIME LEFT:  2.00D  GRAD.:    10.143 HEAT:  85.59553
 CYCLE:    32 TIME:   0.008 TIME LEFT:  2.00D  GRAD.:     8.253 HEAT:  85.53159
 CYCLE:    33 TIME:   0.008 TIME LEFT:  2.00D  GRAD.:    16.673 HEAT:  85.52870
 CYCLE:    34 TIME:   0.008 TIME LEFT:  2.00D  GRAD.:     6.226 HEAT:  85.42706
 CYCLE:    35 TIME:   0.008 TIME LEFT:  2.00D  GRAD.:     5.165 HEAT:  85.37709
 CYCLE:    36 TIME:   0.004 TIME LEFT:  2.00D  GRAD.:     7.199 HEAT:  85.29981
 CYCLE:    37 TIME:   0.008 TIME LEFT:  2.00D  GRAD.:     6.407 HEAT:  85.23843
 CYCLE:    38 TIME:   0.012 TIME LEFT:  2.00D  GRAD.:     4.831 HEAT:  85.19881
 CYCLE:    39 TIME:   0.004 TIME LEFT:  2.00D  GRAD.:     4.280 HEAT:  85.16909
 CYCLE:    40 TIME:   0.008 TIME LEFT:  2.00D  GRAD.:     3.155 HEAT:  85.15511
 CYCLE:    41 TIME:   0.008 TIME LEFT:  2.00D  GRAD.:     2.037 HEAT:  85.14727
 CYCLE:    42 TIME:   0.004 TIME LEFT:  2.00D  GRAD.:     1.748 HEAT:  85.14182
 CYCLE:    43 TIME:   0.008 TIME LEFT:  2.00D  GRAD.:     2.282 HEAT:  85.13311
 CYCLE:    44 TIME:   0.008 TIME LEFT:  2.00D  GRAD.:     1.595 HEAT:  85.12812
 CYCLE:    45 TIME:   0.008 TIME LEFT:  2.00D  GRAD.:     1.418 HEAT:  85.12245
 CYCLE:    46 TIME:   0.004 TIME LEFT:  2.00D  GRAD.:     1.836 HEAT:  85.11630
 CYCLE:    47 TIME:   0.008 TIME LEFT:  2.00D  GRAD.:     1.878 HEAT:  85.10969
 CYCLE:    48 TIME:   0.008 TIME LEFT:  2.00D  GRAD.:     1.704 HEAT:  85.10498
 CYCLE:    49 TIME:   0.008 TIME LEFT:  2.00D  GRAD.:     1.412 HEAT:  85.10047
 CYCLE:    50 TIME:   0.004 TIME LEFT:  2.00D  GRAD.:     1.351 HEAT:  85.09667
 CYCLE:    51 TIME:   0.008 TIME LEFT:  2.00D  GRAD.:     1.227 HEAT:  85.09329
 CYCLE:    52 TIME:   0.008 TIME LEFT:  2.00D  GRAD.:     0.942 HEAT:  85.09102
 CYCLE:    53 TIME:   0.004 TIME LEFT:  2.00D  GRAD.:     0.736 HEAT:  85.08940
 CYCLE:    54 TIME:   0.008 TIME LEFT:  2.00D  GRAD.:     0.619 HEAT:  85.08852
 CYCLE:    55 TIME:   0.008 TIME LEFT:  2.00D  GRAD.:     0.456 HEAT:  85.08795
 CYCLE:    56 TIME:   0.008 TIME LEFT:  2.00D  GRAD.:     0.379 HEAT:  85.08754
 CYCLE:    57 TIME:   0.004 TIME LEFT:  2.00D  GRAD.:     0.375 HEAT:  85.08718
 CYCLE:    58 TIME:   0.008 TIME LEFT:  2.00D  GRAD.:     0.351 HEAT:  85.08691
 CYCLE:    59 TIME:   0.008 TIME LEFT:  2.00D  GRAD.:     0.255 HEAT:  85.08673
 CYCLE:    60 TIME:   0.004 TIME LEFT:  2.00D  GRAD.:     0.190 HEAT:  85.08662
 CYCLE:    61 TIME:   0.008 TIME LEFT:  2.00D  GRAD.:     0.162 HEAT:  85.08656
 CYCLE:    62 TIME:   0.004 TIME LEFT:  2.00D  GRAD.:     0.131 HEAT:  85.08652
 CYCLE:    63 TIME:   0.008 TIME LEFT:  2.00D  GRAD.:     0.143 HEAT:  85.08648
 CYCLE:    64 TIME:   0.008 TIME LEFT:  2.00D  GRAD.:     0.122 HEAT:  85.08645
 CYCLE:    65 TIME:   0.008 TIME LEFT:  2.00D  GRAD.:     0.117 HEAT:  85.08641
 CYCLE:    66 TIME:   0.004 TIME LEFT:  2.00D  GRAD.:     0.091 HEAT:  85.08639
 CYCLE:    67 TIME:   0.008 TIME LEFT:  2.00D  GRAD.:     0.087 HEAT:  85.08637
 CYCLE:    68 TIME:   0.004 TIME LEFT:  2.00D  GRAD.:     0.081 HEAT:  85.08635
 CYCLE:    69 TIME:   0.008 TIME LEFT:  2.00D  GRAD.:     0.136 HEAT:  85.08633
 CYCLE:    70 TIME:   0.008 TIME LEFT:  2.00D  GRAD.:     0.103 HEAT:  85.08631
 CYCLE:    71 TIME:   0.004 TIME LEFT:  2.00D  GRAD.:     0.161 HEAT:  85.08626
 CYCLE:    72 TIME:   0.008 TIME LEFT:  2.00D  GRAD.:     0.167 HEAT:  85.08622
 CYCLE:    73 TIME:   0.008 TIME LEFT:  2.00D  GRAD.:     0.113 HEAT:  85.08615
 CYCLE:    74 TIME:   0.004 TIME LEFT:  2.00D  GRAD.:     0.164 HEAT:  85.08605
 CYCLE:    75 TIME:   0.008 TIME LEFT:  2.00D  GRAD.:     0.153 HEAT:  85.08600
 CYCLE:    76 TIME:   0.008 TIME LEFT:  2.00D  GRAD.:     0.068 HEAT:  85.08595
 CYCLE:    77 TIME:   0.008 TIME LEFT:  2.00D  GRAD.:     0.066 HEAT:  85.08593
 CYCLE:    78 TIME:   0.008 TIME LEFT:  2.00D  GRAD.:     0.045 HEAT:  85.08592

     GRADIENT =  0.04513 IS LESS THAN CUTOFF =  0.05000



 -------------------------------------------------------------------------------
 pm3  precise nosym THREADS=1
 InChI=1S/C10H10/c1-2-3-7-10-8-5-4-6-9-10/h3,5-9H,1,4H2



     GEOMETRY OPTIMISED USING EIGENVECTOR FOLLOWING (EF).     
     SCF FIELD WAS ACHIEVED                                   


                              PM3 CALCULATION
                                                       MOPAC v23.1.2 MacOS
                                                       Tue Jun  3 16:31:16 2025




          FINAL HEAT OF FORMATION =         85.08592 KCAL/MOL =     355.99951 KJ/MOL


          COSMO AREA              =        185.80 SQUARE ANGSTROMS
          COSMO VOLUME            =        179.36 CUBIC ANGSTROMS

          GRADIENT NORM           =          0.04513          =       0.01009 PER ATOM
          IONIZATION POTENTIAL    =          8.191324 EV
          HOMO LUMO ENERGIES (EV) =         -8.191 -0.507
          NO. OF FILLED LEVELS    =         25
          MOLECULAR WEIGHT        =        130.1890         POINT GROUP:  C1  

          MOLECULAR DIMENSIONS (Angstroms)

            Atom       Atom       Distance
            H    20    H    11     9.17498
            H    17    H    13     4.65802
            H    12    H    19     3.52439


          SCF CALCULATIONS        =         86

          WALL-CLOCK TIME         =      0.617 SECONDS
          COMPUTATION TIME        =      0.394 SECONDS




   ATOM   CHEMICAL          X               Y               Z
  NUMBER   SYMBOL      (ANGSTROMS)     (ANGSTROMS)     (ANGSTROMS)

     1       C         -3.13683179  *   0.08757196  *   0.31404742  *
     2       C         -0.27958266  *  -0.19767556  *  -0.17646862  *
     3       C         -2.10716759  *   0.84847786  *   1.06601447  *
     4       C         -2.57901933  *  -0.82813848  *  -0.71308317  *
     5       C         -0.79624454  *   0.71402027  *   0.83693016  *
     6       C         -1.26596126  *  -0.95742293  *  -0.93678091  *
     7       C          1.04220227  *  -0.34945082  *  -0.41736229  *
     8       C          2.06345632  *   0.37963356  *   0.30961310  *
     9       C          4.60663785  *   0.06868047  *  -0.14702612  *
    10       C          3.34055186  *   0.22030314  *   0.07646457  *
    11       H         -3.83365128  *   0.80084601  *  -0.17324432  *
    12       H         -3.75159087  *  -0.49799138  *   1.02891061  *
    13       H         -2.47657786  *   1.53876690  *   1.83238750  *
    14       H         -3.30731682  *  -1.40633400  *  -1.29251675  *
    15       H          1.38226973  *  -1.04917938  *  -1.19132474  *
    16       H         -0.04674406  *   1.28708145  *   1.40514764  *
    17       H         -0.88943403  *  -1.64409802  *  -1.70430833  *
    18       H          1.72549992  *   1.08888198  *   1.08399375  *
    19       H          5.14505082  *   0.67016866  *  -0.87473973  *
    20       H          5.20589266  *  -0.66904614  *   0.38016079  *

                             CARTESIAN COORDINATES

   1    C       -3.136831795     0.087571961     0.314047417
   2    C       -0.279582659    -0.197675559    -0.176468620
   3    C       -2.107167588     0.848477856     1.066014465
   4    C       -2.579019334    -0.828138482    -0.713083166
   5    C       -0.796244545     0.714020271     0.836930164
   6    C       -1.265961256    -0.957422932    -0.936780907
   7    C        1.042202266    -0.349450816    -0.417362294
   8    C        2.063456322     0.379633558     0.309613098
   9    C        4.606637850     0.068680465    -0.147026124
  10    C        3.340551858     0.220303141     0.076464571
  11    H       -3.833651282     0.800846010    -0.173244319
  12    H       -3.751590873    -0.497991384     1.028910608
  13    H       -2.476577858     1.538766900     1.832387500
  14    H       -3.307316821    -1.406333997    -1.292516746
  15    H        1.382269727    -1.049179379    -1.191324741
  16    H       -0.046744063     1.287081451     1.405147640
  17    H       -0.889434031    -1.644098017    -1.704308327
  18    H        1.725499925     1.088881982     1.083993751
  19    H        5.145050823     0.670168658    -0.874739734
  20    H        5.205892659    -0.669046136     0.380160788


           Empirical Formula: C10 H10  =    20 atoms



      MOLECULAR POINT GROUP   :   C1  


                  EIGENVALUES  
 -39.92527 -35.25125 -31.48053 -30.07816 -27.37691 -24.12615 -21.32461 -20.12650
 -17.98528 -17.68687 -16.60908 -15.83071 -15.41568 -15.19132 -14.96225 -14.71025
 -14.30063 -13.35115 -13.01155 -12.40752 -11.71766 -10.46065 -10.40495 -10.30703
  -8.19132  -0.50710   1.02563   1.09470   1.36364   2.69210   2.93082   3.21356
   3.34565   3.42104   3.56820   3.73448   3.80722   4.12309   4.23481   4.35936
   4.42172   4.67967   4.91572   5.05510   5.20953   5.40542   5.55444   6.20251
   6.29750   6.55586


              NET ATOMIC CHARGES AND DIPOLE CONTRIBUTIONS

  ATOM NO.   TYPE          CHARGE      No. of ELECS.   s-Pop       p-Pop       
    1          C          -0.027735        4.0277     1.13219     2.89555
    2          C          -0.041446        4.0414     1.16648     2.87497
    3          C          -0.128093        4.1281     1.19434     2.93375
    4          C          -0.133472        4.1335     1.19513     2.93835
    5          C          -0.109424        4.1094     1.17870     2.93073
    6          C          -0.102131        4.1021     1.17922     2.92291
    7          C          -0.091171        4.0912     1.17720     2.91397
    8          C          -0.055743        4.0557     1.14576     2.90999
    9          C          -0.095489        4.0955     1.14687     2.94862
   10          C          -0.167013        4.1670     1.21527     2.95174
   11          H           0.065330        0.9347     0.93467
   12          H           0.065413        0.9346     0.93459
   13          H           0.098485        0.9015     0.90151
   14          H           0.098615        0.9014     0.90139
   15          H           0.104728        0.8953     0.89527
   16          H           0.107645        0.8924     0.89236
   17          H           0.102533        0.8975     0.89747
   18          H           0.116987        0.8830     0.88301
   19          H           0.095994        0.9040     0.90401
   20          H           0.095985        0.9040     0.90401
 DIPOLE           X         Y         Z       TOTAL
 POINT-CHG.    -0.483     0.071     0.113     0.501
 HYBRID         0.020    -0.001    -0.001     0.020
 SUM           -0.463     0.070     0.112     0.482


          ATOMIC ORBITAL ELECTRON POPULATIONS

     Atom    s        px        py        pz   
    1  C   1.13219   0.96463   0.96827   0.96265
    2  C   1.16648   0.93790   0.97109   0.96598
    3  C   1.19434   0.95382   0.99016   0.98977
    4  C   1.19513   0.96532   0.98838   0.98465
    5  C   1.17870   0.95905   0.98919   0.98249
    6  C   1.17922   0.94085   0.99188   0.99018
    7  C   1.17720   0.92481   0.99518   0.99398
    8  C   1.14576   0.89558   1.00876   1.00565
    9  C   1.14687   0.91887   1.01511   1.01464
   10  C   1.21527   0.96678   0.99278   0.99217
   11  H   0.93467
   12  H   0.93459
   13  H   0.90151
   14  H   0.90139
   15  H   0.89527
   16  H   0.89236
   17  H   0.89747
   18  H   0.88301
   19  H   0.90401
   20  H   0.90401
 *******************************************************************************
 **                                                                           **
 **                              MOPAC v23.1.2                                **
 **                                                                           **
 *******************************************************************************
 **          Digital Object Identifier (DOI): 10.5281/zenodo.6511958          **
 **    Visit the DOI location for information on how to cite this program.    **
 *******************************************************************************

                              PM3 CALCULATION RESULTS

 *******************************************************************************
 *  CALCULATION DONE: (MAX THREADS = 1)              Tue Jun  3 16:31:16 2025  *
 *  PM3        - The PM3 Hamiltonian to be used
 *  OLDGEO     - PREVIOUS GEOMETRY TO BE USED
 *  PRECISE    - TIGHTER CRITERIA TO BE USED
 *  NOSYM      - POINT-GROUP SYMMETRY SET TO C1
 *  THREADS=1  - MULTI-THREADING NOT USED
 *  T=         - A TIME OF 172800.0 SECONDS REQUESTED
 *  DUMP=N     - RESTART FILE WRITTEN EVERY 7200.0 SECONDS REQUESTED
 *  THERMO     - THERMODYNAMIC QUANTITIES TO BE CALCULATED
 *******************************************************************************
oldgeo thermo nosym precise THREADS=1  pm3
 InChI=1S/C10H10/c1-2-3-7-10-8-5-4-6-9-10/h3,5-9H,1,4H2

   ATOM   CHEMICAL          X               Y               Z
  NUMBER   SYMBOL      (ANGSTROMS)     (ANGSTROMS)     (ANGSTROMS)

     1       C         -3.13683179  *   0.08757196  *   0.31404742  *
     2       C         -0.27958266  *  -0.19767556  *  -0.17646862  *
     3       C         -2.10716759  *   0.84847786  *   1.06601447  *
     4       C         -2.57901933  *  -0.82813848  *  -0.71308317  *
     5       C         -0.79624454  *   0.71402027  *   0.83693016  *
     6       C         -1.26596126  *  -0.95742293  *  -0.93678091  *
     7       C          1.04220227  *  -0.34945082  *  -0.41736229  *
     8       C          2.06345632  *   0.37963356  *   0.30961310  *
     9       C          4.60663785  *   0.06868047  *  -0.14702612  *
    10       C          3.34055186  *   0.22030314  *   0.07646457  *
    11       H         -3.83365128  *   0.80084601  *  -0.17324432  *
    12       H         -3.75159087  *  -0.49799138  *   1.02891061  *
    13       H         -2.47657786  *   1.53876690  *   1.83238750  *
    14       H         -3.30731682  *  -1.40633400  *  -1.29251675  *
    15       H          1.38226973  *  -1.04917938  *  -1.19132474  *
    16       H         -0.04674406  *   1.28708145  *   1.40514764  *
    17       H         -0.88943403  *  -1.64409802  *  -1.70430833  *
    18       H          1.72549992  *   1.08888198  *   1.08399375  *
    19       H          5.14505082  *   0.67016866  *  -0.87473973  *
    20       H          5.20589266  *  -0.66904614  *   0.38016079  *



          CARTESIAN COORDINATES 

    NO.       ATOM           X           Y           Z

     1         C         -3.1368      0.0876      0.3140
     2         C         -0.2796     -0.1977     -0.1765
     3         C         -2.1072      0.8485      1.0660
     4         C         -2.5790     -0.8281     -0.7131
     5         C         -0.7962      0.7140      0.8369
     6         C         -1.2660     -0.9574     -0.9368
     7         C          1.0422     -0.3495     -0.4174
     8         C          2.0635      0.3796      0.3096
     9         C          4.6066      0.0687     -0.1470
    10         C          3.3406      0.2203      0.0765
    11         H         -3.8337      0.8008     -0.1732
    12         H         -3.7516     -0.4980      1.0289
    13         H         -2.4766      1.5388      1.8324
    14         H         -3.3073     -1.4063     -1.2925
    15         H          1.3823     -1.0492     -1.1913
    16         H         -0.0467      1.2871      1.4051
    17         H         -0.8894     -1.6441     -1.7043
    18         H          1.7255      1.0889      1.0840
    19         H          5.1451      0.6702     -0.8747
    20         H          5.2059     -0.6690      0.3802

  H: (PM3): J. J. P. STEWART, J. COMP. CHEM. 10, 209 (1989).
  C: (PM3): J. J. P. STEWART, J. COMP. CHEM. 10, 209 (1989).

           Empirical Formula: C10 H10  =    20 atoms



      MOLECULAR POINT GROUP   :   C1  


      RHF CALCULATION, NO. OF DOUBLY OCCUPIED LEVELS = 25



          HEAT OF FORMATION =      85.085924 KCALS/MOLE


          CARTESIAN COORDINATE DERIVATIVES

   NUMBER  ATOM         X            Y            Z

     1       C     -0.003969    -0.000790    -0.005241
     2       C      0.008156     0.003345    -0.004982
     3       C     -0.000468     0.000138     0.000379
     4       C      0.002379     0.004558     0.001468
     5       C     -0.004188     0.000758    -0.011349
     6       C      0.003754     0.000590    -0.000077
     7       C     -0.008212    -0.002832    -0.002896
     8       C     -0.006567    -0.001542    -0.005748
     9       C     -0.004757     0.002392     0.003888
    10       C      0.003760     0.000865     0.000034
    11       H     -0.011163     0.000773     0.004387
    12       H     -0.006413    -0.005145     0.007340
    13       H      0.005814     0.002524     0.003793
    14       H      0.017710     0.002071     0.004274
    15       H     -0.003008    -0.004091    -0.001753
    16       H      0.006105    -0.005003     0.004157
    17       H      0.005004     0.000967    -0.001128
    18       H      0.016951     0.007220    -0.005963
    19       H     -0.006523    -0.002188     0.002124
    20       H     -0.014362    -0.004607     0.007293



          GRADIENT NORM =   0.04536

          MOLECULAR WEIGHT =  130.19



          ROTATIONAL CONSTANTS IN CM(-1)

          A =    0.15557539   B =    0.02001823   C =    0.01785957



           PRINCIPAL MOMENTS OF INERTIA IN UNITS OF 10**(-40)*GRAM-CM**2

          A =      179.9305   B =     1398.3631   C =     1567.3811


          ORIENTATION OF MOLECULE IN FORCE CALCULATION

    NO.       ATOM         X         Y         Z

     1          C      -3.2082   -0.3431   -0.0072
     2          C      -0.2952   -0.3431   -0.0072
     3          C      -2.3994    0.9021   -0.0072
     4          C      -2.3985   -1.5876   -0.0117
     5          C      -1.0619    0.8968   -0.0073
     6          C      -1.0602   -1.5852   -0.0118
     7          C       1.0567   -0.3664   -0.0022
     8          C       1.8646    0.8379    0.0037
     9          C       4.4664    0.7851    0.0318
    10          C       3.1721    0.8065    0.0175
    11          H      -3.8795   -0.3417   -0.8910
    12          H      -3.8742   -0.3449    0.8807
    13          H      -2.9584    1.8444   -0.0069
    14          H      -2.9586   -2.5293   -0.0148
    15          H       1.5891   -1.3260   -0.0020
    16          H      -0.4785    1.8310   -0.0072
    17          H      -0.4944   -2.5245   -0.0152
    18          H       1.3333    1.8046   -0.0031
    19          H       5.0581    0.7740   -0.8798
    20          H       5.0377    0.7771    0.9564


    FIRST DERIVATIVES WILL BE USED IN THE CALCULATION OF SECOND DERIVATIVES

          ESTIMATED TIME TO COMPLETE CALCULATION =        2.81 SECONDS

    FOR POINT-GROUP C1   THERE ARE   1 UNIQUE SYMMETRY FUNCTIONS.

 STEP:   1 TIME =     0.02 SECS, INTEGRAL =      0.02 TIME LEFT: 172799.97
 STEP:   2 TIME =     0.02 SECS, INTEGRAL =      0.04 TIME LEFT: 172799.95
 STEP:   3 TIME =     0.02 SECS, INTEGRAL =      0.06 TIME LEFT: 172799.93
 STEP:   4 TIME =     0.02 SECS, INTEGRAL =      0.08 TIME LEFT: 172799.91
 STEP:   5 TIME =     0.02 SECS, INTEGRAL =      0.10 TIME LEFT: 172799.89
 STEP:   6 TIME =     0.02 SECS, INTEGRAL =      0.12 TIME LEFT: 172799.87
 STEP:   7 TIME =     0.02 SECS, INTEGRAL =      0.14 TIME LEFT: 172799.85
 STEP:   8 TIME =     0.02 SECS, INTEGRAL =      0.16 TIME LEFT: 172799.83
 STEP:   9 TIME =     0.02 SECS, INTEGRAL =      0.18 TIME LEFT: 172799.81
 STEP:  10 TIME =     0.02 SECS, INTEGRAL =      0.20 TIME LEFT: 172799.79
 STEP:  11 TIME =     0.02 SECS, INTEGRAL =      0.21 TIME LEFT: 172799.77
 STEP:  12 TIME =     0.02 SECS, INTEGRAL =      0.24 TIME LEFT: 172799.75
 STEP:  13 TIME =     0.02 SECS, INTEGRAL =      0.26 TIME LEFT: 172799.73
 STEP:  14 TIME =     0.02 SECS, INTEGRAL =      0.28 TIME LEFT: 172799.71
 STEP:  15 TIME =     0.02 SECS, INTEGRAL =      0.30 TIME LEFT: 172799.69
 STEP:  16 TIME =     0.02 SECS, INTEGRAL =      0.32 TIME LEFT: 172799.67
 STEP:  17 TIME =     0.02 SECS, INTEGRAL =      0.34 TIME LEFT: 172799.65
 STEP:  18 TIME =     0.02 SECS, INTEGRAL =      0.36 TIME LEFT: 172799.63
 STEP:  19 TIME =     0.02 SECS, INTEGRAL =      0.38 TIME LEFT: 172799.61
 STEP:  20 TIME =     0.02 SECS, INTEGRAL =      0.39 TIME LEFT: 172799.59
 STEP:  21 TIME =     0.02 SECS, INTEGRAL =      0.41 TIME LEFT: 172799.57
 STEP:  22 TIME =     0.02 SECS, INTEGRAL =      0.43 TIME LEFT: 172799.55
 STEP:  23 TIME =     0.02 SECS, INTEGRAL =      0.45 TIME LEFT: 172799.54
 STEP:  24 TIME =     0.02 SECS, INTEGRAL =      0.47 TIME LEFT: 172799.52
 STEP:  25 TIME =     0.02 SECS, INTEGRAL =      0.49 TIME LEFT: 172799.50
 STEP:  26 TIME =     0.02 SECS, INTEGRAL =      0.52 TIME LEFT: 172799.47
 STEP:  27 TIME =     0.02 SECS, INTEGRAL =      0.54 TIME LEFT: 172799.45
 STEP:  28 TIME =     0.02 SECS, INTEGRAL =      0.55 TIME LEFT: 172799.43
 STEP:  29 TIME =     0.02 SECS, INTEGRAL =      0.58 TIME LEFT: 172799.41
 STEP:  30 TIME =     0.02 SECS, INTEGRAL =      0.60 TIME LEFT: 172799.39
 STEP:  31 TIME =     0.02 SECS, INTEGRAL =      0.62 TIME LEFT: 172799.37
 STEP:  32 TIME =     0.02 SECS, INTEGRAL =      0.64 TIME LEFT: 172799.35
 STEP:  33 TIME =     0.02 SECS, INTEGRAL =      0.66 TIME LEFT: 172799.33
 STEP:  34 TIME =     0.02 SECS, INTEGRAL =      0.68 TIME LEFT: 172799.31
 STEP:  35 TIME =     0.02 SECS, INTEGRAL =      0.70 TIME LEFT: 172799.29
 STEP:  36 TIME =     0.02 SECS, INTEGRAL =      0.71 TIME LEFT: 172799.27
 STEP:  37 TIME =     0.02 SECS, INTEGRAL =      0.73 TIME LEFT: 172799.25
 STEP:  38 TIME =     0.02 SECS, INTEGRAL =      0.75 TIME LEFT: 172799.23
 STEP:  39 TIME =     0.02 SECS, INTEGRAL =      0.78 TIME LEFT: 172799.21
 STEP:  40 TIME =     0.02 SECS, INTEGRAL =      0.80 TIME LEFT: 172799.19
 STEP:  41 TIME =     0.02 SECS, INTEGRAL =      0.82 TIME LEFT: 172799.17
 STEP:  42 TIME =     0.02 SECS, INTEGRAL =      0.84 TIME LEFT: 172799.15
 STEP:  43 TIME =     0.02 SECS, INTEGRAL =      0.86 TIME LEFT: 172799.13
 STEP:  44 TIME =     0.02 SECS, INTEGRAL =      0.88 TIME LEFT: 172799.11
 STEP:  45 TIME =     0.02 SECS, INTEGRAL =      0.90 TIME LEFT: 172799.09
 STEP:  46 TIME =     0.02 SECS, INTEGRAL =      0.92 TIME LEFT: 172799.07
 STEP:  47 TIME =     0.02 SECS, INTEGRAL =      0.93 TIME LEFT: 172799.05
 STEP:  48 TIME =     0.02 SECS, INTEGRAL =      0.95 TIME LEFT: 172799.04
 STEP:  49 TIME =     0.02 SECS, INTEGRAL =      0.97 TIME LEFT: 172799.02
 STEP:  50 TIME =     0.02 SECS, INTEGRAL =      0.99 TIME LEFT: 172799.00
 STEP:  51 TIME =     0.02 SECS, INTEGRAL =      1.01 TIME LEFT: 172798.98
 STEP:  52 TIME =     0.02 SECS, INTEGRAL =      1.03 TIME LEFT: 172798.96
 STEP:  53 TIME =     0.02 SECS, INTEGRAL =      1.05 TIME LEFT: 172798.94
 STEP:  54 TIME =     0.03 SECS, INTEGRAL =      1.08 TIME LEFT: 172798.91
 STEP:  55 TIME =     0.02 SECS, INTEGRAL =      1.10 TIME LEFT: 172798.89
 STEP:  56 TIME =     0.02 SECS, INTEGRAL =      1.12 TIME LEFT: 172798.87
 STEP:  57 TIME =     0.02 SECS, INTEGRAL =      1.14 TIME LEFT: 172798.85
 STEP:  58 TIME =     0.02 SECS, INTEGRAL =      1.16 TIME LEFT: 172798.83
 STEP:  59 TIME =     0.02 SECS, INTEGRAL =      1.18 TIME LEFT: 172798.80
 STEP:  60 TIME =     0.02 SECS, INTEGRAL =      1.21 TIME LEFT: 172798.78

(To convert to Hartree/Bohr^2, multiply by (10^(-21) x N x a0^2)/(4.184 x 627.51) =  0.0642)


           FORCE MATRIX IN MILLIDYNES/ANGSTROM


                  C  1       C  2       C  3       C  4       C  5       C  6
 ------------------------------------------------------------------------------
     C    1  15.098097
     C    2   0.205574  18.944452
     C    3   5.027567   1.098872  18.095644
     C    4   5.028358   1.094211   0.736305  18.076973
     C    5   0.854582   5.396170  10.366791   0.063509  18.512717
     C    6   0.848221   5.365575   0.062476  10.344404   0.737500  18.499366
     C    7   0.041020   9.322901   0.144056   0.137128   1.009964   1.105327
     C    8   0.013760   1.124261   0.045398   0.046532   0.114426   0.152830
     C    9   0.001325   0.036436   0.002406   0.002964   0.008311   0.011000
     C   10   0.002923   0.177734   0.016319   0.016325   0.044964   0.047955
     H   11   4.370748   0.016694   0.418323   0.418515   0.039005   0.038783
     H   12   4.369527   0.016665   0.418196   0.418360   0.038889   0.038655
     H   13   0.424442   0.127065   4.831804   0.047049   0.441314   0.006344
     H   14   0.424249   0.123869   0.047137   4.830272   0.006208   0.441359
     H   15   0.003716   0.448041   0.009222   0.006745   0.108407   0.083244
     H   16   0.125557   0.445112   0.440185   0.003713   4.631630   0.043144
     H   17   0.125469   0.443506   0.003712   0.441189   0.042338   4.799491
     H   18   0.001456   0.030039   0.005957   0.002242   0.101672   0.007224
     H   19   0.000728   0.004824   0.000583   0.000704   0.003731   0.007393
     H   20   0.000733   0.004837   0.000583   0.000704   0.003731   0.007396


                  C  7       C  8       C  9       C 10       H 11       H 12
 ------------------------------------------------------------------------------
     C    7  18.087576
     C    8   5.522318  18.490625
     C    9   0.119363   0.802131  18.115558
     C   10   1.293540  11.015646  11.860978  24.618407
     H   11   0.005812   0.002333   0.000268   0.000910   4.960206
     H   12   0.005848   0.002351   0.000269   0.000911   0.566564   4.959062
     H   13   0.009629   0.005803   0.000819   0.001126   0.027465   0.027214
     H   14   0.007703   0.010403   0.000882   0.001320   0.027672   0.027441
     H   15   4.777966   0.442993   0.004929   0.028928   0.001339   0.001342
     H   16   0.036844   0.108125   0.001286   0.008014   0.016288   0.016326
     H   17   0.045721   0.003534   0.000708   0.001345   0.016257   0.016296
     H   18   0.459687   4.537524   0.043797   0.444217   0.000584   0.000575
     H   19   0.083441   0.047785   5.012470   0.480533   0.000184   0.000234
     H   20   0.083436   0.047867   5.011832   0.480451   0.000234   0.000183


                  H 13       H 14       H 15       H 16       H 17       H 18
 ------------------------------------------------------------------------------
     H   13   5.206532
     H   14   0.006780   5.204901
     H   15   0.009114   0.005094   5.149785
     H   16   0.068421   0.001216   0.003036   5.064890
     H   17   0.001276   0.068832   0.029723   0.006283   5.174062
     H   18   0.000791   0.000797   0.036646   0.120010   0.000984   4.971026
     H   19   0.000521   0.000667   0.001849   0.000601   0.000253   0.070529
     H   20   0.000521   0.000668   0.001842   0.000592   0.000254   0.070528


                  H 19       H 20
 ------------------------------
     H   19   5.393024
     H   20   0.408650   5.392476


          HEAT OF FORMATION =      85.085924 KCALS/MOLE

          ZERO POINT ENERGY     102.929 KCAL/MOL


           NORMAL COORDINATE ANALYSIS (Total motion = 1 Angstrom)


   Root No.       1         2         3         4         5         6         7         8

                 1 A       2 A       3 A       4 A       5 A       6 A       7 A       8 A   

                  39.5      90.6     119.2     188.9     271.4     291.1     347.5     383.0
  
           1    0.0002    0.0001   -0.0024    0.0001   -0.0271   -0.0001   -0.0000   -0.0004
           2    0.0001   -0.0002    0.0297   -0.0003   -0.0264   -0.0001   -0.0002   -0.0000
           3    0.0557    0.0413    0.0003    0.0127    0.0001   -0.0160    0.0022    0.0025
           4    0.0002   -0.0001    0.0007   -0.0001   -0.0168   -0.0000   -0.0001    0.0001
           5   -0.0001    0.0002   -0.0301    0.0001    0.0383    0.0003    0.0003   -0.0002
           6   -0.0342   -0.0133    0.0001    0.0340    0.0002   -0.0382    0.0050   -0.0021
           7    0.0003   -0.0002    0.0228   -0.0002   -0.0463   -0.0002   -0.0002   -0.0002
           8    0.0001   -0.0001    0.0125   -0.0001   -0.0108   -0.0001   -0.0000   -0.0002
           9    0.0094   -0.0229    0.0004    0.0045   -0.0006    0.0470   -0.0133    0.0389
          10    0.0000    0.0001   -0.0261    0.0002   -0.0004    0.0001    0.0001   -0.0004
          11    0.0001   -0.0001    0.0141    0.0000   -0.0077   -0.0001   -0.0001    0.0002
          12    0.0205   -0.0046   -0.0009   -0.0472    0.0000    0.0219   -0.0024   -0.0509
          13    0.0003   -0.0002    0.0223   -0.0001   -0.0431   -0.0002   -0.0002   -0.0001
          14   -0.0000    0.0001   -0.0160    0.0001    0.0226    0.0002    0.0002   -0.0003
          15   -0.0327   -0.0464    0.0002    0.0089    0.0001   -0.0310    0.0158   -0.0477
          16    0.0000    0.0001   -0.0256    0.0002   -0.0012    0.0001    0.0001   -0.0003
          17   -0.0000    0.0001   -0.0139    0.0001    0.0269    0.0002    0.0002   -0.0002
          18   -0.0225   -0.0306   -0.0008   -0.0093    0.0000   -0.0199    0.0032    0.0629
          19    0.0002   -0.0002    0.0015   -0.0002   -0.0148   -0.0003    0.0000    0.0002
          20   -0.0001    0.0002   -0.0474    0.0002    0.0113    0.0000    0.0000    0.0004
          21   -0.0398    0.0353    0.0007    0.0578   -0.0004    0.0323   -0.0285   -0.0193
          22    0.0002   -0.0004    0.0020    0.0003    0.0471    0.0002    0.0004    0.0004
          23   -0.0001    0.0002   -0.0480    0.0003   -0.0330   -0.0002   -0.0003    0.0003
          24   -0.0415    0.0535    0.0003   -0.0380   -0.0002   -0.0007   -0.0263   -0.0003
          25   -0.0009    0.0005    0.0039   -0.0002    0.0532    0.0003    0.0005    0.0005
          26    0.0001   -0.0004    0.0865   -0.0006    0.0283    0.0001    0.0001    0.0000
          27    0.0622   -0.0294   -0.0003    0.0033    0.0009   -0.0059   -0.0268   -0.0013
          28   -0.0004    0.0000    0.0023    0.0001    0.0497    0.0001   -0.0010    0.0003
          29   -0.0000   -0.0000   -0.0078    0.0004   -0.0520   -0.0002   -0.0002    0.0001
          30    0.0095    0.0161    0.0001   -0.0215   -0.0004    0.0112    0.1075    0.0129
          31   -0.0445   -0.0627   -0.0030   -0.0434   -0.0281    0.0808   -0.0191   -0.0199
          32   -0.0039   -0.0073    0.0436    0.0204   -0.0406    0.0118   -0.0060    0.0523
          33    0.0898    0.0892    0.0008    0.0462    0.0009   -0.0789    0.0171    0.0178
          34    0.0452    0.0632   -0.0018    0.0437   -0.0268   -0.0814    0.0191    0.0191
          35    0.0041    0.0065    0.0426   -0.0213   -0.0399   -0.0121    0.0054   -0.0524
          36    0.0895    0.0889    0.0008    0.0459    0.0004   -0.0784    0.0170    0.0175
          37    0.0003   -0.0003    0.0430   -0.0003   -0.0681   -0.0003   -0.0004    0.0000
          38    0.0001   -0.0002    0.0246   -0.0002   -0.0235   -0.0002   -0.0001   -0.0001
          39    0.0114   -0.0469    0.0005   -0.0061   -0.0015    0.1310   -0.0392    0.1010
          40   -0.0002    0.0002   -0.0452    0.0003    0.0242    0.0002    0.0003   -0.0004
          41    0.0001   -0.0001    0.0254    0.0001   -0.0224   -0.0004   -0.0001    0.0005
          42    0.0317   -0.0149   -0.0018   -0.1141   -0.0000    0.0694   -0.0071   -0.1279
          43    0.0002   -0.0003   -0.0054   -0.0004   -0.0514   -0.0008   -0.0001    0.0003
          44   -0.0002    0.0002   -0.0505    0.0000   -0.0100   -0.0002   -0.0001    0.0004
          45   -0.0388    0.0582    0.0011    0.1168   -0.0011    0.1024   -0.0579   -0.0069
          46    0.0004   -0.0002    0.0344   -0.0001   -0.0439   -0.0002   -0.0001   -0.0001
          47   -0.0001    0.0002   -0.0237    0.0001    0.0237    0.0002    0.0001   -0.0003
          48   -0.0665   -0.0853    0.0001   -0.0053    0.0003   -0.0425    0.0232   -0.1116
          49   -0.0001    0.0002   -0.0453    0.0004    0.0156    0.0002    0.0002   -0.0005
          50   -0.0000    0.0003   -0.0257    0.0003    0.0365    0.0002    0.0003   -0.0007
          51   -0.0483   -0.0640   -0.0015   -0.0343   -0.0002   -0.0192    0.0043    0.1579
          52    0.0005   -0.0006   -0.0017    0.0009    0.0636    0.0007    0.0016    0.0002
          53   -0.0002    0.0003   -0.0492   -0.0001   -0.0220   -0.0003   -0.0005    0.0004
          54   -0.0821    0.0878   -0.0002   -0.1418    0.0003   -0.0577   -0.1541    0.0281
          55    0.0360   -0.0323    0.0044    0.0176    0.0566   -0.0171   -0.1425   -0.0143
          56   -0.0217    0.0242    0.1275   -0.1037    0.0640   -0.0583   -0.1070    0.0517
          57    0.0864   -0.0511   -0.0005    0.0162    0.0024   -0.0167   -0.1203   -0.0117
          58   -0.0384    0.0339    0.0048   -0.0183    0.0541    0.0179    0.1456    0.0156
          59    0.0220   -0.0254    0.1283    0.1017    0.0641    0.0587    0.1073   -0.0518
          60    0.0856   -0.0503   -0.0005    0.0155    0.0009   -0.0165   -0.1175   -0.0112


   Root No.       9        10        11        12        13        14        15        16

                 9 A      10 A      11 A      12 A      13 A      14 A      15 A      16 A   

                 399.6     535.3     557.0     572.8     597.4     609.2     769.3     784.3
  
           1   -0.0525    0.0314    0.0003   -0.0002   -0.0444    0.0315   -0.0000    0.0000
           2    0.0078    0.0086    0.0001    0.0000    0.0200    0.0267    0.0000    0.0000
           3    0.0000   -0.0001    0.0048    0.0057    0.0000   -0.0000   -0.0254   -0.0204
           4    0.0155   -0.0312   -0.0004    0.0001    0.0414   -0.0319    0.0000    0.0000
           5   -0.0353   -0.0273   -0.0004   -0.0000   -0.0168   -0.0259   -0.0001   -0.0000
           6   -0.0002   -0.0010    0.0481    0.0433   -0.0007    0.0002    0.0337    0.0279
           7   -0.0082    0.0178    0.0003   -0.0001   -0.0321   -0.0515   -0.0000   -0.0001
           8   -0.0235    0.0167    0.0001   -0.0000    0.0003    0.0724    0.0000    0.0001
           9   -0.0004   -0.0002    0.0081    0.0118   -0.0002    0.0001    0.0088   -0.0235
          10   -0.0470   -0.0137   -0.0002    0.0003    0.0420    0.0393   -0.0001   -0.0000
          11    0.0106   -0.0266   -0.0003    0.0004    0.0714    0.0168   -0.0000   -0.0001
          12    0.0005   -0.0003    0.0108    0.0042    0.0001    0.0001   -0.0158    0.0190
          13   -0.0069    0.0115    0.0002   -0.0001   -0.0287   -0.0527   -0.0000   -0.0001
          14   -0.0502   -0.0084   -0.0002   -0.0002   -0.0585   -0.0211   -0.0001   -0.0001
          15    0.0003    0.0004   -0.0123   -0.0178    0.0002   -0.0001   -0.0060   -0.0321
          16   -0.0406   -0.0120   -0.0002    0.0003    0.0440    0.0373   -0.0000   -0.0000
          17   -0.0108   -0.0514   -0.0005    0.0002    0.0034   -0.0684    0.0002    0.0001
          18   -0.0009    0.0001   -0.0148   -0.0042    0.0001   -0.0003   -0.0300    0.0124
          19    0.0245   -0.0339   -0.0003    0.0003    0.0368   -0.0267    0.0001    0.0002
          20    0.0244    0.0721    0.0011   -0.0002    0.0055   -0.0081   -0.0000   -0.0001
          21    0.0000   -0.0003    0.0077   -0.0183    0.0005   -0.0002    0.0126   -0.0039
          22    0.0346    0.0036    0.0004   -0.0004   -0.0130    0.0115    0.0000    0.0000
          23    0.0361    0.0519    0.0009   -0.0001    0.0248   -0.0265    0.0001    0.0000
          24    0.0000    0.0011   -0.0371    0.0268   -0.0002   -0.0002   -0.0022   -0.0030
          25    0.0441    0.0075   -0.0000   -0.0001   -0.0234    0.0225   -0.0000   -0.0000
          26   -0.0107    0.0127    0.0002    0.0000    0.0069   -0.0054   -0.0000    0.0000
          27    0.0005    0.0000    0.0019   -0.0017   -0.0003    0.0003   -0.0001    0.0008
          28    0.0411    0.0051   -0.0002   -0.0000   -0.0196    0.0185   -0.0000   -0.0000
          29    0.0559   -0.0713   -0.0014   -0.0001   -0.0704    0.0526   -0.0001   -0.0000
          30    0.0003   -0.0005    0.0170   -0.0113   -0.0001    0.0002   -0.0001    0.0008
          31   -0.0537    0.0318    0.0630    0.0590   -0.0484    0.0341   -0.0832   -0.0634
          32    0.0200    0.0214   -0.0019    0.0071   -0.0086   -0.0083    0.0249   -0.0424
          33    0.0008   -0.0001   -0.0450   -0.0414    0.0027   -0.0017    0.0406    0.0298
          34   -0.0545    0.0346   -0.0627   -0.0597   -0.0469    0.0339    0.0835    0.0638
          35    0.0210    0.0213    0.0027   -0.0072   -0.0081   -0.0080   -0.0252    0.0427
          36   -0.0013    0.0021   -0.0446   -0.0411   -0.0015    0.0013    0.0400    0.0296
          37    0.0248    0.0216    0.0004   -0.0000    0.0123   -0.0501    0.0001   -0.0001
          38   -0.0037    0.0182    0.0002    0.0001    0.0264    0.0726    0.0001    0.0000
          39   -0.0010    0.0006   -0.0301   -0.0346    0.0002    0.0002    0.0635    0.2712
          40   -0.0528   -0.0532   -0.0006    0.0005    0.0573   -0.0086    0.0001    0.0000
          41    0.0133   -0.0032    0.0001    0.0004    0.0619    0.0448   -0.0009    0.0001
          42    0.0012    0.0008   -0.0323   -0.0391    0.0005    0.0004    0.2452   -0.0535
          43    0.0456   -0.0034    0.0001    0.0009    0.0711   -0.0431    0.0007    0.0003
          44    0.0361    0.0882    0.0013    0.0001    0.0239   -0.0178    0.0003    0.0000
          45   -0.0004   -0.0012    0.0202   -0.1430    0.0027   -0.0010   -0.1051   -0.0332
          46   -0.0054    0.0454    0.0007   -0.0001   -0.0345   -0.0091    0.0001   -0.0002
          47   -0.0500   -0.0289   -0.0005   -0.0001   -0.0539   -0.0476   -0.0001   -0.0000
          48    0.0007    0.0024   -0.0991   -0.1313    0.0018   -0.0007   -0.0692    0.1376
          49   -0.0726   -0.0072   -0.0000    0.0002    0.0066    0.0306   -0.0000    0.0001
          50   -0.0297   -0.0476   -0.0001    0.0005   -0.0188   -0.0719   -0.0002    0.0007
          51   -0.0024    0.0023   -0.1227   -0.0754    0.0011   -0.0004    0.1131   -0.1428
          52    0.0192    0.0773    0.0014   -0.0005   -0.0004   -0.0140    0.0002   -0.0002
          53    0.0278    0.0905    0.0015   -0.0002    0.0297   -0.0387   -0.0000    0.0001
          54   -0.0009    0.0007   -0.0232    0.0241    0.0000   -0.0006   -0.0344    0.0266
          55    0.0464    0.0102   -0.0259    0.0177   -0.0266    0.0258    0.0004   -0.0034
          56   -0.0445    0.0511    0.1758   -0.1293    0.0540   -0.0400    0.0215   -0.0131
          57    0.0019    0.0011   -0.0176    0.0119   -0.0024    0.0022   -0.0001   -0.0014
          58    0.0466    0.0083    0.0264   -0.0183   -0.0266    0.0262   -0.0006    0.0034
          59   -0.0422    0.0640   -0.1736    0.1294    0.0541   -0.0423   -0.0213    0.0131
          60   -0.0009    0.0002   -0.0165    0.0111    0.0015   -0.0017    0.0000   -0.0013


   Root No.      17        18        19        20        21        22        23        24

                17 A      18 A      19 A      20 A      21 A      22 A      23 A      24 A   

                 868.6     871.2     900.4     921.9     957.5     975.7     981.9     991.2
  
           1    0.0449   -0.0040    0.0003   -0.0001   -0.0001    0.0000   -0.0087   -0.0126
           2   -0.0023    0.0003   -0.0001    0.0000    0.0001   -0.0000   -0.0010   -0.0035
           3   -0.0024   -0.0123    0.0341   -0.0246   -0.0173    0.0032   -0.0000   -0.0000
           4    0.0410   -0.0038    0.0001    0.0001    0.0001    0.0000    0.0028    0.0116
           5   -0.0012    0.0001   -0.0000    0.0000    0.0001    0.0000   -0.0013   -0.0034
           6    0.0026    0.0165    0.0082   -0.0234   -0.0236   -0.0017    0.0001    0.0001
           7   -0.0392    0.0036   -0.0001    0.0000    0.0000   -0.0000   -0.0011   -0.0055
           8    0.0606   -0.0055    0.0001    0.0000   -0.0000    0.0000   -0.0066   -0.0056
           9    0.0016    0.0080   -0.0138    0.0118    0.0141    0.0210   -0.0001   -0.0001
          10   -0.0337    0.0030   -0.0001   -0.0000   -0.0000   -0.0000    0.0000   -0.0026
          11   -0.0557    0.0050   -0.0001   -0.0001   -0.0001    0.0002    0.0090    0.0129
          12   -0.0009   -0.0047   -0.0100    0.0136    0.0142   -0.0262   -0.0000   -0.0000
          13   -0.0326    0.0029   -0.0001    0.0000    0.0000   -0.0000    0.0039    0.0053
          14   -0.0091    0.0008    0.0000   -0.0000    0.0001    0.0000    0.0339    0.0571
          15    0.0012    0.0053   -0.0198    0.0135    0.0026   -0.0336    0.0001    0.0001
          16   -0.0315    0.0028   -0.0001    0.0000    0.0000   -0.0000    0.0031    0.0027
          17    0.0256   -0.0024    0.0001   -0.0000   -0.0002   -0.0001   -0.0294   -0.0467
          18    0.0000   -0.0009   -0.0197    0.0155    0.0060    0.0347   -0.0001   -0.0001
          19    0.0599   -0.0053    0.0002   -0.0001   -0.0002    0.0000    0.0089    0.0220
          20   -0.0263    0.0024   -0.0001   -0.0000   -0.0000   -0.0000   -0.0096   -0.0148
          21   -0.0049   -0.0284    0.0192    0.0216    0.0462    0.0039   -0.0001    0.0000
          22   -0.0006    0.0003    0.0002   -0.0000    0.0005   -0.0000   -0.0015   -0.0008
          23    0.0243   -0.0023    0.0001    0.0000   -0.0000    0.0000    0.0080    0.0134
          24   -0.0046   -0.0268   -0.0199    0.0049   -0.0486    0.0021    0.0000    0.0001
          25   -0.0047    0.0003   -0.0003   -0.0005    0.0002   -0.0000    0.0038    0.0017
          26   -0.0029    0.0003    0.0000    0.0001   -0.0000    0.0000   -0.0594    0.0278
          27    0.0022    0.0142    0.0213    0.0379   -0.0214    0.0005    0.0002   -0.0000
          28   -0.0028    0.0003    0.0001    0.0004   -0.0004    0.0000    0.0020    0.0002
          29   -0.0182    0.0017   -0.0001   -0.0001    0.0000   -0.0000    0.0172   -0.0162
          30   -0.0003   -0.0022   -0.0126   -0.0344    0.0310   -0.0011   -0.0000   -0.0000
          31    0.0496   -0.0363    0.0823   -0.0576   -0.0393    0.0072   -0.0137   -0.0206
          32   -0.0073    0.0130   -0.0037   -0.0009    0.0025    0.0903   -0.0057   -0.0207
          33   -0.0039    0.0129   -0.0306    0.0207    0.0135   -0.0022    0.0024    0.0038
          34    0.0610    0.0264   -0.0821    0.0577    0.0392   -0.0071   -0.0136   -0.0206
          35   -0.0116   -0.0113    0.0039    0.0009   -0.0023   -0.0913   -0.0056   -0.0205
          36    0.0081    0.0116   -0.0300    0.0203    0.0132   -0.0025   -0.0024   -0.0038
          37   -0.0773    0.0070   -0.0004    0.0001   -0.0000   -0.0000   -0.0514   -0.1018
          38    0.0401   -0.0036   -0.0000    0.0001   -0.0001    0.0001   -0.0354   -0.0607
          39   -0.0044   -0.0198    0.0218   -0.0303   -0.0527   -0.1353    0.0003    0.0005
          40   -0.0499    0.0044   -0.0004    0.0001   -0.0002   -0.0002   -0.0412   -0.0751
          41   -0.0477    0.0041    0.0000    0.0000    0.0003   -0.0003    0.0325    0.0540
          42    0.0125    0.0746   -0.0044   -0.0463   -0.0569    0.1488    0.0003    0.0005
          43    0.1167   -0.0117    0.0008    0.0005    0.0006    0.0002    0.0249    0.0668
          44    0.0039   -0.0009    0.0002    0.0003    0.0003    0.0001   -0.0010    0.0093
          45    0.0361    0.1955   -0.0848   -0.0992   -0.1655   -0.0326    0.0003    0.0004
          46   -0.0364    0.0031   -0.0004    0.0001   -0.0004   -0.0002   -0.0278   -0.0384
          47   -0.0071    0.0008    0.0002   -0.0001    0.0004    0.0001    0.0538    0.0852
          48   -0.0105   -0.0519    0.1241   -0.0801   -0.0232    0.1778   -0.0003   -0.0005
          49   -0.0256    0.0024   -0.0002    0.0000   -0.0001   -0.0001   -0.0295   -0.0607
          50    0.0297   -0.0026   -0.0005    0.0003   -0.0002    0.0006   -0.0495   -0.0853
          51   -0.0076   -0.0389    0.1284   -0.0750   -0.0219   -0.1678   -0.0004   -0.0006
          52   -0.0334    0.0012   -0.0009    0.0001   -0.0016    0.0002   -0.0327   -0.0136
          53    0.0056    0.0002    0.0003   -0.0001    0.0005   -0.0000   -0.0087    0.0061
          54    0.0405    0.2350    0.0980   -0.0245    0.1898   -0.0191   -0.0004   -0.0006
          55   -0.0159   -0.0567   -0.0842   -0.1477    0.0812   -0.0021    0.0134    0.0004
          56    0.0166   -0.0678   -0.0143    0.0117   -0.0226    0.0035    0.2440   -0.1078
          57   -0.0052   -0.0234   -0.0351   -0.0615    0.0335   -0.0009    0.0023    0.0007
          58    0.0028    0.0586    0.0849    0.1491   -0.0823    0.0020    0.0136    0.0006
          59    0.0398    0.0622    0.0144   -0.0118    0.0228   -0.0035    0.2441   -0.1078
          60   -0.0025   -0.0226   -0.0333   -0.0582    0.0318   -0.0008   -0.0029   -0.0004


   Root No.      25        26        27        28        29        30        31        32

                25 A      26 A      27 A      28 A      29 A      30 A      31 A      32 A   

                1012.8    1019.3    1052.4    1058.3    1127.9    1147.7    1163.3    1196.3
  
           1    0.0669    0.0009    0.0018    0.0000   -0.0012    0.0023   -0.0005    0.0067
           2   -0.0025   -0.0000    0.0250    0.0010   -0.0001    0.0020    0.0041    0.0013
           3    0.0003   -0.0324    0.0000   -0.0000   -0.0000    0.0000   -0.0000    0.0000
           4   -0.0019   -0.0001    0.0035    0.0001    0.0093   -0.0087   -0.0173   -0.0056
           5    0.0009   -0.0001    0.0139    0.0006    0.0030   -0.0212   -0.0130   -0.0066
           6   -0.0005    0.0242    0.0001    0.0002    0.0000   -0.0001   -0.0001    0.0000
           7   -0.0030   -0.0000   -0.0047   -0.0002   -0.0077   -0.0002    0.0018    0.0020
           8   -0.0458   -0.0007   -0.0309   -0.0011   -0.0025    0.0040   -0.0029   -0.0049
           9   -0.0008    0.0430    0.0010   -0.0397   -0.0000   -0.0000   -0.0000   -0.0000
          10   -0.0027   -0.0000    0.0011    0.0000   -0.0023    0.0046   -0.0035   -0.0020
          11    0.0487    0.0007   -0.0256   -0.0011   -0.0037    0.0091    0.0108    0.0066
          12   -0.0005    0.0414   -0.0010    0.0394    0.0000    0.0001    0.0000    0.0000
          13   -0.0157   -0.0002   -0.0181   -0.0007   -0.0024    0.0034    0.0058   -0.0042
          14   -0.0254   -0.0002   -0.0055   -0.0002    0.0022    0.0047   -0.0013    0.0047
          15    0.0007   -0.0365   -0.0004    0.0130   -0.0000    0.0000    0.0000    0.0000
          16   -0.0173   -0.0003    0.0168    0.0007    0.0036   -0.0059   -0.0020   -0.0070
          17    0.0244    0.0004   -0.0138   -0.0005   -0.0032    0.0098    0.0074   -0.0001
          18    0.0007   -0.0338    0.0003   -0.0126   -0.0000    0.0000    0.0000   -0.0000
          19   -0.0091   -0.0000    0.0050    0.0002    0.0096   -0.0086   -0.0112   -0.0066
          20    0.0075    0.0001    0.0007    0.0000    0.0167   -0.0119   -0.0152    0.0290
          21    0.0002   -0.0140   -0.0000   -0.0009    0.0001   -0.0000   -0.0000   -0.0000
          22   -0.0011   -0.0001   -0.0017   -0.0001    0.0303   -0.0106   -0.0153    0.0096
          23   -0.0012    0.0000    0.0002    0.0000   -0.0311    0.0092   -0.0015   -0.0383
          24   -0.0002    0.0076    0.0000   -0.0003    0.0004   -0.0002   -0.0002    0.0001
          25    0.0031    0.0001    0.0034    0.0001   -0.0314    0.0087    0.0103   -0.0048
          26    0.0001    0.0000    0.0021    0.0001   -0.0034   -0.0000   -0.0005   -0.0010
          27    0.0000    0.0011    0.0000   -0.0000   -0.0003    0.0001    0.0001   -0.0000
          28    0.0011    0.0001    0.0009    0.0000   -0.0016   -0.0004   -0.0014    0.0028
          29   -0.0004   -0.0000   -0.0047   -0.0002    0.0137    0.0001    0.0016    0.0024
          30    0.0001   -0.0027   -0.0000    0.0001   -0.0000   -0.0000   -0.0000    0.0000
          31    0.0971   -0.0692    0.0020   -0.0002   -0.0050    0.0063   -0.0043    0.0211
          32   -0.0133    0.0037    0.2188    0.3498    0.0480    0.0829   -0.0325   -0.0114
          33   -0.0212    0.0224   -0.0001    0.0007    0.0018   -0.0021    0.0013   -0.0086
          34    0.0949    0.0722    0.0021    0.0003   -0.0049    0.0063   -0.0042    0.0212
          35   -0.0132   -0.0047    0.2339   -0.3338    0.0475    0.0816   -0.0323   -0.0114
          36    0.0199    0.0226    0.0010   -0.0005   -0.0016    0.0023   -0.0014    0.0085
          37   -0.1020   -0.0018   -0.0016    0.0005   -0.0985   -0.1593   -0.0866    0.0780
          38   -0.1057   -0.0017   -0.0269   -0.0007   -0.0552   -0.0883   -0.0554    0.0396
          39    0.0027   -0.1475   -0.0021    0.0716   -0.0000   -0.0001   -0.0000    0.0000
          40   -0.1004   -0.0016   -0.0468   -0.0023   -0.0426    0.2303   -0.0691    0.0803
          41    0.1074    0.0022    0.0045    0.0007    0.0199   -0.1219    0.0508   -0.0417
          42    0.0026   -0.1355    0.0018   -0.0701    0.0001   -0.0004    0.0001   -0.0001
          43   -0.0439   -0.0006   -0.0002   -0.0001    0.0257    0.0334    0.1673    0.2190
          44   -0.0107   -0.0002   -0.0025   -0.0001    0.0249    0.0112    0.0823    0.1555
          45   -0.0010    0.0418   -0.0001    0.0097    0.0003    0.0001    0.0008    0.0014
          46   -0.0657   -0.0011   -0.1029   -0.0041    0.0901    0.0483    0.0568   -0.0962
          47    0.0021    0.0002    0.0451    0.0018   -0.0537   -0.0242   -0.0336    0.0613
          48   -0.0029    0.1370    0.0008   -0.0270   -0.0001    0.0000   -0.0000   -0.0001
          49   -0.1077   -0.0019    0.1036    0.0042    0.0052   -0.0815    0.2002   -0.0503
          50   -0.0258   -0.0010    0.0362    0.0014   -0.0024   -0.0356    0.1288   -0.0246
          51   -0.0023    0.1152   -0.0005    0.0244    0.0000   -0.0002    0.0005   -0.0001
          52   -0.0272   -0.0001   -0.0658   -0.0028    0.1927    0.0203    0.0240   -0.0731
          53   -0.0144   -0.0002   -0.0335   -0.0014    0.0534    0.0260    0.0193   -0.0842
          54    0.0002   -0.0285   -0.0009    0.0023    0.0014    0.0003    0.0004   -0.0005
          55    0.0068   -0.0038    0.0082    0.0004   -0.1185    0.0392    0.0560   -0.0451
          56   -0.0008    0.0013   -0.0069   -0.0003    0.0088   -0.0002   -0.0007   -0.0002
          57    0.0021   -0.0016    0.0028    0.0002   -0.0505    0.0177    0.0267   -0.0239
          58    0.0067    0.0042    0.0083    0.0003   -0.1194    0.0395    0.0565   -0.0456
          59   -0.0008   -0.0014   -0.0070   -0.0002    0.0088   -0.0003   -0.0008   -0.0001
          60   -0.0018   -0.0016   -0.0026   -0.0001    0.0478   -0.0169   -0.0254    0.0228


   Root No.      33        34        35        36        37        38        39        40

                33 A      34 A      35 A      36 A      37 A      38 A      39 A      40 A   

                1225.7    1266.3    1305.9    1344.4    1390.1    1418.3    1523.8    1536.1
  
           1    0.0057   -0.0073   -0.0005   -0.0280    0.0423    0.0007    0.0014   -0.0090
           2   -0.0134   -0.0107   -0.0221   -0.0077   -0.0058    0.0952   -0.0641   -0.0127
           3   -0.0000   -0.0000   -0.0000    0.0001   -0.0001    0.0002   -0.0001   -0.0000
           4   -0.0073    0.0107   -0.0177    0.0072    0.0046   -0.0048    0.0099   -0.0533
           5    0.0106    0.0083   -0.0009    0.0049    0.0045    0.0571    0.1254    0.0362
           6   -0.0000    0.0001   -0.0001    0.0000    0.0000    0.0001    0.0003   -0.0001
           7   -0.0125    0.0033   -0.0032   -0.0102   -0.0163    0.0048    0.0304    0.0236
           8   -0.0154    0.0148    0.0014   -0.0075   -0.0222   -0.0388    0.0397    0.0145
           9    0.0000    0.0000    0.0000    0.0000    0.0000   -0.0000    0.0000   -0.0000
          10    0.0093    0.0081    0.0126   -0.0102   -0.0177   -0.0048   -0.0356    0.0110
          11   -0.0005   -0.0167    0.0004    0.0108    0.0262   -0.0361    0.0408    0.0027
          12   -0.0000   -0.0001   -0.0000    0.0000    0.0001   -0.0001    0.0001    0.0000
          13   -0.0162    0.0085   -0.0008   -0.0049   -0.0183   -0.0158    0.0177    0.0083
          14    0.0113   -0.0077    0.0055    0.0167    0.0204   -0.0130   -0.0623   -0.0310
          15    0.0000   -0.0000   -0.0000   -0.0000   -0.0000   -0.0000   -0.0000    0.0000
          16    0.0049    0.0136    0.0066   -0.0053   -0.0199    0.0148   -0.0189   -0.0006
          17    0.0058    0.0124    0.0151   -0.0166   -0.0227   -0.0143   -0.0658   -0.0027
          18    0.0000    0.0000    0.0001   -0.0001   -0.0001   -0.0000   -0.0002    0.0000
          19   -0.0052    0.0015   -0.0108    0.0151    0.0200   -0.0011    0.0018   -0.0209
          20   -0.0252    0.0308   -0.0193    0.0135    0.0087   -0.0137   -0.0073   -0.0545
          21   -0.0000    0.0001   -0.0001    0.0001    0.0001   -0.0000    0.0000   -0.0003
          22   -0.0130   -0.0071   -0.0032    0.0061    0.0130   -0.0086   -0.0388    0.1183
          23    0.0031   -0.0255    0.0235   -0.0043   -0.0010    0.0048   -0.0105    0.0549
          24   -0.0001   -0.0001   -0.0001    0.0001    0.0001   -0.0001   -0.0003    0.0011
          25    0.0012   -0.0099    0.0277   -0.0101   -0.0163    0.0105    0.0320   -0.0928
          26   -0.0008   -0.0002    0.0007    0.0005    0.0005    0.0001   -0.0007    0.0026
          27    0.0000   -0.0001    0.0003   -0.0001   -0.0002    0.0001    0.0004   -0.0010
          28   -0.0054   -0.0095    0.0132   -0.0029   -0.0024    0.0007   -0.0051    0.0162
          29    0.0049    0.0001   -0.0062   -0.0026   -0.0023   -0.0015    0.0008   -0.0045
          30   -0.0001   -0.0001    0.0001   -0.0000   -0.0000    0.0000   -0.0001    0.0002
          31    0.0218   -0.0484   -0.0192    0.1684   -0.0903   -0.0011   -0.0002    0.0012
          32    0.0480    0.0250    0.0453    0.0116    0.0066   -0.1131    0.0406    0.0081
          33   -0.0100    0.0264    0.0121   -0.1285    0.0867    0.0010    0.0011   -0.0064
          34    0.0218   -0.0485   -0.0193    0.1692   -0.0909   -0.0011   -0.0002    0.0013
          35    0.0479    0.0250    0.0452    0.0111    0.0069   -0.1128    0.0405    0.0081
          36    0.0100   -0.0260   -0.0118    0.1275   -0.0861   -0.0014   -0.0009    0.0064
          37    0.1382   -0.0623    0.0141    0.0247    0.0731   -0.0212   -0.0556   -0.0322
          38    0.0725   -0.0233    0.0110    0.0132    0.0285   -0.0577   -0.0122   -0.0201
          39   -0.0000   -0.0000   -0.0000   -0.0000   -0.0000    0.0000    0.0000    0.0000
          40   -0.0336   -0.0885   -0.0518    0.0247    0.0774    0.0246    0.0607   -0.0035
          41    0.0250    0.0389    0.0393   -0.0104   -0.0283   -0.0565   -0.0181    0.0126
          42    0.0001    0.0002    0.0002   -0.0000   -0.0001   -0.0002   -0.0001    0.0000
          43    0.0928    0.0097    0.0473   -0.0251   -0.0210    0.0580    0.0591    0.0922
          44    0.0279    0.0379    0.0129   -0.0086   -0.0148    0.0194    0.0267    0.0035
          45    0.0004    0.0001    0.0003   -0.0001   -0.0001    0.0003    0.0002    0.0006
          46    0.0407    0.0829    0.1295    0.1354    0.1185    0.0983   -0.0418   -0.0476
          47   -0.0225   -0.0539   -0.0763   -0.0694   -0.0645   -0.0866   -0.0265   -0.0004
          48   -0.0001    0.0002    0.0002    0.0002    0.0001    0.0001   -0.0000   -0.0001
          49   -0.0932   -0.0905   -0.0462    0.0458    0.0676   -0.0654    0.0378   -0.0281
          50   -0.0515   -0.0490   -0.0148    0.0125    0.0289   -0.0642   -0.0347   -0.0172
          51   -0.0003   -0.0002   -0.0001    0.0001    0.0001   -0.0003   -0.0001   -0.0001
          52    0.1417   -0.0734   -0.1282   -0.0750   -0.0517   -0.0251    0.0350   -0.0795
          53    0.0864   -0.0623   -0.0436   -0.0498   -0.0382   -0.0041    0.0332   -0.0594
          54    0.0010   -0.0003   -0.0007   -0.0003   -0.0002   -0.0001    0.0002   -0.0006
          55    0.0635    0.0878   -0.1053    0.0234    0.0237   -0.0117   -0.0159    0.0422
          56    0.0003   -0.0024    0.0014   -0.0009   -0.0006    0.0001   -0.0001    0.0005
          57    0.0372    0.0591   -0.0818    0.0209    0.0254   -0.0143   -0.0326    0.0928
          58    0.0643    0.0890   -0.1070    0.0238    0.0242   -0.0120   -0.0166    0.0442
          59    0.0002   -0.0025    0.0017   -0.0009   -0.0007    0.0002   -0.0000    0.0002
          60   -0.0358   -0.0571    0.0794   -0.0203   -0.0249    0.0140    0.0322   -0.0917


   Root No.      41        42        43        44        45        46        47        48

                41 A      42 A      43 A      44 A      45 A      46 A      47 A      48 A   

                1844.0    1855.8    1879.9    2246.4    2927.1    2976.5    3006.3    3007.2
  
           1   -0.0161   -0.0063    0.0212   -0.0002   -0.0001   -0.0001    0.0311    0.0107
           2   -0.0066    0.0287    0.0026    0.0000    0.0001    0.0001   -0.0000    0.0001
           3    0.0000    0.0001   -0.0000    0.0000   -0.0609   -0.0000    0.0000   -0.0000
           4   -0.1586   -0.0223   -0.1060    0.0118    0.0000   -0.0002    0.0004   -0.0002
           5   -0.0068    0.0339    0.0042    0.0028   -0.0000   -0.0004   -0.0001    0.0001
           6   -0.0006   -0.0000   -0.0003    0.0000    0.0002   -0.0000    0.0000   -0.0000
           7    0.1006   -0.1017   -0.1157    0.0007    0.0000    0.0002   -0.0010   -0.0014
           8    0.0126   -0.0180   -0.0174    0.0002   -0.0000    0.0017    0.0009    0.0071
           9   -0.0000    0.0000    0.0000    0.0000   -0.0000    0.0000    0.0000    0.0000
          10    0.0427    0.1582   -0.0902    0.0012    0.0000   -0.0000   -0.0014   -0.0004
          11   -0.0028   -0.0254    0.0136   -0.0002    0.0000   -0.0000   -0.0031   -0.0010
          12   -0.0000   -0.0001    0.0001   -0.0000   -0.0000   -0.0000   -0.0000   -0.0000
          13   -0.0794    0.1076    0.1281   -0.0015   -0.0000   -0.0099    0.0076   -0.0216
          14    0.0010   -0.0233   -0.0260    0.0012    0.0000   -0.0140    0.0114   -0.0312
          15    0.0000    0.0000    0.0000    0.0000   -0.0003   -0.0000    0.0000   -0.0000
          16   -0.0229   -0.1579    0.1007   -0.0027   -0.0000    0.0000   -0.0003    0.0003
          17    0.0086   -0.0274    0.0199   -0.0019   -0.0000    0.0001   -0.0000   -0.0004
          18    0.0000   -0.0001    0.0001   -0.0000   -0.0003    0.0000    0.0000   -0.0000
          19    0.1643    0.0301    0.0698   -0.0036   -0.0000   -0.0014   -0.0002    0.0004
          20    0.0308    0.0112    0.0099    0.0026   -0.0000    0.0037    0.0002   -0.0011
          21    0.0007    0.0001    0.0003   -0.0000   -0.0000    0.0000   -0.0000   -0.0000
          22   -0.0294   -0.0076   -0.0095   -0.1505   -0.0000    0.0297    0.0025   -0.0064
          23   -0.0223   -0.0061   -0.0054   -0.0117    0.0000   -0.0465   -0.0039    0.0102
          24   -0.0002   -0.0001   -0.0001   -0.0015    0.0000    0.0004    0.0000   -0.0001
          25    0.0077    0.0034   -0.0007   -0.1431    0.0000    0.0008    0.0001   -0.0002
          26   -0.0002   -0.0001    0.0000    0.0021    0.0000   -0.0002   -0.0000    0.0000
          27    0.0001    0.0000   -0.0000   -0.0016    0.0000    0.0000    0.0000   -0.0000
          28   -0.0041   -0.0027    0.0022    0.3029   -0.0000   -0.0060   -0.0005    0.0013
          29   -0.0023   -0.0004   -0.0013   -0.0037   -0.0000   -0.0001    0.0000   -0.0000
          30   -0.0000   -0.0000    0.0000    0.0033   -0.0000   -0.0001   -0.0000    0.0000
          31   -0.0074   -0.0033    0.0130   -0.0000    0.2873    0.0016   -0.1882   -0.0627
          32   -0.0055    0.0250    0.0024    0.0001   -0.0006    0.0001    0.0003    0.0007
          33   -0.0039   -0.0009    0.0000   -0.0002    0.3665    0.0024   -0.2876   -0.0960
          34   -0.0073   -0.0032    0.0128   -0.0000   -0.2862    0.0016   -0.1856   -0.0619
          35   -0.0055    0.0248    0.0024    0.0001   -0.0008    0.0001   -0.0008    0.0003
          36    0.0040    0.0010   -0.0001    0.0002    0.3699   -0.0024    0.2877    0.0960
          37    0.0050   -0.0168   -0.0045    0.0001   -0.0001    0.0114    0.0061    0.0470
          38   -0.0639    0.0511    0.0693   -0.0006    0.0001   -0.0217   -0.0037   -0.0837
          39   -0.0000    0.0000   -0.0000    0.0000   -0.0016   -0.0000   -0.0000   -0.0000
          40   -0.0022    0.0180   -0.0004    0.0005   -0.0000    0.0003    0.0209    0.0065
          41    0.0331    0.0876   -0.0556    0.0007   -0.0000    0.0005    0.0306    0.0094
          42    0.0001    0.0003   -0.0002    0.0000   -0.0016    0.0000    0.0001    0.0000
          43   -0.0076    0.0016    0.0007   -0.0129   -0.0000    0.0264    0.0005   -0.0052
          44   -0.0894   -0.0047   -0.0392    0.0052    0.0000   -0.0404   -0.0005    0.0081
          45   -0.0003   -0.0001   -0.0001   -0.0002   -0.0000    0.0000    0.0000   -0.0000
          46   -0.0465    0.0141   -0.0092    0.0081   -0.0000    0.1070   -0.0844    0.2275
          47   -0.0398    0.0539    0.0810   -0.0050   -0.0000    0.1667   -0.1363    0.3694
          48   -0.0001   -0.0000   -0.0001    0.0000   -0.0008    0.0000   -0.0000    0.0000
          49   -0.0311   -0.0214   -0.0145    0.0014   -0.0000   -0.0010   -0.0004   -0.0054
          50    0.0148    0.0838   -0.0641    0.0004    0.0000    0.0015   -0.0003    0.0092
          51   -0.0000    0.0003   -0.0003    0.0000   -0.0008    0.0000   -0.0000    0.0000
          52    0.0401   -0.0003    0.0059   -0.0503    0.0000   -0.3027   -0.0241    0.0631
          53    0.0140   -0.0018    0.0029    0.0983   -0.0000    0.5577    0.0466   -0.1217
          54    0.0001   -0.0000   -0.0000   -0.0007   -0.0000   -0.0039   -0.0003    0.0008
          55    0.0001    0.0004   -0.0008   -0.0645   -0.0000    0.0004   -0.0000   -0.0001
          56   -0.0004   -0.0001   -0.0000    0.0011   -0.0000   -0.0001   -0.0000    0.0000
          57   -0.0071   -0.0027   -0.0004    0.1023    0.0000   -0.0002    0.0001   -0.0000
          58   -0.0001    0.0003   -0.0008   -0.0622    0.0000    0.0004   -0.0000   -0.0001
          59   -0.0003   -0.0001   -0.0000    0.0008    0.0000   -0.0001   -0.0000    0.0001
          60    0.0071    0.0027    0.0004   -0.1037    0.0000    0.0002   -0.0001   -0.0000


   Root No.      49        50        51        52        53        54

                49 A      50 A      51 A      52 A      53 A      54 A   

                3039.2    3042.1    3059.8    3064.2    3116.7    3121.3
  
           1    0.0000    0.0010    0.0021   -0.0033    0.0000   -0.0000
           2    0.0000    0.0001   -0.0000    0.0000   -0.0000   -0.0000
           3    0.0000    0.0000    0.0000   -0.0000   -0.0000    0.0000
           4   -0.0035    0.0012   -0.0004    0.0010    0.0002   -0.0000
           5   -0.0003    0.0002    0.0003    0.0002    0.0000   -0.0000
           6   -0.0000    0.0000   -0.0000    0.0000    0.0000   -0.0000
           7    0.0001   -0.0004    0.0267   -0.0078    0.0001   -0.0000
           8    0.0002    0.0002   -0.0380    0.0113   -0.0001    0.0000
           9   -0.0000   -0.0000   -0.0000    0.0000   -0.0000    0.0000
          10    0.0033    0.0104   -0.0078   -0.0220    0.0001   -0.0000
          11    0.0065    0.0197   -0.0102   -0.0297    0.0001   -0.0000
          12    0.0000    0.0001   -0.0000   -0.0001    0.0000   -0.0000
          13   -0.0005    0.0008   -0.0083    0.0028   -0.0000    0.0000
          14    0.0005    0.0010   -0.0066    0.0025    0.0000   -0.0000
          15   -0.0000    0.0000   -0.0000    0.0000   -0.0000   -0.0000
          16    0.0080    0.0198    0.0057    0.0151   -0.0000    0.0000
          17   -0.0120   -0.0320   -0.0069   -0.0181   -0.0000    0.0000
          18   -0.0000   -0.0001   -0.0000   -0.0001    0.0000    0.0000
          19    0.0277   -0.0075    0.0000   -0.0008   -0.0003    0.0000
          20   -0.0451    0.0116    0.0001    0.0006   -0.0002    0.0000
          21    0.0000   -0.0000    0.0000   -0.0000   -0.0000   -0.0000
          22    0.0028   -0.0007   -0.0005    0.0001   -0.0006    0.0000
          23   -0.0028    0.0006    0.0008   -0.0002    0.0001   -0.0000
          24    0.0000   -0.0000   -0.0000    0.0000   -0.0000   -0.0002
          25    0.0001   -0.0000    0.0000   -0.0001   -0.0478    0.0015
          26   -0.0000    0.0000    0.0000   -0.0000    0.0008   -0.0001
          27    0.0000   -0.0000    0.0000   -0.0000   -0.0016   -0.0649
          28   -0.0010    0.0003    0.0001   -0.0000    0.0085   -0.0001
          29   -0.0003    0.0001   -0.0000    0.0000   -0.0001    0.0000
          30   -0.0000    0.0000    0.0000   -0.0000    0.0001   -0.0004
          31   -0.0010   -0.0076   -0.0119    0.0182   -0.0001    0.0000
          32    0.0005    0.0014   -0.0031   -0.0012    0.0000    0.0000
          33   -0.0013   -0.0111   -0.0175    0.0269   -0.0002    0.0000
          34   -0.0009   -0.0074   -0.0117    0.0179   -0.0001    0.0000
          35    0.0005    0.0014   -0.0031   -0.0011    0.0000   -0.0000
          36    0.0013    0.0111    0.0174   -0.0268    0.0002   -0.0000
          37    0.0014    0.0026   -0.2663    0.0764   -0.0005    0.0000
          38   -0.0024   -0.0043    0.4542   -0.1302    0.0009   -0.0000
          39   -0.0000   -0.0000    0.0001   -0.0000   -0.0000    0.0000
          40   -0.0441   -0.1355    0.0746    0.2082   -0.0005    0.0000
          41   -0.0770   -0.2359    0.1261    0.3518   -0.0009    0.0000
          42   -0.0003   -0.0008    0.0004    0.0012   -0.0000   -0.0000
          43   -0.2941    0.0756    0.0007    0.0038    0.0001   -0.0000
          44    0.5300   -0.1393   -0.0020   -0.0084   -0.0002    0.0000
          45   -0.0001    0.0000   -0.0000   -0.0000   -0.0000    0.0000
          46   -0.0017   -0.0053    0.0510   -0.0172    0.0000   -0.0000
          47   -0.0017   -0.0086    0.0772   -0.0261    0.0000   -0.0000
          48   -0.0000   -0.0000    0.0000   -0.0000   -0.0000    0.0000
          49   -0.0827   -0.2228   -0.0498   -0.1283    0.0002   -0.0000
          50    0.1438    0.3776    0.0824    0.2117   -0.0002    0.0000
          51    0.0005    0.0014    0.0003    0.0008   -0.0000    0.0000
          52   -0.0190    0.0039    0.0044   -0.0010   -0.0009    0.0000
          53    0.0421   -0.0089   -0.0091    0.0021    0.0013   -0.0000
          54   -0.0003    0.0001    0.0001   -0.0000   -0.0000   -0.0002
          55    0.0002   -0.0001   -0.0002    0.0004    0.2392   -0.2641
          56    0.0001   -0.0000    0.0000   -0.0000   -0.0045    0.0049
          57   -0.0002    0.0002    0.0003   -0.0006   -0.3943    0.3949
          58    0.0002   -0.0001   -0.0002    0.0004    0.2386    0.2472
          59    0.0001   -0.0000    0.0000   -0.0000   -0.0033   -0.0034
          60    0.0002   -0.0002   -0.0004    0.0006    0.4126    0.3868


           MASS-WEIGHTED COORDINATE ANALYSIS (NORMAL COORDINATES)


   Root No.       1         2         3         4         5         6         7         8

                 1 A       2 A       3 A       4 A       5 A       6 A       7 A       8 A   

                  39.5      90.6     119.2     188.9     271.4     291.1     347.5     383.0
  
           1    0.0018    0.0007   -0.0165    0.0006   -0.1741   -0.0009   -0.0001   -0.0033
           2    0.0007   -0.0020    0.2030   -0.0022   -0.1700   -0.0013   -0.0010   -0.0001
           3    0.4129    0.3310    0.0020    0.1017    0.0009   -0.1407    0.0139    0.0186
           4    0.0013   -0.0005    0.0047   -0.0008   -0.1080   -0.0004   -0.0005    0.0005
           5   -0.0006    0.0016   -0.2059    0.0010    0.2466    0.0026    0.0017   -0.0013
           6   -0.2532   -0.1062    0.0010    0.2721    0.0011   -0.3353    0.0318   -0.0162
           7    0.0021   -0.0013    0.1557   -0.0012   -0.2983   -0.0015   -0.0012   -0.0012
           8    0.0005   -0.0005    0.0857   -0.0008   -0.0693   -0.0007   -0.0001   -0.0016
           9    0.0693   -0.1838    0.0024    0.0359   -0.0041    0.4121   -0.0848    0.2949
          10    0.0000    0.0010   -0.1784    0.0013   -0.0029    0.0008    0.0007   -0.0029
          11    0.0005   -0.0006    0.0964    0.0000   -0.0496   -0.0013   -0.0003    0.0015
          12    0.1521   -0.0370   -0.0062   -0.3778    0.0003    0.1921   -0.0153   -0.3856
          13    0.0020   -0.0013    0.1525   -0.0011   -0.2771   -0.0014   -0.0011   -0.0011
          14   -0.0000    0.0011   -0.1092    0.0007    0.1455    0.0019    0.0013   -0.0023
          15   -0.2425   -0.3722    0.0012    0.0711    0.0007   -0.2721    0.1009   -0.3613
          16    0.0000    0.0010   -0.1752    0.0013   -0.0077    0.0007    0.0006   -0.0025
          17   -0.0001    0.0011   -0.0954    0.0010    0.1732    0.0014    0.0011   -0.0019
          18   -0.1664   -0.2454   -0.0053   -0.0746    0.0001   -0.1744    0.0202    0.4766
          19    0.0014   -0.0020    0.0099   -0.0017   -0.0953   -0.0026    0.0002    0.0016
          20   -0.0011    0.0019   -0.3240    0.0013    0.0730    0.0003    0.0001    0.0028
          21   -0.2947    0.2830    0.0050    0.4619   -0.0024    0.2832   -0.1814   -0.1465
          22    0.0014   -0.0029    0.0140    0.0021    0.3032    0.0018    0.0024    0.0029
          23   -0.0009    0.0017   -0.3286    0.0026   -0.2125   -0.0015   -0.0017    0.0021
          24   -0.3074    0.4288    0.0023   -0.3042   -0.0010   -0.0060   -0.1679   -0.0025
          25   -0.0069    0.0043    0.0267   -0.0016    0.3423    0.0026    0.0029    0.0037
          26    0.0008   -0.0033    0.5921   -0.0048    0.1819    0.0005    0.0005    0.0001
          27    0.4608   -0.2355   -0.0023    0.0268    0.0056   -0.0517   -0.1705   -0.0096
          28   -0.0026    0.0003    0.0156    0.0008    0.3201    0.0008   -0.0066    0.0023
          29   -0.0000   -0.0003   -0.0535    0.0028   -0.3348   -0.0015   -0.0014    0.0008
          30    0.0705    0.1294    0.0006   -0.1719   -0.0024    0.0981    0.6855    0.0979
          31   -0.0955   -0.1455   -0.0060   -0.1005   -0.0525    0.2055   -0.0352   -0.0438
          32   -0.0084   -0.0169    0.0864    0.0472   -0.0758    0.0300   -0.0111    0.1148
          33    0.1926    0.2072    0.0016    0.1070    0.0017   -0.2006    0.0315    0.0392
          34    0.0969    0.1466   -0.0035    0.1013   -0.0499   -0.2070    0.0353    0.0420
          35    0.0089    0.0151    0.0844   -0.0494   -0.0744   -0.0307    0.0100   -0.1151
          36    0.1921    0.2064    0.0016    0.1062    0.0007   -0.1994    0.0313    0.0384
          37    0.0007   -0.0008    0.0852   -0.0007   -0.1271   -0.0008   -0.0007    0.0001
          38    0.0002   -0.0004    0.0487   -0.0005   -0.0439   -0.0005   -0.0002   -0.0002
          39    0.0245   -0.1090    0.0011   -0.0141   -0.0028    0.3329   -0.0723    0.2219
          40   -0.0003    0.0004   -0.0896    0.0007    0.0452    0.0006    0.0005   -0.0008
          41    0.0003   -0.0002    0.0504    0.0003   -0.0417   -0.0010   -0.0002    0.0010
          42    0.0680   -0.0347   -0.0036   -0.2643   -0.0000    0.1763   -0.0132   -0.2808
          43    0.0003   -0.0007   -0.0108   -0.0010   -0.0958   -0.0020   -0.0002    0.0006
          44   -0.0003    0.0005   -0.1002    0.0001   -0.0187   -0.0006   -0.0001    0.0009
          45   -0.0833    0.1352    0.0022    0.2706   -0.0020    0.2604   -0.1069   -0.0151
          46    0.0008   -0.0006    0.0682   -0.0003   -0.0818   -0.0004   -0.0001   -0.0002
          47   -0.0001    0.0004   -0.0470    0.0002    0.0442    0.0005    0.0003   -0.0007
          48   -0.1427   -0.1981    0.0002   -0.0122    0.0006   -0.1080    0.0429   -0.2451
          49   -0.0003    0.0006   -0.0898    0.0009    0.0291    0.0005    0.0004   -0.0012
          50   -0.0000    0.0008   -0.0510    0.0008    0.0680    0.0005    0.0005   -0.0016
          51   -0.1036   -0.1486   -0.0031   -0.0795   -0.0004   -0.0488    0.0079    0.3467
          52    0.0011   -0.0014   -0.0033    0.0021    0.1186    0.0018    0.0030    0.0004
          53   -0.0005    0.0007   -0.0975   -0.0001   -0.0411   -0.0007   -0.0009    0.0008
          54   -0.1762    0.2038   -0.0003   -0.3285    0.0005   -0.1467   -0.2846    0.0618
          55    0.0772   -0.0750    0.0087    0.0407    0.1055   -0.0434   -0.2631   -0.0313
          56   -0.0466    0.0562    0.2526   -0.2402    0.1193   -0.1483   -0.1975    0.1136
          57    0.1855   -0.1185   -0.0010    0.0375    0.0044   -0.0424   -0.2222   -0.0257
          58   -0.0825    0.0786    0.0095   -0.0423    0.1009    0.0456    0.2688    0.0342
          59    0.0473   -0.0589    0.2542    0.2356    0.1195    0.1491    0.1981   -0.1138
          60    0.1836   -0.1167   -0.0011    0.0359    0.0016   -0.0419   -0.2170   -0.0247


   Root No.       9        10        11        12        13        14        15        16

                 9 A      10 A      11 A      12 A      13 A      14 A      15 A      16 A   

                 399.6     535.3     557.0     572.8     597.4     609.2     769.3     784.3
  
           1   -0.3334    0.1983    0.0026   -0.0019   -0.2599    0.1816   -0.0003    0.0003
           2    0.0494    0.0544    0.0008    0.0004    0.1171    0.1539    0.0003    0.0004
[...]
 REDUCED MASS        0.2694         C  1 -- C  4          +4.8% ( 23.0%)      5.0%
 EFFECTIVE MASS      2.7843
 FORCE CONSTANT      0.2869

 VIBRATION         37   37A           ATOM PAIR      ENERGY CONTRIBUTION    RADIAL
 FREQUENCY          1390.07         C  1 -- C  4         +11.8% ( 45.7%)     76.7%
 TRANSITION DIPOLE   0.1074         C  5 -- H 16          +9.9% ( 41.9%)      0.6%
 TRAVEL (Ang.)       0.2966         C  1 -- C  3          +9.8% ( 41.6%)     56.2%
 REDUCED MASS        0.5514         C  1 -- H 12          +9.5% ( 41.0%)      8.4%
 EFFECTIVE MASS      6.1460
 FORCE CONSTANT      0.6277

 VIBRATION         38   38A           ATOM PAIR      ENERGY CONTRIBUTION    RADIAL
 FREQUENCY          1418.34         C  1 -- C  3         +18.2% ( 64.0%)     67.5%
 TRANSITION DIPOLE   0.0718         C  1 -- C  4         +17.6% ( 62.9%)     66.3%
 TRAVEL (Ang.)       0.1385         C  1 -- H 11         +15.3% ( 58.7%)      0.0%
 REDUCED MASS        2.4776         C  1 -- H 12         +15.3% ( 58.7%)      0.0%
 EFFECTIVE MASS      9.1589
 FORCE CONSTANT      2.9365

 VIBRATION         39   39A           ATOM PAIR      ENERGY CONTRIBUTION    RADIAL
 FREQUENCY          1523.80         C  2 -- C  6         +20.5% ( 68.6%)     84.7%
 TRANSITION DIPOLE   0.1238         C  2 -- C  5         +19.4% ( 66.8%)     76.0%
 TRAVEL (Ang.)       0.1314         C  2 -- C  7         +11.8% ( 52.1%)      0.2%
 REDUCED MASS        2.5618         C  1 -- C  4          +6.8% ( 39.6%)     94.5%
 EFFECTIVE MASS     11.5292
 FORCE CONSTANT      3.5047

 VIBRATION         40   40A           ATOM PAIR      ENERGY CONTRIBUTION    RADIAL
 FREQUENCY          1536.13         C  7 -- C  8         +21.5% ( 73.3%)     90.5%
 TRANSITION DIPOLE   0.1449         C  8 -- H 18         +16.7% ( 64.7%)      0.1%
 TRAVEL (Ang.)       0.1198         C  8 -- C 10         +13.3% ( 57.8%)     72.6%
 REDUCED MASS        3.0572         C  9 -- C 10         +10.9% ( 52.2%)     99.8%
 EFFECTIVE MASS     11.1383
 FORCE CONSTANT      4.2504

 VIBRATION         41   41A           ATOM PAIR      ENERGY CONTRIBUTION    RADIAL
 FREQUENCY          1844.00         C  2 -- C  7         +32.0% ( 83.6%)     98.2%
 TRANSITION DIPOLE   0.4199         C  7 -- C  8         +11.9% ( 51.0%)     57.3%
 TRAVEL (Ang.)       0.1054         C  2 -- C  5         +11.0% ( 49.0%)     19.3%
 REDUCED MASS        3.2925         C  7 -- H 15         +10.4% ( 47.8%)      3.1%
 EFFECTIVE MASS     11.8831         C  3 -- C  5         +10.4% ( 47.7%)     99.5%
 FORCE CONSTANT      6.5962

 VIBRATION         42   42A           ATOM PAIR      ENERGY CONTRIBUTION    RADIAL
 FREQUENCY          1855.82         C  4 -- C  6         +29.8% ( 81.0%)    100.0%
 TRANSITION DIPOLE   0.1407         C  3 -- C  5         +13.2% ( 53.8%)    100.0%
 TRAVEL (Ang.)       0.1102         C  2 -- C  6          +9.8% ( 46.4%)     68.7%
 REDUCED MASS        2.9943         C  1 -- C  4          +9.7% ( 46.2%)     60.8%
 EFFECTIVE MASS     11.9224
 FORCE CONSTANT      6.0761

 VIBRATION         43   43A           ATOM PAIR      ENERGY CONTRIBUTION    RADIAL
 FREQUENCY          1879.91         C  3 -- C  5         +20.3% ( 66.9%)     99.9%
 TRANSITION DIPOLE   0.9696         C  2 -- C  5         +13.2% ( 54.0%)     39.7%
 TRAVEL (Ang.)       0.1308         C  4 -- C  6         +12.4% ( 52.3%)     99.9%
 REDUCED MASS        2.0955         C  2 -- C  7         +10.1% ( 47.3%)     99.7%
 EFFECTIVE MASS     11.8451         C  2 -- C  6         +10.1% ( 47.1%)     34.5%
 FORCE CONSTANT      4.3632

 VIBRATION         44   44A           ATOM PAIR      ENERGY CONTRIBUTION    RADIAL
 FREQUENCY          2246.39         C  8 -- C 10         +42.1% ( 85.3%)     99.8%
 TRANSITION DIPOLE   1.0227         C  9 -- C 10         +42.0% ( 85.2%)    100.0%
 TRAVEL (Ang.)       0.0717         C  8 -- H 18          +4.2% ( 27.0%)      4.6%
 REDUCED MASS        5.8421         C  7 -- C  8          +4.2% ( 27.0%)     40.3%
 EFFECTIVE MASS     11.8512
 FORCE CONSTANT     17.3696

 VIBRATION         45   45A           ATOM PAIR      ENERGY CONTRIBUTION    RADIAL
 FREQUENCY          2927.11         C  1 -- H 12         +49.1% ( 72.7%)     96.6%
 TRANSITION DIPOLE   0.0641         C  1 -- H 11         +48.7% ( 72.4%)     96.5%
 TRAVEL (Ang.)       0.2110         C  1 -- C  4          +1.1% ( 10.7%)      0.0%
 REDUCED MASS        0.5172         C  1 -- C  3          +1.1% ( 10.7%)      0.0%
 EFFECTIVE MASS      1.5330
 FORCE CONSTANT      2.6110

 VIBRATION         46   46A           ATOM PAIR      ENERGY CONTRIBUTION    RADIAL
 FREQUENCY          2976.54         C  8 -- H 18         +87.6% ( 95.2%)    100.0%
 TRANSITION DIPOLE   0.2831         C  5 -- H 16          +8.7% ( 30.0%)     99.9%
 TRAVEL (Ang.)       0.1717         C  8 -- C 10          +1.4% ( 12.2%)     39.5%
 REDUCED MASS        0.7682         C  7 -- C  8          +1.3% ( 11.6%)     17.1%
 EFFECTIVE MASS      1.5220
 FORCE CONSTANT      4.0102

 VIBRATION         47   47A           ATOM PAIR      ENERGY CONTRIBUTION    RADIAL
 FREQUENCY          3006.31         C  1 -- H 11         +43.5% ( 65.2%)     97.8%
 TRANSITION DIPOLE   0.2521         C  1 -- H 12         +43.1% ( 64.9%)     97.7%
 TRAVEL (Ang.)       0.2406         C  5 -- H 16         +10.2% ( 31.6%)    100.0%
 REDUCED MASS        0.3874         C  8 -- H 18          +1.1% ( 10.3%)    100.0%
 EFFECTIVE MASS      1.3017
 FORCE CONSTANT      2.0630

 VIBRATION         48   48A           ATOM PAIR      ENERGY CONTRIBUTION    RADIAL
 FREQUENCY          3007.19         C  5 -- H 16         +76.1% ( 88.2%)    100.0%
 TRANSITION DIPOLE   0.2120         C  8 -- H 18          +7.5% ( 27.6%)    100.0%
 TRAVEL (Ang.)       0.1972         C  1 -- H 11          +4.9% ( 22.4%)     97.6%
 REDUCED MASS        0.5767         C  1 -- H 12          +4.9% ( 22.3%)     97.6%
 EFFECTIVE MASS      1.4888
 FORCE CONSTANT      3.0726

 VIBRATION         49   49A           ATOM PAIR      ENERGY CONTRIBUTION    RADIAL
 FREQUENCY          3039.20         C  7 -- H 15         +88.2% ( 95.2%)    100.0%
 TRANSITION DIPOLE   0.4296         C  6 -- H 17          +6.6% ( 26.1%)    100.0%
 TRAVEL (Ang.)       0.1697         C  4 -- H 14          +1.9% ( 13.9%)     99.9%
 REDUCED MASS        0.7703         C  2 -- C  7          +1.3% ( 11.7%)     34.2%
 EFFECTIVE MASS      1.5096
 FORCE CONSTANT      4.1923

 VIBRATION         50   50A           ATOM PAIR      ENERGY CONTRIBUTION    RADIAL
 FREQUENCY          3042.12         C  6 -- H 17         +64.2% ( 81.3%)    100.0%
 TRANSITION DIPOLE   0.1717         C  4 -- H 14         +24.7% ( 50.4%)     99.9%
 TRAVEL (Ang.)       0.2171         C  7 -- H 15          +8.4% ( 29.4%)    100.0%
 REDUCED MASS        0.4705         C  4 -- C  6          +1.1% ( 10.5%)      3.1%
 EFFECTIVE MASS      1.4735
 FORCE CONSTANT      2.5654

 VIBRATION         51   51A           ATOM PAIR      ENERGY CONTRIBUTION    RADIAL
 FREQUENCY          3059.75         C  3 -- H 13         +84.5% ( 93.3%)    100.0%
 TRANSITION DIPOLE   0.3696         C  4 -- H 14          +6.5% ( 25.9%)     99.9%
 TRAVEL (Ang.)       0.1758         C  6 -- H 17          +2.8% ( 17.1%)     99.9%
 REDUCED MASS        0.7128         C  5 -- H 16          +2.6% ( 16.5%)     98.7%
 EFFECTIVE MASS      1.5398
 FORCE CONSTANT      3.9316

 VIBRATION         52   52A           ATOM PAIR      ENERGY CONTRIBUTION    RADIAL
 FREQUENCY          3064.16         C  4 -- H 14         +63.4% ( 80.7%)    100.0%
 TRANSITION DIPOLE   0.3241         C  6 -- H 17         +23.3% ( 49.0%)     99.8%
 TRAVEL (Ang.)       0.2181         C  3 -- H 13          +8.7% ( 29.8%)    100.0%
 REDUCED MASS        0.4627         C  4 -- C  6          +1.8% ( 13.5%)     91.3%
 EFFECTIVE MASS      1.5847
 FORCE CONSTANT      2.5594

 VIBRATION         53   53A           ATOM PAIR      ENERGY CONTRIBUTION    RADIAL
 FREQUENCY          3116.73         C  9 -- H 20         +50.7% ( 71.3%)     95.5%
 TRANSITION DIPOLE   0.4492         C  9 -- H 19         +47.4% ( 69.0%)     94.9%
 TRAVEL (Ang.)       0.2109         C  9 -- C 10          +1.8% ( 13.3%)    100.0%
 REDUCED MASS        0.4864
 EFFECTIVE MASS      1.4118
 FORCE CONSTANT      2.7839

 VIBRATION         54   54A           ATOM PAIR      ENERGY CONTRIBUTION    RADIAL
 FREQUENCY          3121.32         C  9 -- H 19         +51.0% ( 73.1%)     97.3%
 TRANSITION DIPOLE   0.2450         C  9 -- H 20         +47.8% ( 70.8%)     96.9%
 TRAVEL (Ang.)       0.2012         C  9 -- C 10          +1.2% ( 11.2%)      0.0%
 REDUCED MASS        0.5337
 EFFECTIVE MASS      1.5940
 FORCE CONSTANT      3.0634

      SYMMETRY NUMBER FOR POINT-GROUP C1  =  1


          SYSTEM IS A GROUND STATE



 InChI=1S/C10H10/c1-2-3-7-10-8-5-4-6-9-10/h3,5-9H,1,4H2


          MOLECULE IS NOT LINEAR

          THERE ARE 54 GENUINE VIBRATIONS IN THIS SYSTEM
          THIS THERMODYNAMICS CALCULATION IS LIMITED TO
          MOLECULES WHICH HAVE NO INTERNAL ROTATIONS




                    CALCULATED THERMODYNAMIC PROPERTIES
                                          *
   TEMP. (K)   PARTITION FUNCTION   H.O.F.    ENTHALPY  HEAT CAPACITY ENTROPY
                                   KCAL/MOL   CAL/MOLE    CAL/K/MOL  CAL/K/MOL


 298.00  VIB.     0.3231D+03                  4069.1397    29.5028    25.1370
         ROT.     0.7084D+06                   888.2803     2.9808    29.7500
         INT.     0.2289D+09                  4957.4200    32.4836    54.8870
         TRA.     0.1436D+28                  1480.4672     4.9680    40.5022
         TOT.                       85.086    6437.8872    37.4516    95.3892

 200.00  VIB.     0.3589D+02                  1731.3834    18.3422    15.7723
         ROT.     0.3895D+06                   596.1613     2.9808    28.5613
         INT.     0.1398D+08                  2327.5446    21.3230    44.3336
         TRA.     0.7896D+27                   993.6021     4.9680    38.5210
         TOT.                       81.969    3321.1468    26.2911    82.8546

 210.00  VIB.     0.4466D+02                  1920.2239    19.4290    16.6934
         ROT.     0.4191D+06                   625.9693     2.9808    28.7068
         INT.     0.1872D+08                  2546.1932    22.4098    45.4002
         TRA.     0.8496D+27                  1043.2822     4.9680    38.7634
         TOT.                       82.238    3589.4755    27.3778    84.1636

 220.00  VIB.     0.5564D+02                  2120.0243    20.5339    17.6227
         ROT.     0.4494D+06                   655.7774     2.9808    28.8454
         INT.     0.2500D+08                  2775.8017    23.5147    46.4681
         TRA.     0.9110D+27                  1092.9623     4.9680    38.9945
         TOT.                       82.517    3868.7641    28.4827    85.4627

 230.00  VIB.     0.6940D+02                  2330.9558    21.6549    18.5601
         ROT.     0.4803D+06                   685.5855     2.9808    28.9779
         INT.     0.3334D+08                  3016.5413    24.6357    47.5381
         TRA.     0.9738D+27                  1142.6424     4.9680    39.2154
         TOT.                       82.807    4159.1838    29.6037    86.7534

 240.00  VIB.     0.8669D+02                  2553.1678    22.7896    19.5057
         ROT.     0.5120D+06                   715.3935     2.9808    29.1048
         INT.     0.4438D+08                  3268.5613    25.7704    48.6105
         TRA.     0.1038D+28                  1192.3226     4.9680    39.4268
         TOT.                       83.109    4460.8839    30.7384    88.0373

 250.00  VIB.     0.1084D+03                  2786.7845    23.9354    20.4592
         ROT.     0.5443D+06                   745.2016     2.9808    29.2265
         INT.     0.5902D+08                  3531.9861    26.9162    49.6857
         TRA.     0.1103D+28                  1242.0027     4.9680    39.6296
         TOT.                       83.422    4773.9887    31.8842    89.3153

 260.00  VIB.     0.1358D+03                  3031.9034    25.0896    21.4204
         ROT.     0.5773D+06                   775.0097     2.9808    29.3434
         INT.     0.7839D+08                  3806.9130    28.0704    50.7638
         TRA.     0.1170D+28                  1291.6828     4.9680    39.8245
         TOT.                       83.747    5098.5958    33.0384    90.5883

 270.00  VIB.     0.1703D+03                  3288.5940    26.2493    22.3890
         ROT.     0.6110D+06                   804.8177     2.9808    29.4559
         INT.     0.1040D+09                  4093.4117    29.2301    51.8449
         TRA.     0.1239D+28                  1341.3629     4.9680    40.0120
         TOT.                       84.083    5434.7746    34.1981    91.8569

 280.00  VIB.     0.2138D+03                  3556.8980    27.4118    23.3647
         ROT.     0.6452D+06                   834.6258     2.9808    29.5643
         INT.     0.1379D+09                  4391.5238    30.3926    52.9290
         TRA.     0.1308D+28                  1391.0430     4.9680    40.1926
         TOT.                       84.431    5782.5667    35.3606    93.1216

 290.00  VIB.     0.2688D+03                  3836.8296    28.5744    24.3469
         ROT.     0.6801D+06                   864.4339     2.9808    29.6689
         INT.     0.1828D+09                  4701.2635    31.5552    54.0158
         TRA.     0.1379D+28                  1440.7231     4.9680    40.3670
         TOT.                       84.790    6141.9865    36.5232    94.3827

 300.00  VIB.     0.3384D+03                  4128.3771    29.7345    25.3351
         ROT.     0.7156D+06                   894.2419     2.9808    29.7700
         INT.     0.2421D+09                  5022.6190    32.7153    55.1051
         TRA.     0.1451D+28                  1490.4032     4.9680    40.5354
         TOT.                       85.161    6513.0222    37.6833    95.6405

 310.00  VIB.     0.4265D+03                  4431.5042    30.8899    26.3290
         ROT.     0.7516D+06                   924.0500     2.9808    29.8677
         INT.     0.3206D+09                  5355.5541    33.8707    56.1967
         TRA.     0.1524D+28                  1540.0833     4.9680    40.6983
         TOT.                       85.544    6895.6374    38.8387    96.8950

 320.00  VIB.     0.5382D+03                  4746.1518    32.0383    27.3279
         ROT.     0.7883D+06                   953.8580     2.9808    29.9623
         INT.     0.4243D+09                  5700.0098    35.0191    57.2902
         TRA.     0.1598D+28                  1589.7634     4.9680    40.8560
         TOT.                       85.938    7289.7732    39.9871    98.1462

 330.00  VIB.     0.6800D+03                  5072.2403    33.1778    28.3312
         ROT.     0.8255D+06                   983.6661     2.9808    30.0541
         INT.     0.5614D+09                  6055.9065    36.1586    58.3853
         TRA.     0.1674D+28                  1639.4435     4.9680    41.0089
         TOT.                       86.343    7695.3500    41.1266    99.3942

 340.00  VIB.     0.8601D+03                  5409.6718    34.3066    29.3384
         ROT.     0.8633D+06                  1013.4742     2.9808    30.1430
         INT.     0.7426D+09                  6423.1459    37.2874    59.4815
         TRA.     0.1750D+28                  1689.1236     4.9680    41.1572
         TOT.                       86.760    8112.2696    42.2554   100.6387

 350.00  VIB.     0.1089D+04                  5758.3316    35.4232    30.3490
         ROT.     0.9017D+06                  1043.2822     2.9808    30.2295
         INT.     0.9820D+09                  6801.6138    38.4040    60.5785
         TRA.     0.1828D+28                  1738.8037     4.9680    41.3012
         TOT.                       87.188    8540.4176    43.3720   101.8797

 360.00  VIB.     0.1380D+04                  6118.0912    36.5263    31.3625
         ROT.     0.9406D+06                  1073.0903     2.9808    30.3134
         INT.     0.1298D+10                  7191.1815    39.5071    61.6759
         TRA.     0.1907D+28                  1788.4838     4.9680    41.4412
         TOT.                       87.628    8979.6653    44.4752   103.1170

 370.00  VIB.     0.1751D+04                  6488.8096    37.6148    32.3781
         ROT.     0.9801D+06                  1102.8984     2.9808    30.3951
         INT.     0.1717D+10                  7591.7080    40.5956    62.7732
         TRA.     0.1987D+28                  1838.1639     4.9680    41.5773
         TOT.                       88.078    9429.8719    45.5636   104.3505

 380.00  VIB.     0.2224D+04                  6870.3358    38.6877    33.3955
         ROT.     0.1020D+07                  1132.7064     2.9808    30.4746
         INT.     0.2269D+10                  8003.0422    41.6685    63.8701
         TRA.     0.2068D+28                  1887.8440     4.9680    41.7098
         TOT.                       88.539    9890.8862    46.6366   105.5799

 390.00  VIB.     0.2827D+04                  7262.5100    39.7443    34.4141
         ROT.     0.1061D+07                  1162.5145     2.9808    30.5520
         INT.     0.2998D+10                  8425.0245    42.7251    64.9662
         TRA.     0.2150D+28                  1937.5242     4.9680    41.8388
         TOT.                       89.011   10362.5486    47.6931   106.8050

 400.00  VIB.     0.3596D+04                  7665.1658    40.7840    35.4335
         ROT.     0.1102D+07                  1192.3226     2.9808    30.6275
         INT.     0.3962D+10                  8857.4884    43.7648    66.0610
         TRA.     0.2233D+28                  1987.2043     4.9680    41.9646
         TOT.                       89.493   10844.6926    48.7328   108.0256

   *: NOTE: HEATS OF FORMATION ARE RELATIVE TO THE
            ELEMENTS IN THEIR STANDARD STATE AT 298K
              (=  Standard Enthalpy of Formation).

            Hvib:  Zero-point energy is not included.
                   frequencies of less than zero cm-1 are not included.
            Hrot = (3/2)RT
            Htra = (3/2)RT + pV = (5/2)RT

            Heat capacity is Cp, not Cv

          For more information, see: HTTP://OpenMOPAC.net/Manual/thermochemistry.html


           FORCE CONSTANT IN CARTESIAN COORDINATES (Millidynes/A)

    ATOM   CHEMICAL       X               Y               Z
   NUMBER   SYMBOL  FORCE CONSTANT  FORCE CONSTANT  FORCE CONSTANT

      1       C        9.009102        9.433797        7.602108
      2       C       15.384798       10.785296        2.423535
      3       C       15.123710        9.643192        2.362985
      4       C       15.103564        9.641078        2.361690
      5       C       15.432431        9.985728        2.201150
      6       C       15.309697       10.148500        2.199901
      7       C       14.822758       10.138418        2.108447
      8       C       15.891927        9.220693        2.042896
      9       C       15.941268        1.840757        8.398972
     10       C       24.492065        1.851540        1.606053
     11       H        2.067465        0.662196        3.424627
     12       H        2.043181        0.661152        3.447947
     13       H        1.880906        4.022835        0.345489
     14       H        1.887220        4.016541        0.345739
     15       H        1.802285        4.072256        0.336076
     16       H        2.044411        3.839622        0.363190
     17       H        1.912806        3.980029        0.345323
     18       H        1.756926        3.974642        0.336545
     19       H        1.989428        0.294719        3.968649
     20       H        1.894063        0.294503        4.063226

 **********************
 *                    *
 * JOB ENDED NORMALLY *
 *                    *
 **********************



 TOTAL JOB TIME:             2.57 SECONDS

 == MOPAC DONE ==
