 *******************************************************************************
 **                                                                           **
 **                              MOPAC v23.1.2                                **
 **                                                                           **
 *******************************************************************************
 **          Digital Object Identifier (DOI): 10.5281/zenodo.6511958          **
 **    Visit the DOI location for information on how to cite this program.    **
 *******************************************************************************

                              PM3 CALCULATION RESULTS

 *******************************************************************************
 *  CALCULATION DONE: (MAX THREADS = 1)              Tue Jun  3 16:28:34 2025  *
 *  PM3        - The PM3 Hamiltonian to be used
 *  PRECISE    - TIGHTER CRITERIA TO BE USED
 *  NOSYM      - POINT-GROUP SYMMETRY SET TO C1
 *  THREADS=1  - MULTI-THREADING NOT USED
 *  T=         - A TIME OF 172800.0 SECONDS REQUESTED
 *  DUMP=N     - RESTART FILE WRITTEN EVERY 7200.0 SECONDS REQUESTED
 *******************************************************************************
pm3  precise nosym THREADS=1
 InChI=1S/C7H8/c1-2-7-5-3-4-6-7/h2-5H,1,6H2

   ATOM   CHEMICAL          X               Y               Z
  NUMBER   SYMBOL      (ANGSTROMS)     (ANGSTROMS)     (ANGSTROMS)

     1       C         -0.42150000  *   0.53160000  *  -0.89870000  *
     2       C          0.13970000  *  -0.17580000  *   0.29720000  *
     3       C         -1.88600000  *   0.45280000  *  -0.61970000  *
     4       C         -0.83730000  *  -0.57620000  *   1.09770000  *
     5       C         -2.10810000  *  -0.18050000  *   0.52010000  *
     6       C          1.56870000  *  -0.41070000  *   0.57560000  *
     7       C          2.53250000  *   0.00170000  *  -0.24490000  *
     8       H         -0.08540000  *   1.58960000  *  -0.93140000  *
     9       H         -0.17180000  *  -0.00880000  *  -1.83630000  *
    10       H         -2.66420000  *   0.85460000  *  -1.25510000  *
    11       H         -0.70720000  *  -1.11100000  *   2.02990000  *
    12       H         -3.08450000  *  -0.36890000  *   0.94610000  *
    13       H          1.84700000  *  -0.93790000  *   1.48030000  *
    14       H          3.56850000  *  -0.19310000  *   0.00030000  *
    15       H          2.30960000  *   0.53260000  *  -1.16130000  *



          CARTESIAN COORDINATES 

    NO.       ATOM           X           Y           Z

     1         C         -0.4215      0.5316     -0.8987
     2         C          0.1397     -0.1758      0.2972
     3         C         -1.8860      0.4528     -0.6197
     4         C         -0.8373     -0.5762      1.0977
     5         C         -2.1081     -0.1805      0.5201
     6         C          1.5687     -0.4107      0.5756
     7         C          2.5325      0.0017     -0.2449
     8         H         -0.0854      1.5896     -0.9314
     9         H         -0.1718     -0.0088     -1.8363
    10         H         -2.6642      0.8546     -1.2551
    11         H         -0.7072     -1.1110      2.0299
    12         H         -3.0845     -0.3689      0.9461
    13         H          1.8470     -0.9379      1.4803
    14         H          3.5685     -0.1931      0.0003
    15         H          2.3096      0.5326     -1.1613

  H: (PM3): J. J. P. STEWART, J. COMP. CHEM. 10, 209 (1989).
  C: (PM3): J. J. P. STEWART, J. COMP. CHEM. 10, 209 (1989).

           Empirical Formula: C7 H8  =    15 atoms



      MOLECULAR POINT GROUP   :   C1  


      RHF CALCULATION, NO. OF DOUBLY OCCUPIED LEVELS = 18


          Geometry optimization using EF

          DIAGONAL MATRIX USED AS START HESSIAN

 CYCLE:     1 TIME:   0.008 TIME LEFT:  2.00D  GRAD.:   125.442 HEAT:  50.60211
 CYCLE:     2 TIME:   0.008 TIME LEFT:  2.00D  GRAD.:    61.419 HEAT:  48.60202
 CYCLE:     3 TIME:   0.004 TIME LEFT:  2.00D  GRAD.:    60.808 HEAT:  48.04985
 CYCLE:     4 TIME:   0.008 TIME LEFT:  2.00D  GRAD.:    63.195 HEAT:  47.72253
 CYCLE:     5 TIME:   0.004 TIME LEFT:  2.00D  GRAD.:    39.263 HEAT:  47.26382
 CYCLE:     6 TIME:   0.008 TIME LEFT:  2.00D  GRAD.:    32.012 HEAT:  47.07855
 CYCLE:     7 TIME:   0.004 TIME LEFT:  2.00D  GRAD.:    18.904 HEAT:  46.84449
 CYCLE:     8 TIME:   0.008 TIME LEFT:  2.00D  GRAD.:    21.321 HEAT:  46.77021
 CYCLE:     9 TIME:   0.004 TIME LEFT:  2.00D  GRAD.:    23.407 HEAT:  46.69200
 CYCLE:    10 TIME:   0.008 TIME LEFT:  2.00D  GRAD.:    16.832 HEAT:  46.62968
 CYCLE:    11 TIME:   0.008 TIME LEFT:  2.00D  GRAD.:     8.397 HEAT:  46.56476
 CYCLE:    12 TIME:   0.004 TIME LEFT:  2.00D  GRAD.:    13.061 HEAT:  46.53904
 CYCLE:    13 TIME:   0.004 TIME LEFT:  2.00D  GRAD.:    11.212 HEAT:  46.52030
 CYCLE:    14 TIME:   0.004 TIME LEFT:  2.00D  GRAD.:    13.247 HEAT:  46.51428
 CYCLE:    15 TIME:   0.004 TIME LEFT:  2.00D  GRAD.:     3.288 HEAT:  46.47685
 CYCLE:    16 TIME:   0.008 TIME LEFT:  2.00D  GRAD.:     6.548 HEAT:  46.48308
 CYCLE:    17 TIME:   0.004 TIME LEFT:  2.00D  GRAD.:     2.718 HEAT:  46.46958
 CYCLE:    18 TIME:   0.004 TIME LEFT:  2.00D  GRAD.:     3.810 HEAT:  46.46950
 CYCLE:    19 TIME:   0.004 TIME LEFT:  2.00D  GRAD.:     1.382 HEAT:  46.46408
 CYCLE:    20 TIME:   0.008 TIME LEFT:  2.00D  GRAD.:     1.543 HEAT:  46.46175
 CYCLE:    21 TIME:   0.004 TIME LEFT:  2.00D  GRAD.:     2.113 HEAT:  46.45959
 CYCLE:    22 TIME:   0.004 TIME LEFT:  2.00D  GRAD.:     1.723 HEAT:  46.45768
 CYCLE:    23 TIME:   0.004 TIME LEFT:  2.00D  GRAD.:     0.975 HEAT:  46.45541
 CYCLE:    24 TIME:   0.004 TIME LEFT:  2.00D  GRAD.:     0.882 HEAT:  46.45353
 CYCLE:    25 TIME:   0.008 TIME LEFT:  2.00D  GRAD.:     1.048 HEAT:  46.45253
 CYCLE:    26 TIME:   0.004 TIME LEFT:  2.00D  GRAD.:     0.814 HEAT:  46.45171
 CYCLE:    27 TIME:   0.008 TIME LEFT:  2.00D  GRAD.:     0.719 HEAT:  46.45090
 CYCLE:    28 TIME:   0.004 TIME LEFT:  2.00D  GRAD.:     0.758 HEAT:  46.44957
 CYCLE:    29 TIME:   0.004 TIME LEFT:  2.00D  GRAD.:     0.697 HEAT:  46.44873
 CYCLE:    30 TIME:   0.004 TIME LEFT:  2.00D  GRAD.:     0.416 HEAT:  46.44798
 CYCLE:    31 TIME:   0.008 TIME LEFT:  2.00D  GRAD.:     0.294 HEAT:  46.44766
 CYCLE:    32 TIME:   0.004 TIME LEFT:  2.00D  GRAD.:     0.235 HEAT:  46.44753
 CYCLE:    33 TIME:   0.004 TIME LEFT:  2.00D  GRAD.:     0.171 HEAT:  46.44744
 CYCLE:    34 TIME:   0.004 TIME LEFT:  2.00D  GRAD.:     0.128 HEAT:  46.44738
 CYCLE:    35 TIME:   0.004 TIME LEFT:  2.00D  GRAD.:     0.092 HEAT:  46.44736
 CYCLE:    36 TIME:   0.008 TIME LEFT:  2.00D  GRAD.:     0.063 HEAT:  46.44734
 CYCLE:    37 TIME:   0.004 TIME LEFT:  2.00D  GRAD.:     0.050 HEAT:  46.44734

     GRADIENT =  0.04952 IS LESS THAN CUTOFF =  0.05000



 -------------------------------------------------------------------------------
 pm3  precise nosym THREADS=1
 InChI=1S/C7H8/c1-2-7-5-3-4-6-7/h2-5H,1,6H2



     GEOMETRY OPTIMISED USING EIGENVECTOR FOLLOWING (EF).     
     SCF FIELD WAS ACHIEVED                                   


                              PM3 CALCULATION
                                                       MOPAC v23.1.2 MacOS
                                                       Tue Jun  3 16:28:34 2025




          FINAL HEAT OF FORMATION =         46.44734 KCAL/MOL =     194.33566 KJ/MOL


          COSMO AREA              =        141.58 SQUARE ANGSTROMS
          COSMO VOLUME            =        133.09 CUBIC ANGSTROMS

          GRADIENT NORM           =          0.04952          =       0.01279 PER ATOM
          IONIZATION POTENTIAL    =          8.746061 EV
          HOMO LUMO ENERGIES (EV) =         -8.746 -0.209
          NO. OF FILLED LEVELS    =         18
          MOLECULAR WEIGHT        =         92.1402         POINT GROUP:  C1  

          MOLECULAR DIMENSIONS (Angstroms)

            Atom       Atom       Distance
            H    14    H    12     6.76703
            H    11    H    10     4.17804
            H     8    H     9     1.77858


          SCF CALCULATIONS        =         43

          WALL-CLOCK TIME         =      0.207 SECONDS
          COMPUTATION TIME        =      0.107 SECONDS




   ATOM   CHEMICAL          X               Y               Z
  NUMBER   SYMBOL      (ANGSTROMS)     (ANGSTROMS)     (ANGSTROMS)

     1       C         -0.40893006  *   0.52233662  *  -0.88169287  *
     2       C          0.15994141  *  -0.18855004  *   0.31959844  *
     3       C         -1.88844779  *   0.46114587  *  -0.63522701  *
     4       C         -0.86043241  *  -0.59043271  *   1.12570910  *
     5       C         -2.12983962  *  -0.18501905  *   0.52894885  *
     6       C          1.56967566  *  -0.40088332  *   0.55942606  *
     7       C          2.53193983  *   0.01134345  *  -0.26405412  *
     8       H         -0.04901745  *   1.56537447  *  -0.95003769  *
     9       H         -0.13061305  *   0.01970784  *  -1.82617508  *
    10       H         -2.61392417  *   0.88895620  *  -1.32333144  *
    11       H         -0.77998476  *  -1.12862156  *   2.06859292  *
    12       H         -3.09713088  *  -0.39080721  *   0.98303128  *
    13       H          1.81347778  *  -0.93744932  *   1.48535209  *
    14       H          3.58459565  *  -0.16047389  *  -0.06302572  *
    15       H          2.33324702  *   0.54514962  *  -1.18961837  *

                             CARTESIAN COORDINATES

   1    C       -0.408930064     0.522336624    -0.881692866
   2    C        0.159941410    -0.188550043     0.319598436
   3    C       -1.888447791     0.461145869    -0.635227012
   4    C       -0.860432410    -0.590432714     1.125709101
   5    C       -2.129839621    -0.185019052     0.528948850
   6    C        1.569675657    -0.400883320     0.559426059
   7    C        2.531939825     0.011343450    -0.264054119
   8    H       -0.049017451     1.565374468    -0.950037688
   9    H       -0.130613050     0.019707837    -1.826175082
  10    H       -2.613924171     0.888956204    -1.323331439
  11    H       -0.779984756    -1.128621557     2.068592919
  12    H       -3.097130876    -0.390807207     0.983031280
  13    H        1.813477781    -0.937449323     1.485352094
  14    H        3.584595648    -0.160473890    -0.063025720
  15    H        2.333247021     0.545149620    -1.189618367


           Empirical Formula: C7 H8  =    15 atoms



      MOLECULAR POINT GROUP   :   C1  


                  EIGENVALUES  
 -40.04366 -33.00371 -27.61031 -26.25140 -21.29116 -18.92321 -18.56214 -17.39240
 -15.57598 -15.07661 -14.38145 -13.71411 -13.32595 -12.83651 -12.14696 -11.53743
 -10.65393  -8.74606  -0.20908   1.31977   2.34755   3.13305   3.31784   3.61064
   3.72100   3.84866   3.99763   4.18500   4.22297   4.38873   4.62108   5.15364
   5.52992   5.81514   6.05598   6.20953


              NET ATOMIC CHARGES AND DIPOLE CONTRIBUTIONS

  ATOM NO.   TYPE          CHARGE      No. of ELECS.   s-Pop       p-Pop       
    1          C          -0.040702        4.0407     1.14319     2.89751
    2          C          -0.115562        4.1156     1.19557     2.91999
    3          C          -0.157235        4.1572     1.20742     2.94981
    4          C          -0.104946        4.1049     1.19184     2.91310
    5          C          -0.121698        4.1217     1.19127     2.93043
    6          C          -0.072211        4.0722     1.16971     2.90250
    7          C          -0.160704        4.1607     1.18268     2.97802
    8          H           0.084058        0.9159     0.91594
    9          H           0.084044        0.9160     0.91596
   10          H           0.115388        0.8846     0.88461
   11          H           0.115420        0.8846     0.88458
   12          H           0.114324        0.8857     0.88568
   13          H           0.097327        0.9027     0.90267
   14          H           0.081233        0.9188     0.91877
   15          H           0.081264        0.9187     0.91874
 DIPOLE           X         Y         Z       TOTAL
 POINT-CHG.     0.100     0.195    -0.354     0.416
 HYBRID         0.001     0.012    -0.022     0.025
 SUM            0.101     0.207    -0.376     0.441


          ATOMIC ORBITAL ELECTRON POPULATIONS

     Atom    s        px        py        pz   
    1  C   1.14319   0.93507   0.99528   0.96716
    2  C   1.19557   0.94030   1.00609   0.97360
    3  C   1.20742   0.96502   1.00411   0.98069
    4  C   1.19184   0.93395   0.99758   0.98158
    5  C   1.19127   0.96804   0.99747   0.96492
    6  C   1.16971   0.92115   0.99380   0.98755
    7  C   1.18268   0.98079   1.00534   0.99189
    8  H   0.91594
    9  H   0.91596
   10  H   0.88461
   11  H   0.88458
   12  H   0.88568
   13  H   0.90267
   14  H   0.91877
   15  H   0.91874
 *******************************************************************************
 **                                                                           **
 **                              MOPAC v23.1.2                                **
 **                                                                           **
 *******************************************************************************
 **          Digital Object Identifier (DOI): 10.5281/zenodo.6511958          **
 **    Visit the DOI location for information on how to cite this program.    **
 *******************************************************************************

                              PM3 CALCULATION RESULTS

 *******************************************************************************
 *  CALCULATION DONE: (MAX THREADS = 1)              Tue Jun  3 16:28:34 2025  *
 *  PM3        - The PM3 Hamiltonian to be used
 *  OLDGEO     - PREVIOUS GEOMETRY TO BE USED
 *  PRECISE    - TIGHTER CRITERIA TO BE USED
 *  NOSYM      - POINT-GROUP SYMMETRY SET TO C1
 *  THREADS=1  - MULTI-THREADING NOT USED
 *  T=         - A TIME OF 172800.0 SECONDS REQUESTED
 *  DUMP=N     - RESTART FILE WRITTEN EVERY 7200.0 SECONDS REQUESTED
 *  THERMO     - THERMODYNAMIC QUANTITIES TO BE CALCULATED
 *******************************************************************************
oldgeo thermo nosym precise THREADS=1  pm3
 InChI=1S/C7H8/c1-2-7-5-3-4-6-7/h2-5H,1,6H2

   ATOM   CHEMICAL          X               Y               Z
  NUMBER   SYMBOL      (ANGSTROMS)     (ANGSTROMS)     (ANGSTROMS)

     1       C         -0.40893006  *   0.52233662  *  -0.88169287  *
     2       C          0.15994141  *  -0.18855004  *   0.31959844  *
     3       C         -1.88844779  *   0.46114587  *  -0.63522701  *
     4       C         -0.86043241  *  -0.59043271  *   1.12570910  *
     5       C         -2.12983962  *  -0.18501905  *   0.52894885  *
     6       C          1.56967566  *  -0.40088332  *   0.55942606  *
     7       C          2.53193983  *   0.01134345  *  -0.26405412  *
     8       H         -0.04901745  *   1.56537447  *  -0.95003769  *
     9       H         -0.13061305  *   0.01970784  *  -1.82617508  *
    10       H         -2.61392417  *   0.88895620  *  -1.32333144  *
    11       H         -0.77998476  *  -1.12862156  *   2.06859292  *
    12       H         -3.09713088  *  -0.39080721  *   0.98303128  *
    13       H          1.81347778  *  -0.93744932  *   1.48535209  *
    14       H          3.58459565  *  -0.16047389  *  -0.06302572  *
    15       H          2.33324702  *   0.54514962  *  -1.18961837  *



          CARTESIAN COORDINATES 

    NO.       ATOM           X           Y           Z

     1         C         -0.4089      0.5223     -0.8817
     2         C          0.1599     -0.1886      0.3196
     3         C         -1.8884      0.4611     -0.6352
     4         C         -0.8604     -0.5904      1.1257
     5         C         -2.1298     -0.1850      0.5289
     6         C          1.5697     -0.4009      0.5594
     7         C          2.5319      0.0113     -0.2641
     8         H         -0.0490      1.5654     -0.9500
     9         H         -0.1306      0.0197     -1.8262
    10         H         -2.6139      0.8890     -1.3233
    11         H         -0.7800     -1.1286      2.0686
    12         H         -3.0971     -0.3908      0.9830
    13         H          1.8135     -0.9374      1.4854
    14         H          3.5846     -0.1605     -0.0630
    15         H          2.3332      0.5451     -1.1896

  H: (PM3): J. J. P. STEWART, J. COMP. CHEM. 10, 209 (1989).
  C: (PM3): J. J. P. STEWART, J. COMP. CHEM. 10, 209 (1989).

           Empirical Formula: C7 H8  =    15 atoms



      MOLECULAR POINT GROUP   :   C1  


      RHF CALCULATION, NO. OF DOUBLY OCCUPIED LEVELS = 18



          HEAT OF FORMATION =      46.447336 KCALS/MOLE


          CARTESIAN COORDINATE DERIVATIVES

   NUMBER  ATOM         X            Y            Z

     1       C     -0.001694     0.000212    -0.009089
     2       C     -0.002948     0.003623    -0.006012
     3       C     -0.004303     0.005286    -0.000155
     4       C     -0.003649    -0.005824    -0.002101
     5       C     -0.005855    -0.001860    -0.004901
     6       C     -0.001711    -0.000197    -0.009782
     7       C     -0.003050     0.000828    -0.007436
     8       H     -0.000093     0.012628    -0.003785
     9       H      0.006826    -0.013449     0.002794
    10       H      0.001043    -0.004996     0.010335
    11       H     -0.000632     0.004581    -0.002220
    12       H      0.016403    -0.022510     0.005139
    13       H      0.002479     0.003537     0.007995
    14       H      0.004860     0.011525     0.019418
    15       H     -0.007675     0.006615    -0.000201



          GRADIENT NORM =   0.05056

          MOLECULAR WEIGHT =   92.14



          ROTATIONAL CONSTANTS IN CM(-1)

          A =    0.23822111   B =    0.06614133   C =    0.05227998



           PRINCIPAL MOMENTS OF INERTIA IN UNITS OF 10**(-40)*GRAM-CM**2

          A =      117.5074   B =      423.2263   C =      535.4392


          ORIENTATION OF MOLECULE IN FORCE CALCULATION

    NO.       ATOM         X         Y         Z

     1          C      -1.1490   -0.1588   -0.0007
     2          C       0.3583   -0.1588   -0.0007
     3          C      -1.4821    1.3050   -0.0007
     4          C       0.8052    1.1269   -0.0014
     5          C      -0.3407    2.0318   -0.0013
     6          C       1.1816   -1.3471    0.0007
     7          C       0.6941   -2.5866    0.0037
     8          H      -1.5596   -0.6711   -0.8901
     9          H      -1.5596   -0.6715    0.8884
    10          H      -2.5061    1.6715   -0.0002
    11          H       1.8408    1.4625   -0.0017
    12          H      -0.2468    3.1159   -0.0015
    13          H       2.2646   -1.1687   -0.0002
    14          H       1.3326   -3.4642    0.0055
    15          H      -0.3703   -2.8061    0.0047


    FIRST DERIVATIVES WILL BE USED IN THE CALCULATION OF SECOND DERIVATIVES

          ESTIMATED TIME TO COMPLETE CALCULATION =        0.70 SECONDS

    FOR POINT-GROUP C1   THERE ARE   1 UNIQUE SYMMETRY FUNCTIONS.

 STEP:   1 TIME =     0.01 SECS, INTEGRAL =      0.01 TIME LEFT: 172799.99
 STEP:   2 TIME =     0.01 SECS, INTEGRAL =      0.02 TIME LEFT: 172799.98
 STEP:   3 TIME =     0.01 SECS, INTEGRAL =      0.03 TIME LEFT: 172799.97
 STEP:   4 TIME =     0.01 SECS, INTEGRAL =      0.04 TIME LEFT: 172799.96
 STEP:   5 TIME =     0.01 SECS, INTEGRAL =      0.05 TIME LEFT: 172799.95
 STEP:   6 TIME =     0.01 SECS, INTEGRAL =      0.07 TIME LEFT: 172799.93
 STEP:   7 TIME =     0.01 SECS, INTEGRAL =      0.08 TIME LEFT: 172799.92
 STEP:   8 TIME =     0.01 SECS, INTEGRAL =      0.09 TIME LEFT: 172799.91
 STEP:   9 TIME =     0.01 SECS, INTEGRAL =      0.10 TIME LEFT: 172799.90
 STEP:  10 TIME =     0.01 SECS, INTEGRAL =      0.11 TIME LEFT: 172799.89
 STEP:  11 TIME =     0.01 SECS, INTEGRAL =      0.12 TIME LEFT: 172799.88
 STEP:  12 TIME =     0.01 SECS, INTEGRAL =      0.14 TIME LEFT: 172799.86
 STEP:  13 TIME =     0.01 SECS, INTEGRAL =      0.15 TIME LEFT: 172799.85
 STEP:  14 TIME =     0.01 SECS, INTEGRAL =      0.16 TIME LEFT: 172799.84
 STEP:  15 TIME =     0.01 SECS, INTEGRAL =      0.17 TIME LEFT: 172799.83
 STEP:  16 TIME =     0.01 SECS, INTEGRAL =      0.18 TIME LEFT: 172799.82
 STEP:  17 TIME =     0.01 SECS, INTEGRAL =      0.20 TIME LEFT: 172799.80
 STEP:  18 TIME =     0.01 SECS, INTEGRAL =      0.21 TIME LEFT: 172799.79
 STEP:  19 TIME =     0.01 SECS, INTEGRAL =      0.21 TIME LEFT: 172799.79
 STEP:  20 TIME =     0.01 SECS, INTEGRAL =      0.22 TIME LEFT: 172799.78
 STEP:  21 TIME =     0.01 SECS, INTEGRAL =      0.23 TIME LEFT: 172799.77
 STEP:  22 TIME =     0.01 SECS, INTEGRAL =      0.25 TIME LEFT: 172799.75
 STEP:  23 TIME =     0.01 SECS, INTEGRAL =      0.26 TIME LEFT: 172799.74
 STEP:  24 TIME =     0.01 SECS, INTEGRAL =      0.27 TIME LEFT: 172799.73
 STEP:  25 TIME =     0.01 SECS, INTEGRAL =      0.28 TIME LEFT: 172799.72
 STEP:  26 TIME =     0.01 SECS, INTEGRAL =      0.29 TIME LEFT: 172799.71
 STEP:  27 TIME =     0.01 SECS, INTEGRAL =      0.30 TIME LEFT: 172799.70
 STEP:  28 TIME =     0.01 SECS, INTEGRAL =      0.32 TIME LEFT: 172799.68
 STEP:  29 TIME =     0.01 SECS, INTEGRAL =      0.33 TIME LEFT: 172799.67
 STEP:  30 TIME =     0.01 SECS, INTEGRAL =      0.34 TIME LEFT: 172799.66
 STEP:  31 TIME =     0.01 SECS, INTEGRAL =      0.35 TIME LEFT: 172799.65
 STEP:  32 TIME =     0.01 SECS, INTEGRAL =      0.36 TIME LEFT: 172799.64
 STEP:  33 TIME =     0.01 SECS, INTEGRAL =      0.38 TIME LEFT: 172799.62
 STEP:  34 TIME =     0.02 SECS, INTEGRAL =      0.39 TIME LEFT: 172799.61
 STEP:  35 TIME =     0.01 SECS, INTEGRAL =      0.40 TIME LEFT: 172799.60
 STEP:  36 TIME =     0.02 SECS, INTEGRAL =      0.42 TIME LEFT: 172799.58
 STEP:  37 TIME =     0.01 SECS, INTEGRAL =      0.43 TIME LEFT: 172799.57
 STEP:  38 TIME =     0.01 SECS, INTEGRAL =      0.44 TIME LEFT: 172799.56
 STEP:  39 TIME =     0.01 SECS, INTEGRAL =      0.45 TIME LEFT: 172799.55
 STEP:  40 TIME =     0.01 SECS, INTEGRAL =      0.46 TIME LEFT: 172799.54
 STEP:  41 TIME =     0.01 SECS, INTEGRAL =      0.48 TIME LEFT: 172799.52
 STEP:  42 TIME =     0.01 SECS, INTEGRAL =      0.49 TIME LEFT: 172799.51
 STEP:  43 TIME =     0.01 SECS, INTEGRAL =      0.50 TIME LEFT: 172799.50
 STEP:  44 TIME =     0.01 SECS, INTEGRAL =      0.51 TIME LEFT: 172799.49
 STEP:  45 TIME =     0.01 SECS, INTEGRAL =      0.52 TIME LEFT: 172799.48

(To convert to Hartree/Bohr^2, multiply by (10^(-21) x N x a0^2)/(4.184 x 627.51) =  0.0642)


           FORCE MATRIX IN MILLIDYNES/ANGSTROM


                  C  1       C  2       C  3       C  4       C  5       C  6
 ------------------------------------------------------------------------------
     C    1  14.823362
     C    2   4.199051  18.703707
     C    3   4.428458   1.101024  17.845922
     C    4   1.198311   9.023977   1.652160  18.067735
     C    5   1.255186   1.626419   9.597966   5.226760  18.235652
     C    6   0.496414   5.791356   0.060300   0.953699   0.143630  18.552821
     C    7   0.044633   1.087773   0.019914   0.113985   0.038354  10.724307
     H    8   4.506577   0.426447   0.414965   0.044904   0.044722   0.012524
     H    9   4.506566   0.426523   0.415118   0.044896   0.044714   0.012537
     H   10   0.402364   0.042135   5.082785   0.101829   0.444294   0.012741
     H   11   0.106700   0.453321   0.049664   5.056001   0.418754   0.051584
     H   12   0.116517   0.049578   0.447055   0.422002   5.069044   0.007492
     H   13   0.037902   0.444105   0.006982   0.028479   0.001574   4.766747
     H   14   0.005689   0.140050   0.002053   0.008015   0.008400   0.458738
     H   15   0.015898   0.101429   0.003390   0.006848   0.004637   0.489007


                  C  7       H  8       H  9       H 10       H 11       H 12
 ------------------------------------------------------------------------------
     C    7  17.840730
     H    8   0.009285   5.114912
     H    9   0.009381   0.546632   5.115034
     H   10   0.001610   0.011383   0.011379   5.481458
     H   11   0.004825   0.014774   0.014769   0.005470   5.450998
     H   12   0.001727   0.015753   0.015745   0.042320   0.009516   5.459709
     H   13   0.452801   0.001055   0.001060   0.001688   0.010647   0.000686
     H   14   5.117922   0.001901   0.001910   0.000580   0.003184   0.000568
     H   15   5.066018   0.012627   0.012933   0.001396   0.002482   0.000338


                  H 13       H 14       H 15
 ------------------------------------------
     H   13   5.119931
     H   14   0.080413   5.500932
     H   15   0.119822   0.417831   5.459606


          HEAT OF FORMATION =      46.447336 KCALS/MOLE

          ZERO POINT ENERGY      78.759 KCAL/MOL


           NORMAL COORDINATE ANALYSIS (Total motion = 1 Angstrom)


   Root No.       1         2         3         4         5         6         7         8

                 1 A       2 A       3 A       4 A       5 A       6 A       7 A       8 A   

                  62.7     206.0     231.1     391.6     482.2     487.5     641.8     645.4
  
           1   -0.0001   -0.0000   -0.0461    0.0001   -0.0005   -0.0389    0.0031   -0.0000
           2    0.0000    0.0000    0.0268    0.0000   -0.0003   -0.0203    0.0405   -0.0005
           3   -0.0464    0.0376   -0.0001   -0.0206    0.0012   -0.0000    0.0004    0.0190
           4   -0.0001   -0.0000   -0.0459    0.0001   -0.0005   -0.0327    0.0275   -0.0004
           5   -0.0001    0.0000   -0.0198    0.0001   -0.0004   -0.0265   -0.0371    0.0005
           6   -0.0330    0.0407    0.0000    0.0548   -0.0451    0.0011    0.0008    0.0402
           7    0.0000   -0.0000    0.0008   -0.0000    0.0001    0.0088   -0.0347    0.0005
           8    0.0000    0.0000    0.0414    0.0000   -0.0001   -0.0070    0.0451   -0.0006
           9    0.0045   -0.0450   -0.0000    0.0369    0.0334   -0.0006   -0.0001   -0.0042
          10   -0.0000   -0.0000   -0.0095   -0.0000    0.0001    0.0033   -0.0427    0.0006
          11   -0.0000    0.0000   -0.0314    0.0001   -0.0006   -0.0475   -0.0125    0.0002
          12    0.0147    0.0453    0.0000    0.0010    0.0521   -0.0009    0.0001    0.0050
          13    0.0000   -0.0000    0.0233   -0.0001    0.0004    0.0270   -0.0290    0.0004
          14   -0.0000    0.0000    0.0061    0.0000   -0.0005   -0.0331    0.0225   -0.0003
          15    0.0404   -0.0206   -0.0000   -0.0418   -0.0471    0.0008    0.0001    0.0050
          16   -0.0001   -0.0000   -0.0127   -0.0001    0.0007    0.0516    0.0816   -0.0011
          17   -0.0001   -0.0001    0.0025   -0.0001    0.0006    0.0451   -0.0466    0.0005
          18   -0.0587   -0.0386    0.0001    0.0064   -0.0188    0.0003   -0.0011   -0.0520
          19    0.0001    0.0001    0.0762   -0.0000   -0.0002   -0.0109    0.0085   -0.0001
          20    0.0002   -0.0001   -0.0307   -0.0001    0.0011    0.0761   -0.0232    0.0003
          21    0.0731   -0.0115   -0.0000   -0.0070    0.0054   -0.0002    0.0001    0.0041
          22    0.0091   -0.0050   -0.0627    0.0822   -0.0607   -0.0539   -0.0135    0.0830
          23    0.0324   -0.0584    0.0399    0.0968    0.0228   -0.0077    0.0621    0.0414
          24   -0.0691    0.0743    0.0005   -0.1174    0.0163   -0.0004   -0.0031   -0.0467
          25   -0.0092    0.0049   -0.0628   -0.0820    0.0591   -0.0570   -0.0168   -0.0824
          26   -0.0323    0.0584    0.0396   -0.0967   -0.0230   -0.0073    0.0604   -0.0430
          27   -0.0691    0.0743   -0.0009   -0.1174    0.0163   -0.0008    0.0011   -0.0468
          28    0.0000   -0.0000    0.0129   -0.0000    0.0003    0.0221   -0.0397    0.0005
          29    0.0000    0.0001    0.0753   -0.0001    0.0004    0.0298    0.0333   -0.0005
          30    0.0093   -0.1073   -0.0000    0.1022    0.0760   -0.0013   -0.0013   -0.0641
          31    0.0000    0.0000    0.0023   -0.0000    0.0003    0.0173   -0.0543    0.0007
          32   -0.0001    0.0000   -0.0666    0.0002   -0.0012   -0.0907    0.0236   -0.0003
          33    0.0345    0.0653    0.0000   -0.0137    0.2037   -0.0040   -0.0023   -0.1145
          34    0.0001    0.0000    0.0602   -0.0002    0.0007    0.0539    0.0113   -0.0002
          35    0.0000    0.0000    0.0029    0.0000   -0.0005   -0.0358    0.0195   -0.0003
          36    0.0825   -0.0574   -0.0001   -0.1087   -0.1642    0.0029   -0.0007   -0.0356
          37   -0.0001   -0.0001   -0.0207   -0.0001    0.0006    0.0458    0.0845   -0.0012
          38   -0.0003   -0.0002    0.0603   -0.0003    0.0010    0.0705   -0.0702    0.0010
          39   -0.1860   -0.1455    0.0004   -0.0685    0.0382   -0.0010    0.0001    0.0021
          40    0.0002    0.0001    0.1444    0.0000   -0.0012   -0.0920   -0.1182    0.0017
          41    0.0002   -0.0002    0.0184   -0.0003    0.0006    0.0204   -0.1141    0.0022
          42    0.0572   -0.0972   -0.0000   -0.1110    0.1108   -0.0024    0.0060    0.2742
          43    0.0002    0.0002    0.0929    0.0001   -0.0005   -0.0337   -0.0235    0.0002
          44    0.0003    0.0001   -0.1075   -0.0001    0.0023    0.1792    0.1198   -0.0020
          45    0.2059    0.0987   -0.0002    0.0816   -0.0711    0.0012   -0.0038   -0.1713


   Root No.       9        10        11        12        13        14        15        16

                 9 A      10 A      11 A      12 A      13 A      14 A      15 A      16 A   

                 749.7     823.4     868.6     918.6     939.7     950.2     970.8     994.5
  
           1   -0.0000    0.0064    0.0000    0.0001    0.0548   -0.0000    0.0000    0.0292
           2   -0.0000   -0.0676   -0.0000    0.0000    0.0157   -0.0000   -0.0000    0.0135
           3   -0.0206   -0.0000    0.0490    0.0287   -0.0001   -0.0215   -0.0302   -0.0000
           4   -0.0000   -0.0337   -0.0000    0.0000   -0.0021   -0.0000    0.0000   -0.0219
           5    0.0000   -0.0234   -0.0000   -0.0001   -0.0271    0.0000   -0.0000    0.0057
           6    0.0311    0.0000   -0.0073   -0.0203    0.0001    0.0283    0.0282   -0.0000
           7    0.0000    0.1004    0.0000   -0.0000   -0.0163   -0.0000    0.0000   -0.0091
           8   -0.0000   -0.0179   -0.0000    0.0000    0.0191    0.0000    0.0000    0.0011
           9   -0.0228    0.0000   -0.0049   -0.0205    0.0000    0.0155    0.0382    0.0001
          10   -0.0000   -0.0852   -0.0001   -0.0001   -0.0340    0.0000   -0.0000    0.0046
          11    0.0000    0.0097   -0.0000   -0.0001   -0.0380   -0.0000   -0.0000   -0.0070
          12   -0.0006    0.0000   -0.0388    0.0282   -0.0001   -0.0402    0.0090    0.0001
          13   -0.0000    0.0128   -0.0000   -0.0000   -0.0062    0.0000   -0.0000   -0.0012
          14    0.0000    0.1227    0.0000    0.0000    0.0044    0.0000   -0.0000   -0.0013
          15   -0.0270    0.0000   -0.0215   -0.0127    0.0001    0.0232   -0.0399   -0.0002
          16   -0.0000    0.0063    0.0000   -0.0000   -0.0027   -0.0000    0.0001   -0.0317
          17   -0.0000   -0.0055    0.0000   -0.0000    0.0115   -0.0000   -0.0000    0.0067
          18   -0.0113    0.0000    0.0012   -0.0312    0.0001   -0.0230   -0.0087   -0.0000
          19    0.0000    0.0010   -0.0000   -0.0001   -0.0248    0.0000   -0.0001    0.0308
          20   -0.0000   -0.0070    0.0000    0.0001    0.0280   -0.0001    0.0000   -0.0180
          21   -0.0004    0.0000   -0.0004   -0.0052   -0.0000   -0.0147   -0.0116    0.0001
          22    0.0024   -0.0267    0.0707    0.0481    0.1088    0.0333   -0.1366    0.0859
          23   -0.0989   -0.0561    0.1058    0.0498   -0.0077   -0.0919    0.0208   -0.0171
          24    0.0384    0.0062   -0.0493   -0.0247   -0.0097    0.0182    0.0240   -0.0083
          25   -0.0024   -0.0267   -0.0706   -0.0477    0.1086   -0.0331    0.1363    0.0857
          26    0.0987   -0.0560   -0.1057   -0.0497   -0.0070    0.0916   -0.0206   -0.0169
          27    0.0384   -0.0062   -0.0494   -0.0247    0.0098    0.0183    0.0240    0.0083
          28    0.0002    0.0763   -0.0000   -0.0001   -0.0454   -0.0000   -0.0001   -0.0351
          29    0.0000   -0.0903   -0.0001   -0.0002   -0.0634    0.0001   -0.0001   -0.0717
          30    0.2979   -0.0002   -0.0811    0.0749    0.0001   -0.0382   -0.1605   -0.0004
          31    0.0000   -0.0607    0.0000   -0.0001   -0.0162    0.0001   -0.0001    0.0280
          32    0.0000   -0.0698    0.0000   -0.0002   -0.0989    0.0001   -0.0000   -0.0803
          33    0.0519   -0.0003    0.2683   -0.1015    0.0004    0.1619   -0.0514   -0.0003
          34    0.0001   -0.0133    0.0001    0.0002    0.1088   -0.0000    0.0002    0.0187
          35    0.0001    0.1268    0.0001    0.0000   -0.0059   -0.0000    0.0000   -0.0035
          36    0.1869   -0.0004    0.2102    0.0609   -0.0005   -0.1045    0.1705    0.0005
          37   -0.0000    0.0013   -0.0000    0.0002   -0.0017    0.0000    0.0001   -0.0556
          38   -0.0000    0.0190   -0.0000    0.0004    0.0078    0.0004   -0.0001    0.1450
          39   -0.0241   -0.0000   -0.0235    0.2687   -0.0007    0.1444    0.0482   -0.0000
          40    0.0000   -0.0371    0.0000    0.0003    0.1049   -0.0001    0.0003   -0.1249
          41    0.0001   -0.0339    0.0001    0.0003    0.1215    0.0000    0.0005   -0.1274
          42    0.0692    0.0000    0.0077   -0.0305   -0.0004    0.0617    0.0591   -0.0000
          43   -0.0000   -0.0081   -0.0000    0.0001    0.0066    0.0001    0.0001   -0.0111
          44   -0.0000    0.0311   -0.0001   -0.0000   -0.1084    0.0005   -0.0003    0.1641
          45   -0.0442   -0.0000   -0.0131    0.1699   -0.0003    0.1243    0.0645   -0.0005


   Root No.      17        18        19        20        21        22        23        24

                17 A      18 A      19 A      20 A      21 A      22 A      23 A      24 A   

                1020.7    1034.4    1039.2    1081.9    1117.5    1200.2    1212.1    1287.8
  
           1    0.0001   -0.0111   -0.0001    0.0051    0.0273    0.0285    0.0076    0.0340
           2    0.0002   -0.0366   -0.0006    0.0013    0.0154   -0.0066   -0.0219   -0.0396
           3    0.0106    0.0001   -0.0001   -0.0000   -0.0000   -0.0000    0.0000    0.0000
           4   -0.0001    0.0014   -0.0000    0.0041   -0.0015    0.0076    0.0255    0.0189
           5   -0.0000    0.0094    0.0002   -0.0051   -0.0243    0.0104    0.0056   -0.0166
           6   -0.0040   -0.0007    0.0336   -0.0000    0.0000    0.0000   -0.0000    0.0000
           7    0.0000   -0.0166   -0.0003    0.0100    0.0208    0.0006   -0.0149   -0.0197
           8   -0.0001    0.0280    0.0005   -0.0109   -0.0118   -0.0254   -0.0004    0.0446
           9   -0.0270    0.0005   -0.0342    0.0000   -0.0000    0.0000    0.0000   -0.0000
          10    0.0000   -0.0129   -0.0002   -0.0153   -0.0239   -0.0266    0.0075    0.0209
          11   -0.0001    0.0098    0.0001    0.0021   -0.0146    0.0124    0.0174   -0.0253
          12   -0.0023    0.0004   -0.0223    0.0000    0.0000    0.0000   -0.0000    0.0000
          13   -0.0000    0.0076    0.0001    0.0092    0.0040   -0.0116   -0.0162   -0.0071
          14    0.0000   -0.0034   -0.0001   -0.0132   -0.0192   -0.0128    0.0086    0.0152
          15    0.0154   -0.0004    0.0248   -0.0000    0.0000    0.0000    0.0000   -0.0000
          16   -0.0000   -0.0009   -0.0001   -0.0117   -0.0087   -0.0225    0.0185   -0.0316
          17    0.0001   -0.0005   -0.0000    0.0034    0.0011    0.0112   -0.0138   -0.0017
          18    0.0370    0.0006   -0.0243    0.0000    0.0000   -0.0000    0.0000    0.0000
          19    0.0000    0.0033    0.0001    0.0025   -0.0059    0.0173   -0.0230    0.0093
          20   -0.0001   -0.0049   -0.0000   -0.0009    0.0024    0.0031   -0.0125    0.0036
          21   -0.0563   -0.0006    0.0230    0.0000   -0.0000   -0.0000    0.0000   -0.0000
          22   -0.0632    0.1033   -0.1638   -0.0669    0.0239   -0.0527   -0.0891   -0.1172
          23    0.0808   -0.1483    0.1282    0.0630    0.0566    0.0960    0.0223   -0.0340
          24   -0.0074    0.0105    0.0016   -0.0022   -0.0189   -0.0185    0.0173    0.0590
          25    0.0626    0.0980    0.1672   -0.0673    0.0240   -0.0529   -0.0894   -0.1172
          26   -0.0794   -0.1445   -0.1330    0.0633    0.0567    0.0962    0.0225   -0.0340
          27   -0.0072   -0.0107    0.0013    0.0022    0.0189    0.0185   -0.0173   -0.0590
          28   -0.0003    0.0511    0.0008   -0.0336    0.0933    0.0638    0.0086   -0.0370
          29   -0.0011    0.2140    0.0035   -0.1349    0.1830    0.1463    0.0684    0.0030
          30    0.0739   -0.0012    0.0758   -0.0000   -0.0001   -0.0001   -0.0000    0.0000
          31    0.0002   -0.0397   -0.0007   -0.0928   -0.0768    0.0159    0.0555   -0.0018
          32   -0.0006    0.0932    0.0016    0.2406    0.1416   -0.1252   -0.1240    0.0490
          33   -0.0041   -0.0012    0.0541   -0.0001   -0.0000    0.0000    0.0000   -0.0000
          34   -0.0005    0.1595    0.0030    0.2445   -0.1781    0.1068    0.0894   -0.0713
          35    0.0000   -0.0149   -0.0003   -0.0338   -0.0054   -0.0243    0.0006    0.0227
          36   -0.0451    0.0011   -0.0646   -0.0000    0.0001   -0.0000   -0.0000    0.0000
          37   -0.0002   -0.0004   -0.0000   -0.0221   -0.0334    0.0016   -0.0273   -0.0296
          38    0.0002   -0.0056    0.0003    0.0623    0.1500   -0.1454    0.2820   -0.0294
          39   -0.1070   -0.0018    0.0735   -0.0001   -0.0003    0.0003   -0.0005    0.0001
          40   -0.0001   -0.0237   -0.0007   -0.0064    0.0107   -0.0086    0.0049    0.1008
          41    0.0003   -0.0248   -0.0008   -0.0063    0.0163   -0.0148    0.0065    0.0782
          42    0.2237    0.0024   -0.0769    0.0000   -0.0000    0.0000   -0.0000   -0.0002
          43    0.0001   -0.0007   -0.0001   -0.0028   -0.0072    0.0059   -0.0117   -0.0221
          44    0.0007    0.0099    0.0002    0.0236    0.0083    0.0626   -0.0755    0.1800
          45    0.1893    0.0021   -0.0705   -0.0001   -0.0000   -0.0002    0.0001   -0.0004


   Root No.      25        26        27        28        29        30        31        32

                25 A      26 A      27 A      28 A      29 A      30 A      31 A      32 A   

                1326.9    1363.3    1411.6    1471.9    1733.4    1791.2    1869.0    2982.2
  
           1   -0.0391    0.0147    0.0057   -0.0799    0.0005    0.0029   -0.0068    0.0000
           2    0.0200    0.0811   -0.0400    0.0031    0.0103   -0.0007    0.0058    0.0000
           3    0.0000    0.0000   -0.0000    0.0000   -0.0000    0.0000   -0.0000   -0.0610
           4    0.0115    0.0122    0.0044    0.1555    0.0048    0.0261    0.0138   -0.0000
           5    0.0016    0.0011    0.0232   -0.0250   -0.1007    0.1183   -0.1231   -0.0000
           6   -0.0000    0.0000   -0.0000    0.0000    0.0001   -0.0001    0.0001   -0.0003
           7    0.0100    0.0171   -0.0073    0.0176   -0.1309   -0.0550    0.0084   -0.0000
           8   -0.0267   -0.0295    0.0604    0.0131   -0.0921   -0.0490    0.0120   -0.0000
           9   -0.0000   -0.0000   -0.0000   -0.0000    0.0001    0.0000   -0.0000   -0.0003
          10   -0.0019   -0.0375   -0.0771   -0.0397    0.0108   -0.0297    0.0227   -0.0000
          11    0.0115    0.0141    0.0670   -0.0362    0.0624   -0.1110    0.0599    0.0000
          12   -0.0000    0.0000   -0.0000    0.0000   -0.0000    0.0001   -0.0000   -0.0002
          13   -0.0066    0.0123    0.0891   -0.0013    0.1339    0.0673   -0.0206    0.0000
          14    0.0059   -0.0242   -0.0743    0.0020    0.0766    0.0417   -0.0049   -0.0000
          15    0.0000    0.0000   -0.0000    0.0000   -0.0001   -0.0000    0.0000   -0.0002
          16    0.0026   -0.0021    0.0104   -0.0664   -0.0247    0.0289    0.0169   -0.0000
          17   -0.0301   -0.0017   -0.0080    0.0278   -0.0192    0.0620    0.1913   -0.0000
          18    0.0001    0.0000   -0.0000   -0.0000    0.0001   -0.0002   -0.0004   -0.0000
          19   -0.0100    0.0004   -0.0082    0.0249    0.0153   -0.0265   -0.0490    0.0000
          20   -0.0173   -0.0014   -0.0182    0.0334    0.0415   -0.0745   -0.1319    0.0000
          21    0.0000    0.0000    0.0000   -0.0001   -0.0001    0.0002    0.0003   -0.0000
          22    0.0822   -0.1157   -0.0028    0.0434    0.0001   -0.0242    0.0161    0.1786
          23    0.0093   -0.2119    0.0357   -0.0089    0.0136    0.0177   -0.0109    0.2222
          24   -0.0447    0.2025   -0.0342   -0.0415   -0.0070    0.0025   -0.0018    0.3706
          25    0.0823   -0.1155   -0.0028    0.0435    0.0002   -0.0242    0.0162   -0.1786
          26    0.0092   -0.2119    0.0357   -0.0090    0.0137    0.0178   -0.0109   -0.2223
          27    0.0447   -0.2026    0.0342    0.0415    0.0071   -0.0025    0.0018    0.3704
          28    0.0203    0.0297   -0.0734   -0.0079   -0.0976   -0.0374    0.0037    0.0000
          29    0.0009   -0.0032   -0.1265   -0.0559    0.0826    0.0348   -0.0030   -0.0000
          30   -0.0000   -0.0000    0.0001    0.0000    0.0000    0.0000   -0.0000   -0.0009
          31    0.0137   -0.0180   -0.0277   -0.0290    0.0354   -0.0932    0.0600   -0.0000
          32   -0.0345   -0.0575   -0.0990   -0.0819    0.0357    0.0277   -0.0046   -0.0000
          33    0.0000    0.0000    0.0000    0.0000   -0.0000   -0.0000    0.0000   -0.0007
          34    0.0545    0.0084   -0.1324   -0.0384   -0.0120   -0.0441    0.0198   -0.0000
          35    0.0009   -0.0275   -0.0604    0.0050    0.1178    0.0619   -0.0079   -0.0000
          36   -0.0000    0.0000    0.0001    0.0000   -0.0000    0.0000   -0.0000   -0.0007
          37   -0.0092   -0.0028    0.0064   -0.0729   -0.0348    0.0533    0.0796    0.0000
          38    0.0443    0.0031    0.0236    0.0413   -0.0077    0.0037   -0.0496    0.0000
          39   -0.0001   -0.0000   -0.0000   -0.0000    0.0000   -0.0000    0.0000   -0.0002
          40    0.2076    0.0161    0.0517   -0.1068   -0.0383    0.0575    0.0839    0.0000
          41    0.1515    0.0113    0.0261   -0.0618    0.0097   -0.0270   -0.0592    0.0000
          42   -0.0004   -0.0000   -0.0001    0.0002   -0.0000    0.0000    0.0001    0.0002
          43   -0.0542   -0.0047   -0.0200    0.0396    0.0307   -0.0553   -0.1067   -0.0000
          44    0.2368    0.0266    0.0436   -0.0452   -0.0133    0.0214    0.0364   -0.0000
          45   -0.0005   -0.0000   -0.0001    0.0001    0.0000   -0.0000   -0.0000   -0.0005


   Root No.      33        34        35        36        37        38        39

                33 A      34 A      35 A      36 A      37 A      38 A      39 A   

                3031.5    3050.6    3132.3    3133.8    3136.6    3148.5    3152.6
  
           1    0.0008   -0.0258   -0.0003    0.0004    0.0006    0.0000   -0.0012
           2    0.0002   -0.0323   -0.0000    0.0005    0.0006    0.0002   -0.0016
           3    0.0000   -0.0000    0.0000   -0.0000    0.0000   -0.0000    0.0000
           4    0.0002   -0.0008   -0.0004   -0.0001    0.0008    0.0000    0.0006
           5   -0.0010   -0.0004   -0.0014   -0.0003    0.0031    0.0010   -0.0020
           6    0.0000    0.0000    0.0000    0.0000   -0.0000   -0.0000    0.0000
           7   -0.0000    0.0008   -0.0161   -0.0023   -0.0220    0.0010   -0.0380
           8    0.0001   -0.0011    0.0067    0.0010    0.0075   -0.0002    0.0096
           9   -0.0000   -0.0000    0.0000    0.0000    0.0000   -0.0000    0.0000
          10   -0.0005   -0.0004    0.0226    0.0007   -0.0377   -0.0007    0.0131
          11    0.0004    0.0003    0.0086    0.0001   -0.0140   -0.0005    0.0041
          12    0.0000   -0.0000   -0.0000    0.0000    0.0000    0.0000   -0.0000
          13    0.0000    0.0004   -0.0037   -0.0005   -0.0001   -0.0002    0.0058
          14    0.0000   -0.0003   -0.0339   -0.0046   -0.0140   -0.0011    0.0306
          15    0.0000   -0.0000    0.0000    0.0000    0.0000    0.0000   -0.0000
          16   -0.0704   -0.0008   -0.0001    0.0011    0.0002    0.0072   -0.0000
          17   -0.0154   -0.0002   -0.0002    0.0047   -0.0003    0.0062    0.0003
          18    0.0001    0.0000    0.0000   -0.0000    0.0000   -0.0000   -0.0000
          19    0.0053   -0.0006    0.0032   -0.0653    0.0013    0.0315    0.0002
          20    0.0003   -0.0002    0.0008   -0.0140    0.0005   -0.0573   -0.0009
          21   -0.0000    0.0000   -0.0000    0.0001   -0.0000    0.0001    0.0000
          22   -0.0026    0.1543    0.0002   -0.0023   -0.0016   -0.0005    0.0033
          23   -0.0033    0.1915    0.0012   -0.0031   -0.0010   -0.0003    0.0055
          24   -0.0065    0.3773    0.0015   -0.0057   -0.0028   -0.0010    0.0093
          25   -0.0026    0.1544    0.0002   -0.0023   -0.0016   -0.0005    0.0033
          26   -0.0033    0.1917    0.0013   -0.0032   -0.0010   -0.0003    0.0055
          27    0.0065   -0.3773   -0.0015    0.0057    0.0028    0.0010   -0.0093
          28    0.0007   -0.0123    0.1973    0.0292    0.2607   -0.0098    0.3905
          29   -0.0003    0.0029   -0.0725   -0.0107   -0.0944    0.0035   -0.1402
          30   -0.0000    0.0000   -0.0001   -0.0000   -0.0001    0.0000   -0.0002
          31    0.0031    0.0112   -0.2573   -0.0077    0.4265    0.0073   -0.1334
          32    0.0023    0.0039   -0.0849   -0.0027    0.1379    0.0022   -0.0422
          33   -0.0000   -0.0000    0.0001    0.0000   -0.0001   -0.0000    0.0000
          34   -0.0000    0.0013    0.0336    0.0044    0.0115    0.0009   -0.0273
          35   -0.0001    0.0116    0.3918    0.0521    0.1615    0.0115   -0.3152
          36   -0.0000   -0.0000   -0.0001   -0.0000   -0.0000   -0.0000    0.0001
          37    0.8140    0.0078    0.0008    0.0053   -0.0020   -0.0581   -0.0006
          38    0.1308    0.0013    0.0003    0.0044   -0.0010   -0.0129    0.0001
          39   -0.0007   -0.0000   -0.0000   -0.0000    0.0000    0.0001    0.0000
          40   -0.0454   -0.0009   -0.0003    0.0079    0.0019   -0.4598   -0.0071
          41    0.0538    0.0009    0.0018   -0.0392   -0.0019    0.6194    0.0094
          42   -0.0001   -0.0000   -0.0000    0.0001    0.0000   -0.0012   -0.0000
          43    0.0039    0.0074   -0.0372    0.7523   -0.0173    0.0577    0.0045
          44    0.0031    0.0026   -0.0075    0.1520   -0.0034   -0.0057    0.0007
          45   -0.0000   -0.0000    0.0000   -0.0007    0.0000   -0.0000   -0.0000


           MASS-WEIGHTED COORDINATE ANALYSIS (NORMAL COORDINATES)


   Root No.       1         2         3         4         5         6         7         8

                 1 A       2 A       3 A       4 A       5 A       6 A       7 A       8 A   

                  62.7     206.0     231.1     391.6     482.2     487.5     641.8     645.4
  
           1   -0.0004   -0.0002   -0.3139    0.0006   -0.0041   -0.2492    0.0192   -0.0001
           2    0.0000    0.0003    0.1826    0.0002   -0.0022   -0.1300    0.2536   -0.0041
           3   -0.3109    0.3004   -0.0005   -0.1651    0.0095   -0.0002    0.0022    0.1462
           4   -0.0004   -0.0002   -0.3129    0.0006   -0.0035   -0.2095    0.1721   -0.0028
           5   -0.0004    0.0002   -0.1351    0.0007   -0.0030   -0.1698   -0.2317    0.0041
           6   -0.2208    0.3247    0.0003    0.4397   -0.3459    0.0072    0.0049    0.3089
           7    0.0000   -0.0002    0.0054   -0.0001    0.0011    0.0561   -0.2173    0.0036
           8    0.0001    0.0003    0.2820    0.0000   -0.0007   -0.0448    0.2820   -0.0047
           9    0.0302   -0.3592   -0.0001    0.2961    0.2559   -0.0037   -0.0006   -0.0325
          10   -0.0000   -0.0000   -0.0648   -0.0001    0.0005    0.0212   -0.2669    0.0045
          11   -0.0003    0.0001   -0.2139    0.0008   -0.0049   -0.3044   -0.0784    0.0014
          12    0.0981    0.3620    0.0000    0.0081    0.3994   -0.0060    0.0006    0.0385
          13    0.0002   -0.0000    0.1585   -0.0006    0.0028    0.1731   -0.1816    0.0030
          14   -0.0000    0.0002    0.0414    0.0003   -0.0036   -0.2123    0.1407   -0.0023
          15    0.2705   -0.1643   -0.0003   -0.3360   -0.3613    0.0053    0.0006    0.0385
          16   -0.0004   -0.0002   -0.0868   -0.0005    0.0053    0.3307    0.5106   -0.0088
          17   -0.0006   -0.0006    0.0169   -0.0006    0.0046    0.2890   -0.2915    0.0041
          18   -0.3931   -0.3084    0.0009    0.0513   -0.1442    0.0020   -0.0066   -0.4002
          19    0.0007    0.0007    0.5193   -0.0000   -0.0012   -0.0699    0.0531   -0.0009
          20    0.0010   -0.0004   -0.2094   -0.0011    0.0083    0.4873   -0.1451    0.0025
          21    0.4894   -0.0916   -0.0002   -0.0562    0.0412   -0.0016    0.0008    0.0316
          22    0.0176   -0.0115   -0.1238    0.1913   -0.1347   -0.1001   -0.0244    0.1848
          23    0.0629   -0.1351    0.0788    0.2251    0.0506   -0.0143    0.1125    0.0922
          24   -0.1341    0.1718    0.0009   -0.2731    0.0363   -0.0008   -0.0055   -0.1041
          25   -0.0179    0.0114   -0.1241   -0.1908    0.1312   -0.1058   -0.0305   -0.1835
          26   -0.0627    0.1352    0.0782   -0.2249   -0.0510   -0.0135    0.1094   -0.0959
          27   -0.1341    0.1719   -0.0017   -0.2732    0.0363   -0.0015    0.0020   -0.1043
          28    0.0000   -0.0001    0.0255   -0.0000    0.0008    0.0409   -0.0719    0.0011
          29    0.0001    0.0001    0.1486   -0.0001    0.0009    0.0552    0.0603   -0.0011
          30    0.0181   -0.2481   -0.0000    0.2378    0.1687   -0.0024   -0.0023   -0.1429
          31    0.0000    0.0000    0.0045   -0.0001    0.0006    0.0321   -0.0984    0.0016
          32   -0.0002    0.0000   -0.1315    0.0004   -0.0026   -0.1683    0.0428   -0.0007
          33    0.0669    0.1511    0.0001   -0.0320    0.4524   -0.0074   -0.0042   -0.2552
          34    0.0002    0.0000    0.1187   -0.0004    0.0015    0.0999    0.0205   -0.0004
          35    0.0000    0.0000    0.0058    0.0001   -0.0012   -0.0664    0.0354   -0.0006
          36    0.1600   -0.1329   -0.0001   -0.2528   -0.3646    0.0054   -0.0013   -0.0793
          37   -0.0003   -0.0002   -0.0409   -0.0002    0.0014    0.0850    0.1531   -0.0026
          38   -0.0006   -0.0005    0.1191   -0.0006    0.0023    0.1309   -0.1271    0.0022
          39   -0.3608   -0.3365    0.0007   -0.1594    0.0849   -0.0018    0.0002    0.0046
          40    0.0004    0.0003    0.2850    0.0001   -0.0027   -0.1707   -0.2142    0.0038
          41    0.0003   -0.0005    0.0363   -0.0007    0.0013    0.0378   -0.2067    0.0049
          42    0.1110   -0.2249   -0.0000   -0.2583    0.2460   -0.0045    0.0109    0.6107
          43    0.0004    0.0004    0.1834    0.0002   -0.0011   -0.0626   -0.0425    0.0005
          44    0.0006    0.0003   -0.2123   -0.0002    0.0051    0.3325    0.2170   -0.0044
          45    0.3993    0.2282   -0.0004    0.1897   -0.1579    0.0023   -0.0069   -0.3817


   Root No.       9        10        11        12        13        14        15        16

                 9 A      10 A      11 A      12 A      13 A      14 A      15 A      16 A   

                 749.7     823.4     868.6     918.6     939.7     950.2     970.8     994.5
  
           1   -0.0001    0.0307    0.0003    0.0011    0.4286   -0.0001    0.0002    0.2516
           2   -0.0002   -0.3238   -0.0001    0.0004    0.1231   -0.0001   -0.0000    0.1162
           3   -0.1631   -0.0001    0.3660    0.2369   -0.0006   -0.1907   -0.2549   -0.0003
           4   -0.0001   -0.1614   -0.0001    0.0001   -0.0168   -0.0001    0.0003   -0.1885
           5    0.0002   -0.1121   -0.0002   -0.0008   -0.2121    0.0004   -0.0002    0.0494
           6    0.2471    0.0000   -0.0543   -0.1670    0.0005    0.2515    0.2381   -0.0004
           7    0.0002    0.4807    0.0003   -0.0003   -0.1276   -0.0001    0.0002   -0.0786
           8   -0.0000   -0.0858   -0.0001    0.0002    0.1492    0.0002    0.0001    0.0091
           9   -0.1813    0.0001   -0.0365   -0.1693    0.0002    0.1378    0.3230    0.0012
          10   -0.0001   -0.4080   -0.0005   -0.0007   -0.2658    0.0001   -0.0004    0.0394
          11    0.0001    0.0462   -0.0002   -0.0006   -0.2974   -0.0000   -0.0003   -0.0605
          12   -0.0047    0.0002   -0.2897    0.2322   -0.0005   -0.3575    0.0757    0.0008
          13   -0.0000    0.0613   -0.0000   -0.0002   -0.0487    0.0001   -0.0002   -0.0106
          14    0.0002    0.5873    0.0003    0.0001    0.0348    0.0000   -0.0000   -0.0111
          15   -0.2141    0.0001   -0.1605   -0.1048    0.0007    0.2061   -0.3372   -0.0013
          16   -0.0001    0.0301    0.0000   -0.0001   -0.0212   -0.0003    0.0005   -0.2730
          17   -0.0002   -0.0264    0.0001   -0.0003    0.0897   -0.0004   -0.0001    0.0580
          18   -0.0897    0.0000    0.0093   -0.2569    0.0007   -0.2043   -0.0732   -0.0004
          19    0.0001    0.0048   -0.0001   -0.0007   -0.1945    0.0003   -0.0008    0.2657
          20   -0.0001   -0.0334    0.0001    0.0006    0.2191   -0.0005    0.0004   -0.1554
          21   -0.0035    0.0001   -0.0032   -0.0432   -0.0001   -0.1308   -0.0981    0.0008
          22    0.0056   -0.0370    0.1529    0.1148    0.2467    0.0857   -0.3344    0.2145
          23   -0.2273   -0.0779    0.2289    0.1190   -0.0174   -0.2366    0.0510   -0.0428
          24    0.0883    0.0086   -0.1067   -0.0589   -0.0220    0.0470    0.0587   -0.0207
          25   -0.0055   -0.0371   -0.1528   -0.1139    0.2463   -0.0852    0.3338    0.2141
          26    0.2268   -0.0777   -0.2287   -0.1186   -0.0159    0.2359   -0.0504   -0.0421
          27    0.0883   -0.0086   -0.1068   -0.0589    0.0223    0.0470    0.0587    0.0208
          28    0.0004    0.1058   -0.0000   -0.0001   -0.1028   -0.0001   -0.0003   -0.0876
          29    0.0001   -0.1252   -0.0001   -0.0004   -0.1438    0.0001   -0.0002   -0.1791
          30    0.6850   -0.0002   -0.1755    0.1788    0.0001   -0.0984   -0.3929   -0.0011
          31    0.0000   -0.0842    0.0000   -0.0002   -0.0367    0.0001   -0.0002    0.0700
          32    0.0000   -0.0968    0.0001   -0.0005   -0.2242    0.0002   -0.0001   -0.2004
          33    0.1192   -0.0004    0.5803   -0.2422    0.0009    0.4167   -0.1258   -0.0007
          34    0.0001   -0.0185    0.0002    0.0005    0.2467   -0.0000    0.0004    0.0468
          35    0.0001    0.1759    0.0002    0.0000   -0.0133   -0.0001    0.0001   -0.0087
          36    0.4297   -0.0006    0.4545    0.1455   -0.0011   -0.2690    0.4176    0.0014
          37   -0.0001    0.0018   -0.0000    0.0004   -0.0040    0.0001    0.0003   -0.1389
          38   -0.0000    0.0263   -0.0001    0.0010    0.0176    0.0009   -0.0002    0.3622
          39   -0.0554   -0.0001   -0.0507    0.6415   -0.0017    0.3718    0.1179   -0.0000
          40    0.0000   -0.0514    0.0001    0.0008    0.2378   -0.0002    0.0008   -0.3118
          41    0.0003   -0.0471    0.0001    0.0007    0.2754    0.0000    0.0012   -0.3181
          42    0.1592    0.0000    0.0166   -0.0728   -0.0008    0.1588    0.1448   -0.0000
          43   -0.0001   -0.0113   -0.0000    0.0003    0.0149    0.0001    0.0001   -0.0277
          44   -0.0001    0.0431   -0.0002   -0.0001   -0.2457    0.0012   -0.0007    0.4097
          45   -0.1016   -0.0000   -0.0284    0.4057   -0.0006    0.3201    0.1578   -0.0013


   Root No.      17        18        19        20        21        22        23        24

                17 A      18 A      19 A      20 A      21 A      22 A      23 A      24 A   

                1020.7    1034.4    1039.2    1081.9    1117.5    1200.2    1212.1    1287.8
  
           1    0.0011   -0.0889   -0.0009    0.0415    0.2263    0.2554    0.0624    0.2658
           2    0.0014   -0.2944   -0.0052    0.0110    0.1279   -0.0590   -0.1804   -0.3097
           3    0.0834    0.0006   -0.0010   -0.0000   -0.0002   -0.0001    0.0000    0.0001
           4   -0.0005    0.0115   -0.0000    0.0336   -0.0126    0.0680    0.2103    0.1481
           5   -0.0003    0.0753    0.0015   -0.0418   -0.2017    0.0930    0.0464   -0.1296
           6   -0.0318   -0.0053    0.2794   -0.0001    0.0002    0.0000   -0.0002    0.0002
           7    0.0003   -0.1335   -0.0025    0.0817    0.1728    0.0056   -0.1227   -0.1541
           8   -0.0011    0.2250    0.0038   -0.0885   -0.0976   -0.2279   -0.0035    0.3489
           9   -0.2121    0.0042   -0.2848    0.0002   -0.0000    0.0001    0.0001   -0.0000
          10    0.0004   -0.1038   -0.0020   -0.1243   -0.1985   -0.2385    0.0618    0.1636
          11   -0.0005    0.0791    0.0012    0.0167   -0.1207    0.1114    0.1436   -0.1978
          12   -0.0179    0.0035   -0.1855    0.0001    0.0001    0.0000   -0.0001    0.0000
          13   -0.0002    0.0607    0.0012    0.0747    0.0333   -0.1040   -0.1334   -0.0556
          14    0.0001   -0.0276   -0.0005   -0.1075   -0.1596   -0.1143    0.0708    0.1189
          15    0.1214   -0.0034    0.2065   -0.0001    0.0001    0.0001    0.0000   -0.0000
          16   -0.0003   -0.0070   -0.0005   -0.0954   -0.0718   -0.2018    0.1527   -0.2471
          17    0.0008   -0.0042   -0.0003    0.0279    0.0092    0.1003   -0.1140   -0.0132
          18    0.2906    0.0048   -0.2020    0.0001    0.0001   -0.0001    0.0000    0.0002
          19    0.0001    0.0268    0.0008    0.0206   -0.0493    0.1554   -0.1901    0.0731
          20   -0.0011   -0.0392   -0.0003   -0.0076    0.0199    0.0277   -0.1034    0.0279
          21   -0.4422   -0.0052    0.1915    0.0000   -0.0000   -0.0001    0.0004   -0.0001
          22   -0.1439    0.2405   -0.3948   -0.1578    0.0575   -0.1369   -0.2132   -0.2658
          23    0.1840   -0.3450    0.3091    0.1484    0.1360    0.2492    0.0534   -0.0770
          24   -0.0168    0.0244    0.0039   -0.0052   -0.0453   -0.0480    0.0415    0.1337
          25    0.1426    0.2282    0.4032   -0.1587    0.0576   -0.1372   -0.2137   -0.2657
          26   -0.1809   -0.3363   -0.3206    0.1493    0.1362    0.2496    0.0538   -0.0771
          27   -0.0165   -0.0249    0.0030    0.0052    0.0455    0.0481   -0.0415   -0.1338
          28   -0.0006    0.1189    0.0020   -0.0793    0.2241    0.1655    0.0205   -0.0839
          29   -0.0026    0.4981    0.0083   -0.3179    0.4396    0.3797    0.1635    0.0067
          30    0.1683   -0.0028    0.1828   -0.0000   -0.0001   -0.0001   -0.0000    0.0001
          31    0.0005   -0.0924   -0.0017   -0.2187   -0.1845    0.0414    0.1328   -0.0042
          32   -0.0014    0.2170    0.0038    0.5671    0.3402   -0.3248   -0.2965    0.1111
          33   -0.0093   -0.0027    0.1305   -0.0002   -0.0001    0.0001    0.0001   -0.0000
          34   -0.0012    0.3711    0.0072    0.5763   -0.4280    0.2771    0.2138   -0.1617
          35    0.0001   -0.0346   -0.0007   -0.0796   -0.0129   -0.0630    0.0014    0.0515
          36   -0.1027    0.0026   -0.1557   -0.0001    0.0001   -0.0001   -0.0001    0.0001
          37   -0.0004   -0.0008   -0.0001   -0.0520   -0.0803    0.0040   -0.0653   -0.0670
          38    0.0005   -0.0131    0.0008    0.1469    0.3603   -0.3773    0.6745   -0.0667
          39   -0.2436   -0.0041    0.1771   -0.0003   -0.0007    0.0007   -0.0012    0.0002
          40   -0.0003   -0.0553   -0.0016   -0.0151    0.0257   -0.0224    0.0117    0.2286
          41    0.0008   -0.0577   -0.0019   -0.0148    0.0392   -0.0384    0.0156    0.1774
          42    0.5095    0.0056   -0.1854    0.0000   -0.0001    0.0001   -0.0001   -0.0005
          43    0.0002   -0.0016   -0.0002   -0.0066   -0.0173    0.0152   -0.0279   -0.0501
          44    0.0016    0.0229    0.0004    0.0555    0.0199    0.1625   -0.1807    0.4080
          45    0.4311    0.0049   -0.1700   -0.0002   -0.0000   -0.0004    0.0004   -0.0008


   Root No.      25        26        27        28        29        30        31        32

                25 A      26 A      27 A      28 A      29 A      30 A      31 A      32 A   

                1326.9    1363.3    1411.6    1471.9    1733.4    1791.2    1869.0    2982.2
  
           1   -0.3003    0.0881    0.0302   -0.3754    0.0020    0.0127   -0.0241    0.0000
           2    0.1535    0.4874   -0.2116    0.0147    0.0390   -0.0032    0.0206    0.0001
           3    0.0000    0.0000   -0.0000    0.0000   -0.0000    0.0000   -0.0000   -0.3033
           4    0.0886    0.0732    0.0231    0.7306    0.0182    0.1135    0.0490   -0.0000
           5    0.0123    0.0068    0.1228   -0.1175   -0.3812    0.5137   -0.4352   -0.0000
           6   -0.0001    0.0000   -0.0001    0.0002    0.0003   -0.0003    0.0004   -0.0014
           7    0.0767    0.1026   -0.0387    0.0828   -0.4955   -0.2389    0.0298   -0.0000
           8   -0.2050   -0.1776    0.3193    0.0616   -0.3488   -0.2129    0.0424   -0.0000
           9   -0.0000   -0.0000   -0.0000   -0.0001    0.0003    0.0001   -0.0000   -0.0013
          10   -0.0144   -0.2252   -0.4080   -0.1866    0.0408   -0.1289    0.0802   -0.0000
          11    0.0886    0.0851    0.3546   -0.1700    0.2364   -0.4820    0.2120    0.0000
          12   -0.0000    0.0000   -0.0000    0.0001   -0.0001    0.0003   -0.0001   -0.0009
          13   -0.0505    0.0740    0.4711   -0.0060    0.5069    0.2922   -0.0729    0.0000
          14    0.0450   -0.1455   -0.3928    0.0093    0.2902    0.1809   -0.0175   -0.0000
          15    0.0000    0.0000   -0.0000    0.0000   -0.0003   -0.0002    0.0000   -0.0010
          16    0.0203   -0.0127    0.0549   -0.3120   -0.0934    0.1254    0.0599   -0.0000
          17   -0.2309   -0.0101   -0.0422    0.1306   -0.0728    0.2692    0.6765   -0.0000
          18    0.0004    0.0000   -0.0000   -0.0000    0.0003   -0.0007   -0.0014   -0.0002
          19   -0.0765    0.0022   -0.0436    0.1171    0.0579   -0.1149   -0.1732    0.0000
          20   -0.1331   -0.0084   -0.0962    0.1568    0.1570   -0.3234   -0.4664    0.0000
          21    0.0003    0.0000    0.0002   -0.0004   -0.0004    0.0008    0.0011   -0.0001
          22    0.1829   -0.2015   -0.0042    0.0591    0.0001   -0.0304    0.0165    0.2575
          23    0.0208   -0.3692    0.0546   -0.0122    0.0150    0.0223   -0.0112    0.3202
          24   -0.0995    0.3527   -0.0524   -0.0564   -0.0077    0.0032   -0.0019    0.5341
          25    0.1832   -0.2012   -0.0043    0.0592    0.0002   -0.0305    0.0166   -0.2575
          26    0.0204   -0.3692    0.0546   -0.0123    0.0150    0.0223   -0.0112   -0.3204
          27    0.0994   -0.3529    0.0524    0.0564    0.0077   -0.0032    0.0019    0.5338
          28    0.0451    0.0517   -0.1125   -0.0108   -0.1071   -0.0471    0.0038    0.0000
          29    0.0020   -0.0056   -0.1938   -0.0760    0.0906    0.0438   -0.0031   -0.0000
          30   -0.0000   -0.0000    0.0001    0.0000    0.0001    0.0000   -0.0000   -0.0013
          31    0.0305   -0.0314   -0.0424   -0.0395    0.0389   -0.1173    0.0615   -0.0000
          32   -0.0768   -0.1002   -0.1516   -0.1115    0.0391    0.0348   -0.0047   -0.0000
          33    0.0000    0.0000    0.0001    0.0001   -0.0000   -0.0000    0.0000   -0.0010
          34    0.1213    0.0147   -0.2029   -0.0523   -0.0132   -0.0555    0.0203   -0.0000
          35    0.0019   -0.0478   -0.0925    0.0068    0.1292    0.0779   -0.0080   -0.0000
          36   -0.0000    0.0000    0.0001    0.0000   -0.0000    0.0000   -0.0000   -0.0010
          37   -0.0204   -0.0049    0.0098   -0.0991   -0.0381    0.0670    0.0816    0.0000
          38    0.0985    0.0055    0.0361    0.0562   -0.0084    0.0047   -0.0508    0.0000
          39   -0.0001   -0.0000   -0.0001   -0.0000    0.0000   -0.0000    0.0000   -0.0003
          40    0.4618    0.0281    0.0792   -0.1453   -0.0420    0.0724    0.0859    0.0000
          41    0.3371    0.0196    0.0400   -0.0841    0.0107   -0.0340   -0.0606    0.0000
          42   -0.0010   -0.0000   -0.0001    0.0003   -0.0000    0.0001    0.0001    0.0002
          43   -0.1206   -0.0082   -0.0306    0.0538    0.0337   -0.0695   -0.1093   -0.0001
          44    0.5269    0.0463    0.0668   -0.0615   -0.0146    0.0269    0.0373   -0.0000
          45   -0.0011   -0.0001   -0.0001    0.0001    0.0000   -0.0000   -0.0000   -0.0007


   Root No.      33        34        35        36        37        38        39

                33 A      34 A      35 A      36 A      37 A      38 A      39 A   

                3031.5    3050.6    3132.3    3133.8    3136.6    3148.5    3152.6
  
           1    0.0031   -0.1361   -0.0016    0.0019    0.0037    0.0001   -0.0073
           2    0.0009   -0.1706   -0.0001    0.0020    0.0038    0.0007   -0.0100
           3    0.0000   -0.0000    0.0000   -0.0000    0.0000   -0.0000    0.0000
           4    0.0006   -0.0042   -0.0023   -0.0002    0.0048    0.0002    0.0034
           5   -0.0041   -0.0021   -0.0086   -0.0012    0.0185    0.0044   -0.0120
           6    0.0000    0.0000    0.0000    0.0000   -0.0000   -0.0000    0.0000
           7   -0.0001    0.0044   -0.1016   -0.0100   -0.1318    0.0043   -0.2301
           8    0.0003   -0.0056    0.0425    0.0044    0.0452   -0.0009    0.0583
           9   -0.0000   -0.0000    0.0000    0.0000    0.0001   -0.0000    0.0001
          10   -0.0020   -0.0023    0.1429    0.0030   -0.2259   -0.0031    0.0794
          11    0.0017    0.0017    0.0541    0.0005   -0.0840   -0.0023    0.0246
          12    0.0000   -0.0000   -0.0000    0.0000    0.0001    0.0000   -0.0000
          13    0.0001    0.0020   -0.0236   -0.0023   -0.0004   -0.0010    0.0350
          14    0.0000   -0.0017   -0.2144   -0.0195   -0.0838   -0.0048    0.1853
          15    0.0000   -0.0000    0.0000    0.0000    0.0000    0.0000   -0.0000
          16   -0.2813   -0.0040   -0.0008    0.0046    0.0010    0.0308   -0.0000
          17   -0.0615   -0.0009   -0.0011    0.0202   -0.0015    0.0263    0.0016
          18    0.0003    0.0000    0.0000   -0.0000    0.0000   -0.0001   -0.0000
          19    0.0211   -0.0030    0.0203   -0.2799    0.0080    0.1345    0.0011
          20    0.0014   -0.0009    0.0048   -0.0602    0.0030   -0.2445   -0.0057
          21   -0.0000    0.0000   -0.0000    0.0003   -0.0000    0.0005    0.0000
          22   -0.0030    0.2362    0.0004   -0.0028   -0.0028   -0.0006    0.0058
          23   -0.0039    0.2932    0.0023   -0.0039   -0.0017   -0.0004    0.0097
          24   -0.0075    0.5776    0.0028   -0.0071   -0.0048   -0.0013    0.0163
          25   -0.0030    0.2363    0.0004   -0.0029   -0.0028   -0.0006    0.0058
          26   -0.0039    0.2935    0.0023   -0.0039   -0.0017   -0.0004    0.0097
          27    0.0075   -0.5776   -0.0028    0.0071    0.0048    0.0013   -0.0163
          28    0.0008   -0.0189    0.3612    0.0363    0.4519   -0.0122    0.6857
          29   -0.0003    0.0045   -0.1327   -0.0133   -0.1637    0.0043   -0.2461
          30   -0.0000    0.0000   -0.0002   -0.0000   -0.0002    0.0000   -0.0003
          31    0.0036    0.0171   -0.4711   -0.0096    0.7396    0.0090   -0.2341
          32    0.0027    0.0060   -0.1554   -0.0033    0.2391    0.0027   -0.0741
          33   -0.0000   -0.0000    0.0001    0.0000   -0.0002   -0.0000    0.0001
          34   -0.0000    0.0019    0.0615    0.0054    0.0200    0.0012   -0.0480
          35   -0.0001    0.0177    0.7174    0.0647    0.2800    0.0143   -0.5534
          36   -0.0000   -0.0000   -0.0001   -0.0000   -0.0001   -0.0000    0.0001
          37    0.9417    0.0119    0.0014    0.0065   -0.0034   -0.0718   -0.0010
          38    0.1513    0.0020    0.0006    0.0054   -0.0018   -0.0160    0.0002
          39   -0.0008   -0.0000   -0.0000   -0.0000    0.0000    0.0001    0.0000
          40   -0.0525   -0.0014   -0.0005    0.0099    0.0033   -0.5684   -0.0125
          41    0.0622    0.0014    0.0032   -0.0487   -0.0033    0.7657    0.0166
          42   -0.0001   -0.0000   -0.0000    0.0001    0.0000   -0.0015   -0.0000
          43    0.0045    0.0114   -0.0682    0.9343   -0.0300    0.0713    0.0078
          44    0.0036    0.0040   -0.0138    0.1888   -0.0060   -0.0071    0.0012
          45   -0.0000   -0.0000    0.0001   -0.0009    0.0000   -0.0000   -0.0000


          DESCRIPTION OF VIBRATIONS


 VIBRATION          1    1A           ATOM PAIR      ENERGY CONTRIBUTION    RADIAL
 FREQUENCY            62.66         C  6 -- C  7         +20.9% (653.9%)      0.0%
 TRANSITION DIPOLE   0.0103         C  1 -- C  3         +13.6% (528.3%)      0.0%
 TRAVEL (Ang.)       0.9367         C  1 -- C  2         +12.7% (509.5%)      0.0%
 REDUCED MASS        1.2266         C  1 -- H  9          +9.8% (448.5%)     89.1%
 EFFECTIVE MASS    395.5197
 FORCE CONSTANT      0.0028

 VIBRATION          2    2A           ATOM PAIR      ENERGY CONTRIBUTION    RADIAL
 FREQUENCY           205.96         C  1 -- C  3         +17.6% (203.3%)      0.0%
 TRANSITION DIPOLE   0.0311         C  1 -- C  2         +10.6% (158.0%)      0.0%
 TRAVEL (Ang.)       0.6465         C  2 -- C  6          +9.8% (151.6%)      0.0%
 REDUCED MASS        0.7832         C  1 -- H  9          +9.7% (150.9%)     83.2%
 EFFECTIVE MASS     36.3624
 FORCE CONSTANT      0.0196

 VIBRATION          3    3A           ATOM PAIR      ENERGY CONTRIBUTION    RADIAL
 FREQUENCY           231.14         C  6 -- C  7         +15.1% (284.6%)      0.0%
 TRANSITION DIPOLE   0.0496         C  7 -- H 15          +9.6% (227.7%)     96.3%
 TRAVEL (Ang.)       0.4165         C  7 -- H 14          +9.4% (225.0%)     98.2%
 REDUCED MASS        1.6819         C  1 -- C  2          +7.5% (200.2%)      0.0%
 EFFECTIVE MASS     68.9912
 FORCE CONSTANT      0.0529

 VIBRATION          4    4A           ATOM PAIR      ENERGY CONTRIBUTION    RADIAL
 FREQUENCY           391.56         C  1 -- H  8         +16.3% (105.4%)      7.9%
 TRANSITION DIPOLE   0.3717         C  1 -- H  9         +16.3% (105.3%)      7.9%
 TRAVEL (Ang.)       0.4730         C  1 -- C  2         +11.7% ( 89.3%)      0.0%
 REDUCED MASS        0.7699         C  3 -- C  5          +9.2% ( 79.1%)      0.0%
 EFFECTIVE MASS     12.0015
 FORCE CONSTANT      0.0695

 VIBRATION          5    5A           ATOM PAIR      ENERGY CONTRIBUTION    RADIAL
 FREQUENCY           482.21         C  2 -- C  4         +16.0% ( 76.9%)      0.0%
 TRANSITION DIPOLE   0.1946         C  4 -- C  5         +15.7% ( 76.2%)      0.0%
 TRAVEL (Ang.)       0.4166         C  3 -- C  5         +10.7% ( 62.9%)      0.0%
 REDUCED MASS        0.8057         C  2 -- C  5         +10.6% ( 62.6%)      2.1%
 EFFECTIVE MASS     10.7237
 FORCE CONSTANT      0.1104

 VIBRATION          6    6A           ATOM PAIR      ENERGY CONTRIBUTION    RADIAL
 FREQUENCY           487.52         C  2 -- C  6         +14.8% (150.4%)      1.0%
 TRANSITION DIPOLE   0.0281         C  7 -- H 15         +14.0% (146.7%)      2.4%
 TRAVEL (Ang.)       0.3058         C  7 -- H 14         +10.5% (126.6%)     43.6%
 REDUCED MASS        1.4791         C  6 -- C  7         +10.3% (125.5%)      0.7%
 EFFECTIVE MASS     20.5843
 FORCE CONSTANT      0.2071

 VIBRATION          7    7A           ATOM PAIR      ENERGY CONTRIBUTION    RADIAL
 FREQUENCY           641.82         C  6 -- C  7         +13.4% (109.0%)      0.4%
 TRANSITION DIPOLE   0.0155         C  2 -- C  6         +11.3% (100.1%)     49.5%
 TRAVEL (Ang.)       0.2359         C  6 -- H 13         +10.0% ( 94.0%)     68.6%
 REDUCED MASS        1.8871         C  3 -- C  4          +8.5% ( 86.9%)      0.3%
 EFFECTIVE MASS     15.3699
 FORCE CONSTANT      0.4580

 VIBRATION          8    8A           ATOM PAIR      ENERGY CONTRIBUTION    RADIAL
 FREQUENCY           645.37         C  7 -- H 14         +22.5% ( 68.4%)      0.0%
 TRANSITION DIPOLE   0.2033         C  2 -- C  6         +14.0% ( 54.0%)      0.0%
 TRAVEL (Ang.)       0.4189         C  7 -- H 15         +10.3% ( 46.4%)      0.0%
 REDUCED MASS        0.5955         C  1 -- H  8          +9.2% ( 43.7%)      7.3%
 EFFECTIVE MASS      4.3292
 FORCE CONSTANT      0.1461

 VIBRATION          9    9A           ATOM PAIR      ENERGY CONTRIBUTION    RADIAL
 FREQUENCY           749.71         C  3 -- H 10         +36.3% ( 78.4%)      0.0%
 TRANSITION DIPOLE   0.5585         C  5 -- H 12         +18.8% ( 56.5%)      0.0%
 TRAVEL (Ang.)       0.5022         C  1 -- H  8          +9.3% ( 39.7%)      8.6%
 REDUCED MASS        0.3566         C  1 -- H  9          +9.3% ( 39.7%)      8.5%
 EFFECTIVE MASS      2.6700
 FORCE CONSTANT      0.1181

 VIBRATION         10   10A           ATOM PAIR      ENERGY CONTRIBUTION    RADIAL
 FREQUENCY           823.44         C  3 -- C  5         +15.0% (112.1%)      0.0%
 TRANSITION DIPOLE   0.2684         C  3 -- C  4         +15.0% (112.0%)     99.5%
 TRAVEL (Ang.)       0.1762         C  4 -- C  5         +14.7% (110.9%)      0.2%
 REDUCED MASS        2.6388         C  2 -- C  5         +13.5% (106.0%)     66.5%
 EFFECTIVE MASS     16.0173
 FORCE CONSTANT      1.0542

 VIBRATION         11   11A           ATOM PAIR      ENERGY CONTRIBUTION    RADIAL
 FREQUENCY           868.60         C  4 -- H 11         +24.3% ( 65.4%)      0.0%
 TRANSITION DIPOLE   0.3373         C  1 -- H  9         +15.9% ( 52.8%)     15.8%
 TRAVEL (Ang.)       0.4014         C  1 -- H  8         +15.9% ( 52.8%)     15.8%
 REDUCED MASS        0.4819         C  5 -- H 12         +13.1% ( 48.1%)      0.0%
 EFFECTIVE MASS      3.5788         C  1 -- C  2         +11.7% ( 45.3%)      0.0%
 FORCE CONSTANT      0.2142         C  1 -- C  3         +11.4% ( 44.9%)      0.0%

 VIBRATION         12   12A           ATOM PAIR      ENERGY CONTRIBUTION    RADIAL
 FREQUENCY           918.64         C  6 -- H 13         +33.6% ( 66.5%)      0.0%
 TRANSITION DIPOLE   0.3916         C  7 -- H 15          +9.3% ( 35.0%)      0.0%
 TRAVEL (Ang.)       0.4575         C  4 -- H 11          +7.6% ( 31.7%)      0.0%
 REDUCED MASS        0.3507         C  1 -- C  2          +7.6% ( 31.6%)      0.0%
 EFFECTIVE MASS      3.2550
 FORCE CONSTANT      0.1743

 VIBRATION         13   13A           ATOM PAIR      ENERGY CONTRIBUTION    RADIAL
 FREQUENCY           939.72         C  3 -- C  4         +10.8% ( 64.8%)      4.9%
 TRANSITION DIPOLE   0.0386         C  1 -- C  2         +10.7% ( 64.5%)     63.8%
 TRAVEL (Ang.)       0.2752         C  4 -- C  5          +9.6% ( 61.1%)      0.8%
 REDUCED MASS        0.9475         C  1 -- C  3          +9.4% ( 60.5%)      7.1%
 EFFECTIVE MASS      8.9593
 FORCE CONSTANT      0.4930

 VIBRATION         14   14A           ATOM PAIR      ENERGY CONTRIBUTION    RADIAL
 FREQUENCY           950.17         C  4 -- H 11         +18.4% ( 50.5%)      0.0%
 TRANSITION DIPOLE   0.3945         C  6 -- H 13         +11.5% ( 40.1%)      0.0%
 TRAVEL (Ang.)       0.4291         C  1 -- H  8          +7.9% ( 33.2%)     10.7%
 REDUCED MASS        0.3855         C  1 -- H  9          +7.9% ( 33.1%)     10.8%
 EFFECTIVE MASS      4.1818
 FORCE CONSTANT      0.2051

 VIBRATION         15   15A           ATOM PAIR      ENERGY CONTRIBUTION    RADIAL
 FREQUENCY           970.84         C  5 -- H 12         +16.2% ( 48.8%)      0.0%
 TRANSITION DIPOLE   0.1383         C  3 -- H 10         +14.0% ( 45.4%)      0.0%
 TRAVEL (Ang.)       0.3881         C  1 -- H  8         +12.9% ( 43.6%)     10.8%
 REDUCED MASS        0.4612         C  1 -- H  9         +12.9% ( 43.5%)     10.8%
 EFFECTIVE MASS      4.4265
 FORCE CONSTANT      0.2561

 VIBRATION         16   16A           ATOM PAIR      ENERGY CONTRIBUTION    RADIAL
 FREQUENCY           994.52         C  7 -- H 15         +16.3% ( 59.2%)      7.4%
 TRANSITION DIPOLE   0.0303         C  7 -- H 14         +16.1% ( 58.8%)     12.0%
 TRAVEL (Ang.)       0.4286         C  6 -- C  7         +12.3% ( 51.3%)      0.0%
 REDUCED MASS        0.3691         C  6 -- H 13         +10.8% ( 48.2%)     29.9%
 EFFECTIVE MASS      5.1787
 FORCE CONSTANT      0.2151

 VIBRATION         17   17A           ATOM PAIR      ENERGY CONTRIBUTION    RADIAL
 FREQUENCY          1020.71         C  7 -- H 14         +28.7% ( 56.0%)      0.0%
 TRANSITION DIPOLE   0.4031         C  7 -- H 15         +24.2% ( 51.4%)      0.0%
 TRAVEL (Ang.)       0.3104         C  6 -- C  7         +10.2% ( 33.4%)      0.0%
 REDUCED MASS        0.6857         C  6 -- H 13          +9.5% ( 32.2%)      0.0%
 EFFECTIVE MASS      3.6824
 FORCE CONSTANT      0.4209

 VIBRATION         18   18A           ATOM PAIR      ENERGY CONTRIBUTION    RADIAL
 FREQUENCY          1034.36         C  3 -- H 10         +17.3% ( 54.7%)     15.3%
 TRANSITION DIPOLE   0.1448         C  1 -- C  3         +16.3% ( 53.1%)     98.1%
 TRAVEL (Ang.)       0.4518         C  1 -- H  8         +13.9% ( 49.1%)     12.5%
 REDUCED MASS        0.3193         C  1 -- H  9         +13.3% ( 48.0%)     13.7%
 EFFECTIVE MASS      3.9987
 FORCE CONSTANT      0.2013

 VIBRATION         19   19A           ATOM PAIR      ENERGY CONTRIBUTION    RADIAL
 FREQUENCY          1039.20         C  1 -- H  9         +22.4% ( 50.4%)      0.0%
 TRANSITION DIPOLE   0.0034         C  1 -- H  8         +21.3% ( 49.1%)      0.0%
 TRAVEL (Ang.)       0.4221         C  3 -- H 10          +6.2% ( 26.4%)      0.0%
 REDUCED MASS        0.3642         C  3 -- C  5          +4.8% ( 23.3%)      0.0%
 EFFECTIVE MASS      3.5905
 FORCE CONSTANT      0.2317

 VIBRATION         20   20A           ATOM PAIR      ENERGY CONTRIBUTION    RADIAL
 FREQUENCY          1081.91         C  4 -- H 11         +31.0% ( 60.8%)      2.0%
 TRANSITION DIPOLE   0.0677         C  5 -- H 12         +27.7% ( 57.5%)      2.0%
 TRAVEL (Ang.)       0.4717         C  3 -- H 10          +9.2% ( 33.1%)      7.0%
 REDUCED MASS        0.2801         C  4 -- C  5          +5.2% ( 24.8%)     98.8%
 EFFECTIVE MASS      1.9255
 FORCE CONSTANT      0.1932

 VIBRATION         21   21A           ATOM PAIR      ENERGY CONTRIBUTION    RADIAL
 FREQUENCY          1117.54         C  3 -- H 10         +14.1% ( 52.2%)      6.1%
 TRANSITION DIPOLE   0.1374         C  4 -- H 11         +10.8% ( 45.8%)     11.4%
 TRAVEL (Ang.)       0.4697         C  5 -- H 12         +10.7% ( 45.5%)      4.8%
 REDUCED MASS        0.2735         C  3 -- C  4          +8.1% ( 39.5%)     98.1%
 EFFECTIVE MASS      4.0767
 FORCE CONSTANT      0.2013

 VIBRATION         22   22A           ATOM PAIR      ENERGY CONTRIBUTION    RADIAL
 FREQUENCY          1200.21         C  3 -- H 10         +13.1% ( 47.3%)      0.7%
 TRANSITION DIPOLE   0.0765         C  6 -- H 13         +10.5% ( 42.4%)      5.8%
 TRAVEL (Ang.)       0.4502         C  4 -- H 11          +9.8% ( 41.0%)      6.5%
 REDUCED MASS        0.2771         C  1 -- H  9          +7.7% ( 36.4%)      0.7%
 EFFECTIVE MASS      3.9848
 FORCE CONSTANT      0.2352

 VIBRATION         23   23A           ATOM PAIR      ENERGY CONTRIBUTION    RADIAL
 FREQUENCY          1212.08         C  6 -- H 13         +31.3% ( 68.1%)      1.1%
 TRANSITION DIPOLE   0.0252         C  4 -- H 11          +8.7% ( 35.9%)      2.3%
 TRAVEL (Ang.)       0.4088         C  6 -- C  7          +5.7% ( 29.1%)     11.4%
 REDUCED MASS        0.3329         C  1 -- H  9          +4.9% ( 27.0%)      1.2%
 EFFECTIVE MASS      3.1292
 FORCE CONSTANT      0.2882

 VIBRATION         24   24A           ATOM PAIR      ENERGY CONTRIBUTION    RADIAL
 FREQUENCY          1287.83         C  1 -- C  3         +16.7% ( 57.5%)     88.6%
 TRANSITION DIPOLE   0.2048         C  1 -- H  9          +9.4% ( 43.2%)      0.1%
 TRAVEL (Ang.)       0.2622         C  1 -- H  8          +9.4% ( 43.2%)      0.1%
 REDUCED MASS        0.7616         C  3 -- C  4          +9.0% ( 42.2%)     32.3%
 EFFECTIVE MASS      6.7413
 FORCE CONSTANT      0.7442

 VIBRATION         25   25A           ATOM PAIR      ENERGY CONTRIBUTION    RADIAL
 FREQUENCY          1326.85         C  7 -- H 14         +20.4% ( 52.0%)      0.8%
 TRANSITION DIPOLE   0.1088         C  7 -- H 15         +18.3% ( 49.2%)      1.9%
 TRAVEL (Ang.)       0.3462         C  1 -- C  3         +10.6% ( 37.5%)     69.3%
 REDUCED MASS        0.4241         C  1 -- H  9          +8.5% ( 33.5%)      0.5%
 EFFECTIVE MASS      3.5528
 FORCE CONSTANT      0.4399

 VIBRATION         26   26A           ATOM PAIR      ENERGY CONTRIBUTION    RADIAL
 FREQUENCY          1363.34         C  1 -- H  9         +23.8% ( 62.3%)      5.2%
 TRANSITION DIPOLE   0.3006         C  1 -- H  8         +23.8% ( 62.3%)      5.2%
 TRAVEL (Ang.)       0.2251         C  1 -- C  3         +16.3% ( 51.5%)     96.0%
 REDUCED MASS        0.9765         C  1 -- C  2         +11.0% ( 42.3%)      0.1%
 EFFECTIVE MASS      5.1742
 FORCE CONSTANT      1.0694

 VIBRATION         27   27A           ATOM PAIR      ENERGY CONTRIBUTION    RADIAL
 FREQUENCY          1411.58         C  4 -- C  5         +25.5% ( 84.4%)     99.9%
 TRANSITION DIPOLE   0.3865         C  3 -- C  5         +12.4% ( 59.0%)      0.3%
 TRAVEL (Ang.)       0.1286         C  2 -- C  5         +10.8% ( 55.1%)     84.4%
 REDUCED MASS        2.8896         C  3 -- C  4         +10.3% ( 53.6%)    100.0%
 EFFECTIVE MASS     10.5607         C  5 -- H 12         +10.2% ( 53.4%)     10.7%
 FORCE CONSTANT      3.3923

 VIBRATION         28   28A           ATOM PAIR      ENERGY CONTRIBUTION    RADIAL
 FREQUENCY          1471.91         C  1 -- C  2         +21.5% ( 76.8%)     98.6%
 TRANSITION DIPOLE   0.2922         C  2 -- C  6         +21.0% ( 75.9%)     55.4%
 TRAVEL (Ang.)       0.1061         C  2 -- C  4         +17.6% ( 69.5%)     14.6%
 REDUCED MASS        4.0670         C  2 -- C  5         +13.6% ( 61.0%)     21.3%
 EFFECTIVE MASS     11.2817
 FORCE CONSTANT      5.1914

 VIBRATION         29   29A           ATOM PAIR      ENERGY CONTRIBUTION    RADIAL
 FREQUENCY          1733.37         C  3 -- C  5         +27.1% ( 88.2%)    100.0%
 TRANSITION DIPOLE   0.5107         C  2 -- C  5         +11.4% ( 57.3%)     35.0%
 TRAVEL (Ang.)       0.1082         C  3 -- C  4          +9.5% ( 52.3%)     38.0%
 REDUCED MASS        3.3247         C  4 -- C  5          +8.7% ( 50.1%)     50.2%
 EFFECTIVE MASS     11.9878
 FORCE CONSTANT      5.8855

 VIBRATION         30   30A           ATOM PAIR      ENERGY CONTRIBUTION    RADIAL
 FREQUENCY          1791.19         C  2 -- C  4         +20.2% ( 73.0%)     99.1%
 TRANSITION DIPOLE   0.1483         C  2 -- C  5          +9.8% ( 50.9%)     96.7%
 TRAVEL (Ang.)       0.1303         C  4 -- C  5          +8.9% ( 48.5%)      1.0%
 REDUCED MASS        2.2185         C  6 -- C  7          +8.9% ( 48.4%)    100.0%
 EFFECTIVE MASS     11.7970
 FORCE CONSTANT      4.1936

 VIBRATION         31   31A           ATOM PAIR      ENERGY CONTRIBUTION    RADIAL
 FREQUENCY          1869.01         C  6 -- C  7         +30.3% ( 84.5%)     97.0%
 TRANSITION DIPOLE   0.4020         C  2 -- C  6         +21.1% ( 70.6%)     66.6%
 TRAVEL (Ang.)       0.0979         C  6 -- H 13         +12.3% ( 53.9%)      1.8%
 REDUCED MASS        3.7658         C  2 -- C  4          +9.1% ( 46.2%)     92.0%
 EFFECTIVE MASS     11.8389
 FORCE CONSTANT      7.7504

 VIBRATION         32   32A           ATOM PAIR      ENERGY CONTRIBUTION    RADIAL
 FREQUENCY          2982.18         C  1 -- H  8         +49.0% ( 72.4%)     96.8%
 TRANSITION DIPOLE   0.1713         C  1 -- H  9         +48.9% ( 72.4%)     96.8%
 TRAVEL (Ang.)       0.2091         C  1 -- C  3          +1.1% ( 10.7%)      0.0%
 REDUCED MASS        0.5172         C  1 -- C  2          +1.1% ( 10.7%)      0.0%
 EFFECTIVE MASS      1.5315
 FORCE CONSTANT      2.7098

 VIBRATION         33   33A           ATOM PAIR      ENERGY CONTRIBUTION    RADIAL
 FREQUENCY          3031.52         C  6 -- H 13         +96.4% ( 99.6%)    100.0%
 TRANSITION DIPOLE   0.2295         C  6 -- C  7          +1.5% ( 12.3%)     30.0%
 TRAVEL (Ang.)       0.1558         C  2 -- C  6          +1.4% ( 12.0%)     15.5%
 REDUCED MASS        0.9168         C  7 -- H 14          +0.7% (  8.5%)     93.8%
 EFFECTIVE MASS      1.5121
 FORCE CONSTANT      4.9643

 VIBRATION         34   34A           ATOM PAIR      ENERGY CONTRIBUTION    RADIAL
 FREQUENCY          3050.57         C  1 -- H  9         +49.2% ( 69.3%)     97.3%
 TRANSITION DIPOLE   0.2647         C  1 -- H  8         +49.2% ( 69.3%)     97.3%
 TRAVEL (Ang.)       0.2139         C  1 -- C  2          +0.7% (  8.5%)     38.0%
 REDUCED MASS        0.4830         C  1 -- C  3          +0.7% (  8.5%)     35.8%
 EFFECTIVE MASS      1.2867
 FORCE CONSTANT      2.6480

 VIBRATION         35   35A           ATOM PAIR      ENERGY CONTRIBUTION    RADIAL
 FREQUENCY          3132.26         C  5 -- H 12         +53.9% ( 75.3%)    100.0%
 TRANSITION DIPOLE   0.0984         C  4 -- H 11         +25.7% ( 52.0%)    100.0%
 TRAVEL (Ang.)       0.2354         C  3 -- H 10         +15.3% ( 40.2%)    100.0%
 REDUCED MASS        0.3883         C  4 -- C  5          +1.3% ( 11.6%)      1.3%
 EFFECTIVE MASS      1.5045
 FORCE CONSTANT      2.2448

 VIBRATION         36   36A           ATOM PAIR      ENERGY CONTRIBUTION    RADIAL
 FREQUENCY          3133.83         C  7 -- H 15         +96.3% ( 99.5%)    100.0%
 TRANSITION DIPOLE   0.2484         C  7 -- H 14          +1.7% ( 13.0%)     30.9%
 TRAVEL (Ang.)       0.1535         C  6 -- C  7          +1.3% ( 11.7%)     36.6%
 REDUCED MASS        0.9128         C  5 -- H 12          +0.4% (  6.8%)    100.0%
 EFFECTIVE MASS      1.5019
 FORCE CONSTANT      5.2817

 VIBRATION         37   37A           ATOM PAIR      ENERGY CONTRIBUTION    RADIAL
 FREQUENCY          3136.56         C  4 -- H 11         +63.0% ( 81.4%)    100.0%
 TRANSITION DIPOLE   0.5313         C  3 -- H 10         +24.0% ( 50.2%)    100.0%
 TRAVEL (Ang.)       0.2131         C  5 -- H 12          +8.2% ( 29.3%)     99.9%
 REDUCED MASS        0.4736         C  3 -- C  4          +1.4% ( 11.9%)     27.5%
 EFFECTIVE MASS      1.5269
 FORCE CONSTANT      2.7450

 VIBRATION         38   38A           ATOM PAIR      ENERGY CONTRIBUTION    RADIAL
 FREQUENCY          3148.45         C  7 -- H 14         +96.4% ( 99.3%)    100.0%
 TRANSITION DIPOLE   0.3222         C  6 -- C  7          +1.5% ( 12.3%)     54.5%
 TRAVEL (Ang.)       0.1537         C  7 -- H 15          +1.4% ( 11.9%)      0.3%
 REDUCED MASS        0.9065         C  6 -- H 13          +0.6% (  7.8%)     94.9%
 EFFECTIVE MASS      1.4934
 FORCE CONSTANT      5.2941

 VIBRATION         39   39A           ATOM PAIR      ENERGY CONTRIBUTION    RADIAL
 FREQUENCY          3152.56         C  3 -- H 10         +55.2% ( 76.4%)     99.9%
 TRANSITION DIPOLE   0.4420         C  5 -- H 12         +32.2% ( 58.4%)     99.9%
 TRAVEL (Ang.)       0.2211         C  4 -- H 11          +6.3% ( 25.8%)    100.0%
 REDUCED MASS        0.4374         C  3 -- C  5          +2.2% ( 15.4%)     98.6%
 EFFECTIVE MASS      1.6587
 FORCE CONSTANT      2.5614

      SYMMETRY NUMBER FOR POINT-GROUP C1  =  1


          SYSTEM IS A GROUND STATE



 InChI=1S/C7H8/c1-2-7-5-3-4-6-7/h2-5H,1,6H2


          MOLECULE IS NOT LINEAR

          THERE ARE 39 GENUINE VIBRATIONS IN THIS SYSTEM
          THIS THERMODYNAMICS CALCULATION IS LIMITED TO
          MOLECULES WHICH HAVE NO INTERNAL ROTATIONS




                    CALCULATED THERMODYNAMIC PROPERTIES
                                          *
   TEMP. (K)   PARTITION FUNCTION   H.O.F.    ENTHALPY  HEAT CAPACITY ENTROPY
                                   KCAL/MOL   CAL/MOLE    CAL/K/MOL  CAL/K/MOL


 298.00  VIB.     0.1670D+02                  2264.1472    18.2356    13.1924
         ROT.     0.1841D+06                   888.2803     2.9808    27.0720
         INT.     0.3074D+07                  3152.4275    21.2164    40.2644
         TRA.     0.8551D+27                  1480.4672     4.9680    39.4718
         TOT.                       46.447    4632.8946    26.1844    79.7361

 200.00  VIB.     0.5170D+01                   882.4962    10.1785     7.6771
         ROT.     0.1012D+06                   596.1613     2.9808    25.8833
         INT.     0.5232D+06                  1478.6575    13.1593    33.5604
         TRA.     0.4701D+27                   993.6021     4.9680    37.4906
         TOT.                       44.287    2472.2596    18.1273    71.0510

 210.00  VIB.     0.5782D+01                   987.9931    10.9251     8.1917
         ROT.     0.1089D+06                   625.9693     2.9808    26.0287
         INT.     0.6296D+06                  1613.9625    13.9059    34.2204
         TRA.     0.5058D+27                  1043.2822     4.9680    37.7330
         TOT.                       44.472    2657.2447    18.8739    71.9534

 220.00  VIB.     0.6477D+01                  1101.0789    11.6959     8.7176
         ROT.     0.1168D+06                   655.7774     2.9808    26.1674
         INT.     0.7563D+06                  1756.8563    14.6767    34.8850
         TRA.     0.5424D+27                  1092.9623     4.9680    37.9641
         TOT.                       44.664    2849.8186    19.6447    72.8491

 230.00  VIB.     0.7269D+01                  1221.9828    12.4883     9.2549
         ROT.     0.1248D+06                   685.5855     2.9808    26.2999
         INT.     0.9074D+06                  1907.5683    15.4691    35.5548
         TRA.     0.5798D+27                  1142.6424     4.9680    38.1850
         TOT.                       44.865    3050.2107    20.4371    73.7398

 240.00  VIB.     0.8173D+01                  1350.9090    13.2998     9.8035
         ROT.     0.1330D+06                   715.3935     2.9808    26.4268
         INT.     0.1087D+07                  2066.3025    16.2807    36.2303
         TRA.     0.6180D+27                  1192.3226     4.9680    38.3964
         TOT.                       45.073    3258.6251    21.2487    74.6267

 250.00  VIB.     0.9205D+01                  1488.0337    14.1276    10.3631
         ROT.     0.1414D+06                   745.2016     2.9808    26.5484
         INT.     0.1302D+07                  2233.2353    17.1084    36.9116
         TRA.     0.6570D+27                  1242.0027     4.9680    38.5992
         TOT.                       45.290    3475.2380    22.0764    75.5108

 260.00  VIB.     0.1039D+02                  1633.5045    14.9686    10.9336
         ROT.     0.1500D+06                   775.0097     2.9808    26.6654
         INT.     0.1558D+07                  2408.5141    17.9494    37.5989
         TRA.     0.6968D+27                  1291.6828     4.9680    38.7941
         TOT.                       45.515    3700.1969    22.9174    76.3930

 270.00  VIB.     0.1174D+02                  1787.4396    15.8200    11.5144
         ROT.     0.1588D+06                   804.8177     2.9808    26.7779
         INT.     0.1864D+07                  2592.2574    18.8008    38.2923
         TRA.     0.7374D+27                  1341.3629     4.9680    38.9816
         TOT.                       45.748    3933.6202    23.7688    77.2739

 280.00  VIB.     0.1329D+02                  1949.9289    16.6789    12.1053
         ROT.     0.1677D+06                   834.6258     2.9808    26.8863
         INT.     0.2229D+07                  2784.5547    19.6597    38.9915
         TRA.     0.7788D+27                  1391.0430     4.9680    39.1622
         TOT.                       45.990    4175.5977    24.6277    78.1538

 290.00  VIB.     0.1508D+02                  2121.0343    17.5428    12.7056
         ROT.     0.1767D+06                   864.4339     2.9808    26.9909
         INT.     0.2665D+07                  2985.4681    20.5236    39.6965
         TRA.     0.8209D+27                  1440.7231     4.9680    39.3366
         TOT.                       46.241    4426.1912    25.4916    79.0331

 300.00  VIB.     0.1713D+02                  2300.7917    18.4089    13.3149
         ROT.     0.1859D+06                   894.2419     2.9808    27.0919
         INT.     0.3186D+07                  3195.0336    21.3897    40.4069
         TRA.     0.8637D+27                  1490.4032     4.9680    39.5050
         TOT.                       46.500    4685.4368    26.3577    79.9119

 310.00  VIB.     0.1950D+02                  2489.2124    19.2751    13.9327
         ROT.     0.1953D+06                   924.0500     2.9808    27.1896
         INT.     0.3809D+07                  3413.2624    22.2559    41.1223
         TRA.     0.9072D+27                  1540.0833     4.9680    39.6679
         TOT.                       46.768    4953.3457    27.2239    80.7902

 320.00  VIB.     0.2224D+02                  2686.2855    20.1390    14.5583
         ROT.     0.2048D+06                   953.8580     2.9808    27.2843
         INT.     0.4555D+07                  3640.1435    23.1198    41.8426
         TRA.     0.9515D+27                  1589.7634     4.9680    39.8256
         TOT.                       47.044    5229.9069    28.0878    81.6682

 330.00  VIB.     0.2539D+02                  2891.9792    20.9989    15.1912
         ROT.     0.2145D+06                   983.6661     2.9808    27.3760
         INT.     0.5447D+07                  3875.6453    23.9797    42.5672
         TRA.     0.9964D+27                  1639.4435     4.9680    39.9785
         TOT.                       47.330    5515.0888    28.9477    82.5457

 340.00  VIB.     0.2905D+02                  3106.2436    21.8529    15.8308
         ROT.     0.2243D+06                  1013.4742     2.9808    27.4650
         INT.     0.6517D+07                  4119.7178    24.8337    43.2958
         TRA.     0.1042D+28                  1689.1236     4.9680    40.1268
         TOT.                       47.623    5808.8414    29.8017    83.4226

 350.00  VIB.     0.3328D+02                  3329.0125    22.6995    16.4765
         ROT.     0.2343D+06                  1043.2822     2.9808    27.5514
         INT.     0.7798D+07                  4372.2947    25.6803    44.0279
         TRA.     0.1088D+28                  1738.8037     4.9680    40.2708
         TOT.                       47.926    6111.0985    30.6484    84.2987

 360.00  VIB.     0.3818D+02                  3560.2053    23.5375    17.1277
         ROT.     0.2444D+06                  1073.0903     2.9808    27.6354
         INT.     0.9333D+07                  4633.2956    26.5183    44.7631
         TRA.     0.1135D+28                  1788.4838     4.9680    40.4108
         TOT.                       48.236    6421.7795    31.4863    85.1739

 370.00  VIB.     0.4388D+02                  3799.7292    24.3656    17.7839
         ROT.     0.2547D+06                  1102.8984     2.9808    27.7170
         INT.     0.1117D+08                  4902.6276    27.3464    45.5010
         TRA.     0.1183D+28                  1838.1639     4.9680    40.5469
         TOT.                       48.555    6740.7915    32.3144    86.0479

 380.00  VIB.     0.5049D+02                  4047.4807    25.1828    18.4446
         ROT.     0.2651D+06                  1132.7064     2.9808    27.7965
         INT.     0.1338D+08                  5180.1871    28.1637    46.2411
         TRA.     0.1231D+28                  1887.8440     4.9680    40.6794
         TOT.                       48.882    7068.0311    33.1317    86.9205

 390.00  VIB.     0.5818D+02                  4303.3473    25.9885    19.1092
         ROT.     0.2756D+06                  1162.5145     2.9808    27.8740
         INT.     0.1603D+08                  5465.8618    28.9693    46.9831
         TRA.     0.1280D+28                  1937.5242     4.9680    40.8084
         TOT.                       49.218    7403.3860    33.9373    87.7916

 400.00  VIB.     0.6712D+02                  4567.2096    26.7819    19.7772
         ROT.     0.2863D+06                  1192.3226     2.9808    27.9494
         INT.     0.1921D+08                  5759.5321    29.7627    47.7266
         TRA.     0.1330D+28                  1987.2043     4.9680    40.9342
         TOT.                       49.561    7746.7364    34.7307    88.6608

   *: NOTE: HEATS OF FORMATION ARE RELATIVE TO THE
            ELEMENTS IN THEIR STANDARD STATE AT 298K
              (=  Standard Enthalpy of Formation).

            Hvib:  Zero-point energy is not included.
                   frequencies of less than zero cm-1 are not included.
            Hrot = (3/2)RT
            Htra = (3/2)RT + pV = (5/2)RT

            Heat capacity is Cp, not Cv

          For more information, see: HTTP://OpenMOPAC.net/Manual/thermochemistry.html


           FORCE CONSTANT IN CARTESIAN COORDINATES (Millidynes/A)

    ATOM   CHEMICAL       X               Y               Z
   NUMBER   SYMBOL  FORCE CONSTANT  FORCE CONSTANT  FORCE CONSTANT

      1       C        8.441830        9.243207        7.786929
      2       C       10.072190       15.529286        2.530260
      3       C       14.825853        9.535424        2.320180
      4       C       12.493402       12.474708        2.202150
      5       C       11.493743       13.620864        2.206480
      6       C       10.360144       15.060122        2.209212
      7       C        9.761395       14.549116        1.921800
      8       H        1.199306        1.515578        3.554649
      9       H        1.199873        1.517440        3.552938
     10       H        4.881136        1.244206        0.332632
     11       H        4.947440        1.150298        0.342701
     12       H        0.733980        5.369771        0.349368
     13       H        4.942754        0.866633        0.353746
     14       H        2.365973        3.774932        0.327221
     15       H        5.216780        0.894411        0.333136

 **********************
 *                    *
 * JOB ENDED NORMALLY *
 *                    *
 **********************



 TOTAL JOB TIME:             1.02 SECONDS

 == MOPAC DONE ==
