 *******************************************************************************
 **                                                                           **
 **                              MOPAC v23.1.2                                **
 **                                                                           **
 *******************************************************************************
 **          Digital Object Identifier (DOI): 10.5281/zenodo.6511958          **
 **    Visit the DOI location for information on how to cite this program.    **
 *******************************************************************************

                              PM3 CALCULATION RESULTS

 *******************************************************************************
 *  CALCULATION DONE: (MAX THREADS = 1)              Tue Jun  3 16:30:59 2025  *
 *  PM3        - The PM3 Hamiltonian to be used
 *  PRECISE    - TIGHTER CRITERIA TO BE USED
 *  NOSYM      - POINT-GROUP SYMMETRY SET TO C1
 *  THREADS=1  - MULTI-THREADING NOT USED
 *  T=         - A TIME OF 172800.0 SECONDS REQUESTED
 *  DUMP=N     - RESTART FILE WRITTEN EVERY 7200.0 SECONDS REQUESTED
 *******************************************************************************
pm3  precise nosym THREADS=1
 InChI=1S/C10H10/c1-2-3-7-10-8-5-4-6-9-10/h1,4-6,8-9H,3,7H2

   ATOM   CHEMICAL          X               Y               Z
  NUMBER   SYMBOL      (ANGSTROMS)     (ANGSTROMS)     (ANGSTROMS)

     1       C          1.01290000  *  -0.74230000  *   0.02530000  *
     2       C          1.90080000  *   0.50290000  *   0.06790000  *
     3       C         -0.44130000  *  -0.35530000  *   0.06740000  *
     4       C         -1.13920000  *  -0.08990000  *  -1.12290000  *
     5       C         -1.09870000  *  -0.20170000  *   1.29970000  *
     6       C         -2.48140000  *   0.30040000  *  -1.08010000  *
     7       C         -2.44100000  *   0.18880000  *   1.33790000  *
     8       C         -3.13230000  *   0.43770000  *   0.14900000  *
     9       C          3.31750000  *   0.12410000  *   0.02670000  *
    10       C          4.48190000  *  -0.18660000  *  -0.00710000  *
    11       H          1.25050000  *  -1.40360000  *   0.88820000  *
    12       H          1.22060000  *  -1.32100000  *  -0.90240000  *
    13       H          1.68100000  *   1.15680000  *  -0.80320000  *
    14       H          1.71120000  *   1.07340000  *   1.00230000  *
    15       H         -0.64380000  *  -0.18380000  *  -2.08140000  *
    16       H         -0.57180000  *  -0.38280000  *   2.22850000  *
    17       H         -3.01590000  *   0.49980000  *  -1.99990000  *
    18       H         -2.94420000  *   0.30180000  *   2.28940000  *
    19       H         -4.17080000  *   0.74110000  *   0.18040000  *
    20       H          5.50390000  *  -0.45960000  *  -0.03670000  *



          CARTESIAN COORDINATES 

    NO.       ATOM           X           Y           Z

     1         C          1.0129     -0.7423      0.0253
     2         C          1.9008      0.5029      0.0679
     3         C         -0.4413     -0.3553      0.0674
     4         C         -1.1392     -0.0899     -1.1229
     5         C         -1.0987     -0.2017      1.2997
     6         C         -2.4814      0.3004     -1.0801
     7         C         -2.4410      0.1888      1.3379
     8         C         -3.1323      0.4377      0.1490
     9         C          3.3175      0.1241      0.0267
    10         C          4.4819     -0.1866     -0.0071
    11         H          1.2505     -1.4036      0.8882
    12         H          1.2206     -1.3210     -0.9024
    13         H          1.6810      1.1568     -0.8032
    14         H          1.7112      1.0734      1.0023
    15         H         -0.6438     -0.1838     -2.0814
    16         H         -0.5718     -0.3828      2.2285
    17         H         -3.0159      0.4998     -1.9999
    18         H         -2.9442      0.3018      2.2894
    19         H         -4.1708      0.7411      0.1804
    20         H          5.5039     -0.4596     -0.0367

  H: (PM3): J. J. P. STEWART, J. COMP. CHEM. 10, 209 (1989).
  C: (PM3): J. J. P. STEWART, J. COMP. CHEM. 10, 209 (1989).

           Empirical Formula: C10 H10  =    20 atoms



      MOLECULAR POINT GROUP   :   C1  


      RHF CALCULATION, NO. OF DOUBLY OCCUPIED LEVELS = 25


          Geometry optimization using EF

          DIAGONAL MATRIX USED AS START HESSIAN

 CYCLE:     1 TIME:   0.004 TIME LEFT:  2.00D  GRAD.:    74.446 HEAT:  64.77082
 CYCLE:     2 TIME:   0.016 TIME LEFT:  2.00D  GRAD.:    91.132 HEAT:  64.49203
 CYCLE:     3 TIME:   0.008 TIME LEFT:  2.00D  GRAD.:    95.919 HEAT:  64.43112
 CYCLE:     4 TIME:   0.008 TIME LEFT:  2.00D  GRAD.:    22.131 HEAT:  63.49174
 CYCLE:     5 TIME:   0.012 TIME LEFT:  2.00D  GRAD.:    17.105 HEAT:  63.39366
 CYCLE:     6 TIME:   0.004 TIME LEFT:  2.00D  GRAD.:    17.349 HEAT:  63.36478
 CYCLE:     7 TIME:   0.008 TIME LEFT:  2.00D  GRAD.:    10.596 HEAT:  63.31058
 CYCLE:     8 TIME:   0.012 TIME LEFT:  2.00D  GRAD.:     8.574 HEAT:  63.28698
 CYCLE:     9 TIME:   0.008 TIME LEFT:  2.00D  GRAD.:     7.297 HEAT:  63.26948
 CYCLE:    10 TIME:   0.008 TIME LEFT:  2.00D  GRAD.:     6.357 HEAT:  63.25752
 CYCLE:    11 TIME:   0.004 TIME LEFT:  2.00D  GRAD.:     6.146 HEAT:  63.24486
 CYCLE:    12 TIME:   0.008 TIME LEFT:  2.00D  GRAD.:     3.670 HEAT:  63.22325
 CYCLE:    13 TIME:   0.012 TIME LEFT:  2.00D  GRAD.:     5.519 HEAT:  63.21665
 CYCLE:    14 TIME:   0.012 TIME LEFT:  2.00D  GRAD.:     5.004 HEAT:  63.21214
 CYCLE:    15 TIME:   0.008 TIME LEFT:  2.00D  GRAD.:     4.000 HEAT:  63.20898
 CYCLE:    16 TIME:   0.008 TIME LEFT:  2.00D  GRAD.:     2.309 HEAT:  63.20389
 CYCLE:    17 TIME:   0.008 TIME LEFT:  2.00D  GRAD.:     4.724 HEAT:  63.20721
 CYCLE:    18 TIME:   0.008 TIME LEFT:  2.00D  GRAD.:     4.973 HEAT:  63.20714
 CYCLE:    19 TIME:   0.008 TIME LEFT:  2.00D  GRAD.:     2.686 HEAT:  63.20202
 CYCLE:    20 TIME:   0.008 TIME LEFT:  2.00D  GRAD.:     1.231 HEAT:  63.20024
 CYCLE:    21 TIME:   0.008 TIME LEFT:  2.00D  GRAD.:     1.790 HEAT:  63.20028
 CYCLE:    22 TIME:   0.004 TIME LEFT:  2.00D  GRAD.:     1.147 HEAT:  63.19938
 CYCLE:    23 TIME:   0.008 TIME LEFT:  2.00D  GRAD.:     2.761 HEAT:  63.20093
 CYCLE:    24 TIME:   0.004 TIME LEFT:  2.00D  GRAD.:     1.191 HEAT:  63.19884
 CYCLE:    25 TIME:   0.008 TIME LEFT:  2.00D  GRAD.:     4.043 HEAT:  63.20356
 CYCLE:    26 TIME:   0.008 TIME LEFT:  2.00D  GRAD.:     0.533 HEAT:  63.19814
 CYCLE:    27 TIME:   0.008 TIME LEFT:  2.00D  GRAD.:     0.881 HEAT:  63.19807
 CYCLE:    28 TIME:   0.004 TIME LEFT:  2.00D  GRAD.:     0.459 HEAT:  63.19773
 CYCLE:    29 TIME:   0.008 TIME LEFT:  2.00D  GRAD.:     0.648 HEAT:  63.19745
 CYCLE:    30 TIME:   0.004 TIME LEFT:  2.00D  GRAD.:     0.316 HEAT:  63.19720
 CYCLE:    31 TIME:   0.008 TIME LEFT:  2.00D  GRAD.:     0.238 HEAT:  63.19702
 CYCLE:    32 TIME:   0.004 TIME LEFT:  2.00D  GRAD.:     0.249 HEAT:  63.19689
 CYCLE:    33 TIME:   0.008 TIME LEFT:  2.00D  GRAD.:     0.183 HEAT:  63.19682
 CYCLE:    34 TIME:   0.004 TIME LEFT:  2.00D  GRAD.:     0.127 HEAT:  63.19678
 CYCLE:    35 TIME:   0.008 TIME LEFT:  2.00D  GRAD.:     0.119 HEAT:  63.19675
 CYCLE:    36 TIME:   0.004 TIME LEFT:  2.00D  GRAD.:     0.105 HEAT:  63.19673
 CYCLE:    37 TIME:   0.008 TIME LEFT:  2.00D  GRAD.:     0.059 HEAT:  63.19671
 CYCLE:    38 TIME:   0.004 TIME LEFT:  2.00D  GRAD.:     0.038 HEAT:  63.19670

     GRADIENT =  0.03845 IS LESS THAN CUTOFF =  0.05000



 -------------------------------------------------------------------------------
 pm3  precise nosym THREADS=1
 InChI=1S/C10H10/c1-2-3-7-10-8-5-4-6-9-10/h1,4-6,8-9H,3,7H2



     GEOMETRY OPTIMISED USING EIGENVECTOR FOLLOWING (EF).     
     SCF FIELD WAS ACHIEVED                                   


                              PM3 CALCULATION
                                                       MOPAC v23.1.2 MacOS
                                                       Tue Jun  3 16:30:59 2025




          FINAL HEAT OF FORMATION =         63.19670 KCAL/MOL =     264.41501 KJ/MOL


          COSMO AREA              =        186.81 SQUARE ANGSTROMS
          COSMO VOLUME            =        184.76 CUBIC ANGSTROMS

          GRADIENT NORM           =          0.03845          =       0.00860 PER ATOM
          IONIZATION POTENTIAL    =          9.603477 EV
          HOMO LUMO ENERGIES (EV) =         -9.603  0.267
          NO. OF FILLED LEVELS    =         25
          MOLECULAR WEIGHT        =        130.1890         POINT GROUP:  C1  

          MOLECULAR DIMENSIONS (Angstroms)

            Atom       Atom       Distance
            H    20    H    19     9.72316
            H    18    H    15     4.32518
            H    13    H    11     2.68422


          SCF CALCULATIONS        =         49

          WALL-CLOCK TIME         =      0.297 SECONDS
          COMPUTATION TIME        =      0.197 SECONDS




   ATOM   CHEMICAL          X               Y               Z
  NUMBER   SYMBOL      (ANGSTROMS)     (ANGSTROMS)     (ANGSTROMS)

     1       C          1.00070280  *  -0.73969109  *   0.02548302  *
     2       C          1.90590597  *   0.48982010  *   0.06728179  *
     3       C         -0.43647921  *  -0.33220805  *   0.06835534  *
     4       C         -1.13198060  *  -0.08400663  *  -1.11597861  *
     5       C         -1.09160929  *  -0.19509461  *   1.29309206  *
     6       C         -2.46844690  *   0.29657530  *  -1.07399613  *
     7       C         -2.42814526  *   0.18567801  *   1.33101042  *
     8       C         -3.11788509  *   0.43183400  *   0.14852103  *
     9       C          3.29636482  *   0.11843147  *   0.02687679  *
    10       C          4.44880827  *  -0.18167329  *  -0.00625480  *
    11       H          1.23206459  *  -1.41251208  *   0.87496138  *
    12       H          1.20257881  *  -1.33082432  *  -0.88974272  *
    13       H          1.68728003  *   1.16268650  *  -0.78634555  *
    14       H          1.71684998  *   1.08064715  *   0.98619603  *
    15       H         -0.62161017  *  -0.19074950  *  -2.07993139  *
    16       H         -0.54945512  *  -0.38928423  *   2.22553129  *
    17       H         -3.01008560  *   0.48914320  *  -2.00579018  *
    18       H         -2.93804019  *   0.29087272  *   2.29415282  *
    19       H         -4.17053901  *   0.73070354  *   0.17994960  *
    20       H          5.47843821  *  -0.44850696  *  -0.03582117  *

                             CARTESIAN COORDINATES

   1    C        1.000702803    -0.739691094     0.025483023
   2    C        1.905905972     0.489820096     0.067281792
   3    C       -0.436479205    -0.332208048     0.068355340
   4    C       -1.131980602    -0.084006633    -1.115978606
   5    C       -1.091609286    -0.195094606     1.293092058
   6    C       -2.468446901     0.296575295    -1.073996129
   7    C       -2.428145260     0.185678006     1.331010425
   8    C       -3.117885086     0.431834004     0.148521026
   9    C        3.296364821     0.118431469     0.026876792
  10    C        4.448808272    -0.181673294    -0.006254802
  11    H        1.232064587    -1.412512082     0.874961378
  12    H        1.202578806    -1.330824316    -0.889742719
  13    H        1.687280027     1.162686504    -0.786345553
  14    H        1.716849981     1.080647150     0.986196028
  15    H       -0.621610174    -0.190749504    -2.079931391
  16    H       -0.549455123    -0.389284228     2.225531291
  17    H       -3.010085601     0.489143205    -2.005790183
  18    H       -2.938040190     0.290872717     2.294152822
  19    H       -4.170539015     0.730703543     0.179949602
  20    H        5.478438214    -0.448506963    -0.035821172


           Empirical Formula: C10 H10  =    20 atoms



      MOLECULAR POINT GROUP   :   C1  


                  EIGENVALUES  
 -40.45545 -35.79770 -30.93643 -29.69035 -27.37298 -23.50241 -21.70960 -20.45967
 -18.25661 -17.88385 -16.81140 -16.25519 -15.26962 -15.08148 -14.75728 -14.62922
 -13.88104 -13.01029 -12.67513 -12.51884 -12.18192 -11.12427 -10.80047  -9.79874
  -9.60348   0.26684   0.36057   1.84459   1.89520   2.65951   2.81504   3.14944
   3.39572   3.40550   3.56459   3.70693   3.76906   3.91698   4.01801   4.10097
   4.53567   4.58983   4.62332   4.98588   5.10714   5.23170   5.25106   6.09205
   6.29312   6.65928


              NET ATOMIC CHARGES AND DIPOLE CONTRIBUTIONS

  ATOM NO.   TYPE          CHARGE      No. of ELECS.   s-Pop       p-Pop       
    1          C          -0.053569        4.0536     1.14815     2.90542
    2          C           0.048352        3.9516     1.11559     2.83606
    3          C          -0.083824        4.0838     1.18370     2.90013
    4          C          -0.098077        4.0981     1.17889     2.91919
    5          C          -0.098078        4.0981     1.17889     2.91919
    6          C          -0.099689        4.0997     1.17899     2.92070
    7          C          -0.099689        4.0997     1.17899     2.92070
    8          C          -0.103739        4.1037     1.17941     2.92433
    9          C          -0.187519        4.1875     1.21326     2.97426
   10          C          -0.186857        4.1869     1.21074     2.97612
   11          H           0.060616        0.9394     0.93938
   12          H           0.060615        0.9394     0.93938
   13          H           0.062157        0.9378     0.93784
   14          H           0.062158        0.9378     0.93784
   15          H           0.106370        0.8936     0.89363
   16          H           0.106371        0.8936     0.89363
   17          H           0.102773        0.8972     0.89723
   18          H           0.102773        0.8972     0.89723
   19          H           0.102993        0.8970     0.89701
   20          H           0.195864        0.8041     0.80414
 DIPOLE           X         Y         Z       TOTAL
 POINT-CHG.    -0.374     0.079     0.010     0.382
 HYBRID         0.168    -0.025    -0.004     0.170
 SUM           -0.206     0.054     0.006     0.213


          ATOMIC ORBITAL ELECTRON POPULATIONS

     Atom    s        px        py        pz   
    1  C   1.14815   0.91229   0.96486   1.02827
    2  C   1.11559   0.85828   0.96198   1.01579
    3  C   1.18370   0.95566   0.99765   0.94682
    4  C   1.17889   0.95284   0.99914   0.96721
    5  C   1.17889   0.95435   1.00056   0.96428
    6  C   1.17899   0.95367   0.99583   0.97120
    7  C   1.17899   0.95250   0.99489   0.97331
    8  C   1.17941   0.98399   0.99999   0.94035
    9  C   1.21326   0.96472   1.00598   1.00356
   10  C   1.21074   0.95993   1.00019   1.01600
   11  H   0.93938
   12  H   0.93938
   13  H   0.93784
   14  H   0.93784
   15  H   0.89363
   16  H   0.89363
   17  H   0.89723
   18  H   0.89723
   19  H   0.89701
   20  H   0.80414
 *******************************************************************************
 **                                                                           **
 **                              MOPAC v23.1.2                                **
 **                                                                           **
 *******************************************************************************
 **          Digital Object Identifier (DOI): 10.5281/zenodo.6511958          **
 **    Visit the DOI location for information on how to cite this program.    **
 *******************************************************************************

                              PM3 CALCULATION RESULTS

 *******************************************************************************
 *  CALCULATION DONE: (MAX THREADS = 1)              Tue Jun  3 16:30:59 2025  *
 *  PM3        - The PM3 Hamiltonian to be used
 *  OLDGEO     - PREVIOUS GEOMETRY TO BE USED
 *  PRECISE    - TIGHTER CRITERIA TO BE USED
 *  NOSYM      - POINT-GROUP SYMMETRY SET TO C1
 *  THREADS=1  - MULTI-THREADING NOT USED
 *  T=         - A TIME OF 172800.0 SECONDS REQUESTED
 *  DUMP=N     - RESTART FILE WRITTEN EVERY 7200.0 SECONDS REQUESTED
 *  THERMO     - THERMODYNAMIC QUANTITIES TO BE CALCULATED
 *******************************************************************************
oldgeo thermo nosym precise THREADS=1  pm3
 InChI=1S/C10H10/c1-2-3-7-10-8-5-4-6-9-10/h1,4-6,8-9H,3,7H2

   ATOM   CHEMICAL          X               Y               Z
  NUMBER   SYMBOL      (ANGSTROMS)     (ANGSTROMS)     (ANGSTROMS)

     1       C          1.00070280  *  -0.73969109  *   0.02548302  *
     2       C          1.90590597  *   0.48982010  *   0.06728179  *
     3       C         -0.43647921  *  -0.33220805  *   0.06835534  *
     4       C         -1.13198060  *  -0.08400663  *  -1.11597861  *
     5       C         -1.09160929  *  -0.19509461  *   1.29309206  *
     6       C         -2.46844690  *   0.29657530  *  -1.07399613  *
     7       C         -2.42814526  *   0.18567801  *   1.33101042  *
     8       C         -3.11788509  *   0.43183400  *   0.14852103  *
     9       C          3.29636482  *   0.11843147  *   0.02687679  *
    10       C          4.44880827  *  -0.18167329  *  -0.00625480  *
    11       H          1.23206459  *  -1.41251208  *   0.87496138  *
    12       H          1.20257881  *  -1.33082432  *  -0.88974272  *
    13       H          1.68728003  *   1.16268650  *  -0.78634555  *
    14       H          1.71684998  *   1.08064715  *   0.98619603  *
    15       H         -0.62161017  *  -0.19074950  *  -2.07993139  *
    16       H         -0.54945512  *  -0.38928423  *   2.22553129  *
    17       H         -3.01008560  *   0.48914320  *  -2.00579018  *
    18       H         -2.93804019  *   0.29087272  *   2.29415282  *
    19       H         -4.17053901  *   0.73070354  *   0.17994960  *
    20       H          5.47843821  *  -0.44850696  *  -0.03582117  *



          CARTESIAN COORDINATES 

    NO.       ATOM           X           Y           Z

     1         C          1.0007     -0.7397      0.0255
     2         C          1.9059      0.4898      0.0673
     3         C         -0.4365     -0.3322      0.0684
     4         C         -1.1320     -0.0840     -1.1160
     5         C         -1.0916     -0.1951      1.2931
     6         C         -2.4684      0.2966     -1.0740
     7         C         -2.4281      0.1857      1.3310
     8         C         -3.1179      0.4318      0.1485
     9         C          3.2964      0.1184      0.0269
    10         C          4.4488     -0.1817     -0.0063
    11         H          1.2321     -1.4125      0.8750
    12         H          1.2026     -1.3308     -0.8897
    13         H          1.6873      1.1627     -0.7863
    14         H          1.7168      1.0806      0.9862
    15         H         -0.6216     -0.1907     -2.0799
    16         H         -0.5495     -0.3893      2.2255
    17         H         -3.0101      0.4891     -2.0058
    18         H         -2.9380      0.2909      2.2942
    19         H         -4.1705      0.7307      0.1799
    20         H          5.4784     -0.4485     -0.0358

  H: (PM3): J. J. P. STEWART, J. COMP. CHEM. 10, 209 (1989).
  C: (PM3): J. J. P. STEWART, J. COMP. CHEM. 10, 209 (1989).

           Empirical Formula: C10 H10  =    20 atoms



      MOLECULAR POINT GROUP   :   C1  


      RHF CALCULATION, NO. OF DOUBLY OCCUPIED LEVELS = 25



          HEAT OF FORMATION =      63.196704 KCALS/MOLE


          CARTESIAN COORDINATE DERIVATIVES

   NUMBER  ATOM         X            Y            Z

     1       C     -0.006170     0.004793     0.000220
     2       C     -0.008450    -0.000614     0.002983
     3       C     -0.008018     0.002568    -0.001352
     4       C      0.001160     0.001536    -0.002546
     5       C      0.001868    -0.000935     0.000896
     6       C     -0.000533    -0.000762    -0.003139
     7       C     -0.001125     0.001300     0.002320
     8       C      0.014836    -0.002894    -0.001062
     9       C     -0.013586    -0.003490    -0.001856
    10       C      0.002055    -0.007235     0.002082
    11       H      0.008522     0.002488    -0.002113
    12       H      0.007206     0.003695     0.001736
    13       H     -0.003912    -0.003143    -0.000644
    14       H     -0.005085    -0.002574    -0.000931
    15       H      0.006587     0.002729     0.004946
    16       H      0.006977     0.001751    -0.002719
    17       H     -0.008542    -0.000506     0.000932
    18       H     -0.009347     0.001779     0.000526
    19       H      0.001663    -0.000888     0.000856
    20       H      0.013894     0.000401    -0.001137



          GRADIENT NORM =   0.03806

          MOLECULAR WEIGHT =  130.19



          ROTATIONAL CONSTANTS IN CM(-1)

          A =    0.14904734   B =    0.02068241   C =    0.01904360



           PRINCIPAL MOMENTS OF INERTIA IN UNITS OF 10**(-40)*GRAM-CM**2

          A =      187.8111   B =     1353.4568   C =     1469.9299


          ORIENTATION OF MOLECULE IN FORCE CALCULATION

    NO.       ATOM         X         Y         Z

     1          C      -0.0018   -1.2463   -0.0000
     2          C       1.5256   -1.2463   -0.0000
     3          C      -0.5243    0.1538   -0.0000
     4          C      -0.7691    0.8123   -1.2060
     5          C      -0.7687    0.8125    1.2060
     6          C      -1.2537    2.1154   -1.2040
     7          C      -1.2533    2.1155    1.2039
     8          C      -1.4962    2.7683   -0.0000
     9          C       2.0496   -2.5873    0.0000
    10          C       2.4901   -3.6943    0.0000
    11          H      -0.3830   -1.7959    0.8834
    12          H      -0.3830   -1.7959   -0.8834
    13          H       1.9143   -0.7071   -0.8874
    14          H       1.9143   -0.7071    0.8873
    15          H      -0.5790    0.2988   -2.1553
    16          H      -0.5782    0.2991    2.1553
    17          H      -1.4452    2.6274   -2.1526
    18          H      -1.4444    2.6277    2.1526
    19          H      -1.8787    3.7940    0.0000
    20          H       2.8847   -4.6824    0.0000


    FIRST DERIVATIVES WILL BE USED IN THE CALCULATION OF SECOND DERIVATIVES

          ESTIMATED TIME TO COMPLETE CALCULATION =        0.94 SECONDS

    FOR POINT-GROUP C1   THERE ARE   1 UNIQUE SYMMETRY FUNCTIONS.

 STEP:   1 TIME =     0.02 SECS, INTEGRAL =      0.02 TIME LEFT: 172799.98
 STEP:   2 TIME =     0.02 SECS, INTEGRAL =      0.04 TIME LEFT: 172799.96
 STEP:   3 TIME =     0.02 SECS, INTEGRAL =      0.06 TIME LEFT: 172799.93
 STEP:   4 TIME =     0.02 SECS, INTEGRAL =      0.08 TIME LEFT: 172799.91
 STEP:   5 TIME =     0.02 SECS, INTEGRAL =      0.10 TIME LEFT: 172799.89
 STEP:   6 TIME =     0.02 SECS, INTEGRAL =      0.12 TIME LEFT: 172799.88
 STEP:   7 TIME =     0.02 SECS, INTEGRAL =      0.14 TIME LEFT: 172799.85
 STEP:   8 TIME =     0.02 SECS, INTEGRAL =      0.16 TIME LEFT: 172799.83
 STEP:   9 TIME =     0.03 SECS, INTEGRAL =      0.19 TIME LEFT: 172799.80
 STEP:  10 TIME =     0.02 SECS, INTEGRAL =      0.21 TIME LEFT: 172799.78
 STEP:  11 TIME =     0.02 SECS, INTEGRAL =      0.24 TIME LEFT: 172799.76
 STEP:  12 TIME =     0.02 SECS, INTEGRAL =      0.26 TIME LEFT: 172799.73
 STEP:  13 TIME =     0.02 SECS, INTEGRAL =      0.28 TIME LEFT: 172799.71
 STEP:  14 TIME =     0.02 SECS, INTEGRAL =      0.30 TIME LEFT: 172799.69
 STEP:  15 TIME =     0.02 SECS, INTEGRAL =      0.32 TIME LEFT: 172799.67
 STEP:  16 TIME =     0.02 SECS, INTEGRAL =      0.34 TIME LEFT: 172799.65
 STEP:  17 TIME =     0.02 SECS, INTEGRAL =      0.37 TIME LEFT: 172799.63
 STEP:  18 TIME =     0.02 SECS, INTEGRAL =      0.39 TIME LEFT: 172799.61
 STEP:  19 TIME =     0.02 SECS, INTEGRAL =      0.41 TIME LEFT: 172799.58
 STEP:  20 TIME =     0.02 SECS, INTEGRAL =      0.44 TIME LEFT: 172799.56
 STEP:  21 TIME =     0.02 SECS, INTEGRAL =      0.46 TIME LEFT: 172799.54
 STEP:  22 TIME =     0.02 SECS, INTEGRAL =      0.48 TIME LEFT: 172799.51
 STEP:  23 TIME =     0.02 SECS, INTEGRAL =      0.50 TIME LEFT: 172799.49
 STEP:  24 TIME =     0.03 SECS, INTEGRAL =      0.53 TIME LEFT: 172799.46
 STEP:  25 TIME =     0.02 SECS, INTEGRAL =      0.55 TIME LEFT: 172799.44
 STEP:  26 TIME =     0.02 SECS, INTEGRAL =      0.57 TIME LEFT: 172799.42
 STEP:  27 TIME =     0.02 SECS, INTEGRAL =      0.60 TIME LEFT: 172799.40
 STEP:  28 TIME =     0.02 SECS, INTEGRAL =      0.62 TIME LEFT: 172799.38
 STEP:  29 TIME =     0.02 SECS, INTEGRAL =      0.64 TIME LEFT: 172799.36
 STEP:  30 TIME =     0.02 SECS, INTEGRAL =      0.66 TIME LEFT: 172799.33
 STEP:  31 TIME =     0.02 SECS, INTEGRAL =      0.68 TIME LEFT: 172799.31
 STEP:  32 TIME =     0.02 SECS, INTEGRAL =      0.70 TIME LEFT: 172799.29
 STEP:  33 TIME =     0.02 SECS, INTEGRAL =      0.72 TIME LEFT: 172799.27
 STEP:  34 TIME =     0.02 SECS, INTEGRAL =      0.74 TIME LEFT: 172799.25
 STEP:  35 TIME =     0.02 SECS, INTEGRAL =      0.76 TIME LEFT: 172799.23
 STEP:  36 TIME =     0.02 SECS, INTEGRAL =      0.78 TIME LEFT: 172799.21
 STEP:  37 TIME =     0.02 SECS, INTEGRAL =      0.80 TIME LEFT: 172799.20
 STEP:  38 TIME =     0.02 SECS, INTEGRAL =      0.82 TIME LEFT: 172799.18
 STEP:  39 TIME =     0.02 SECS, INTEGRAL =      0.84 TIME LEFT: 172799.16
 STEP:  40 TIME =     0.02 SECS, INTEGRAL =      0.86 TIME LEFT: 172799.14
 STEP:  41 TIME =     0.02 SECS, INTEGRAL =      0.88 TIME LEFT: 172799.12
 STEP:  42 TIME =     0.02 SECS, INTEGRAL =      0.89 TIME LEFT: 172799.10
 STEP:  43 TIME =     0.02 SECS, INTEGRAL =      0.91 TIME LEFT: 172799.08
 STEP:  44 TIME =     0.02 SECS, INTEGRAL =      0.93 TIME LEFT: 172799.06
 STEP:  45 TIME =     0.02 SECS, INTEGRAL =      0.95 TIME LEFT: 172799.05
 STEP:  46 TIME =     0.02 SECS, INTEGRAL =      0.97 TIME LEFT: 172799.02
 STEP:  47 TIME =     0.02 SECS, INTEGRAL =      0.99 TIME LEFT: 172799.00
 STEP:  48 TIME =     0.02 SECS, INTEGRAL =      1.01 TIME LEFT: 172798.98
 STEP:  49 TIME =     0.02 SECS, INTEGRAL =      1.04 TIME LEFT: 172798.96
 STEP:  50 TIME =     0.02 SECS, INTEGRAL =      1.05 TIME LEFT: 172798.94
 STEP:  51 TIME =     0.02 SECS, INTEGRAL =      1.07 TIME LEFT: 172798.92
 STEP:  52 TIME =     0.02 SECS, INTEGRAL =      1.10 TIME LEFT: 172798.90
 STEP:  53 TIME =     0.02 SECS, INTEGRAL =      1.12 TIME LEFT: 172798.88
 STEP:  54 TIME =     0.02 SECS, INTEGRAL =      1.14 TIME LEFT: 172798.86
 STEP:  55 TIME =     0.02 SECS, INTEGRAL =      1.16 TIME LEFT: 172798.84
 STEP:  56 TIME =     0.02 SECS, INTEGRAL =      1.18 TIME LEFT: 172798.82
 STEP:  57 TIME =     0.02 SECS, INTEGRAL =      1.20 TIME LEFT: 172798.79
 STEP:  58 TIME =     0.02 SECS, INTEGRAL =      1.22 TIME LEFT: 172798.77
 STEP:  59 TIME =     0.02 SECS, INTEGRAL =      1.24 TIME LEFT: 172798.75
 STEP:  60 TIME =     0.02 SECS, INTEGRAL =      1.26 TIME LEFT: 172798.73

(To convert to Hartree/Bohr^2, multiply by (10^(-21) x N x a0^2)/(4.184 x 627.51) =  0.0642)


           FORCE MATRIX IN MILLIDYNES/ANGSTROM


                  C  1       C  2       C  3       C  4       C  5       C  6
 ------------------------------------------------------------------------------
     C    1  14.624568
     C    2   3.930771  15.091734
     C    3   4.738870   0.682520  17.550077
     C    4   0.704649   0.033659   6.768121  17.334969
     C    5   0.704643   0.033674   6.767960   2.438990  17.334680
     C    6   0.096746   0.013367   2.506605   7.013362   1.855031  17.277058
     C    7   0.096743   0.013365   2.506472   1.854790   7.013330   2.529820
     C    8   0.012453   0.004081   1.890696   2.535799   2.535865   7.006141
     C    9   0.774297   6.430817   0.060236   0.005856   0.005946   0.002907
     C   10   0.037549   0.533180   0.008831   0.001997   0.001997   0.000578
     H   11   4.466701   0.449877   0.442368   0.040123   0.045677   0.010106
     H   12   4.466693   0.449876   0.442375   0.045696   0.040132   0.004866
     H   13   0.446986   4.427057   0.024059   0.004422   0.001781   0.000929
     H   14   0.446985   4.427102   0.024067   0.001780   0.004425   0.000609
     H   15   0.046145   0.008805   0.449900   4.827877   0.084403   0.438164
     H   16   0.046142   0.008809   0.449894   0.084399   4.827801   0.010899
     H   17   0.008024   0.001127   0.092458   0.438012   0.010866   4.862829
     H   18   0.008035   0.001135   0.092485   0.010944   0.438059   0.090243
     H   19   0.009094   0.001360   0.008974   0.089418   0.089418   0.439996
     H   20   0.008006   0.070428   0.002095   0.001158   0.001164   0.000252


                  C  7       C  8       C  9       C 10       H 11       H 12
 ------------------------------------------------------------------------------
     C    7  17.277034
     C    8   7.006195  17.248411
     C    9   0.002924   0.001475  24.952349
     C   10   0.000578   0.000562  17.539853  23.883553
     H   11   0.004870   0.002647   0.024233   0.003498   5.069063
     H   12   0.010104   0.002646   0.024230   0.003498   0.565382   5.069058
     H   13   0.000608   0.000609   0.429856   0.032889   0.046225   0.022842
     H   14   0.000929   0.000610   0.429864   0.032889   0.022842   0.046225
     H   15   0.010900   0.090962   0.002505   0.000993   0.002838   0.028105
     H   16   0.438162   0.090960   0.002505   0.000993   0.028094   0.002835
     H   17   0.090079   0.439058   0.000620   0.000627   0.001182   0.000541
     H   18   4.862792   0.439453   0.000623   0.000624   0.000541   0.001188
     H   19   0.439996   4.867140   0.000661   0.000640   0.000534   0.000534
     H   20   0.000247   0.000356   0.343735   5.885940   0.000591   0.000591


                  H 13       H 14       H 15       H 16       H 17       H 18
 ------------------------------------------------------------------------------
     H   13   4.999573
     H   14   0.549461   4.999618
     H   15   0.004105   0.000557   5.200380
     H   16   0.000557   0.004111   0.006916   5.200314
     H   17   0.000257   0.000113   0.042273   0.008184   5.227639
     H   18   0.000111   0.000256   0.008182   0.042271   0.007162   5.227504
     H   19   0.000162   0.000162   0.007123   0.007122   0.041473   0.041426
     H   20   0.006937   0.006937   0.000502   0.000502   0.000322   0.000322


                  H 19       H 20
 ------------------------------
     H   19   5.233315
     H   20   0.000341   6.064103


          HEAT OF FORMATION =      63.196704 KCALS/MOLE

          ZERO POINT ENERGY     103.461 KCAL/MOL


           NORMAL COORDINATE ANALYSIS (Total motion = 1 Angstrom)


   Root No.       1         2         3         4         5         6         7         8

                 1 A       2 A       3 A       4 A       5 A       6 A       7 A       8 A   

                  10.1      43.9      90.6     191.7     272.3     353.3     357.7     394.6
  
           1    0.0000    0.0000   -0.0397   -0.0323   -0.0345    0.0000   -0.0000   -0.0000
           2    0.0000    0.0000   -0.0237   -0.0021   -0.0171   -0.0000   -0.0000    0.0000
           3    0.0484    0.0271    0.0000    0.0000    0.0000    0.0332   -0.0299   -0.0358
           4    0.0000    0.0000   -0.0392   -0.0347   -0.0379    0.0000   -0.0000   -0.0000
           5   -0.0000    0.0000    0.0049   -0.0545    0.0243    0.0000    0.0000   -0.0000
           6   -0.0336    0.0840   -0.0000    0.0000    0.0000    0.0054   -0.0046   -0.0202
           7    0.0000    0.0000   -0.0402    0.0133    0.0084   -0.0000    0.0000    0.0000
           8    0.0000    0.0000   -0.0236    0.0196   -0.0074   -0.0000    0.0000    0.0000
           9    0.0277    0.0110    0.0000   -0.0000   -0.0000   -0.0286    0.0258    0.0210
          10    0.0321    0.0001   -0.0237    0.0201    0.0507   -0.0323   -0.0285    0.0013
          11   -0.0082   -0.0151   -0.0181    0.0262   -0.0025    0.0003   -0.0219   -0.0076
          12    0.0164    0.0028   -0.0002    0.0016   -0.0042   -0.0218    0.0198    0.0168
          13   -0.0321   -0.0001   -0.0237    0.0201    0.0507    0.0323    0.0285   -0.0013
          14    0.0082    0.0151   -0.0181    0.0262   -0.0025   -0.0003    0.0219    0.0076
          15    0.0164    0.0028    0.0003   -0.0016    0.0042   -0.0218    0.0198    0.0168
          16    0.0322   -0.0001    0.0277   -0.0070    0.0214    0.0242    0.0360    0.0043
          17   -0.0085   -0.0151    0.0010    0.0167   -0.0149    0.0245   -0.0007   -0.0092
          18   -0.0059   -0.0137   -0.0002    0.0010   -0.0029    0.0020   -0.0017   -0.0017
          19   -0.0322    0.0001    0.0277   -0.0070    0.0214   -0.0242   -0.0360   -0.0043
          20    0.0084    0.0151    0.0010    0.0167   -0.0149   -0.0245    0.0006    0.0092
          21   -0.0059   -0.0137    0.0001   -0.0010    0.0028    0.0020   -0.0017   -0.0016
          22   -0.0000    0.0000    0.0593   -0.0349   -0.0307    0.0000    0.0000   -0.0000
          23   -0.0000   -0.0000    0.0125    0.0082   -0.0390    0.0000   -0.0000   -0.0000
          24   -0.0167   -0.0220   -0.0000    0.0000    0.0000    0.0104   -0.0096   -0.0078
          25   -0.0000   -0.0000    0.0014   -0.0147   -0.0190    0.0000   -0.0000   -0.0000
          26   -0.0000   -0.0000    0.0217   -0.0475    0.0373    0.0000    0.0000    0.0000
          27   -0.0263   -0.0037   -0.0000    0.0000    0.0000    0.0286   -0.0283    0.0875
          28   -0.0000   -0.0000    0.0480    0.0789   -0.0255   -0.0000   -0.0000    0.0000
          29   -0.0000   -0.0000    0.0403   -0.0108    0.0360   -0.0000    0.0000    0.0000
          30   -0.0209   -0.0821   -0.0000   -0.0000   -0.0000   -0.0129    0.0125   -0.0357
          31    0.0478   -0.0331   -0.0333   -0.0537   -0.0352    0.0228   -0.0206   -0.0149
          32    0.0277   -0.0025   -0.0272    0.0129   -0.0158    0.0536   -0.0472   -0.0447
          33    0.0863    0.0111    0.0002   -0.0002    0.0001    0.0777   -0.0693   -0.0714
          34   -0.0478    0.0331   -0.0333   -0.0537   -0.0352   -0.0228    0.0206    0.0149
          35   -0.0277    0.0025   -0.0272    0.0129   -0.0158   -0.0536    0.0472    0.0447
          36    0.0863    0.0111   -0.0002    0.0002   -0.0000    0.0777   -0.0693   -0.0714
          37   -0.0485    0.0330   -0.0522   -0.0258   -0.0533   -0.0201    0.0196    0.0020
          38   -0.0236    0.0679    0.0147   -0.0598    0.0354   -0.0357    0.0354   -0.1097
          39   -0.0694    0.1396   -0.0001   -0.0000   -0.0005   -0.0254    0.0260   -0.0875
          40    0.0485   -0.0330   -0.0521   -0.0258   -0.0533    0.0201   -0.0196   -0.0020
          41    0.0236   -0.0679    0.0147   -0.0598    0.0354    0.0357   -0.0354    0.1097
          42   -0.0694    0.1396    0.0000    0.0000    0.0005   -0.0254    0.0260   -0.0875
          43    0.0582    0.0000   -0.0444    0.0361    0.0918   -0.0872   -0.0795    0.0032
          44   -0.0157   -0.0266   -0.0261    0.0337    0.0071   -0.0061   -0.0524   -0.0168
          45    0.0257    0.0089   -0.0001    0.0007   -0.0012   -0.0287    0.0255    0.0217
          46   -0.0582   -0.0000   -0.0444    0.0361    0.0918    0.0871    0.0795   -0.0032
          47    0.0157    0.0266   -0.0261    0.0337    0.0071    0.0061    0.0524    0.0168
          48    0.0257    0.0089    0.0001   -0.0008    0.0011   -0.0288    0.0255    0.0217
          49    0.0576   -0.0002    0.0461   -0.0113    0.0305    0.0685    0.0957    0.0102
          50   -0.0150   -0.0272    0.0080    0.0141   -0.0088    0.0576    0.0064   -0.0199
          51   -0.0146   -0.0202   -0.0001    0.0004   -0.0013    0.0108   -0.0098   -0.0085
          52   -0.0576    0.0002    0.0461   -0.0113    0.0305   -0.0686   -0.0957   -0.0102
          53    0.0150    0.0272    0.0080    0.0141   -0.0088   -0.0577   -0.0064    0.0199
          54   -0.0146   -0.0203    0.0001   -0.0004    0.0013    0.0108   -0.0098   -0.0085
          55   -0.0000   -0.0000    0.1064   -0.0723   -0.0974    0.0000   -0.0000   -0.0000
          56   -0.0000   -0.0000    0.0299   -0.0057   -0.0638    0.0000   -0.0000   -0.0000
          57   -0.0342   -0.0349   -0.0000    0.0000    0.0000    0.0256   -0.0235   -0.0188
          58   -0.0000   -0.0000    0.0893    0.1620   -0.0303   -0.0000    0.0000    0.0000
          59   -0.0000   -0.0000    0.0568    0.0222    0.0344   -0.0000    0.0000    0.0000
          60   -0.0162   -0.1521   -0.0000   -0.0000   -0.0000   -0.0535    0.0527   -0.1605


   Root No.       9        10        11        12        13        14        15        16

                 9 A      10 A      11 A      12 A      13 A      14 A      15 A      16 A   

                 463.4     517.5     608.6     629.0     658.2     776.0     794.5     846.5
  
           1   -0.0054   -0.0289    0.0224   -0.0000    0.0005    0.0010   -0.0000    0.0000
           2   -0.0351   -0.0296   -0.0473    0.0001   -0.0186   -0.0002   -0.0000    0.0000
           3   -0.0000   -0.0000   -0.0000   -0.0138    0.0000   -0.0000   -0.0298    0.0008
           4    0.0082   -0.0260    0.0145   -0.0000   -0.0080   -0.0097    0.0000   -0.0000
           5   -0.0109   -0.0151    0.0151   -0.0000   -0.0010   -0.0055    0.0000   -0.0000
           6   -0.0000    0.0000   -0.0000   -0.0037    0.0000   -0.0000   -0.0362   -0.0000
           7   -0.0479    0.0405    0.0074    0.0000    0.0747    0.0472   -0.0000    0.0000
           8   -0.0350    0.0055   -0.0501    0.0001    0.0075    0.0113   -0.0000    0.0000
           9    0.0000   -0.0000   -0.0000   -0.0348   -0.0000   -0.0000    0.0019   -0.0004
          10   -0.0086    0.0143    0.0137    0.0245   -0.0153   -0.0121    0.0012   -0.0292
          11    0.0111    0.0088    0.0045   -0.0655   -0.0090   -0.0084   -0.0007   -0.0108
          12    0.0147    0.0067    0.0317   -0.0633    0.0120    0.0049    0.0066   -0.0005
          13   -0.0086    0.0143    0.0136   -0.0246   -0.0153   -0.0121   -0.0012    0.0292
          14    0.0111    0.0088    0.0046    0.0654   -0.0090   -0.0084    0.0007    0.0108
          15   -0.0147   -0.0067   -0.0318   -0.0633   -0.0119   -0.0048    0.0066   -0.0005
          16    0.0218   -0.0288   -0.0143    0.0260    0.0272   -0.0160    0.0010   -0.0283
          17    0.0267   -0.0055    0.0004   -0.0698    0.0086   -0.0100   -0.0020   -0.0104
          18    0.0114    0.0055    0.0306    0.0725    0.0132    0.0083    0.0014    0.0000
          19    0.0218   -0.0288   -0.0143   -0.0259    0.0272   -0.0160   -0.0010    0.0283
          20    0.0267   -0.0055    0.0004    0.0698    0.0086   -0.0100    0.0020    0.0103
          21   -0.0114   -0.0055   -0.0305    0.0726   -0.0133   -0.0083    0.0014    0.0000
          22   -0.0478    0.0269   -0.0055    0.0000   -0.0236   -0.0319    0.0000    0.0000
          23    0.0202    0.0247    0.0553   -0.0001    0.0120   -0.0021    0.0000    0.0000
          24    0.0000   -0.0000    0.0000    0.0405   -0.0000    0.0000   -0.0014    0.0003
          25    0.0683    0.0640   -0.0541    0.0001   -0.0088   -0.0001    0.0000   -0.0000
          26    0.0069    0.0221   -0.0039    0.0000    0.0073    0.0052   -0.0000    0.0000
          27   -0.0000   -0.0000    0.0000    0.0009   -0.0000    0.0000    0.0174   -0.0025
          28   -0.0047   -0.0094   -0.0053    0.0000   -0.0053   -0.0020    0.0000    0.0000
          29   -0.0239   -0.0075    0.0185   -0.0000    0.0107    0.0060   -0.0000    0.0000
          30   -0.0000   -0.0000   -0.0000   -0.0003   -0.0000    0.0000    0.0138    0.0056
          31    0.0083   -0.0482    0.0470   -0.0122   -0.0129   -0.0196    0.1263   -0.0021
          32   -0.0427   -0.0159   -0.0630    0.0032   -0.0097    0.0135    0.0833   -0.0015
          33    0.0004   -0.0006    0.0012   -0.0182   -0.0001   -0.0002    0.0818   -0.0010
          34    0.0083   -0.0482    0.0470    0.0121   -0.0129   -0.0197   -0.1263    0.0021
          35   -0.0427   -0.0159   -0.0630   -0.0030   -0.0097    0.0134   -0.0833    0.0015
          36   -0.0004    0.0006   -0.0012   -0.0182    0.0001    0.0003    0.0818   -0.0010
          37   -0.0132   -0.0581    0.0196    0.0098   -0.0146   -0.0144    0.1235   -0.0046
          38    0.0045    0.0081    0.0112   -0.0005    0.0036   -0.0031    0.0993    0.0032
          39    0.0003   -0.0005    0.0000    0.0002   -0.0004   -0.0010    0.0838   -0.0003
          40   -0.0132   -0.0581    0.0196   -0.0099   -0.0146   -0.0145   -0.1235    0.0046
          41    0.0045    0.0081    0.0112    0.0005    0.0036   -0.0031   -0.0993   -0.0032
          42   -0.0003    0.0005   -0.0000    0.0002    0.0004    0.0010    0.0838   -0.0003
          43    0.0218   -0.0044    0.0436    0.0122   -0.2207    0.0353    0.0004    0.1935
          44    0.0373    0.0086    0.0464   -0.0344   -0.0711    0.0133   -0.0087    0.0692
          45    0.0066    0.0030    0.0151   -0.0824    0.0044    0.0026    0.0110    0.0008
          46    0.0218   -0.0044    0.0436   -0.0124   -0.2207    0.0353   -0.0004   -0.1935
          47    0.0373    0.0086    0.0464    0.0342   -0.0711    0.0133    0.0087   -0.0692
          48   -0.0066   -0.0030   -0.0153   -0.0824   -0.0043   -0.0026    0.0110    0.0009
          49    0.0986   -0.1086   -0.0340    0.0146    0.0083    0.2088    0.0010    0.1894
          50    0.0435   -0.0411   -0.0405   -0.0403   -0.0131    0.0639   -0.0096    0.0714
          51    0.0046    0.0023    0.0124    0.0903    0.0054    0.0031   -0.0026    0.0003
          52    0.0986   -0.1086   -0.0340   -0.0144    0.0083    0.2088   -0.0011   -0.1894
          53    0.0435   -0.0411   -0.0404    0.0403   -0.0131    0.0639    0.0095   -0.0715
          54   -0.0047   -0.0023   -0.0122    0.0905   -0.0054   -0.0032   -0.0026    0.0003
          55   -0.1103    0.0831    0.0310   -0.0001   -0.1628    0.2057   -0.0000   -0.0000
          56   -0.0031    0.0456    0.0687   -0.0001   -0.0399    0.0862   -0.0000    0.0000
          57    0.0000   -0.0000   -0.0001   -0.0636    0.0000   -0.0000   -0.0062    0.0010
          58   -0.0880   -0.1005    0.0768   -0.0001    0.0052   -0.0103    0.0000   -0.0000
          59   -0.0576   -0.0440    0.0519   -0.0001    0.0154    0.0031   -0.0000   -0.0000
          60   -0.0000    0.0000   -0.0000   -0.0017   -0.0000   -0.0000   -0.1240   -0.0344


   Root No.      17        18        19        20        21        22        23        24

                17 A      18 A      19 A      20 A      21 A      22 A      23 A      24 A   

                 848.6     858.4     885.3     936.4     973.7     976.1    1013.5    1038.8
  
           1   -0.0000   -0.0026   -0.0082   -0.0109    0.0000   -0.0000    0.0083    0.0001
           2   -0.0000   -0.0254    0.0565    0.0166    0.0000    0.0000    0.0007    0.0003
           3   -0.0202   -0.0000   -0.0000    0.0000    0.0443    0.0025    0.0000    0.0246
           4    0.0000    0.0066   -0.0115    0.0069   -0.0000    0.0000   -0.0064   -0.0001
           5    0.0000    0.0038   -0.0036    0.0095   -0.0000    0.0000   -0.0123   -0.0006
           6   -0.0013   -0.0000    0.0000   -0.0000   -0.0472   -0.0030    0.0000    0.0091
           7   -0.0000    0.0050   -0.0092   -0.0434    0.0000   -0.0000    0.0171   -0.0002
           8   -0.0000    0.0020    0.0082   -0.0072    0.0000   -0.0000    0.0015   -0.0002
           9    0.0004   -0.0000    0.0000    0.0000    0.0045   -0.0001    0.0000    0.0079
          10   -0.0025   -0.0009   -0.0016    0.0426    0.0014   -0.0408   -0.0282   -0.0003
          11   -0.0016    0.0110   -0.0257    0.0088    0.0013   -0.0152   -0.0078    0.0003
          12    0.0042   -0.0032   -0.0009   -0.0064   -0.0105   -0.0010    0.0083   -0.0091
          13    0.0025   -0.0009   -0.0016    0.0426   -0.0014    0.0408   -0.0282    0.0005
          14    0.0016    0.0110   -0.0257    0.0088   -0.0013    0.0152   -0.0078    0.0000
          15    0.0042    0.0032    0.0009    0.0064   -0.0106   -0.0010   -0.0082   -0.0101
          16   -0.0025   -0.0062    0.0130    0.0061   -0.0029    0.0412    0.0411   -0.0002
          17   -0.0023    0.0112   -0.0258   -0.0061    0.0009    0.0157    0.0172   -0.0001
          18    0.0011   -0.0208    0.0454    0.0125   -0.0039   -0.0003   -0.0044   -0.0047
          19    0.0025   -0.0062    0.0130    0.0061    0.0029   -0.0412    0.0411   -0.0001
          20    0.0024    0.0112   -0.0258   -0.0061   -0.0009   -0.0157    0.0172    0.0001
          21    0.0011    0.0209   -0.0454   -0.0125   -0.0039   -0.0003    0.0044   -0.0043
          22    0.0000    0.0029   -0.0052   -0.0454    0.0000    0.0000   -0.0452    0.0002
          23    0.0000   -0.0210    0.0459   -0.0038    0.0000    0.0000   -0.0216   -0.0001
          24   -0.0009    0.0000   -0.0000    0.0000    0.0029    0.0005    0.0000    0.0029
          25   -0.0000    0.0383    0.0239    0.0036    0.0000    0.0000    0.0009    0.0001
          26    0.0000    0.0112    0.0047   -0.0056    0.0000   -0.0000    0.0070    0.0004
          27    0.0347    0.0000   -0.0000    0.0000    0.0368    0.0026   -0.0000   -0.0186
          28    0.0000   -0.0700   -0.0174    0.0034   -0.0000    0.0000   -0.0049   -0.0003
          29    0.0000   -0.0335   -0.0138   -0.0094    0.0000   -0.0000    0.0089    0.0005
          30   -0.0693   -0.0000    0.0000   -0.0000   -0.0134   -0.0009   -0.0000    0.0050
          31    0.0601    0.0038   -0.0418    0.0037   -0.0031    0.0012   -0.0039    0.1201
          32    0.0533   -0.0318    0.0833    0.0081   -0.1450   -0.0089    0.0099   -0.1488
          33    0.0417   -0.0015    0.0019    0.0006   -0.0502   -0.0025    0.0007   -0.0152
          34   -0.0601    0.0038   -0.0418    0.0037    0.0031   -0.0012   -0.0039   -0.1204
          35   -0.0533   -0.0318    0.0833    0.0082    0.1450    0.0089    0.0099    0.1498
          36    0.0417    0.0015   -0.0019   -0.0006   -0.0501   -0.0025   -0.0007   -0.0153
          37    0.0739   -0.0204   -0.0058    0.0146   -0.0345   -0.0030    0.0032    0.1495
          38   -0.0234    0.0258   -0.0085    0.0076    0.1661    0.0118   -0.0265   -0.1199
          39    0.0188    0.0013   -0.0007    0.0024    0.0401    0.0029   -0.0039    0.0052
          40   -0.0739   -0.0204   -0.0058    0.0146    0.0345    0.0030    0.0032   -0.1469
          41    0.0234    0.0258   -0.0085    0.0076   -0.1661   -0.0118   -0.0265    0.1156
          42    0.0188   -0.0013    0.0007   -0.0024    0.0401    0.0029    0.0039    0.0057
          43    0.0218   -0.0190    0.0550   -0.1734   -0.0141    0.1786    0.0847   -0.0057
          44    0.0019   -0.0009    0.0024   -0.0655    0.0118    0.0626    0.0254    0.0161
          45    0.0074   -0.0004   -0.0051   -0.0096   -0.0198    0.0008    0.0132   -0.0192
          46   -0.0218   -0.0191    0.0551   -0.1734    0.0141   -0.1786    0.0847    0.0051
          47   -0.0019   -0.0009    0.0024   -0.0655   -0.0118   -0.0627    0.0254   -0.0173
          48    0.0074    0.0004    0.0051    0.0097   -0.0199    0.0009   -0.0132   -0.0209
          49    0.0220    0.0012    0.0078   -0.0260    0.0020   -0.1822   -0.1395   -0.0086
          50    0.0011    0.0366   -0.0739   -0.0252    0.0251   -0.0651   -0.0608    0.0240
          51   -0.0019   -0.0093    0.0222    0.0092    0.0078    0.0012   -0.0101    0.0096
          52   -0.0220    0.0011    0.0078   -0.0261   -0.0020    0.1822   -0.1394    0.0100
          53   -0.0011    0.0366   -0.0739   -0.0252   -0.0252    0.0651   -0.0609   -0.0258
          54   -0.0019    0.0093   -0.0222   -0.0092    0.0079    0.0011    0.0102    0.0113
          55   -0.0000    0.0344   -0.0787    0.2159   -0.0000   -0.0000    0.1634   -0.0002
          56   -0.0000   -0.0093    0.0186    0.0936   -0.0000   -0.0000    0.0557   -0.0003
          57   -0.0045   -0.0000    0.0000   -0.0000    0.0166    0.0028   -0.0000    0.0181
          58   -0.0000    0.4397    0.1071    0.0071    0.0000    0.0000   -0.0017   -0.0001
          59   -0.0000    0.1694    0.0354   -0.0087    0.0000   -0.0000    0.0112    0.0007
          60    0.4202    0.0000   -0.0000    0.0000    0.0406    0.0028   -0.0000   -0.0119


   Root No.      25        26        27        28        29        30        31        32

                25 A      26 A      27 A      28 A      29 A      30 A      31 A      32 A   

                1039.3    1046.1    1095.3    1102.2    1113.2    1118.0    1153.1    1155.2
  
           1   -0.0096   -0.0066    0.0804   -0.0000   -0.0031   -0.0000   -0.0001   -0.0012
           2   -0.0147    0.0175    0.0248   -0.0001   -0.0192   -0.0000    0.0005    0.0074
           3    0.0004   -0.0001   -0.0000    0.0012   -0.0001    0.0349    0.0015   -0.0001
           4    0.0091    0.0006   -0.0745    0.0000    0.0024    0.0000   -0.0000   -0.0002
           5    0.0451    0.0259   -0.0315   -0.0000   -0.0040   -0.0000    0.0001    0.0011
           6    0.0001   -0.0000    0.0000   -0.0061    0.0001   -0.0348    0.0007   -0.0000
           7    0.0123    0.0011   -0.0107   -0.0000   -0.0031   -0.0000   -0.0001   -0.0009
           8    0.0139   -0.0055   -0.0051    0.0001    0.0270    0.0001   -0.0001   -0.0017
           9    0.0001    0.0000    0.0000    0.0074    0.0000   -0.0064   -0.0120    0.0008
          10   -0.0071   -0.0021    0.0064    0.0065    0.0024   -0.0010    0.0018    0.0018
          11   -0.0098    0.0086    0.0022   -0.0160   -0.0115    0.0023   -0.0051   -0.0026
          12   -0.0270    0.0399   -0.0006   -0.0108   -0.0337    0.0050    0.0029    0.0183
          13   -0.0071   -0.0021    0.0064   -0.0065    0.0025    0.0010   -0.0015    0.0020
          14   -0.0098    0.0086    0.0022    0.0160   -0.0116   -0.0023    0.0047   -0.0032
          15    0.0267   -0.0399    0.0006   -0.0106    0.0337    0.0051    0.0003   -0.0185
          16    0.0076   -0.0013   -0.0020   -0.0017   -0.0022   -0.0006    0.0000   -0.0010
          17    0.0007    0.0012    0.0006    0.0041    0.0072    0.0020    0.0001    0.0019
          18    0.0109   -0.0164   -0.0006   -0.0135   -0.0156    0.0042    0.0048    0.0115
          19    0.0076   -0.0013   -0.0020    0.0017   -0.0022    0.0006   -0.0002   -0.0010
          20    0.0007    0.0012    0.0006   -0.0041    0.0073   -0.0020    0.0002    0.0019
          21   -0.0111    0.0163    0.0006   -0.0135    0.0156    0.0043    0.0033   -0.0121
          22   -0.0094    0.0034    0.0009   -0.0000   -0.0167   -0.0000    0.0001    0.0019
          23    0.0070   -0.0074    0.0003    0.0001    0.0440    0.0001   -0.0002   -0.0049
          24    0.0000   -0.0000    0.0000    0.0093   -0.0000   -0.0034    0.0020   -0.0001
          25   -0.0078   -0.0004    0.0041   -0.0000   -0.0012   -0.0000    0.0001    0.0008
          26   -0.0286   -0.0159    0.0025    0.0000    0.0022    0.0000   -0.0000   -0.0002
          27   -0.0003    0.0000    0.0000   -0.0004    0.0000   -0.0020   -0.0000    0.0000
          28    0.0196    0.0109   -0.0038   -0.0000   -0.0017   -0.0000    0.0000    0.0002
          29   -0.0354   -0.0226    0.0012    0.0000    0.0044    0.0000   -0.0001   -0.0009
          30    0.0001   -0.0000   -0.0000    0.0000   -0.0000   -0.0001    0.0000    0.0000
          31    0.0087   -0.0228    0.1747   -0.0409    0.0470   -0.1876    0.0107   -0.0125
          32   -0.0325    0.0297   -0.0193    0.0210   -0.0691    0.0529   -0.0119    0.0070
          33   -0.0032    0.0003    0.0139   -0.0042   -0.0080   -0.0135   -0.0014   -0.0042
          34    0.0048   -0.0223    0.1747    0.0412    0.0460    0.1878   -0.0122   -0.0113
          35   -0.0276    0.0291   -0.0193   -0.0214   -0.0689   -0.0532    0.0126    0.0056
          36    0.0027   -0.0002   -0.0139   -0.0042    0.0081   -0.0135   -0.0008    0.0043
          37   -0.0889   -0.0523   -0.1836    0.0290    0.0162    0.1658   -0.0025    0.0023
          38    0.1492    0.0829    0.0306   -0.0063   -0.0184   -0.0336    0.0002   -0.0009
          39    0.0164    0.0089   -0.0120    0.0028   -0.0017    0.0188   -0.0002   -0.0003
          40   -0.0938   -0.0518   -0.1835   -0.0289    0.0171   -0.1657    0.0028    0.0020
          41    0.1530    0.0826    0.0306    0.0061   -0.0186    0.0336   -0.0004   -0.0009
          42   -0.0162   -0.0089    0.0120    0.0028    0.0016    0.0188   -0.0001    0.0003
          43    0.0227    0.0172   -0.0207    0.0501    0.0581   -0.0066   -0.0197    0.0591
          44    0.0338   -0.0620   -0.0083   -0.1441   -0.1444    0.0252    0.0560   -0.1733
          45   -0.0456    0.0831   -0.0004    0.0655    0.0457   -0.0079   -0.0353    0.1237
          46    0.0230    0.0171   -0.0208   -0.0499    0.0583    0.0069    0.0279    0.0556
          47    0.0331   -0.0617   -0.0082    0.1438   -0.1448   -0.0261   -0.0800   -0.1636
          48    0.0448   -0.0829    0.0004    0.0656   -0.0459   -0.0083   -0.0524   -0.1176
          49   -0.0383    0.0401   -0.0001   -0.0269    0.0248    0.0091    0.0686   -0.0683
          50    0.0444   -0.1000    0.0096    0.0745   -0.0669   -0.0255   -0.1849    0.1858
          51    0.0437   -0.0792    0.0038    0.0303   -0.0629   -0.0126   -0.1074    0.1264
          52   -0.0381    0.0403   -0.0001    0.0271    0.0250   -0.0090   -0.0771   -0.0587
          53    0.0438   -0.1005    0.0096   -0.0749   -0.0674    0.0253    0.2080    0.1598
          54   -0.0435    0.0795   -0.0038    0.0306    0.0633   -0.0124   -0.1233   -0.1112
          55    0.0127    0.0017   -0.0014    0.0000   -0.0168   -0.0000    0.0001    0.0014
          56    0.0163   -0.0094   -0.0004    0.0001    0.0473    0.0001   -0.0002   -0.0038
          57    0.0003   -0.0001    0.0001    0.2517   -0.0010   -0.0491    0.2784   -0.0184
          58    0.0052    0.0067   -0.0028   -0.0000   -0.0022   -0.0000    0.0000    0.0006
          59   -0.0457   -0.0271    0.0018    0.0000    0.0048    0.0000   -0.0001   -0.0009
          60   -0.0002    0.0000    0.0000   -0.0006    0.0000   -0.0023    0.0000    0.0000


   Root No.      33        34        35        36        37        38        39        40

                33 A      34 A      35 A      36 A      37 A      38 A      39 A      40 A   

                1224.1    1235.7    1337.3    1343.0    1375.4    1395.7    1427.7    1541.8
  
           1   -0.0000   -0.0444   -0.0067   -0.0000    0.0022    0.0591   -0.0176    0.0000
           2    0.0000    0.0174   -0.0092   -0.0000   -0.0119   -0.0078    0.0602   -0.0000
           3    0.0072   -0.0000    0.0000   -0.0074   -0.0000   -0.0000   -0.0000   -0.0113
           4   -0.0000   -0.0281    0.0552    0.0002   -0.0139   -0.0476    0.0191   -0.0000
           5    0.0000    0.0276   -0.0365   -0.0001   -0.0616    0.0303   -0.0292    0.0000
           6   -0.0002   -0.0000    0.0000   -0.0003    0.0000   -0.0000    0.0000    0.0008
           7    0.0000    0.0092   -0.0180   -0.0000   -0.0072   -0.0108    0.0109    0.0000
           8    0.0000    0.0224    0.0485    0.0002    0.0128    0.0184   -0.0237    0.0000
           9   -0.0190    0.0000   -0.0001    0.1043    0.0000    0.0000   -0.0000    0.0783
          10   -0.0070   -0.0065   -0.0089   -0.0316   -0.0025   -0.0037    0.0068    0.0203
          11    0.0196    0.0078    0.0236    0.0839    0.0074    0.0128   -0.0193   -0.0548
          12   -0.0126    0.0144    0.0040   -0.0468   -0.0012   -0.0040    0.0107   -0.0268
          13    0.0070   -0.0066   -0.0089    0.0315   -0.0024   -0.0037    0.0068   -0.0204
          14   -0.0196    0.0078    0.0237   -0.0838    0.0074    0.0128   -0.0193    0.0548
          15   -0.0126   -0.0144   -0.0039   -0.0468    0.0012    0.0040   -0.0107   -0.0268
          16   -0.0045    0.0033    0.0041    0.0328    0.0008    0.0009   -0.0003   -0.0211
          17    0.0116   -0.0079   -0.0111   -0.0878   -0.0022   -0.0018    0.0009    0.0569
          18    0.0091    0.0153    0.0341   -0.0532    0.0100    0.0164   -0.0243   -0.0249
          19    0.0045    0.0033    0.0041   -0.0328    0.0008    0.0008   -0.0003    0.0211
          20   -0.0116   -0.0079   -0.0112    0.0877   -0.0022   -0.0018    0.0009   -0.0569
          21    0.0091   -0.0153   -0.0340   -0.0535   -0.0100   -0.0164    0.0243   -0.0249
          22    0.0000    0.0063    0.0109    0.0001    0.0031    0.0053   -0.0074    0.0000
          23    0.0000   -0.0175   -0.0293   -0.0001   -0.0082   -0.0142    0.0198    0.0000
          24    0.0261   -0.0000   -0.0001    0.1019    0.0000    0.0000   -0.0000    0.0749
          25    0.0000    0.0094   -0.0084   -0.0000   -0.0013    0.0041   -0.0003   -0.0000
          26   -0.0000   -0.0039    0.0039    0.0000    0.0044   -0.0024    0.0022   -0.0000
          27    0.0000    0.0000   -0.0000    0.0000   -0.0000    0.0000   -0.0000   -0.0001
          28    0.0000    0.0054   -0.0072   -0.0000   -0.0071    0.0052   -0.0040    0.0000
          29   -0.0000   -0.0173    0.0218    0.0001    0.0170   -0.0151    0.0102   -0.0000
          30   -0.0000    0.0000   -0.0000   -0.0001   -0.0000    0.0000   -0.0000    0.0000
          31    0.0175    0.1752   -0.0026   -0.0428    0.0216   -0.1547   -0.0268   -0.0117
          32   -0.0356   -0.1163   -0.0825    0.0676    0.0285   -0.1115   -0.1615    0.0354
          33   -0.0082    0.0108   -0.0393    0.0194    0.0292   -0.1355   -0.1237    0.0058
          34   -0.0173    0.1753   -0.0027    0.0428    0.0216   -0.1547   -0.0268    0.0117
          35    0.0354   -0.1164   -0.0824   -0.0681    0.0285   -0.1115   -0.1615   -0.0354
          36   -0.0082   -0.0108    0.0392    0.0196   -0.0292    0.1355    0.1237    0.0058
          37    0.0037    0.0965   -0.1197    0.0019    0.1363    0.0801   -0.0215   -0.0022
          38   -0.0010   -0.0443    0.0082   -0.0006    0.2148   -0.0183    0.0484   -0.0003
          39    0.0009    0.0112   -0.0429    0.0001    0.2034    0.0223    0.0258   -0.0006
          40   -0.0036    0.0965   -0.1197   -0.0026    0.1363    0.0801   -0.0215    0.0022
          41    0.0010   -0.0443    0.0082    0.0007    0.2148   -0.0183    0.0484    0.0003
          42    0.0009   -0.0112    0.0429    0.0004   -0.2034   -0.0223   -0.0258   -0.0006
          43    0.0552    0.0038    0.0042   -0.0161    0.0028    0.0005   -0.0113   -0.0100
          44   -0.1567    0.0246   -0.0113    0.0448   -0.0104   -0.0092    0.0362    0.0292
          45    0.0937    0.0102    0.0293   -0.0217    0.0103    0.0104   -0.0234   -0.0881
          46   -0.0552    0.0039    0.0042    0.0161    0.0028    0.0005   -0.0113    0.0099
          47    0.1569    0.0244   -0.0112   -0.0449   -0.0104   -0.0092    0.0362   -0.0292
          48    0.0938   -0.0103   -0.0293   -0.0218   -0.0103   -0.0104    0.0234   -0.0881
          49    0.0417    0.0062    0.0204    0.0067    0.0060    0.0105   -0.0158    0.0089
          50   -0.1113   -0.0140   -0.0548   -0.0187   -0.0167   -0.0296    0.0428   -0.0243
          51   -0.0660    0.0140    0.0129   -0.0107    0.0029    0.0021   -0.0026   -0.0859
          52   -0.0416    0.0062    0.0204   -0.0067    0.0060    0.0105   -0.0158   -0.0089
          53    0.1108   -0.0141   -0.0549    0.0187   -0.0167   -0.0296    0.0428    0.0243
          54   -0.0657   -0.0139   -0.0129   -0.0110   -0.0029   -0.0021    0.0026   -0.0858
          55   -0.0000    0.0071    0.0124    0.0000    0.0036    0.0058   -0.0087   -0.0000
          56   -0.0000   -0.0196   -0.0341   -0.0001   -0.0096   -0.0168    0.0234    0.0000
          57   -0.1265    0.0001   -0.0000    0.0481    0.0000    0.0000   -0.0000   -0.1285
          58    0.0000    0.0087   -0.0097   -0.0000   -0.0086    0.0063   -0.0047    0.0000
          59   -0.0000   -0.0189    0.0252    0.0001    0.0202   -0.0182    0.0125   -0.0000
          60   -0.0000   -0.0000    0.0000   -0.0002   -0.0000   -0.0000    0.0000   -0.0001


   Root No.      41        42        43        44        45        46        47        48

                41 A      42 A      43 A      44 A      45 A      46 A      47 A      48 A   

                1605.9    1781.5    1798.9    2324.5    2939.8    2958.8    3014.1    3033.7
  
           1    0.0198    0.0000   -0.0061    0.0023    0.0000   -0.0000    0.0013    0.0209
           2   -0.0449    0.0000    0.0177   -0.0008    0.0000   -0.0000    0.0030    0.0307
           3    0.0000    0.0082    0.0000    0.0000    0.0179   -0.0436   -0.0000   -0.0000
           4   -0.0025    0.0000   -0.0012    0.0239    0.0000    0.0000   -0.0223    0.0027
           5    0.0035   -0.0000   -0.0002   -0.0567    0.0000    0.0000   -0.0321    0.0029
           6   -0.0000   -0.0005   -0.0000    0.0000   -0.0437   -0.0178   -0.0000    0.0000
           7   -0.0403   -0.0000    0.0327   -0.0011    0.0000   -0.0000   -0.0003   -0.0001
           8    0.1046   -0.0000   -0.0858    0.0009   -0.0000    0.0000    0.0001    0.0004
           9   -0.0000   -0.1404    0.0000    0.0000    0.0000   -0.0003    0.0000    0.0000
          10    0.0069    0.0140   -0.0446    0.0000   -0.0000    0.0002   -0.0001   -0.0002
          11   -0.0179   -0.0375    0.1196   -0.0001    0.0001   -0.0004    0.0001    0.0008
          12    0.0514    0.0740   -0.0452    0.0001   -0.0001   -0.0000    0.0003    0.0018
          13    0.0069   -0.0140   -0.0445    0.0000    0.0000   -0.0002   -0.0001   -0.0002
          14   -0.0179    0.0376    0.1196   -0.0001   -0.0001    0.0004    0.0001    0.0008
          15   -0.0514    0.0740    0.0452   -0.0001   -0.0001   -0.0000   -0.0003   -0.0018
          16    0.0211    0.0128    0.0409    0.0000    0.0000   -0.0000   -0.0000   -0.0000
          17   -0.0567   -0.0345   -0.1099    0.0000    0.0000    0.0000    0.0000    0.0002
          18   -0.0493   -0.0752   -0.0366    0.0000    0.0000    0.0000   -0.0001   -0.0004
          19    0.0211   -0.0128    0.0409    0.0000   -0.0000    0.0000   -0.0000   -0.0000
          20   -0.0567    0.0345   -0.1099    0.0000   -0.0000   -0.0000    0.0000    0.0002
          21    0.0493   -0.0752    0.0366   -0.0000    0.0000    0.0000    0.0001    0.0004
          22   -0.0192    0.0000   -0.0177   -0.0000   -0.0000    0.0000   -0.0000   -0.0000
          23    0.0516    0.0000    0.0473   -0.0000   -0.0000   -0.0000    0.0000    0.0000
          24   -0.0000    0.1421   -0.0000    0.0000   -0.0000    0.0001    0.0000    0.0000
          25   -0.0012    0.0000    0.0004   -0.1116   -0.0000   -0.0000    0.0000    0.0003
          26   -0.0005   -0.0000    0.0004    0.2769    0.0000    0.0000    0.0001   -0.0001
          27    0.0000    0.0000    0.0000   -0.0000    0.0000   -0.0001    0.0000   -0.0000
          28    0.0001   -0.0000    0.0002    0.0747    0.0000    0.0000   -0.0002    0.0000
          29   -0.0001    0.0000   -0.0005   -0.1874   -0.0000   -0.0000    0.0001    0.0000
          30    0.0000   -0.0000    0.0000    0.0000   -0.0002   -0.0001   -0.0000   -0.0000
          31   -0.0069    0.0140    0.0005    0.0026    0.0454   -0.1180   -0.0122   -0.1298
          32    0.0087   -0.0339   -0.0018   -0.0023    0.0689   -0.1668   -0.0190   -0.1850
          33    0.0181   -0.0092   -0.0067    0.0005   -0.1082    0.2602    0.0338    0.3421
          34   -0.0069   -0.0140    0.0005    0.0026   -0.0454    0.1180   -0.0122   -0.1298
          35    0.0087    0.0339   -0.0018   -0.0023   -0.0689    0.1668   -0.0190   -0.1850
          36   -0.0181   -0.0092    0.0067   -0.0005   -0.1082    0.2602   -0.0338   -0.3421
          37    0.0078    0.0002   -0.0015   -0.0057   -0.1196   -0.0520    0.1408   -0.0131
          38   -0.0056    0.0007    0.0011   -0.0109   -0.1629   -0.0662    0.1895   -0.0162
          39   -0.0007   -0.0001    0.0004    0.0120    0.2636    0.1063   -0.3617    0.0321
          40    0.0078   -0.0002   -0.0015   -0.0057    0.1196    0.0519    0.1408   -0.0131
          41   -0.0056   -0.0007    0.0011   -0.0109    0.1629    0.0662    0.1896   -0.0162
          42    0.0007   -0.0001   -0.0004   -0.0120    0.2635    0.1063    0.3617   -0.0321
          43   -0.0353   -0.0171    0.0136   -0.0002    0.0001   -0.0001    0.0003    0.0037
          44    0.0936    0.0451   -0.0362    0.0002    0.0005   -0.0002   -0.0015   -0.0098
          45   -0.0073    0.0312    0.0547    0.0000    0.0003    0.0019   -0.0031   -0.0198
          46   -0.0353    0.0171    0.0135   -0.0002   -0.0001    0.0001    0.0003    0.0037
          47    0.0936   -0.0451   -0.0362    0.0002   -0.0005    0.0002   -0.0015   -0.0098
          48    0.0073    0.0312   -0.0547   -0.0000    0.0003    0.0019    0.0031    0.0198
          49   -0.0303   -0.0179   -0.0076   -0.0000   -0.0000   -0.0000    0.0001    0.0009
          50    0.0810    0.0480    0.0206   -0.0001    0.0000    0.0000   -0.0004   -0.0025
          51    0.0325   -0.0346    0.0493    0.0000   -0.0000   -0.0001    0.0007    0.0049
          52   -0.0303    0.0179   -0.0076   -0.0000    0.0000    0.0000    0.0001    0.0009
          53    0.0809   -0.0480    0.0206   -0.0001   -0.0000   -0.0000   -0.0004   -0.0025
          54   -0.0324   -0.0346   -0.0492   -0.0000   -0.0000   -0.0001   -0.0007   -0.0049
          55   -0.0227   -0.0000   -0.0206   -0.0000    0.0000   -0.0000    0.0001    0.0002
          56    0.0611   -0.0000    0.0562   -0.0001   -0.0000    0.0000   -0.0004   -0.0004
          57    0.0000   -0.0574    0.0000   -0.0000    0.0000   -0.0000   -0.0000   -0.0000
          58    0.0001   -0.0000    0.0002    0.1452    0.0000    0.0000   -0.0010   -0.0001
          59   -0.0002    0.0000   -0.0008   -0.3640   -0.0000   -0.0000    0.0020    0.0003
          60    0.0000    0.0000    0.0000   -0.0000   -0.0002   -0.0001    0.0000    0.0000


   Root No.      49        50        51        52        53        54

                49 A      50 A      51 A      52 A      53 A      54 A   

                3052.0    3052.6    3060.8    3068.2    3079.7    3360.3
  
           1   -0.0000    0.0007    0.0004    0.0000   -0.0001    0.0002
           2   -0.0000    0.0012    0.0008    0.0000   -0.0003   -0.0001
           3   -0.0001   -0.0000    0.0000   -0.0000    0.0000   -0.0000
           4    0.0000   -0.0000   -0.0000    0.0000    0.0000    0.0008
           5    0.0000   -0.0000   -0.0000    0.0000   -0.0000   -0.0016
           6    0.0001    0.0000   -0.0000    0.0001   -0.0000   -0.0000
           7   -0.0000    0.0002    0.0004    0.0000   -0.0003   -0.0000
           8    0.0000   -0.0006   -0.0010   -0.0000    0.0008   -0.0000
           9    0.0016    0.0000    0.0000    0.0012   -0.0000   -0.0000
          10    0.0043    0.0031    0.0029    0.0028   -0.0018   -0.0000
          11   -0.0117   -0.0084   -0.0078   -0.0075    0.0049    0.0000
          12   -0.0223   -0.0165   -0.0141   -0.0118    0.0075   -0.0000
          13   -0.0044    0.0030    0.0029   -0.0028   -0.0018   -0.0000
          14    0.0120   -0.0081   -0.0078    0.0075    0.0049    0.0000
          15   -0.0229    0.0160    0.0141   -0.0117   -0.0075    0.0000
          16    0.0020    0.0025   -0.0022   -0.0048    0.0034   -0.0000
          17   -0.0053   -0.0066    0.0059    0.0129   -0.0090    0.0000
          18    0.0116    0.0130   -0.0079   -0.0227    0.0180   -0.0000
          19   -0.0021    0.0024   -0.0022    0.0048    0.0033   -0.0000
          20    0.0055   -0.0065    0.0059   -0.0129   -0.0090    0.0000
          21    0.0120   -0.0127    0.0079   -0.0227   -0.0180    0.0000
          22    0.0001   -0.0038    0.0091    0.0000    0.0090   -0.0000
          23   -0.0002    0.0102   -0.0244   -0.0000   -0.0243    0.0000
          24   -0.0007   -0.0000   -0.0000    0.0021   -0.0000   -0.0000
          25   -0.0000    0.0000    0.0000   -0.0000   -0.0000   -0.0105
          26    0.0000   -0.0000   -0.0000   -0.0000    0.0000    0.0261
          27   -0.0000   -0.0000    0.0000   -0.0000   -0.0000   -0.0000
          28   -0.0000    0.0000    0.0000    0.0000    0.0000    0.0365
          29    0.0000   -0.0000   -0.0000   -0.0000   -0.0000   -0.0916
          30   -0.0000   -0.0000    0.0000   -0.0000   -0.0000   -0.0000
          31    0.0005   -0.0046   -0.0029    0.0002    0.0007    0.0002
          32    0.0003   -0.0059   -0.0036    0.0001    0.0007    0.0001
          33   -0.0016    0.0122    0.0078   -0.0007   -0.0019   -0.0004
          34   -0.0004   -0.0046   -0.0029   -0.0002    0.0007    0.0002
          35   -0.0001   -0.0059   -0.0036   -0.0001    0.0007    0.0001
          36   -0.0011   -0.0123   -0.0078   -0.0007    0.0019    0.0004
          37    0.0002    0.0001    0.0001    0.0001    0.0000   -0.0010
          38    0.0005    0.0003    0.0003    0.0002   -0.0000   -0.0013
          39   -0.0008   -0.0006   -0.0005   -0.0003    0.0000    0.0020
          40   -0.0002    0.0001    0.0001   -0.0001    0.0000   -0.0010
          41   -0.0005    0.0003    0.0003   -0.0002   -0.0000   -0.0013
          42   -0.0008    0.0006    0.0005   -0.0003   -0.0000   -0.0020
          43   -0.0507   -0.0365   -0.0319   -0.0274    0.0166    0.0000
          44    0.1370    0.0986    0.0863    0.0739   -0.0449    0.0000
          45    0.2572    0.1858    0.1592    0.1343   -0.0812    0.0001
          46    0.0521   -0.0353   -0.0320    0.0274    0.0166    0.0000
          47   -0.1404    0.0952    0.0862   -0.0738   -0.0448    0.0000
          48    0.2635   -0.1794   -0.1592    0.1340    0.0811   -0.0001
          49   -0.0263   -0.0303    0.0208    0.0526   -0.0381    0.0000
          50    0.0704    0.0809   -0.0556   -0.1405    0.1019   -0.0001
          51   -0.1340   -0.1509    0.0973    0.2589   -0.1910    0.0002
          52    0.0273   -0.0296    0.0209   -0.0525   -0.0380    0.0000
          53   -0.0731    0.0792   -0.0559    0.1406    0.1019   -0.0001
          54   -0.1389    0.1476   -0.0979    0.2588    0.1908   -0.0002
          55   -0.0007    0.0443   -0.1057   -0.0001   -0.0980    0.0001
          56    0.0019   -0.1190    0.2841    0.0004    0.2636   -0.0003
          57    0.0019    0.0000    0.0000   -0.0034    0.0000    0.0000
          58    0.0000   -0.0000   -0.0000    0.0000   -0.0001   -0.3202
          59   -0.0000    0.0000    0.0000   -0.0000    0.0002    0.8026
          60    0.0000    0.0000    0.0000    0.0000   -0.0000    0.0000


           MASS-WEIGHTED COORDINATE ANALYSIS (NORMAL COORDINATES)


   Root No.       1         2         3         4         5         6         7         8

                 1 A       2 A       3 A       4 A       5 A       6 A       7 A       8 A   

                  10.1      43.9      90.6     191.7     272.3     353.3     357.7     394.6
  
           1    0.0000    0.0000   -0.2749   -0.2128   -0.2424    0.0000   -0.0001   -0.0000
           2    0.0000    0.0000   -0.1639   -0.0139   -0.1205   -0.0000   -0.0000    0.0000
           3    0.3929    0.1777    0.0001    0.0000    0.0001    0.2859   -0.2556   -0.2598
           4    0.0000    0.0000   -0.2713   -0.2281   -0.2668    0.0000   -0.0001   -0.0000
           5   -0.0000    0.0000    0.0340   -0.3588    0.1710    0.0000    0.0000   -0.0000
           6   -0.2723    0.5505   -0.0000    0.0000    0.0000    0.0468   -0.0389   -0.1466
           7    0.0000    0.0000   -0.2787    0.0873    0.0592   -0.0000    0.0000    0.0000
           8    0.0000    0.0000   -0.1637    0.1287   -0.0521   -0.0000    0.0000    0.0000
           9    0.2249    0.0724    0.0001   -0.0000   -0.0000   -0.2459    0.2205    0.1526
          10    0.2603    0.0008   -0.1643    0.1319    0.3567   -0.2776   -0.2433    0.0095
          11   -0.0667   -0.0991   -0.1252    0.1721   -0.0173    0.0025   -0.1871   -0.0552
          12    0.1328    0.0183   -0.0017    0.0107   -0.0299   -0.1873    0.1688    0.1222
          13   -0.2603   -0.0008   -0.1644    0.1319    0.3566    0.2776    0.2435   -0.0094
          14    0.0667    0.0991   -0.1252    0.1721   -0.0174   -0.0025    0.1871    0.0552
          15    0.1329    0.0183    0.0017   -0.0108    0.0297   -0.1874    0.1688    0.1222
          16    0.2613   -0.0006    0.1922   -0.0462    0.1505    0.2081    0.3078    0.0312
          17   -0.0685   -0.0992    0.0069    0.1099   -0.1045    0.2109   -0.0056   -0.0671
          18   -0.0480   -0.0901   -0.0011    0.0069   -0.0201    0.0169   -0.0145   -0.0120
          19   -0.2613    0.0006    0.1921   -0.0462    0.1506   -0.2081   -0.3078   -0.0312
          20    0.0685    0.0992    0.0069    0.1099   -0.1045   -0.2109    0.0055    0.0671
          21   -0.0480   -0.0901    0.0010   -0.0069    0.0200    0.0170   -0.0144   -0.0120
          22   -0.0000    0.0000    0.4109   -0.2299   -0.2158    0.0000    0.0000   -0.0000
          23   -0.0000   -0.0000    0.0863    0.0537   -0.2745    0.0000   -0.0001   -0.0000
          24   -0.1358   -0.1445   -0.0001    0.0000    0.0001    0.0896   -0.0817   -0.0563
          25   -0.0000   -0.0000    0.0094   -0.0964   -0.1335    0.0000   -0.0001   -0.0000
          26   -0.0000   -0.0000    0.1501   -0.3125    0.2627    0.0000    0.0000    0.0000
          27   -0.2134   -0.0244   -0.0000    0.0000    0.0000    0.2460   -0.2414    0.6355
          28   -0.0001   -0.0000    0.3325    0.5193   -0.1795   -0.0000   -0.0000    0.0000
          29   -0.0000   -0.0000    0.2791   -0.0712    0.2532   -0.0000    0.0001    0.0000
          30   -0.1699   -0.5384   -0.0000   -0.0000   -0.0000   -0.1110    0.1071   -0.2591
          31    0.1123   -0.0628   -0.0668   -0.1024   -0.0718    0.0570   -0.0510   -0.0313
          32    0.0651   -0.0048   -0.0546    0.0245   -0.0322    0.1336   -0.1167   -0.0941
          33    0.2028    0.0211    0.0004   -0.0003    0.0002    0.1936   -0.1715   -0.1501
          34   -0.1123    0.0628   -0.0668   -0.1024   -0.0718   -0.0569    0.0509    0.0313
          35   -0.0651    0.0048   -0.0546    0.0245   -0.0322   -0.1336    0.1167    0.0941
          36    0.2028    0.0211   -0.0003    0.0003   -0.0001    0.1936   -0.1715   -0.1501
          37   -0.1139    0.0627   -0.1046   -0.0492   -0.1086   -0.0501    0.0484    0.0042
          38   -0.0554    0.1290    0.0295   -0.1140    0.0721   -0.0891    0.0876   -0.2306
          39   -0.1630    0.2652   -0.0001   -0.0000   -0.0010   -0.0633    0.0644   -0.1841
          40    0.1139   -0.0627   -0.1046   -0.0492   -0.1086    0.0501   -0.0484   -0.0042
          41    0.0554   -0.1290    0.0295   -0.1140    0.0721    0.0891   -0.0876    0.2306
          42   -0.1630    0.2652    0.0001    0.0000    0.0009   -0.0633    0.0644   -0.1841
          43    0.1367    0.0000   -0.0891    0.0689    0.1870   -0.2173   -0.1967    0.0068
          44   -0.0370   -0.0504   -0.0523    0.0643    0.0145   -0.0153   -0.1297   -0.0353
          45    0.0603    0.0169   -0.0001    0.0014   -0.0024   -0.0716    0.0631    0.0457
          46   -0.1367   -0.0000   -0.0892    0.0689    0.1870    0.2173    0.1968   -0.0067
          47    0.0370    0.0504   -0.0523    0.0643    0.0145    0.0153    0.1297    0.0353
          48    0.0603    0.0169    0.0002   -0.0015    0.0023   -0.0717    0.0630    0.0457
          49    0.1352   -0.0004    0.0926   -0.0215    0.0622    0.1709    0.2367    0.0215
          50   -0.0353   -0.0517    0.0161    0.0268   -0.0179    0.1437    0.0157   -0.0419
          51   -0.0342   -0.0385   -0.0001    0.0008   -0.0026    0.0268   -0.0243   -0.0179
          52   -0.1352    0.0003    0.0925   -0.0215    0.0622   -0.1709   -0.2367   -0.0215
          53    0.0353    0.0517    0.0161    0.0268   -0.0179   -0.1437   -0.0157    0.0419
          54   -0.0342   -0.0385    0.0001   -0.0008    0.0026    0.0269   -0.0243   -0.0179
          55   -0.0000   -0.0000    0.2135   -0.1378   -0.1985    0.0000   -0.0000   -0.0000
          56   -0.0000   -0.0000    0.0601   -0.0109   -0.1301    0.0000   -0.0000   -0.0000
          57   -0.0804   -0.0663   -0.0000    0.0000    0.0001    0.0639   -0.0580   -0.0396
          58   -0.0000   -0.0000    0.1792    0.3086   -0.0617   -0.0000    0.0000    0.0000
          59   -0.0000   -0.0000    0.1140    0.0423    0.0701   -0.0000    0.0000    0.0000
          60   -0.0379   -0.2889   -0.0000   -0.0000   -0.0000   -0.1335    0.1303   -0.3376


   Root No.       9        10        11        12        13        14        15        16

                 9 A      10 A      11 A      12 A      13 A      14 A      15 A      16 A   

                 463.4     517.5     608.6     629.0     658.2     776.0     794.5     846.5
  
           1   -0.0375   -0.2161    0.1568   -0.0001    0.0035    0.0077   -0.0000    0.0000
           2   -0.2420   -0.2217   -0.3313    0.0003   -0.1271   -0.0018   -0.0000    0.0000
           3   -0.0000   -0.0000   -0.0001   -0.0645    0.0000   -0.0001   -0.2472    0.0056
           4    0.0565   -0.1945    0.1018   -0.0001   -0.0545   -0.0734    0.0000   -0.0000
           5   -0.0750   -0.1134    0.1058   -0.0001   -0.0068   -0.0415    0.0000   -0.0000
           6   -0.0000    0.0000   -0.0000   -0.0174    0.0000   -0.0001   -0.3002   -0.0003
           7   -0.3304    0.3036    0.0519    0.0000    0.5101    0.3572   -0.0001    0.0000
           8   -0.2413    0.0412   -0.3510    0.0003    0.0515    0.0858   -0.0000    0.0000
           9    0.0001   -0.0000   -0.0001   -0.1626   -0.0000   -0.0001    0.0158   -0.0031
          10   -0.0591    0.1070    0.0957    0.1144   -0.1045   -0.0914    0.0099   -0.2183
          11    0.0765    0.0657    0.0316   -0.3054   -0.0612   -0.0639   -0.0062   -0.0806
          12    0.1015    0.0503    0.2220   -0.2956    0.0816    0.0367    0.0546   -0.0035
          13   -0.0591    0.1070    0.0954   -0.1147   -0.1045   -0.0915   -0.0098    0.2182
          14    0.0765    0.0657    0.0322    0.3053   -0.0613   -0.0639    0.0062    0.0806
          15   -0.1015   -0.0503   -0.2226   -0.2952   -0.0814   -0.0366    0.0546   -0.0036
          16    0.1507   -0.2156   -0.0999    0.1212    0.1860   -0.1209    0.0083   -0.2120
          17    0.1841   -0.0410    0.0025   -0.3255    0.0590   -0.0760   -0.0165   -0.0775
          18    0.0784    0.0416    0.2141    0.3383    0.0904    0.0631    0.0114    0.0002
          19    0.1505   -0.2156   -0.1002   -0.1208    0.1860   -0.1209   -0.0083    0.2120
          20    0.1842   -0.0409    0.0030    0.3255    0.0589   -0.0760    0.0166    0.0774
          21   -0.0785   -0.0414   -0.2135    0.3387   -0.0906   -0.0631    0.0114    0.0001
          22   -0.3299    0.2016   -0.0385    0.0000   -0.1611   -0.2416    0.0001    0.0000
          23    0.1397    0.1848    0.3875   -0.0003    0.0816   -0.0156    0.0000    0.0000
          24    0.0000   -0.0001    0.0001    0.1890   -0.0000    0.0000   -0.0113    0.0025
          25    0.4714    0.4791   -0.3792    0.0003   -0.0599   -0.0011    0.0000   -0.0000
          26    0.0480    0.1655   -0.0270    0.0000    0.0495    0.0394   -0.0000    0.0000
          27   -0.0000   -0.0000    0.0000    0.0040   -0.0000    0.0000    0.1447   -0.0185
          28   -0.0321   -0.0701   -0.0368    0.0000   -0.0359   -0.0150    0.0000    0.0000
          29   -0.1650   -0.0564    0.1297   -0.0001    0.0733    0.0457   -0.0000    0.0000
          30   -0.0000   -0.0000   -0.0000   -0.0014   -0.0000    0.0000    0.1144    0.0418
          31    0.0167   -0.1045    0.0954   -0.0165   -0.0254   -0.0430    0.3039   -0.0045
          32   -0.0854   -0.0345   -0.1278    0.0043   -0.0192    0.0296    0.2004   -0.0033
          33    0.0008   -0.0014    0.0024   -0.0246   -0.0003   -0.0005    0.1969   -0.0022
          34    0.0167   -0.1045    0.0954    0.0163   -0.0255   -0.0432   -0.3039    0.0045
          35   -0.0853   -0.0345   -0.1277   -0.0041   -0.0193    0.0294   -0.2005    0.0033
          36   -0.0009    0.0014   -0.0024   -0.0246    0.0003    0.0006    0.1969   -0.0022
[...]
 FORCE CONSTANT      2.0122         C  3 -- C  5         +11.6% ( 61.8%)    100.0%

 VIBRATION         37   37A           ATOM PAIR      ENERGY CONTRIBUTION    RADIAL
 FREQUENCY          1375.42         C  2 -- H 13         +33.2% ( 62.4%)      4.7%
 TRANSITION DIPOLE   0.0546         C  2 -- H 14         +33.2% ( 62.4%)      4.7%
 TRAVEL (Ang.)       0.2759         C  2 -- C  9         +11.3% ( 36.3%)     71.7%
 REDUCED MASS        0.6442         C  1 -- C  2         +10.3% ( 34.7%)      9.6%
 EFFECTIVE MASS      3.2151
 FORCE CONSTANT      0.7181

 VIBRATION         38   38A           ATOM PAIR      ENERGY CONTRIBUTION    RADIAL
 FREQUENCY          1395.66         C  1 -- C  2         +17.6% ( 54.1%)     88.7%
 TRANSITION DIPOLE   0.0853         C  1 -- H 11         +17.2% ( 53.5%)      2.1%
 TRAVEL (Ang.)       0.2358         C  1 -- H 12         +17.2% ( 53.5%)      2.1%
 REDUCED MASS        0.8688         C  2 -- H 13          +9.0% ( 38.6%)      0.1%
 EFFECTIVE MASS      5.7771
 FORCE CONSTANT      0.9971

 VIBRATION         39   39A           ATOM PAIR      ENERGY CONTRIBUTION    RADIAL
 FREQUENCY          1427.65         C  1 -- H 12         +17.5% ( 55.6%)      3.5%
 TRANSITION DIPOLE   0.0581         C  1 -- H 11         +17.5% ( 55.6%)      3.5%
 TRAVEL (Ang.)       0.2334         C  1 -- C  3         +13.5% ( 48.7%)     99.9%
 REDUCED MASS        0.8673         C  1 -- C  2         +12.3% ( 46.6%)     14.4%
 EFFECTIVE MASS      6.4713
 FORCE CONSTANT      1.0415

 VIBRATION         40   40A           ATOM PAIR      ENERGY CONTRIBUTION    RADIAL
 FREQUENCY          1541.80         C  5 -- C  7         +12.7% ( 52.3%)    100.0%
 TRANSITION DIPOLE   0.5027         C  4 -- C  6         +12.6% ( 52.3%)    100.0%
 TRAVEL (Ang.)       0.1689         C  3 -- C  5         +11.5% ( 49.9%)     26.1%
 REDUCED MASS        1.5340         C  3 -- C  4         +11.5% ( 49.9%)     26.0%
 EFFECTIVE MASS     10.8803         C  7 -- C  8         +10.8% ( 48.4%)     23.0%
 FORCE CONSTANT      2.1485         C  6 -- C  8         +10.8% ( 48.4%)     23.0%

 VIBRATION         41   41A           ATOM PAIR      ENERGY CONTRIBUTION    RADIAL
 FREQUENCY          1605.94         C  3 -- C  4         +15.1% ( 57.0%)     61.4%
 TRANSITION DIPOLE   0.5112         C  3 -- C  5         +15.1% ( 57.0%)     61.4%
 TRAVEL (Ang.)       0.1444         C  1 -- C  3         +14.4% ( 55.7%)     99.9%
 REDUCED MASS        2.0135         C  6 -- C  8          +9.4% ( 45.0%)     64.0%
 EFFECTIVE MASS     11.0670
 FORCE CONSTANT      3.0595

 VIBRATION         42   42A           ATOM PAIR      ENERGY CONTRIBUTION    RADIAL
 FREQUENCY          1781.47         C  7 -- C  8         +15.2% ( 53.7%)     87.8%
 TRANSITION DIPOLE   0.0368         C  6 -- C  8         +15.2% ( 53.7%)     87.8%
 TRAVEL (Ang.)       0.1243         C  3 -- C  5         +14.9% ( 53.2%)     88.7%
 REDUCED MASS        2.4481         C  3 -- C  4         +14.9% ( 53.2%)     88.7%
 EFFECTIVE MASS     11.8436
 FORCE CONSTANT      4.5775

 VIBRATION         43   43A           ATOM PAIR      ENERGY CONTRIBUTION    RADIAL
 FREQUENCY          1798.92         C  4 -- C  6         +16.4% ( 56.2%)     99.9%
 TRANSITION DIPOLE   0.2186         C  5 -- C  7         +16.4% ( 56.2%)     99.9%
 TRAVEL (Ang.)       0.1283         C  3 -- C  4         +12.0% ( 48.0%)     44.5%
 REDUCED MASS        2.2771         C  3 -- C  5         +11.9% ( 47.9%)     44.5%
 EFFECTIVE MASS     11.8322
 FORCE CONSTANT      4.3417

 VIBRATION         44   44A           ATOM PAIR      ENERGY CONTRIBUTION    RADIAL
 FREQUENCY          2324.48         C  9 -- C 10         +59.7% ( 97.1%)    100.0%
 TRANSITION DIPOLE   0.4642         C  2 -- C  9         +28.0% ( 66.5%)    100.0%
 TRAVEL (Ang.)       0.0734         C 10 -- H 20         +11.0% ( 41.7%)    100.0%
 REDUCED MASS        5.3846         C  1 -- C  2          +0.4% (  8.2%)     13.0%
 EFFECTIVE MASS     11.5121
 FORCE CONSTANT     17.1417

 VIBRATION         45   45A           ATOM PAIR      ENERGY CONTRIBUTION    RADIAL
 FREQUENCY          2939.77         C  2 -- H 13         +41.7% ( 67.2%)     96.5%
 TRANSITION DIPOLE   0.0289         C  2 -- H 14         +41.7% ( 67.2%)     96.5%
 TRAVEL (Ang.)       0.2421         C  1 -- H 12          +7.1% ( 27.7%)     96.2%
 REDUCED MASS        0.3914         C  1 -- H 11          +7.1% ( 27.7%)     96.2%
 EFFECTIVE MASS      1.5520
 FORCE CONSTANT      1.9931

 VIBRATION         46   46A           ATOM PAIR      ENERGY CONTRIBUTION    RADIAL
 FREQUENCY          2958.80         C  1 -- H 12         +41.9% ( 67.1%)     96.6%
 TRANSITION DIPOLE   0.1018         C  1 -- H 11         +41.9% ( 67.1%)     96.6%
 TRAVEL (Ang.)       0.2412         C  2 -- H 13          +7.0% ( 27.3%)     96.8%
 REDUCED MASS        0.3917         C  2 -- H 14          +6.9% ( 27.3%)     96.8%
 EFFECTIVE MASS      1.5419
 FORCE CONSTANT      2.0205

 VIBRATION         47   47A           ATOM PAIR      ENERGY CONTRIBUTION    RADIAL
 FREQUENCY          3014.05         C  2 -- H 14         +48.9% ( 69.0%)     97.6%
 TRANSITION DIPOLE   0.0754         C  2 -- H 13         +48.9% ( 69.0%)     97.6%
 TRAVEL (Ang.)       0.2169         C  1 -- C  2          +0.7% (  8.0%)     31.2%
 REDUCED MASS        0.4757         C  2 -- C  9          +0.6% (  7.8%)     31.0%
 EFFECTIVE MASS      1.2759
 FORCE CONSTANT      2.5462

 VIBRATION         48   48A           ATOM PAIR      ENERGY CONTRIBUTION    RADIAL
 FREQUENCY          3033.72         C  1 -- H 11         +48.8% ( 68.8%)     97.6%
 TRANSITION DIPOLE   0.0892         C  1 -- H 12         +48.8% ( 68.8%)     97.6%
 TRAVEL (Ang.)       0.2169         C  1 -- C  3          +0.6% (  7.7%)     32.7%
 REDUCED MASS        0.4726         C  1 -- C  2          +0.6% (  7.5%)     30.0%
 EFFECTIVE MASS      1.2740
 FORCE CONSTANT      2.5628

 VIBRATION         49   49A           ATOM PAIR      ENERGY CONTRIBUTION    RADIAL
 FREQUENCY          3051.97         C  5 -- H 16         +39.1% ( 63.5%)    100.0%
 TRANSITION DIPOLE   0.1833         C  4 -- H 15         +37.2% ( 62.0%)    100.0%
 TRAVEL (Ang.)       0.2675         C  7 -- H 18         +10.8% ( 33.4%)     99.9%
 REDUCED MASS        0.3088         C  6 -- H 17         +10.1% ( 32.2%)     99.9%
 EFFECTIVE MASS      1.4923
 FORCE CONSTANT      1.6947

 VIBRATION         50   50A           ATOM PAIR      ENERGY CONTRIBUTION    RADIAL
 FREQUENCY          3052.56         C  4 -- H 15         +27.1% ( 52.9%)    100.0%
 TRANSITION DIPOLE   0.2029         C  5 -- H 16         +25.2% ( 51.1%)    100.0%
 TRAVEL (Ang.)       0.3285         C  6 -- H 17         +18.0% ( 43.1%)    100.0%
 REDUCED MASS        0.2047         C  7 -- H 18         +17.2% ( 42.1%)    100.0%
 EFFECTIVE MASS      1.5058
 FORCE CONSTANT      1.1239

 VIBRATION         51   51A           ATOM PAIR      ENERGY CONTRIBUTION    RADIAL
 FREQUENCY          3060.76         C  8 -- H 19         +48.0% ( 70.4%)    100.0%
 TRANSITION DIPOLE   0.2928         C  4 -- H 15         +17.6% ( 42.7%)    100.0%
 TRAVEL (Ang.)       0.2722         C  5 -- H 16         +17.6% ( 42.7%)    100.0%
 REDUCED MASS        0.2974         C  7 -- H 18          +6.9% ( 26.6%)     99.7%
 EFFECTIVE MASS      1.5138
 FORCE CONSTANT      1.6414

 VIBRATION         52   52A           ATOM PAIR      ENERGY CONTRIBUTION    RADIAL
 FREQUENCY          3068.19         C  6 -- H 17         +38.1% ( 62.6%)    100.0%
 TRANSITION DIPOLE   0.5700         C  7 -- H 18         +38.1% ( 62.6%)    100.0%
 TRAVEL (Ang.)       0.2668         C  4 -- H 15         +10.3% ( 32.6%)     99.9%
 REDUCED MASS        0.3088         C  5 -- H 16         +10.3% ( 32.5%)     99.9%
 EFFECTIVE MASS      1.5413
 FORCE CONSTANT      1.7126

 VIBRATION         53   53A           ATOM PAIR      ENERGY CONTRIBUTION    RADIAL
 FREQUENCY          3079.69         C  8 -- H 19         +39.4% ( 63.6%)    100.0%
 TRANSITION DIPOLE   0.3595         C  6 -- H 17         +24.1% ( 49.7%)    100.0%
 TRAVEL (Ang.)       0.2818         C  7 -- H 18         +24.1% ( 49.7%)    100.0%
 REDUCED MASS        0.2757         C  4 -- H 15          +4.4% ( 21.3%)     99.9%
 EFFECTIVE MASS      1.6000
 FORCE CONSTANT      1.5407

 VIBRATION         54   54A           ATOM PAIR      ENERGY CONTRIBUTION    RADIAL
 FREQUENCY          3360.29         C 10 -- H 20         +94.0% ( 99.1%)    100.0%
 TRANSITION DIPOLE   0.9772         C  9 -- C 10          +5.7% ( 24.4%)    100.0%
 TRAVEL (Ang.)       0.1452         C  2 -- C  9          +0.3% (  5.9%)    100.0%
 REDUCED MASS        0.9524
 EFFECTIVE MASS      2.0798
 FORCE CONSTANT      6.3361

      SYMMETRY NUMBER FOR POINT-GROUP C1  =  1


          SYSTEM IS A GROUND STATE



 InChI=1S/C10H10/c1-2-3-7-10-8-5-4-6-9-10/h1,4-6,8-9H,3,7H2


          MOLECULE IS NOT LINEAR

          THERE ARE 54 GENUINE VIBRATIONS IN THIS SYSTEM
          THIS THERMODYNAMICS CALCULATION IS LIMITED TO
          MOLECULES WHICH HAVE NO INTERNAL ROTATIONS




                    CALCULATED THERMODYNAMIC PROPERTIES
                                          *
   TEMP. (K)   PARTITION FUNCTION   H.O.F.    ENTHALPY  HEAT CAPACITY ENTROPY
                                   KCAL/MOL   CAL/MOLE    CAL/K/MOL  CAL/K/MOL


 298.00  VIB.     0.2132D+04                  3989.6928    28.4316    28.6195
         ROT.     0.6896D+06                   888.2803     2.9808    29.6964
         INT.     0.1470D+10                  4877.9731    31.4124    58.3159
         TRA.     0.1436D+28                  1480.4672     4.9680    40.5022
         TOT.                       63.197    6358.4403    36.3805    98.8181

 200.00  VIB.     0.2403D+03                  1759.9476    17.3111    19.6938
         ROT.     0.3791D+06                   596.1613     2.9808    28.5077
         INT.     0.9112D+08                  2356.1088    20.2919    48.2015
         TRA.     0.7896D+27                   993.6021     4.9680    38.5210
         TOT.                       60.188    3349.7110    25.2600    86.7225

 210.00  VIB.     0.2999D+03                  1938.2891    18.3619    20.5637
         ROT.     0.4079D+06                   625.9693     2.9808    28.6532
         INT.     0.1223D+09                  2564.2584    21.3427    49.2169
         TRA.     0.8496D+27                  1043.2822     4.9680    38.7634
         TOT.                       60.446    3607.5406    26.3107    87.9803

 220.00  VIB.     0.3741D+03                  2127.2757    19.4398    21.4427
         ROT.     0.4374D+06                   655.7774     2.9808    28.7918
         INT.     0.1636D+09                  2783.0531    22.4206    50.2345
         TRA.     0.9110D+27                  1092.9623     4.9680    38.9945
         TOT.                       60.714    3876.0154    27.3886    89.2290

 230.00  VIB.     0.4667D+03                  2327.1658    20.5421    22.3310
         ROT.     0.4676D+06                   685.5855     2.9808    28.9243
         INT.     0.2182D+09                  3012.7513    23.5229    51.2554
         TRA.     0.9738D+27                  1142.6424     4.9680    39.2154
         TOT.                       60.994    4155.3937    28.4909    90.4707

 240.00  VIB.     0.5825D+03                  2538.1890    21.6658    23.2290
         ROT.     0.4984D+06                   715.3935     2.9808    29.0512
         INT.     0.2903D+09                  3253.5826    24.6466    52.2802
         TRA.     0.1038D+28                  1192.3226     4.9680    39.4268
         TOT.                       61.284    4445.9051    29.6147    91.7070

 250.00  VIB.     0.7273D+03                  2760.5430    22.8077    24.1365
         ROT.     0.5299D+06                   745.2016     2.9808    29.1729
         INT.     0.3854D+09                  3505.7446    25.7885    53.3094
         TRA.     0.1103D+28                  1242.0027     4.9680    39.6296
         TOT.                       61.586    4747.7472    30.7565    92.9390

 260.00  VIB.     0.9086D+03                  2994.3913    23.9641    25.0535
         ROT.     0.5620D+06                   775.0097     2.9808    29.2898
         INT.     0.5106D+09                  3769.4009    26.9449    54.3433
         TRA.     0.1170D+28                  1291.6828     4.9680    39.8245
         TOT.                       61.899    5061.0837    31.9130    94.1678

 270.00  VIB.     0.1136D+04                  3239.8629    25.1318    25.9798
         ROT.     0.5947D+06                   804.8177     2.9808    29.4023
         INT.     0.6755D+09                  4044.6806    28.1126    55.3821
         TRA.     0.1239D+28                  1341.3629     4.9680    40.0120
         TOT.                       62.224    5386.0435    33.0806    95.3940

 280.00  VIB.     0.1421D+04                  3497.0520    26.3071    26.9150
         ROT.     0.6280D+06                   834.6258     2.9808    29.5107
         INT.     0.8925D+09                  4331.6778    29.2879    56.4257
         TRA.     0.1308D+28                  1391.0430     4.9680    40.1926
         TOT.                       62.561    5722.7208    34.2559    96.6183

 290.00  VIB.     0.1780D+04                  3766.0191    27.4868    27.8587
         ROT.     0.6620D+06                   864.4339     2.9808    29.6153
         INT.     0.1178D+10                  4630.4529    30.4676    57.4740
         TRA.     0.1379D+28                  1440.7231     4.9680    40.3670
         TOT.                       62.909    6071.1760    35.4356    97.8410

 300.00  VIB.     0.2230D+04                  4046.7922    28.6678    28.8105
         ROT.     0.6965D+06                   894.2419     2.9808    29.7163
         INT.     0.1553D+10                  4941.0342    31.6486    58.5268
         TRA.     0.1451D+28                  1490.4032     4.9680    40.5354
         TOT.                       63.270    6431.4373    36.6166    99.0622

 310.00  VIB.     0.2798D+04                  4339.3693    29.8471    29.7697
         ROT.     0.7316D+06                   924.0500     2.9808    29.8141
         INT.     0.2047D+10                  5263.4193    32.8279    59.5838
         TRA.     0.1524D+28                  1540.0833     4.9680    40.6983
         TOT.                       63.642    6803.5026    37.7959   100.2821

 320.00  VIB.     0.3514D+04                  4643.7201    31.0221    30.7359
         ROT.     0.7673D+06                   953.8580     2.9808    29.9087
         INT.     0.2696D+10                  5597.5782    34.0029    60.6446
         TRA.     0.1598D+28                  1589.7634     4.9680    40.8560
         TOT.                       64.026    7187.3416    38.9709   101.5007

 330.00  VIB.     0.4416D+04                  4959.7887    32.1903    31.7084
         ROT.     0.8036D+06                   983.6661     2.9808    30.0004
         INT.     0.3549D+10                  5943.4548    35.1711    61.7089
         TRA.     0.1674D+28                  1639.4435     4.9680    41.0089
         TOT.                       64.421    7582.8983    40.1391   102.7178

 340.00  VIB.     0.5557D+04                  5287.4961    33.3495    32.6866
         ROT.     0.8404D+06                  1013.4742     2.9808    30.0894
         INT.     0.4670D+10                  6300.9702    36.3303    62.7761
         TRA.     0.1750D+28                  1689.1236     4.9680    41.1572
         TOT.                       64.828    7990.0938    41.2983   103.9333

 350.00  VIB.     0.6998D+04                  5626.7427    34.4978    33.6699
         ROT.     0.8777D+06                  1043.2822     2.9808    30.1758
         INT.     0.6142D+10                  6670.0250    37.4787    63.8458
         TRA.     0.1828D+28                  1738.8037     4.9680    41.3012
         TOT.                       65.247    8408.8287    42.4467   105.1470

 360.00  VIB.     0.8822D+04                  5977.4111    35.6336    34.6577
         ROT.     0.9156D+06                  1073.0903     2.9808    30.2598
         INT.     0.8078D+10                  7050.5014    38.6144    64.9175
         TRA.     0.1907D+28                  1788.4838     4.9680    41.4412
         TOT.                       65.677    8838.9852    43.5824   106.3587

 370.00  VIB.     0.1113D+05                  6339.3681    36.7553    35.6494
         ROT.     0.9540D+06                  1102.8984     2.9808    30.3415
         INT.     0.1062D+11                  7442.2664    39.7362    65.9909
         TRA.     0.1987D+28                  1838.1639     4.9680    41.5773
         TOT.                       66.119    9280.4304    44.7042   107.5682

 380.00  VIB.     0.1406D+05                  6712.4672    37.8618    36.6443
         ROT.     0.9929D+06                  1132.7064     2.9808    30.4210
         INT.     0.1396D+11                  7845.1736    40.8426    67.0653
         TRA.     0.2068D+28                  1887.8440     4.9680    41.7098
         TOT.                       66.571    9733.0176    45.8107   108.7751

 390.00  VIB.     0.1777D+05                  7096.5508    38.9521    37.6419
         ROT.     0.1032D+07                  1162.5145     2.9808    30.4984
         INT.     0.1835D+11                  8259.0652    41.9329    68.1403
         TRA.     0.2150D+28                  1937.5242     4.9680    41.8388
         TOT.                       67.035   10196.5894    46.9009   109.9792

 400.00  VIB.     0.2249D+05                  7491.4520    40.0253    38.6417
         ROT.     0.1072D+07                  1192.3226     2.9808    30.5739
         INT.     0.2411D+11                  8683.7746    43.0061    69.2155
         TRA.     0.2233D+28                  1987.2043     4.9680    41.9646
         TOT.                       67.509   10670.9789    47.9741   111.1801

   *: NOTE: HEATS OF FORMATION ARE RELATIVE TO THE
            ELEMENTS IN THEIR STANDARD STATE AT 298K
              (=  Standard Enthalpy of Formation).

            Hvib:  Zero-point energy is not included.
                   frequencies of less than zero cm-1 are not included.
            Hrot = (3/2)RT
            Htra = (3/2)RT + pV = (5/2)RT

            Heat capacity is Cp, not Cv

          For more information, see: HTTP://OpenMOPAC.net/Manual/thermochemistry.html


           FORCE CONSTANT IN CARTESIAN COORDINATES (Millidynes/A)

    ATOM   CHEMICAL       X               Y               Z
   NUMBER   SYMBOL  FORCE CONSTANT  FORCE CONSTANT  FORCE CONSTANT

      1       C        7.830675        8.993279        8.459873
      2       C        8.074999        9.903185        7.956682
      3       C        4.123330       11.060510       12.179917
      4       C        3.547225       11.127455       11.944072
      5       C        3.547196       11.127349       11.943818
      6       C        3.513947       10.899067       12.123773
      7       C        3.513672       10.898990       12.123770
      8       C        3.517847       10.947633       12.028516
      9       C        5.130964       21.574597        1.685745
     10       C        4.390858       20.731726        1.277992
     11       H        1.184292        1.707182        3.505212
     12       H        1.184324        1.707217        3.505174
     13       H        1.190589        1.558545        3.476995
     14       H        1.190580        1.558710        3.476880
     15       H        0.528500        1.672793        4.055657
     16       H        0.528977        1.672327        4.055625
     17       H        0.536940        1.671543        4.064135
     18       H        0.536461        1.672039        4.063401
     19       H        0.939291        4.581334        0.758608
     20       H        1.112006        5.261375        0.319475

 **********************
 *                    *
 * JOB ENDED NORMALLY *
 *                    *
 **********************



 TOTAL JOB TIME:             1.96 SECONDS

 == MOPAC DONE ==
