 *******************************************************************************
 **                                                                           **
 **                              MOPAC v23.1.2                                **
 **                                                                           **
 *******************************************************************************
 **          Digital Object Identifier (DOI): 10.5281/zenodo.6511958          **
 **    Visit the DOI location for information on how to cite this program.    **
 *******************************************************************************

                              PM3 CALCULATION RESULTS

 *******************************************************************************
 *  CALCULATION DONE: (MAX THREADS = 1)              Tue Jun  3 16:31:17 2025  *
 *  PM3        - The PM3 Hamiltonian to be used
 *  PRECISE    - TIGHTER CRITERIA TO BE USED
 *  NOSYM      - POINT-GROUP SYMMETRY SET TO C1
 *  THREADS=1  - MULTI-THREADING NOT USED
 *  T=         - A TIME OF 172800.0 SECONDS REQUESTED
 *  DUMP=N     - RESTART FILE WRITTEN EVERY 7200.0 SECONDS REQUESTED
 *******************************************************************************
pm3  precise nosym THREADS=1
 InChI=1S/C7H10/c1-7-5-3-2-4-6-7/h2-3,6H,4-5H2,1H3

   ATOM   CHEMICAL          X               Y               Z
  NUMBER   SYMBOL      (ANGSTROMS)     (ANGSTROMS)     (ANGSTROMS)

     1       C          0.24200000  *   1.19370000  *  -0.45030000  *
     2       C         -1.51590000  *  -1.03330000  *   0.11290000  *
     3       C          2.29680000  *  -0.37310000  *  -0.04970000  *
     4       C          0.80870000  *  -0.16050000  *  -0.07260000  *
     5       C         -0.01780000  *  -1.19170000  *   0.19230000  *
     6       C         -1.12530000  *   1.41490000  *   0.14700000  *
     7       C         -1.93980000  *   0.38220000  *   0.40980000  *
     8       H          0.91890000  *   2.00240000  *  -0.10150000  *
     9       H          0.16380000  *   1.25400000  *  -1.55630000  *
    10       H         -1.99920000  *  -1.72270000  *   0.83670000  *
    11       H         -1.85210000  *  -1.30240000  *  -0.91050000  *
    12       H          2.83620000  *   0.55550000  *  -0.33200000  *
    13       H          2.57460000  *  -1.17200000  *  -0.76940000  *
    14       H          2.61710000  *  -0.67270000  *   0.97050000  *
    15       H         -1.46580000  *   2.42830000  *   0.33650000  *
    16       H         -2.93220000  *   0.56860000  *   0.80880000  *
    17       H          0.38990000  *  -2.17110000  *   0.42790000  *



          CARTESIAN COORDINATES 

    NO.       ATOM           X           Y           Z

     1         C          0.2420      1.1937     -0.4503
     2         C         -1.5159     -1.0333      0.1129
     3         C          2.2968     -0.3731     -0.0497
     4         C          0.8087     -0.1605     -0.0726
     5         C         -0.0178     -1.1917      0.1923
     6         C         -1.1253      1.4149      0.1470
     7         C         -1.9398      0.3822      0.4098
     8         H          0.9189      2.0024     -0.1015
     9         H          0.1638      1.2540     -1.5563
    10         H         -1.9992     -1.7227      0.8367
    11         H         -1.8521     -1.3024     -0.9105
    12         H          2.8362      0.5555     -0.3320
    13         H          2.5746     -1.1720     -0.7694
    14         H          2.6171     -0.6727      0.9705
    15         H         -1.4658      2.4283      0.3365
    16         H         -2.9322      0.5686      0.8088
    17         H          0.3899     -2.1711      0.4279

  H: (PM3): J. J. P. STEWART, J. COMP. CHEM. 10, 209 (1989).
  C: (PM3): J. J. P. STEWART, J. COMP. CHEM. 10, 209 (1989).

           Empirical Formula: C7 H10  =    17 atoms



      MOLECULAR POINT GROUP   :   C1  


      RHF CALCULATION, NO. OF DOUBLY OCCUPIED LEVELS = 19


          Geometry optimization using EF

          DIAGONAL MATRIX USED AS START HESSIAN

 CYCLE:     1 TIME:   0.008 TIME LEFT:  2.00D  GRAD.:    58.820 HEAT:  13.65909
 CYCLE:     2 TIME:   0.012 TIME LEFT:  2.00D  GRAD.:    43.759 HEAT:  12.58957
 CYCLE:     3 TIME:   0.004 TIME LEFT:  2.00D  GRAD.:    52.583 HEAT:  12.33897
 CYCLE:     4 TIME:   0.008 TIME LEFT:  2.00D  GRAD.:    15.672 HEAT:  11.90311
 CYCLE:     5 TIME:   0.008 TIME LEFT:  2.00D  GRAD.:    12.099 HEAT:  11.80984
 CYCLE:     6 TIME:   0.004 TIME LEFT:  2.00D  GRAD.:    16.260 HEAT:  11.74014
 CYCLE:     7 TIME:   0.008 TIME LEFT:  2.00D  GRAD.:    20.003 HEAT:  11.66215
 CYCLE:     8 TIME:   0.008 TIME LEFT:  2.00D  GRAD.:    13.716 HEAT:  11.58479
 CYCLE:     9 TIME:   0.004 TIME LEFT:  2.00D  GRAD.:    10.183 HEAT:  11.53690
 CYCLE:    10 TIME:   0.008 TIME LEFT:  2.00D  GRAD.:     8.786 HEAT:  11.50173
 CYCLE:    11 TIME:   0.004 TIME LEFT:  2.00D  GRAD.:    14.000 HEAT:  11.48206
 CYCLE:    12 TIME:   0.004 TIME LEFT:  2.00D  GRAD.:    11.566 HEAT:  11.44815
 CYCLE:    13 TIME:   0.008 TIME LEFT:  2.00D  GRAD.:     8.345 HEAT:  11.40471
 CYCLE:    14 TIME:   0.004 TIME LEFT:  2.00D  GRAD.:     7.580 HEAT:  11.36109
 CYCLE:    15 TIME:   0.012 TIME LEFT:  2.00D  GRAD.:    11.593 HEAT:  11.34519
 CYCLE:    16 TIME:   0.004 TIME LEFT:  2.00D  GRAD.:    10.643 HEAT:  11.30459
 CYCLE:    17 TIME:   0.004 TIME LEFT:  2.00D  GRAD.:     6.074 HEAT:  11.24636
 CYCLE:    18 TIME:   0.008 TIME LEFT:  2.00D  GRAD.:     8.336 HEAT:  11.21898
 CYCLE:    19 TIME:   0.004 TIME LEFT:  2.00D  GRAD.:     6.500 HEAT:  11.17173
 CYCLE:    20 TIME:   0.004 TIME LEFT:  2.00D  GRAD.:     5.666 HEAT:  11.13443
 CYCLE:    21 TIME:   0.008 TIME LEFT:  2.00D  GRAD.:     7.017 HEAT:  11.09336
 CYCLE:    22 TIME:   0.004 TIME LEFT:  2.00D  GRAD.:     9.233 HEAT:  11.06004
 CYCLE:    23 TIME:   0.008 TIME LEFT:  2.00D  GRAD.:     6.996 HEAT:  11.00742
 CYCLE:    24 TIME:   0.004 TIME LEFT:  2.00D  GRAD.:     5.539 HEAT:  10.96498
 CYCLE:    25 TIME:   0.004 TIME LEFT:  2.00D  GRAD.:     6.372 HEAT:  10.91446
 CYCLE:    26 TIME:   0.008 TIME LEFT:  2.00D  GRAD.:     7.116 HEAT:  10.85518
 CYCLE:    27 TIME:   0.004 TIME LEFT:  2.00D  GRAD.:     9.646 HEAT:  10.79536
 CYCLE:    28 TIME:   0.004 TIME LEFT:  2.00D  GRAD.:     6.810 HEAT:  10.69905
 CYCLE:    29 TIME:   0.004 TIME LEFT:  2.00D  GRAD.:     5.777 HEAT:  10.62301
 CYCLE:    30 TIME:   0.008 TIME LEFT:  2.00D  GRAD.:     7.153 HEAT:  10.55663
 CYCLE:    31 TIME:   0.008 TIME LEFT:  2.00D  GRAD.:    11.258 HEAT:  10.55577
 CYCLE:    32 TIME:   0.004 TIME LEFT:  2.00D  GRAD.:     5.599 HEAT:  10.47233
 CYCLE:    33 TIME:   0.004 TIME LEFT:  2.00D  GRAD.:     3.955 HEAT:  10.42530
 CYCLE:    34 TIME:   0.004 TIME LEFT:  2.00D  GRAD.:     4.482 HEAT:  10.35518
 CYCLE:    35 TIME:   0.008 TIME LEFT:  2.00D  GRAD.:     4.016 HEAT:  10.32726
 CYCLE:    36 TIME:   0.004 TIME LEFT:  2.00D  GRAD.:     3.987 HEAT:  10.29960
 CYCLE:    37 TIME:   0.004 TIME LEFT:  2.00D  GRAD.:     3.220 HEAT:  10.27313
 CYCLE:    38 TIME:   0.008 TIME LEFT:  2.00D  GRAD.:     2.794 HEAT:  10.26028
 CYCLE:    39 TIME:   0.004 TIME LEFT:  2.00D  GRAD.:     3.048 HEAT:  10.24145
 CYCLE:    40 TIME:   0.008 TIME LEFT:  2.00D  GRAD.:     3.570 HEAT:  10.21652
 CYCLE:    41 TIME:   0.004 TIME LEFT:  2.00D  GRAD.:     3.454 HEAT:  10.19208
 CYCLE:    42 TIME:   0.004 TIME LEFT:  2.00D  GRAD.:     2.544 HEAT:  10.17544
 CYCLE:    43 TIME:   0.008 TIME LEFT:  2.00D  GRAD.:     2.624 HEAT:  10.16813
 CYCLE:    44 TIME:   0.004 TIME LEFT:  2.00D  GRAD.:     1.943 HEAT:  10.16109
 CYCLE:    45 TIME:   0.008 TIME LEFT:  2.00D  GRAD.:     1.889 HEAT:  10.15573
 CYCLE:    46 TIME:   0.004 TIME LEFT:  2.00D  GRAD.:     1.230 HEAT:  10.14871
 CYCLE:    47 TIME:   0.004 TIME LEFT:  2.00D  GRAD.:     1.061 HEAT:  10.14527
 CYCLE:    48 TIME:   0.008 TIME LEFT:  2.00D  GRAD.:     0.921 HEAT:  10.14244
 CYCLE:    49 TIME:   0.004 TIME LEFT:  2.00D  GRAD.:     0.876 HEAT:  10.14047
 CYCLE:    50 TIME:   0.008 TIME LEFT:  2.00D  GRAD.:     1.078 HEAT:  10.13779
 CYCLE:    51 TIME:   0.004 TIME LEFT:  2.00D  GRAD.:     1.416 HEAT:  10.13328
 CYCLE:    52 TIME:   0.004 TIME LEFT:  2.00D  GRAD.:     1.745 HEAT:  10.12692
 CYCLE:    53 TIME:   0.008 TIME LEFT:  2.00D  GRAD.:     3.149 HEAT:  10.11672
 CYCLE:    54 TIME:   0.004 TIME LEFT:  2.00D  GRAD.:     2.266 HEAT:  10.10842
 CYCLE:    55 TIME:   0.008 TIME LEFT:  2.00D  GRAD.:     2.386 HEAT:  10.09113
 CYCLE:    56 TIME:   0.004 TIME LEFT:  2.00D  GRAD.:     5.895 HEAT:  10.07278
 CYCLE:    57 TIME:   0.004 TIME LEFT:  2.00D  GRAD.:     3.593 HEAT:  10.05569
 CYCLE:    58 TIME:   0.004 TIME LEFT:  2.00D  GRAD.:     3.340 HEAT:  10.02875
 CYCLE:    59 TIME:   0.008 TIME LEFT:  2.00D  GRAD.:     9.576 HEAT:  10.01063
 CYCLE:    60 TIME:   0.004 TIME LEFT:  2.00D  GRAD.:     3.791 HEAT:  9.991499
 CYCLE:    61 TIME:   0.008 TIME LEFT:  2.00D  GRAD.:     2.277 HEAT:  9.972235
 CYCLE:    62 TIME:   0.004 TIME LEFT:  2.00D  GRAD.:     5.624 HEAT:  9.956544
 CYCLE:    63 TIME:   0.004 TIME LEFT:  2.00D  GRAD.:     3.436 HEAT:  9.940993
 CYCLE:    64 TIME:   0.008 TIME LEFT:  2.00D  GRAD.:     4.272 HEAT:  9.902276
 CYCLE:    65 TIME:   0.004 TIME LEFT:  2.00D  GRAD.:     2.235 HEAT:  9.889997
 CYCLE:    66 TIME:   0.004 TIME LEFT:  2.00D  GRAD.:     2.555 HEAT:  9.872385
 CYCLE:    67 TIME:   0.008 TIME LEFT:  2.00D  GRAD.:     4.832 HEAT:  9.860139
 CYCLE:    68 TIME:   0.004 TIME LEFT:  2.00D  GRAD.:     2.883 HEAT:  9.849952
 CYCLE:    69 TIME:   0.008 TIME LEFT:  2.00D  GRAD.:     1.838 HEAT:  9.840214
 CYCLE:    70 TIME:   0.004 TIME LEFT:  2.00D  GRAD.:     2.733 HEAT:  9.830726
 CYCLE:    71 TIME:   0.004 TIME LEFT:  2.00D  GRAD.:     2.301 HEAT:  9.824086
 CYCLE:    72 TIME:   0.008 TIME LEFT:  2.00D  GRAD.:     2.027 HEAT:  9.816757
 CYCLE:    73 TIME:   0.004 TIME LEFT:  2.00D  GRAD.:     1.412 HEAT:  9.812777
 CYCLE:    74 TIME:   0.004 TIME LEFT:  2.00D  GRAD.:     1.372 HEAT:  9.809774
 CYCLE:    75 TIME:   0.008 TIME LEFT:  2.00D  GRAD.:     1.158 HEAT:  9.808037
 CYCLE:    76 TIME:   0.004 TIME LEFT:  2.00D  GRAD.:     0.941 HEAT:  9.806528
 CYCLE:    77 TIME:   0.008 TIME LEFT:  2.00D  GRAD.:     1.118 HEAT:  9.805156
 CYCLE:    78 TIME:   0.004 TIME LEFT:  2.00D  GRAD.:     1.081 HEAT:  9.803511
 CYCLE:    79 TIME:   0.004 TIME LEFT:  2.00D  GRAD.:     1.113 HEAT:  9.802436
 CYCLE:    80 TIME:   0.004 TIME LEFT:  2.00D  GRAD.:     0.871 HEAT:  9.800798
 CYCLE:    81 TIME:   0.008 TIME LEFT:  2.00D  GRAD.:     0.569 HEAT:  9.799596
 CYCLE:    82 TIME:   0.004 TIME LEFT:  2.00D  GRAD.:     0.650 HEAT:  9.798475
 CYCLE:    83 TIME:   0.004 TIME LEFT:  2.00D  GRAD.:     0.648 HEAT:  9.797594
 CYCLE:    84 TIME:   0.008 TIME LEFT:  2.00D  GRAD.:     0.528 HEAT:  9.796654
 CYCLE:    85 TIME:   0.004 TIME LEFT:  2.00D  GRAD.:     0.439 HEAT:  9.796201
 CYCLE:    86 TIME:   0.008 TIME LEFT:  2.00D  GRAD.:     0.699 HEAT:  9.795568
 CYCLE:    87 TIME:   0.004 TIME LEFT:  2.00D  GRAD.:     0.506 HEAT:  9.795207
 CYCLE:    88 TIME:   0.004 TIME LEFT:  2.00D  GRAD.:     0.282 HEAT:  9.794327
 CYCLE:    89 TIME:   0.004 TIME LEFT:  2.00D  GRAD.:     0.265 HEAT:  9.794079
 CYCLE:    90 TIME:   0.008 TIME LEFT:  2.00D  GRAD.:     0.161 HEAT:  9.793907
 CYCLE:    91 TIME:   0.004 TIME LEFT:  2.00D  GRAD.:     0.126 HEAT:  9.793869
 CYCLE:    92 TIME:   0.008 TIME LEFT:  2.00D  GRAD.:     0.102 HEAT:  9.793829
 CYCLE:    93 TIME:   0.004 TIME LEFT:  2.00D  GRAD.:     0.055 HEAT:  9.793819
 CYCLE:    94 TIME:   0.004 TIME LEFT:  2.00D  GRAD.:     0.096 HEAT:  9.793825
 CYCLE:    95 TIME:   0.008 TIME LEFT:  2.00D  GRAD.:     0.023 HEAT:  9.793816

     GRADIENT =  0.02304 IS LESS THAN CUTOFF =  0.05000



 -------------------------------------------------------------------------------
 pm3  precise nosym THREADS=1
 InChI=1S/C7H10/c1-7-5-3-2-4-6-7/h2-3,6H,4-5H2,1H3



     GEOMETRY OPTIMISED USING EIGENVECTOR FOLLOWING (EF).     
     SCF FIELD WAS ACHIEVED                                   


                              PM3 CALCULATION
                                                       MOPAC v23.1.2 MacOS
                                                       Tue Jun  3 16:31:18 2025




          FINAL HEAT OF FORMATION =          9.79382 KCAL/MOL =      40.97733 KJ/MOL


          COSMO AREA              =        142.42 SQUARE ANGSTROMS
          COSMO VOLUME            =        134.58 CUBIC ANGSTROMS

          GRADIENT NORM           =          0.02304          =       0.00559 PER ATOM
          IONIZATION POTENTIAL    =          9.082152 EV
          HOMO LUMO ENERGIES (EV) =         -9.082  1.045
          NO. OF FILLED LEVELS    =         19
          MOLECULAR WEIGHT        =         94.1560         POINT GROUP:  C1  

          MOLECULAR DIMENSIONS (Angstroms)

            Atom       Atom       Distance
            H    16    H    13     5.95365
            H     8    H    11     4.40551
            H    10    H     9     3.24522


          SCF CALCULATIONS        =        103

          WALL-CLOCK TIME         =      0.539 SECONDS
          COMPUTATION TIME        =      0.294 SECONDS




   ATOM   CHEMICAL          X               Y               Z
  NUMBER   SYMBOL      (ANGSTROMS)     (ANGSTROMS)     (ANGSTROMS)

     1       C          0.32930207  *   1.24100120  *  -0.09581985  *
     2       C         -1.51308935  *  -1.04466147  *   0.23796514  *
     3       C          2.26173327  *  -0.37299335  *  -0.21422142  *
     4       C          0.79607507  *  -0.17648533  *  -0.06519896  *
     5       C         -0.04475322  *  -1.20615785  *   0.08629921  *
     6       C         -1.13979854  *   1.39735889  *   0.05605067  *
     7       C         -1.97220723  *   0.36737013  *   0.20668541  *
     8       H          0.84020087  *   1.80986178  *   0.70857777  *
     9       H          0.64750276  *   1.70842495  *  -1.05078102  *
    10       H         -1.83295496  *  -1.51035846  *   1.19288471  *
    11       H         -2.02586186  *  -1.61207100  *  -0.56588265  *
    12       H          2.61397433  *   0.04227929  *  -1.16839264  *
    13       H          2.54905598  *  -1.43233150  *  -0.18701262  *
    14       H          2.80566895  *   0.13951868  *   0.59104226  *
    15       H         -1.51546143  *   2.42659140  *   0.03777610  *
    16       H         -3.05087093  *   0.52574248  *   0.31566575  *
    17       H          0.32847255  *  -2.23735312  *   0.10484113  *

                             CARTESIAN COORDINATES

   1    C        0.329302072     1.241001201    -0.095819852
   2    C       -1.513089351    -1.044661475     0.237965141
   3    C        2.261733272    -0.372993347    -0.214221419
   4    C        0.796075069    -0.176485326    -0.065198957
   5    C       -0.044753220    -1.206157851     0.086299206
   6    C       -1.139798543     1.397358892     0.056050674
   7    C       -1.972207229     0.367370134     0.206685411
   8    H        0.840200870     1.809861776     0.708577769
   9    H        0.647502765     1.708424945    -1.050781024
  10    H       -1.832954959    -1.510358461     1.192884707
  11    H       -2.025861858    -1.612071005    -0.565882647
  12    H        2.613974325     0.042279289    -1.168392635
  13    H        2.549055975    -1.432331498    -0.187012622
  14    H        2.805668947     0.139518684     0.591042263
  15    H       -1.515461434     2.426591399     0.037776104
  16    H       -3.050870934     0.525742482     0.315665747
  17    H        0.328472554    -2.237353119     0.104841132


           Empirical Formula: C7 H10  =    17 atoms



      MOLECULAR POINT GROUP   :   C1  


                  EIGENVALUES  
 -39.98978 -32.67775 -30.35374 -25.82198 -22.68076 -19.99754 -17.30436 -16.10138
 -15.59195 -15.53259 -14.50446 -14.19807 -13.52812 -13.39782 -13.17019 -12.50257
 -11.68335 -10.14618  -9.08215   1.04524   1.15788   3.31375   3.50188   3.52615
   3.82381   3.84777   4.10157   4.29961   4.31570   4.40741   4.46807   4.59372
   4.71063   4.77066   5.42786   5.45350   6.02095   6.26726


              NET ATOMIC CHARGES AND DIPOLE CONTRIBUTIONS

  ATOM NO.   TYPE          CHARGE      No. of ELECS.   s-Pop       p-Pop       
    1          C          -0.012633        4.0126     1.13109     2.88154
    2          C          -0.016646        4.0166     1.13056     2.88609
    3          C          -0.065534        4.0655     1.12506     2.94047
    4          C          -0.124375        4.1244     1.19544     2.92893
    5          C          -0.150537        4.1505     1.19193     2.95860
    6          C          -0.146773        4.1468     1.19261     2.95417
    7          C          -0.146483        4.1465     1.19272     2.95376
    8          H           0.059797        0.9402     0.94020
    9          H           0.059802        0.9402     0.94020
   10          H           0.059023        0.9410     0.94098
   11          H           0.059022        0.9410     0.94098
   12          H           0.043730        0.9563     0.95627
   13          H           0.041995        0.9580     0.95801
   14          H           0.043746        0.9563     0.95625
   15          H           0.097315        0.9027     0.90269
   16          H           0.097422        0.9026     0.90258
   17          H           0.101127        0.8989     0.89887
 DIPOLE           X         Y         Z       TOTAL
 POINT-CHG.     0.147     0.028    -0.017     0.150
 HYBRID         0.011     0.017    -0.002     0.020
 SUM            0.157     0.045    -0.019     0.165


          ATOMIC ORBITAL ELECTRON POPULATIONS

     Atom    s        px        py        pz   
    1  C   1.13109   0.93740   0.93768   1.00647
    2  C   1.13056   0.93677   0.94568   1.00364
    3  C   1.12506   0.92759   1.00844   1.00445
    4  C   1.19544   0.95727   0.95815   1.01351
    5  C   1.19193   0.95627   0.97493   1.02741
    6  C   1.19261   0.95870   0.97913   1.01634
    7  C   1.19272   0.98318   0.95525   1.01533
    8  H   0.94020
    9  H   0.94020
   10  H   0.94098
   11  H   0.94098
   12  H   0.95627
   13  H   0.95801
   14  H   0.95625
   15  H   0.90269
   16  H   0.90258
   17  H   0.89887
 *******************************************************************************
 **                                                                           **
 **                              MOPAC v23.1.2                                **
 **                                                                           **
 *******************************************************************************
 **          Digital Object Identifier (DOI): 10.5281/zenodo.6511958          **
 **    Visit the DOI location for information on how to cite this program.    **
 *******************************************************************************

                              PM3 CALCULATION RESULTS

 *******************************************************************************
 *  CALCULATION DONE: (MAX THREADS = 1)              Tue Jun  3 16:31:18 2025  *
 *  PM3        - The PM3 Hamiltonian to be used
 *  OLDGEO     - PREVIOUS GEOMETRY TO BE USED
 *  PRECISE    - TIGHTER CRITERIA TO BE USED
 *  NOSYM      - POINT-GROUP SYMMETRY SET TO C1
 *  THREADS=1  - MULTI-THREADING NOT USED
 *  T=         - A TIME OF 172800.0 SECONDS REQUESTED
 *  DUMP=N     - RESTART FILE WRITTEN EVERY 7200.0 SECONDS REQUESTED
 *  THERMO     - THERMODYNAMIC QUANTITIES TO BE CALCULATED
 *******************************************************************************
oldgeo thermo nosym precise THREADS=1  pm3
 InChI=1S/C7H10/c1-7-5-3-2-4-6-7/h2-3,6H,4-5H2,1H3

   ATOM   CHEMICAL          X               Y               Z
  NUMBER   SYMBOL      (ANGSTROMS)     (ANGSTROMS)     (ANGSTROMS)

     1       C          0.32930207  *   1.24100120  *  -0.09581985  *
     2       C         -1.51308935  *  -1.04466147  *   0.23796514  *
     3       C          2.26173327  *  -0.37299335  *  -0.21422142  *
     4       C          0.79607507  *  -0.17648533  *  -0.06519896  *
     5       C         -0.04475322  *  -1.20615785  *   0.08629921  *
     6       C         -1.13979854  *   1.39735889  *   0.05605067  *
     7       C         -1.97220723  *   0.36737013  *   0.20668541  *
     8       H          0.84020087  *   1.80986178  *   0.70857777  *
     9       H          0.64750276  *   1.70842495  *  -1.05078102  *
    10       H         -1.83295496  *  -1.51035846  *   1.19288471  *
    11       H         -2.02586186  *  -1.61207100  *  -0.56588265  *
    12       H          2.61397433  *   0.04227929  *  -1.16839264  *
    13       H          2.54905598  *  -1.43233150  *  -0.18701262  *
    14       H          2.80566895  *   0.13951868  *   0.59104226  *
    15       H         -1.51546143  *   2.42659140  *   0.03777610  *
    16       H         -3.05087093  *   0.52574248  *   0.31566575  *
    17       H          0.32847255  *  -2.23735312  *   0.10484113  *



          CARTESIAN COORDINATES 

    NO.       ATOM           X           Y           Z

     1         C          0.3293      1.2410     -0.0958
     2         C         -1.5131     -1.0447      0.2380
     3         C          2.2617     -0.3730     -0.2142
     4         C          0.7961     -0.1765     -0.0652
     5         C         -0.0448     -1.2062      0.0863
     6         C         -1.1398      1.3974      0.0561
     7         C         -1.9722      0.3674      0.2067
     8         H          0.8402      1.8099      0.7086
     9         H          0.6475      1.7084     -1.0508
    10         H         -1.8330     -1.5104      1.1929
    11         H         -2.0259     -1.6121     -0.5659
    12         H          2.6140      0.0423     -1.1684
    13         H          2.5491     -1.4323     -0.1870
    14         H          2.8057      0.1395      0.5910
    15         H         -1.5155      2.4266      0.0378
    16         H         -3.0509      0.5257      0.3157
    17         H          0.3285     -2.2374      0.1048

  H: (PM3): J. J. P. STEWART, J. COMP. CHEM. 10, 209 (1989).
  C: (PM3): J. J. P. STEWART, J. COMP. CHEM. 10, 209 (1989).

           Empirical Formula: C7 H10  =    17 atoms



      MOLECULAR POINT GROUP   :   C1  


      RHF CALCULATION, NO. OF DOUBLY OCCUPIED LEVELS = 19



          HEAT OF FORMATION =       9.793816 KCALS/MOLE


          CARTESIAN COORDINATE DERIVATIVES

   NUMBER  ATOM         X            Y            Z

     1       C      0.001096    -0.001678     0.001488
     2       C      0.001413     0.002147    -0.000207
     3       C     -0.005632    -0.005426    -0.001304
     4       C     -0.000736     0.000282    -0.000904
     5       C     -0.000088     0.002702     0.001216
     6       C      0.003293     0.000026    -0.003521
     7       C      0.000638     0.002182     0.003945
     8       H      0.001214    -0.005210    -0.000363
     9       H     -0.000181    -0.005695    -0.001344
    10       H      0.002651    -0.004404    -0.000333
    11       H      0.006827    -0.004010     0.000195
    12       H     -0.002266     0.005562    -0.002853
    13       H      0.004140     0.003799    -0.003762
    14       H     -0.001140     0.001342     0.008068
    15       H     -0.005707     0.006191     0.000958
    16       H     -0.003165    -0.000314    -0.000922
    17       H     -0.002358     0.002504    -0.000355



          GRADIENT NORM =   0.02313

          MOLECULAR WEIGHT =   94.16



          ROTATIONAL CONSTANTS IN CM(-1)

          A =    0.16271976   B =    0.08067458   C =    0.05562515



           PRINCIPAL MOMENTS OF INERTIA IN UNITS OF 10**(-40)*GRAM-CM**2

          A =      172.0304   B =      346.9835   C =      503.2391


          ORIENTATION OF MOLECULE IN FORCE CALCULATION

    NO.       ATOM         X         Y         Z

     1          C      -1.2530   -0.3913    0.0000
     2          C       1.7016   -0.3913    0.0000
     3          C      -1.2228    2.1291    0.0000
     4          C      -0.4441    0.8631   -0.0001
     5          C       0.8938    0.8547   -0.0002
     6          C      -0.4408   -1.6347    0.0001
     7          C       0.8921   -1.6364    0.0001
     8          H      -1.9208   -0.3937    0.8865
     9          H      -1.9209   -0.3938   -0.8863
    10          H       2.3692   -0.3912    0.8863
    11          H       2.3695   -0.3914   -0.8860
    12          H      -1.8715    2.1858   -0.8848
    13          H      -0.5794    3.0187   -0.0025
    14          H      -1.8675    2.1878    0.8877
    15          H      -1.0048   -2.5742    0.0001
    16          H       1.4545   -2.5767    0.0001
    17          H       1.4609    1.7935   -0.0003


    FIRST DERIVATIVES WILL BE USED IN THE CALCULATION OF SECOND DERIVATIVES

          ESTIMATED TIME TO COMPLETE CALCULATION =        0.80 SECONDS

    FOR POINT-GROUP C1   THERE ARE   1 UNIQUE SYMMETRY FUNCTIONS.

 STEP:   1 TIME =     0.01 SECS, INTEGRAL =      0.01 TIME LEFT: 172799.99
 STEP:   2 TIME =     0.01 SECS, INTEGRAL =      0.02 TIME LEFT: 172799.98
 STEP:   3 TIME =     0.01 SECS, INTEGRAL =      0.04 TIME LEFT: 172799.96
 STEP:   4 TIME =     0.01 SECS, INTEGRAL =      0.05 TIME LEFT: 172799.95
 STEP:   5 TIME =     0.01 SECS, INTEGRAL =      0.06 TIME LEFT: 172799.94
 STEP:   6 TIME =     0.01 SECS, INTEGRAL =      0.07 TIME LEFT: 172799.93
 STEP:   7 TIME =     0.01 SECS, INTEGRAL =      0.08 TIME LEFT: 172799.92
 STEP:   8 TIME =     0.01 SECS, INTEGRAL =      0.09 TIME LEFT: 172799.91
 STEP:   9 TIME =     0.01 SECS, INTEGRAL =      0.11 TIME LEFT: 172799.89
 STEP:  10 TIME =     0.02 SECS, INTEGRAL =      0.12 TIME LEFT: 172799.88
 STEP:  11 TIME =     0.01 SECS, INTEGRAL =      0.13 TIME LEFT: 172799.87
 STEP:  12 TIME =     0.01 SECS, INTEGRAL =      0.14 TIME LEFT: 172799.86
 STEP:  13 TIME =     0.01 SECS, INTEGRAL =      0.16 TIME LEFT: 172799.84
 STEP:  14 TIME =     0.01 SECS, INTEGRAL =      0.17 TIME LEFT: 172799.83
 STEP:  15 TIME =     0.02 SECS, INTEGRAL =      0.18 TIME LEFT: 172799.82
 STEP:  16 TIME =     0.01 SECS, INTEGRAL =      0.20 TIME LEFT: 172799.80
 STEP:  17 TIME =     0.01 SECS, INTEGRAL =      0.21 TIME LEFT: 172799.79
 STEP:  18 TIME =     0.02 SECS, INTEGRAL =      0.22 TIME LEFT: 172799.78
 STEP:  19 TIME =     0.01 SECS, INTEGRAL =      0.23 TIME LEFT: 172799.77
 STEP:  20 TIME =     0.02 SECS, INTEGRAL =      0.25 TIME LEFT: 172799.75
 STEP:  21 TIME =     0.02 SECS, INTEGRAL =      0.27 TIME LEFT: 172799.73
 STEP:  22 TIME =     0.01 SECS, INTEGRAL =      0.28 TIME LEFT: 172799.72
 STEP:  23 TIME =     0.01 SECS, INTEGRAL =      0.29 TIME LEFT: 172799.71
 STEP:  24 TIME =     0.01 SECS, INTEGRAL =      0.30 TIME LEFT: 172799.70
 STEP:  25 TIME =     0.01 SECS, INTEGRAL =      0.31 TIME LEFT: 172799.69
 STEP:  26 TIME =     0.01 SECS, INTEGRAL =      0.32 TIME LEFT: 172799.68
 STEP:  27 TIME =     0.01 SECS, INTEGRAL =      0.34 TIME LEFT: 172799.66
 STEP:  28 TIME =     0.02 SECS, INTEGRAL =      0.35 TIME LEFT: 172799.65
 STEP:  29 TIME =     0.01 SECS, INTEGRAL =      0.36 TIME LEFT: 172799.64
 STEP:  30 TIME =     0.01 SECS, INTEGRAL =      0.38 TIME LEFT: 172799.62
 STEP:  31 TIME =     0.01 SECS, INTEGRAL =      0.39 TIME LEFT: 172799.61
 STEP:  32 TIME =     0.01 SECS, INTEGRAL =      0.40 TIME LEFT: 172799.60
 STEP:  33 TIME =     0.01 SECS, INTEGRAL =      0.41 TIME LEFT: 172799.59
 STEP:  34 TIME =     0.01 SECS, INTEGRAL =      0.42 TIME LEFT: 172799.58
 STEP:  35 TIME =     0.02 SECS, INTEGRAL =      0.44 TIME LEFT: 172799.56
 STEP:  36 TIME =     0.01 SECS, INTEGRAL =      0.45 TIME LEFT: 172799.55
 STEP:  37 TIME =     0.01 SECS, INTEGRAL =      0.46 TIME LEFT: 172799.54
 STEP:  38 TIME =     0.01 SECS, INTEGRAL =      0.47 TIME LEFT: 172799.53
 STEP:  39 TIME =     0.02 SECS, INTEGRAL =      0.49 TIME LEFT: 172799.51
 STEP:  40 TIME =     0.02 SECS, INTEGRAL =      0.50 TIME LEFT: 172799.50
 STEP:  41 TIME =     0.01 SECS, INTEGRAL =      0.52 TIME LEFT: 172799.48
 STEP:  42 TIME =     0.01 SECS, INTEGRAL =      0.53 TIME LEFT: 172799.47
 STEP:  43 TIME =     0.01 SECS, INTEGRAL =      0.54 TIME LEFT: 172799.46
 STEP:  44 TIME =     0.01 SECS, INTEGRAL =      0.55 TIME LEFT: 172799.45
 STEP:  45 TIME =     0.01 SECS, INTEGRAL =      0.56 TIME LEFT: 172799.44
 STEP:  46 TIME =     0.01 SECS, INTEGRAL =      0.57 TIME LEFT: 172799.43
 STEP:  47 TIME =     0.01 SECS, INTEGRAL =      0.59 TIME LEFT: 172799.41
 STEP:  48 TIME =     0.01 SECS, INTEGRAL =      0.60 TIME LEFT: 172799.40
 STEP:  49 TIME =     0.01 SECS, INTEGRAL =      0.61 TIME LEFT: 172799.39
 STEP:  50 TIME =     0.01 SECS, INTEGRAL =      0.62 TIME LEFT: 172799.38
 STEP:  51 TIME =     0.02 SECS, INTEGRAL =      0.64 TIME LEFT: 172799.36

(To convert to Hartree/Bohr^2, multiply by (10^(-21) x N x a0^2)/(4.184 x 627.51) =  0.0642)


           FORCE MATRIX IN MILLIDYNES/ANGSTROM


                  C  1       C  2       C  3       C  4       C  5       C  6
 ------------------------------------------------------------------------------
     C    1  15.123164
     C    2   0.192351  15.147607
     C    3   0.623621   0.138379  14.713221
     C    4   4.773544   0.825748   5.004683  18.546646
     C    5   0.806339   5.046032   0.830092  10.392761  18.315821
     C    6   5.047050   0.851049   0.049858   0.712153   0.055062  18.298910
     C    7   0.845136   5.051286   0.003293   0.050462   0.733719  10.740056
     H    8   4.375655   0.013507   0.026441   0.431538   0.035105   0.421661
     H    9   4.375517   0.013508   0.026465   0.431538   0.035106   0.421648
     H   10   0.013470   4.382220   0.019249   0.035826   0.419016   0.038104
     H   11   0.013468   4.382232   0.019243   0.035838   0.419035   0.038109
     H   12   0.023374   0.019338   4.697640   0.448489   0.032975   0.001897
     H   13   0.045271   0.002421   4.733326   0.472689   0.051104   0.008412
     H   14   0.023202   0.019377   4.697312   0.448309   0.032842   0.001888
     H   15   0.424213   0.127854   0.008253   0.045836   0.003757   4.821271
     H   16   0.127622   0.425198   0.001395   0.003296   0.046022   0.445226
     H   17   0.116690   0.423492   0.080678   0.458499   4.787061   0.003417


                  C  7       H  8       H  9       H 10       H 11       H 12
 ------------------------------------------------------------------------------
     C    7  18.295557
     H    8   0.037765   4.960432
     H    9   0.037767   0.564551   4.960309
     H   10   0.421264   0.002415   0.002589   4.966678
     H   11   0.421282   0.002588   0.002414   0.566421   4.966711
     H   12   0.001342   0.001462   0.017097   0.002243   0.003311   5.417082
     H   13   0.000916   0.001589   0.001588   0.000542   0.000536   0.565066
     H   14   0.001344   0.016920   0.001460   0.003317   0.002250   0.572532
     H   15   0.445622   0.028185   0.028194   0.016724   0.016721   0.000515
     H   16   4.825441   0.016740   0.016740   0.027651   0.027661   0.000334
     H   17   0.045800   0.015633   0.015631   0.028201   0.028210   0.009433


                  H 13       H 14       H 15       H 16       H 17
 ------------------------------------------------------------------
     H   13   5.456628
     H   14   0.564994   5.416651
     H   15   0.001539   0.000515   5.198225
     H   16   0.000270   0.000335   0.071293   5.203177
     H   17   0.029741   0.009466   0.000851   0.006748   5.171619


          HEAT OF FORMATION =       9.793816 KCALS/MOLE

          ZERO POINT ENERGY      92.974 KCAL/MOL


           NORMAL COORDINATE ANALYSIS (Total motion = 1 Angstrom)


   Root No.       1         2         3         4         5         6         7         8

                 1 A       2 A       3 A       4 A       5 A       6 A       7 A       8 A   

                  58.9     110.7     219.8     360.1     363.3     459.9     497.7     569.9
  
           1    0.0000    0.0000   -0.0000   -0.0001   -0.0227    0.0001   -0.0618    0.0464
           2    0.0000    0.0000   -0.0000   -0.0002   -0.0344    0.0000   -0.0047   -0.0294
           3    0.0553    0.0103    0.0088    0.0116   -0.0001    0.0010    0.0000    0.0000
           4   -0.0000    0.0000    0.0000   -0.0000   -0.0074   -0.0000    0.0408   -0.0670
           5    0.0000   -0.0000   -0.0000    0.0001    0.0200   -0.0000    0.0310    0.0385
           6    0.0317   -0.0167   -0.0346   -0.0120    0.0001   -0.0044   -0.0000   -0.0000
           7    0.0000   -0.0000   -0.0000    0.0003    0.0574   -0.0001    0.0403    0.0310
           8    0.0000   -0.0000    0.0000    0.0002    0.0418    0.0001   -0.0679   -0.0161
           9   -0.0325   -0.0047   -0.0459    0.0004    0.0000   -0.0081   -0.0000   -0.0000
          10   -0.0000    0.0000   -0.0000   -0.0002   -0.0408    0.0000    0.0196    0.0322
          11   -0.0000    0.0000   -0.0000   -0.0001   -0.0205    0.0001   -0.0611   -0.0048
          12    0.0067    0.0062    0.0303   -0.0022    0.0000    0.0937    0.0001    0.0000
          13   -0.0000    0.0000   -0.0000   -0.0002   -0.0408   -0.0000    0.0210    0.0264
          14   -0.0000    0.0000    0.0000   -0.0001   -0.0095   -0.0000    0.0018    0.0832
          15   -0.0010   -0.0019    0.0753    0.0010   -0.0000   -0.0320   -0.0000   -0.0000
          16    0.0000   -0.0000    0.0000    0.0001    0.0168    0.0000   -0.0326   -0.0359
          17   -0.0000    0.0000   -0.0000   -0.0001   -0.0170   -0.0000    0.0296   -0.0806
          18   -0.0265    0.0117    0.0097   -0.0655    0.0004   -0.0170   -0.0000   -0.0000
          19    0.0000   -0.0000    0.0000    0.0001    0.0178    0.0000   -0.0294   -0.0394
          20   -0.0000   -0.0000   -0.0000    0.0000    0.0061   -0.0001    0.0753    0.0069
          21   -0.0369   -0.0002   -0.0203    0.0660   -0.0004    0.0084    0.0000    0.0000
          22    0.0749    0.0017   -0.0111    0.0915   -0.0228   -0.1010   -0.0651    0.0497
          23   -0.0114    0.0004   -0.0013   -0.0351   -0.0507   -0.0558    0.0140   -0.0048
          24    0.1119    0.0118    0.0003    0.0823   -0.0010   -0.0781   -0.0017    0.0019
          25   -0.0749   -0.0017    0.0111   -0.0918   -0.0217    0.1012   -0.0648    0.0497
          26    0.0114   -0.0003    0.0013    0.0345   -0.0510    0.0558    0.0141   -0.0047
          27    0.1119    0.0118    0.0003    0.0823    0.0000   -0.0781    0.0015   -0.0019
          28   -0.0575    0.0184    0.0869    0.0909   -0.0080   -0.0127    0.0425   -0.0714
          29   -0.0131    0.0002   -0.0418    0.0361    0.0396    0.0252    0.0158    0.0179
          30    0.0753   -0.0306   -0.1011   -0.0825    0.0006    0.0053   -0.0011    0.0028
          31    0.0575   -0.0184   -0.0869   -0.0910   -0.0070    0.0126    0.0425   -0.0714
          32    0.0132   -0.0003    0.0418   -0.0356    0.0399   -0.0252    0.0158    0.0178
          33    0.0753   -0.0306   -0.1011   -0.0825    0.0003    0.0053    0.0011   -0.0028
          34    0.0163    0.2106    0.0055   -0.0019    0.0661    0.0407    0.0425    0.0338
          35   -0.0179    0.1114   -0.0608    0.0019    0.1068   -0.0776   -0.0678   -0.0159
          36   -0.0457   -0.1521   -0.0544    0.0022   -0.0009   -0.0446   -0.0016   -0.0014
          37    0.0000    0.0005    0.0000    0.0008    0.1424   -0.0000    0.0443    0.0323
          38   -0.0000    0.0003   -0.0002   -0.0001   -0.0169   -0.0001   -0.0709   -0.0159
          39   -0.0389    0.2612   -0.1049   -0.0002    0.0001   -0.0613   -0.0001   -0.0000
          40   -0.0163   -0.2113   -0.0055    0.0027    0.0660   -0.0410    0.0425    0.0338
          41    0.0179   -0.1119    0.0611   -0.0006    0.1064    0.0780   -0.0676   -0.0159
          42   -0.0456   -0.1509   -0.0545    0.0022    0.0007   -0.0446    0.0015    0.0013
          43    0.0000   -0.0000    0.0000    0.0002    0.0411   -0.0000    0.0109   -0.0393
          44   -0.0000    0.0000   -0.0000   -0.0002   -0.0317    0.0000    0.0037   -0.0774
          45   -0.0768    0.0237    0.0292   -0.1591    0.0009   -0.0544   -0.0001    0.0000
          46    0.0000   -0.0000    0.0000    0.0002    0.0368    0.0000   -0.0458    0.0275
          47   -0.0000   -0.0000   -0.0000    0.0001    0.0174   -0.0001    0.0648    0.0468
          48   -0.0961    0.0015   -0.0338    0.1600   -0.0009    0.0210   -0.0000    0.0000
          49   -0.0000    0.0000   -0.0000   -0.0003   -0.0574    0.0000   -0.0257    0.0311
          50   -0.0000   -0.0000    0.0000    0.0000    0.0018   -0.0001    0.0302    0.0797
          51   -0.0326   -0.0014    0.1415    0.0023   -0.0001   -0.1653   -0.0002   -0.0000


   Root No.       9        10        11        12        13        14        15        16

                 9 A      10 A      11 A      12 A      13 A      14 A      15 A      16 A   

                 707.9     815.0     820.1     883.6     946.6     952.2     982.1     985.1
  
           1   -0.0000    0.0051   -0.0000    0.0000    0.0001    0.0659    0.0000   -0.0133
           2   -0.0000   -0.0305    0.0000   -0.0000    0.0000    0.0202    0.0000   -0.0082
           3   -0.0154   -0.0000    0.0132    0.0486    0.0295   -0.0000   -0.0005    0.0000
           4    0.0000    0.0706   -0.0000    0.0000   -0.0000    0.0093   -0.0000    0.0138
           5   -0.0000   -0.0052   -0.0000   -0.0000    0.0000    0.0092    0.0000   -0.0084
           6   -0.0231    0.0000   -0.0348   -0.0113    0.0436   -0.0001    0.0172   -0.0000
           7   -0.0000   -0.0331    0.0000   -0.0000   -0.0000   -0.0106   -0.0000   -0.0376
           8   -0.0000    0.0528   -0.0000    0.0000   -0.0000   -0.0268   -0.0000   -0.0121
           9    0.0031    0.0000    0.0056   -0.0183    0.0059   -0.0000    0.0277    0.0000
          10    0.0000    0.0014    0.0000   -0.0000   -0.0000   -0.0161    0.0000    0.0008
          11   -0.0000    0.0172   -0.0000    0.0000   -0.0000   -0.0099   -0.0000   -0.0123
          12    0.0173   -0.0000    0.0011   -0.0168   -0.0051    0.0000   -0.0170   -0.0000
          13    0.0000    0.0169    0.0000   -0.0000   -0.0000   -0.0300   -0.0000    0.0224
          14   -0.0000   -0.0196    0.0000   -0.0000   -0.0000   -0.0360   -0.0000    0.0468
          15   -0.0000   -0.0000   -0.0234    0.0153   -0.0448    0.0000   -0.0032   -0.0000
          16   -0.0000   -0.0343    0.0000   -0.0000   -0.0000   -0.0138    0.0000    0.0041
          17    0.0000   -0.0639    0.0000   -0.0000    0.0000    0.0001    0.0000    0.0121
          18   -0.0167    0.0000    0.0135   -0.0103   -0.0336    0.0000    0.0161    0.0000
          19   -0.0000   -0.0313    0.0000   -0.0000   -0.0000   -0.0158   -0.0000    0.0036
          20    0.0000    0.0510   -0.0000    0.0000    0.0000    0.0203    0.0000   -0.0195
          21   -0.0136    0.0000    0.0196   -0.0177   -0.0130    0.0000   -0.0300    0.0000
          22    0.0686    0.0070   -0.0364   -0.1240   -0.0691    0.0872   -0.0004   -0.0198
          23   -0.0246   -0.0290    0.0238   -0.0111   -0.0201    0.0656    0.0945   -0.0138
          24    0.0386   -0.0002   -0.0152   -0.0482   -0.0245    0.0143   -0.0009   -0.0038
          25   -0.0687    0.0068    0.0364    0.1240    0.0692    0.0871    0.0004   -0.0198
          26    0.0246   -0.0290   -0.0237    0.0111    0.0202    0.0657   -0.0944   -0.0134
          27    0.0386    0.0003   -0.0152   -0.0482   -0.0245   -0.0143   -0.0009    0.0038
          28   -0.0959    0.0853   -0.1000   -0.0295    0.1021    0.0111    0.0399    0.0194
          29   -0.0131   -0.0446    0.0447   -0.0371    0.0418    0.0468   -0.0425   -0.0653
          30    0.0526   -0.0086    0.0437    0.0118   -0.0360   -0.0011   -0.0137   -0.0044
          31    0.0959    0.0853    0.1000    0.0296   -0.1021    0.0114   -0.0399    0.0195
          32    0.0131   -0.0446   -0.0446    0.0370   -0.0417    0.0468    0.0425   -0.0652
          33    0.0526    0.0086    0.0437    0.0118   -0.0360    0.0012   -0.0138    0.0045
          34    0.0169   -0.0408    0.0226   -0.0522    0.0168    0.0034    0.0678   -0.0237
          35   -0.0297    0.0618   -0.0373    0.0849   -0.0264    0.0577   -0.1074    0.1524
          36   -0.0121    0.0052   -0.0146    0.0276   -0.0092   -0.0034   -0.0315    0.0015
          37    0.0000   -0.0479    0.0000   -0.0001    0.0001    0.1086    0.0002    0.1440
          38   -0.0001    0.0642   -0.0001    0.0003   -0.0002   -0.1103   -0.0004   -0.1369
          39   -0.0171   -0.0000   -0.0197    0.0361   -0.0131    0.0000   -0.0398    0.0001
          40   -0.0170   -0.0410   -0.0227    0.0524   -0.0169    0.0038   -0.0680   -0.0232
          41    0.0298    0.0621    0.0374   -0.0852    0.0266    0.0571    0.1079    0.1515
          42   -0.0121   -0.0053   -0.0145    0.0276   -0.0091    0.0034   -0.0314   -0.0015
          43    0.0000    0.0167    0.0000    0.0000   -0.0001   -0.0876   -0.0000   -0.0049
          44    0.0000   -0.0956    0.0000   -0.0001    0.0001    0.0449    0.0000    0.0168
          45    0.1782   -0.0000   -0.1656   -0.0482    0.1663   -0.0001   -0.1030   -0.0000
          46   -0.0000   -0.0295   -0.0000   -0.0000   -0.0000   -0.0277    0.0000   -0.0475
          47    0.0000    0.0510   -0.0000    0.0000    0.0000    0.0156    0.0000   -0.0510
          48    0.1982   -0.0002   -0.0313    0.1797    0.0033   -0.0001    0.1431   -0.0000
          49    0.0000    0.0140   -0.0000   -0.0000   -0.0001   -0.0653    0.0000    0.0292
          50    0.0000   -0.0178    0.0000   -0.0000    0.0000   -0.0160   -0.0000    0.0446
          51    0.0595    0.0001    0.2522   -0.0258    0.1921   -0.0001   -0.0312   -0.0000


   Root No.      17        18        19        20        21        22        23        24

                17 A      18 A      19 A      20 A      21 A      22 A      23 A      24 A   

                1015.5    1033.7    1045.1    1059.7    1089.1    1111.6    1159.1    1223.2
  
           1    0.0169   -0.0000   -0.0245   -0.0000    0.0000   -0.0058    0.0060   -0.0019
           2   -0.0109   -0.0000    0.0197    0.0000   -0.0000   -0.0099   -0.0010   -0.0090
           3    0.0000   -0.0247   -0.0000    0.0063   -0.0058   -0.0000    0.0000    0.0000
           4   -0.0397    0.0000   -0.0130   -0.0000    0.0000   -0.0035   -0.0050    0.0098
           5   -0.0171   -0.0000    0.0011    0.0000   -0.0000    0.0098   -0.0033    0.0158
           6   -0.0000    0.0223    0.0000   -0.0044    0.0024    0.0000    0.0000   -0.0000
           7   -0.0056    0.0000   -0.0142    0.0000    0.0000   -0.0090    0.0010    0.0094
           8   -0.0048    0.0000   -0.0066   -0.0000    0.0000   -0.0011   -0.0016   -0.0044
           9    0.0000   -0.0196   -0.0000    0.0099   -0.0190   -0.0000    0.0000    0.0000
          10    0.0005   -0.0000    0.0100    0.0000   -0.0000    0.0121    0.0021   -0.0264
          11    0.0062    0.0000    0.0014   -0.0000   -0.0000    0.0101    0.0021    0.0103
          12   -0.0000    0.0288    0.0000   -0.0138    0.0392    0.0001   -0.0000   -0.0000
          13    0.0028   -0.0000    0.0087    0.0000   -0.0000    0.0159   -0.0051   -0.0240
          14   -0.0184    0.0000   -0.0183   -0.0000    0.0001   -0.0149    0.0014    0.0187
          15    0.0000   -0.0293   -0.0000   -0.0193   -0.0193   -0.0000    0.0000   -0.0000
          16    0.0151   -0.0000    0.0024   -0.0000    0.0000   -0.0086    0.0056    0.0093
          17    0.0273   -0.0000   -0.0276   -0.0000    0.0000    0.0061    0.0006   -0.0166
          18    0.0000    0.0391   -0.0000   -0.0048   -0.0199   -0.0000    0.0000    0.0000
          19   -0.0069   -0.0000    0.0140    0.0000    0.0000   -0.0059   -0.0053    0.0136
          20    0.0532   -0.0000    0.0014   -0.0000    0.0000   -0.0059    0.0020    0.0064
          21    0.0000   -0.0282   -0.0000    0.0317    0.0116    0.0000   -0.0000   -0.0000
          22    0.0276    0.0563   -0.0381   -0.0146    0.0138   -0.0099    0.0170   -0.0105
          23   -0.0793   -0.0821    0.1390   -0.0892    0.2204   -0.0969    0.0850    0.0707
          24    0.0060    0.0188   -0.0090   -0.0054    0.0060   -0.0028    0.0058   -0.0048
          25    0.0276   -0.0563   -0.0382    0.0145   -0.0137   -0.0099    0.0170   -0.0105
          26   -0.0791    0.0821    0.1387    0.0895   -0.2201   -0.0978    0.0852    0.0708
          27   -0.0060    0.0188    0.0090   -0.0054    0.0060    0.0028   -0.0058    0.0048
          28   -0.0573    0.0491   -0.0167   -0.0092    0.0051   -0.0042   -0.0162    0.0327
          29   -0.1117   -0.0328    0.0332   -0.2642   -0.0858    0.1692    0.0720   -0.0697
          30    0.0126   -0.0156    0.0039    0.0028   -0.0014    0.0013    0.0056   -0.0142
          31   -0.0573   -0.0491   -0.0168    0.0092   -0.0050   -0.0042   -0.0162    0.0327
          32   -0.1116    0.0327    0.0330    0.2644    0.0848    0.1695    0.0720   -0.0697
          33   -0.0126   -0.0156   -0.0039    0.0027   -0.0014   -0.0013   -0.0056    0.0142
          34   -0.0023   -0.0454   -0.0121    0.0233   -0.0441   -0.0087    0.0024    0.0231
          35    0.0168    0.0712    0.0422   -0.0356    0.0663    0.0234   -0.0025   -0.0590
          36   -0.0005    0.0198    0.0012   -0.0108    0.0202    0.0015   -0.0011   -0.0111
          37    0.0319   -0.0001    0.0383   -0.0000   -0.0000    0.0252    0.0008    0.0169
          38   -0.0318    0.0002   -0.0435   -0.0001    0.0002   -0.0258   -0.0015   -0.0138
          39    0.0000    0.0250    0.0000   -0.0164    0.0325    0.0001   -0.0000   -0.0001
          40   -0.0022    0.0455   -0.0119   -0.0234    0.0443   -0.0084    0.0024    0.0230
          41    0.0167   -0.0715    0.0418    0.0357   -0.0666    0.0230   -0.0024   -0.0588
          42    0.0005    0.0198   -0.0012   -0.0108    0.0202   -0.0014    0.0010    0.0111
          43    0.1115   -0.0000    0.0669   -0.0000    0.0002   -0.0487    0.2756   -0.0876
          44   -0.0277   -0.0000   -0.0642   -0.0000   -0.0001    0.0280   -0.1594    0.0403
          45   -0.0000   -0.1091    0.0000    0.0146    0.0244    0.0000    0.0000   -0.0000
          46    0.0154   -0.0000    0.1502    0.0002   -0.0001   -0.0381   -0.2675   -0.0873
          47    0.0672   -0.0000    0.0804    0.0001   -0.0000   -0.0226   -0.1531   -0.0537
          48   -0.0000    0.0883    0.0000   -0.0589   -0.0128   -0.0000    0.0000   -0.0000
          49    0.1081   -0.0000    0.0762   -0.0000   -0.0003    0.1634   -0.0084    0.1904
          50   -0.0835    0.0000   -0.0585   -0.0000    0.0002   -0.1010    0.0036   -0.1101
          51    0.0000    0.0873    0.0000    0.0216    0.0360    0.0001   -0.0000    0.0000


   Root No.      25        26        27        28        29        30        31        32

                25 A      26 A      27 A      28 A      29 A      30 A      31 A      32 A   

                1238.2    1320.6    1362.9    1380.1    1392.4    1397.4    1405.2    1443.2
  
           1   -0.0025   -0.0009   -0.0346    0.0084    0.0352    0.0001   -0.0088    0.0157
           2    0.0343   -0.0126    0.0017   -0.0399   -0.0115    0.0002   -0.0253    0.0041
           3   -0.0000    0.0000    0.0000    0.0000   -0.0000    0.0003    0.0000   -0.0000
           4    0.0165   -0.0025    0.0322   -0.0052    0.0405    0.0002   -0.0107   -0.0022
           5   -0.0051   -0.0084    0.0026   -0.0334   -0.0183    0.0002   -0.0267    0.0861
           6    0.0000   -0.0000    0.0000    0.0000    0.0000   -0.0001    0.0000   -0.0000
           7    0.0044    0.0071   -0.0081   -0.0364    0.0122   -0.0003    0.0064   -0.0283
           8   -0.0210    0.0041    0.0058    0.0226    0.0031   -0.0005    0.0289    0.0515
           9    0.0000   -0.0000    0.0000    0.0001   -0.0000   -0.0422   -0.0003   -0.0000
          10   -0.0158   -0.0121   -0.0027    0.0001   -0.0203   -0.0001    0.0019    0.0174
          11    0.0469   -0.0265    0.0053    0.0002   -0.0129   -0.0001    0.0137   -0.0425
          12   -0.0000    0.0000   -0.0000   -0.0000    0.0000   -0.0016   -0.0000   -0.0000
          13   -0.0167   -0.0079    0.0021    0.0081   -0.0146   -0.0001    0.0094    0.0138
          14    0.0110    0.0199    0.0040    0.0088    0.0249    0.0000    0.0033   -0.0324
          15    0.0000   -0.0000   -0.0000   -0.0000   -0.0000   -0.0001   -0.0000    0.0000
          16   -0.0149   -0.0137   -0.0029    0.0024   -0.0154   -0.0001    0.0081   -0.0196
          17   -0.0106    0.0271   -0.0058    0.0186    0.0220   -0.0000    0.0030    0.0201
          18    0.0000   -0.0000    0.0000    0.0000    0.0000    0.0003    0.0000    0.0000
          19   -0.0094   -0.0158    0.0036   -0.0070   -0.0180   -0.0000    0.0019   -0.0113
          20   -0.0168   -0.0172   -0.0054    0.0095   -0.0129   -0.0001    0.0140   -0.0419
          21    0.0000    0.0000   -0.0000    0.0000   -0.0000   -0.0000   -0.0000    0.0000
          22   -0.0047    0.1061    0.1461   -0.0232   -0.0777   -0.0008    0.0163   -0.0166
          23   -0.0905    0.0269   -0.0005    0.0577    0.0197   -0.0078    0.0366   -0.0142
          24   -0.0025    0.0699    0.1173   -0.0199   -0.0728   -0.0010    0.0167   -0.0208
          25   -0.0047    0.1061    0.1461   -0.0232   -0.0777    0.0004    0.0163   -0.0166
          26   -0.0905    0.0269   -0.0005    0.0578    0.0197    0.0072    0.0368   -0.0142
          27    0.0025   -0.0699   -0.1173    0.0199    0.0728   -0.0006   -0.0167    0.0208
          28    0.0599    0.0955   -0.1354    0.0153   -0.0925   -0.0005    0.0201    0.0009
          29   -0.0055    0.0197   -0.0045    0.0508    0.0244    0.0001    0.0350   -0.0835
          30   -0.0278   -0.0633    0.1088   -0.0134    0.0865    0.0004   -0.0202   -0.0021
          31    0.0599    0.0955   -0.1353    0.0153   -0.0924   -0.0002    0.0201    0.0009
          32   -0.0055    0.0197   -0.0045    0.0509    0.0244   -0.0006    0.0350   -0.0835
          33    0.0278    0.0633   -0.1088    0.0134   -0.0865   -0.0003    0.0202    0.0021
          34    0.0448   -0.0188    0.0314    0.1674   -0.0410   -0.1047   -0.1260   -0.0006
          35   -0.0669    0.0156   -0.0303   -0.0586   -0.0167   -0.2282   -0.1223   -0.0969
          36   -0.0262    0.0162   -0.0263   -0.1351    0.0341    0.0492    0.0857   -0.0198
          37    0.0936   -0.0491    0.0301    0.0373   -0.0029   -0.0013    0.1602    0.1017
          38   -0.0893    0.0458   -0.0235   -0.0262    0.0098    0.0019   -0.1065   -0.0569
          39   -0.0002    0.0001   -0.0002   -0.0008   -0.0000    0.4192    0.0026    0.0003
          40    0.0449   -0.0189    0.0314    0.1677   -0.0413    0.1097   -0.1249   -0.0003
          41   -0.0669    0.0157   -0.0304   -0.0590   -0.0167    0.2315   -0.1193   -0.0964
          42    0.0262   -0.0162    0.0262    0.1343   -0.0339    0.0514   -0.0842    0.0201
          43    0.0990    0.0675   -0.0135   -0.0101    0.0542    0.0003   -0.0305    0.0673
          44   -0.0798   -0.0199   -0.0011    0.0280   -0.0182   -0.0003    0.0267   -0.0319
          45    0.0000   -0.0000    0.0000   -0.0000    0.0000   -0.0001   -0.0000   -0.0000
          46    0.0681    0.0844    0.0112    0.0283    0.0734    0.0001   -0.0043    0.0206
          47    0.0273    0.0420   -0.0025    0.0320    0.0408   -0.0001    0.0115   -0.0244
          48   -0.0000   -0.0000    0.0000   -0.0000   -0.0000   -0.0001   -0.0000   -0.0000
          49   -0.0044    0.0773    0.0124   -0.0224    0.0630    0.0005   -0.0445    0.0159
          50    0.0048   -0.0312   -0.0006    0.0280   -0.0207   -0.0004    0.0373   -0.0349
          51   -0.0000    0.0000   -0.0000   -0.0000    0.0000    0.0013   -0.0000    0.0000


   Root No.      33        34        35        36        37        38        39        40

                33 A      34 A      35 A      36 A      37 A      38 A      39 A      40 A   

                1499.5    1881.0    1906.8    2927.3    2929.4    3004.9    3007.6    3045.8
  
           1    0.0064   -0.0127   -0.0254   -0.0000    0.0000    0.0349   -0.0050    0.0018
           2    0.0999    0.0258   -0.0051   -0.0000    0.0000    0.0001   -0.0000    0.0002
           3   -0.0000   -0.0000    0.0000   -0.0562    0.0048   -0.0000    0.0000   -0.0000
           4   -0.0073    0.0122    0.0259    0.0000    0.0000   -0.0048   -0.0339   -0.0012
           5   -0.0517    0.0282   -0.0112   -0.0000   -0.0000    0.0000   -0.0000   -0.0002
           6    0.0000   -0.0000    0.0000   -0.0045   -0.0564   -0.0000   -0.0000   -0.0000
           7   -0.0200    0.0069   -0.0177   -0.0000    0.0000    0.0000    0.0001   -0.0010
           8    0.0459   -0.0072    0.0156   -0.0000    0.0000    0.0000    0.0001   -0.0006
           9   -0.0000    0.0000   -0.0000   -0.0003   -0.0000    0.0000   -0.0000    0.0000
          10   -0.0148   -0.0817    0.1962   -0.0000    0.0000    0.0006    0.0001    0.0024
          11   -0.0994    0.0004   -0.0074   -0.0000    0.0000    0.0004   -0.0003   -0.0004
          12    0.0000    0.0000   -0.0000   -0.0001   -0.0002   -0.0000    0.0000   -0.0000
          13   -0.0035    0.0747   -0.1801    0.0000   -0.0000    0.0003    0.0023   -0.0167
          14    0.0337   -0.0157    0.0311   -0.0000   -0.0000    0.0013    0.0043   -0.0238
          15   -0.0000   -0.0000    0.0000   -0.0002   -0.0000   -0.0000   -0.0000    0.0000
          16    0.0155    0.1845    0.0790    0.0000    0.0000   -0.0017    0.0004    0.0107
          17   -0.0406   -0.0304   -0.0100    0.0000   -0.0000   -0.0036    0.0005    0.0180
          18    0.0000    0.0000   -0.0000   -0.0001   -0.0003    0.0000   -0.0000   -0.0000
          19    0.0201   -0.1845   -0.0784    0.0000   -0.0000    0.0001    0.0017    0.0111
          20    0.0323   -0.0298   -0.0098    0.0000    0.0000   -0.0005   -0.0035   -0.0185
          21   -0.0000    0.0000    0.0000   -0.0003   -0.0000   -0.0000    0.0000   -0.0000
          22   -0.0010   -0.0065   -0.0149   -0.2635    0.0217   -0.2097    0.0292   -0.0105
          23   -0.0877    0.0288   -0.0177   -0.0014    0.0001   -0.0015    0.0002    0.0012
          24   -0.0045    0.0021    0.0011    0.3398   -0.0283    0.3232   -0.0449    0.0157
          25   -0.0010   -0.0065   -0.0149    0.2637   -0.0217   -0.2096    0.0292   -0.0105
          26   -0.0877    0.0288   -0.0177    0.0015   -0.0001   -0.0015    0.0002    0.0012
          27    0.0045   -0.0021   -0.0011    0.3400   -0.0283   -0.3229    0.0449   -0.0157
          28    0.0026    0.0064    0.0146    0.0221    0.2645    0.0292    0.2028    0.0060
          29    0.0484    0.0248   -0.0088   -0.0000    0.0001    0.0001    0.0001   -0.0029
          30   -0.0066    0.0019    0.0019    0.0281    0.3407    0.0451    0.3127    0.0091
          31    0.0026    0.0064    0.0146   -0.0221   -0.2645    0.0292    0.2029    0.0060
          32    0.0484    0.0249   -0.0088    0.0000   -0.0001    0.0001    0.0001   -0.0029
          33    0.0066   -0.0019   -0.0019    0.0281    0.3405   -0.0451   -0.3126   -0.0091
          34    0.0077    0.0046   -0.0115    0.0008   -0.0003   -0.0002    0.0000    0.0015
          35   -0.0650   -0.0085    0.0196   -0.0007    0.0001    0.0005   -0.0001   -0.0002
          36   -0.0201   -0.0011    0.0018    0.0011   -0.0003   -0.0004   -0.0000    0.0028
          37    0.0279   -0.0162    0.0373    0.0000    0.0000    0.0014   -0.0004    0.0056
          38    0.0017    0.0083   -0.0226    0.0000    0.0000    0.0018   -0.0008    0.0091
          39    0.0001    0.0000   -0.0000   -0.0001    0.0000   -0.0000    0.0000   -0.0000
          40    0.0078    0.0046   -0.0114   -0.0008    0.0003   -0.0002    0.0000    0.0015
          41   -0.0646   -0.0085    0.0194    0.0007   -0.0001    0.0005   -0.0001   -0.0003
          42    0.0202    0.0011   -0.0017    0.0011   -0.0003    0.0004    0.0000   -0.0029
          43   -0.0244    0.0201   -0.0007   -0.0000    0.0000    0.0248   -0.0018   -0.1261
          44   -0.0170    0.1038    0.0535   -0.0000    0.0000    0.0362   -0.0032   -0.2159
          45   -0.0000   -0.0000   -0.0000   -0.0017   -0.0006   -0.0000    0.0000    0.0000
          46   -0.0466   -0.0201    0.0007    0.0000    0.0000   -0.0051   -0.0233   -0.1310
          47   -0.0074    0.1041    0.0528   -0.0000   -0.0000    0.0069    0.0342    0.2248
          48    0.0000   -0.0000   -0.0000   -0.0009   -0.0016    0.0000   -0.0000    0.0000
          49    0.0662    0.0138   -0.0080    0.0000    0.0000   -0.0107   -0.0295    0.1719
          50   -0.0084    0.0361   -0.1084    0.0000    0.0000   -0.0166   -0.0438    0.2863
          51   -0.0000   -0.0000    0.0000   -0.0009   -0.0015    0.0000    0.0000   -0.0000


   Root No.      41        42        43        44        45

                41 A      42 A      43 A      44 A      45 A   

                3046.9    3066.6    3067.6    3075.2    3167.7
  
           1   -0.0005   -0.0026    0.0000   -0.0002   -0.0001
           2   -0.0000    0.0000    0.0000    0.0004    0.0001
           3    0.0000    0.0000    0.0001    0.0000   -0.0000
           4   -0.0035    0.0029   -0.0000    0.0001    0.0000
           5    0.0000    0.0000   -0.0000    0.0001   -0.0000
           6   -0.0000   -0.0000   -0.0001   -0.0000   -0.0000
           7   -0.0011    0.0003    0.0000   -0.0424    0.0117
           8   -0.0006    0.0001    0.0000   -0.0264   -0.0219
           9    0.0000   -0.0000   -0.0575   -0.0000    0.0000
          10    0.0025   -0.0004    0.0000   -0.0008    0.0003
          11   -0.0001    0.0004   -0.0000    0.0001   -0.0004
          12   -0.0000   -0.0000   -0.0001   -0.0000   -0.0000
          13   -0.0174    0.0017   -0.0000    0.0016   -0.0000
          14   -0.0251    0.0025   -0.0000    0.0011    0.0004
          15    0.0000   -0.0000   -0.0002   -0.0000    0.0000
          16   -0.0112   -0.0218    0.0000   -0.0000    0.0000
          17   -0.0183   -0.0271    0.0000   -0.0000    0.0000
          18    0.0000    0.0000    0.0000    0.0000    0.0000
          19   -0.0085    0.0230   -0.0000    0.0001   -0.0000
          20    0.0151   -0.0294    0.0000   -0.0002    0.0000
          21   -0.0000   -0.0000    0.0000   -0.0000    0.0000
          22    0.0052    0.0132    0.0009    0.0007    0.0008
          23   -0.0012   -0.0016   -0.0007    0.0006   -0.0003
          24   -0.0076   -0.0196   -0.0013   -0.0011   -0.0012
          25    0.0052    0.0132   -0.0010    0.0006    0.0008
          26   -0.0012   -0.0016    0.0007    0.0006   -0.0003
          27    0.0076    0.0196   -0.0013    0.0011    0.0012
          28    0.0209   -0.0150    0.0001   -0.0007   -0.0001
          29   -0.0006   -0.0017    0.0001    0.0001    0.0000
          30    0.0313   -0.0224    0.0002   -0.0010   -0.0001
          31    0.0209   -0.0151   -0.0001   -0.0007   -0.0001
          32   -0.0006   -0.0017   -0.0001    0.0001    0.0000
          33   -0.0313    0.0224    0.0002    0.0010    0.0001
          34    0.0019   -0.0004    0.2766    0.1250   -0.1781
          35   -0.0003    0.0000   -0.0136   -0.0204   -0.0005
          36    0.0035   -0.0008    0.3581    0.2063   -0.2576
          37    0.0063   -0.0015   -0.0009    0.2579    0.2140
          38    0.0102   -0.0021   -0.0012    0.3536    0.2648
          39   -0.0000   -0.0000   -0.0294   -0.0011   -0.0008
          40    0.0019   -0.0007   -0.2761    0.1225   -0.1767
          41   -0.0003    0.0001    0.0146   -0.0208    0.0000
          42   -0.0035    0.0011    0.3613   -0.2047    0.2581
          43    0.1292    0.1933   -0.0001    0.0002   -0.0000
          44    0.2204    0.3220   -0.0002    0.0004    0.0000
          45   -0.0000   -0.0000    0.0000    0.0000    0.0000
          46    0.1035   -0.2083    0.0001   -0.0010    0.0000
          47   -0.1783    0.3491   -0.0002    0.0017   -0.0000
          48   -0.0000    0.0000   -0.0000    0.0000    0.0000
          49    0.1788   -0.0156    0.0001   -0.0090   -0.0017
          50    0.2979   -0.0259    0.0001   -0.0177   -0.0041
          51   -0.0000    0.0000    0.0005    0.0000    0.0000


           MASS-WEIGHTED COORDINATE ANALYSIS (NORMAL COORDINATES)


   Root No.       1         2         3         4         5         6         7         8

                 1 A       2 A       3 A       4 A       5 A       6 A       7 A       8 A   

                  58.9     110.7     219.8     360.1     363.3     459.9     497.7     569.9
  
           1    0.0000    0.0001   -0.0000   -0.0010   -0.1703    0.0004   -0.3619    0.2617
           2    0.0000    0.0002   -0.0001   -0.0015   -0.2581    0.0001   -0.0274   -0.1660
           3    0.4713    0.0728    0.0662    0.0845   -0.0005    0.0074    0.0001    0.0000
           4   -0.0000    0.0001    0.0000   -0.0003   -0.0554   -0.0001    0.2392   -0.3780
           5    0.0000   -0.0001   -0.0000    0.0008    0.1501   -0.0003    0.1815    0.2172
           6    0.2704   -0.1177   -0.2600   -0.0876    0.0005   -0.0329   -0.0000   -0.0001
           7    0.0000   -0.0002   -0.0000    0.0024    0.4308   -0.0005    0.2359    0.1746
           8    0.0000   -0.0002    0.0001    0.0018    0.3134    0.0004   -0.3979   -0.0907
           9   -0.2768   -0.0333   -0.3452    0.0031    0.0000   -0.0602   -0.0002   -0.0000
          10   -0.0000    0.0002   -0.0001   -0.0018   -0.3062    0.0000    0.1148    0.1815
          11   -0.0000    0.0001   -0.0000   -0.0009   -0.1541    0.0004   -0.3576   -0.0273
          12    0.0567    0.0435    0.2280   -0.0158    0.0003    0.6952    0.0008    0.0001
          13   -0.0000    0.0002   -0.0000   -0.0018   -0.3063   -0.0000    0.1231    0.1490
          14   -0.0000    0.0000    0.0000   -0.0004   -0.0715   -0.0001    0.0103    0.4691
          15   -0.0084   -0.0136    0.5667    0.0076   -0.0002   -0.2374   -0.0002   -0.0000
          16    0.0000   -0.0001    0.0000    0.0007    0.1258    0.0002   -0.1909   -0.2023
          17   -0.0000    0.0001   -0.0000   -0.0007   -0.1274   -0.0001    0.1735   -0.4545
          18   -0.2262    0.0827    0.0729   -0.4790    0.0027   -0.1264   -0.0002   -0.0000
          19    0.0000   -0.0001    0.0000    0.0008    0.1333    0.0001   -0.1720   -0.2224
          20   -0.0000   -0.0000   -0.0000    0.0003    0.0459   -0.0005    0.4411    0.0391
          21   -0.3146   -0.0014   -0.1527    0.4827   -0.0027    0.0622    0.0000    0.0000
          22    0.1849    0.0035   -0.0242    0.1938   -0.0496   -0.2171   -0.1104    0.0812
          23   -0.0282    0.0008   -0.0029   -0.0743   -0.1103   -0.1199    0.0238   -0.0078
          24    0.2763    0.0241    0.0006    0.1744   -0.0021   -0.1678   -0.0030    0.0031
          25   -0.1848   -0.0035    0.0242   -0.1944   -0.0473    0.2173   -0.1099    0.0812
          26    0.0282   -0.0007    0.0028    0.0730   -0.1109    0.1198    0.0240   -0.0077
          27    0.2763    0.0241    0.0006    0.1744    0.0000   -0.1678    0.0026   -0.0031
          28   -0.1419    0.0377    0.1893    0.1926   -0.0174   -0.0272    0.0721   -0.1167
          29   -0.0324    0.0004   -0.0911    0.0765    0.0860    0.0540    0.0269    0.0292
          30    0.1859   -0.0627   -0.2203   -0.1747    0.0013    0.0114   -0.0019    0.0046
          31    0.1419   -0.0376   -0.1893   -0.1927   -0.0151    0.0271    0.0721   -0.1166
          32    0.0325   -0.0005    0.0911   -0.0755    0.0868   -0.0542    0.0267    0.0291
          33    0.1860   -0.0627   -0.2203   -0.1747    0.0007    0.0114    0.0019   -0.0046
          34    0.0402    0.4313    0.0120   -0.0041    0.1437    0.0874    0.0722    0.0552
          35   -0.0441    0.2281   -0.1325    0.0039    0.2322   -0.1668   -0.1149   -0.0260
          36   -0.1127   -0.3115   -0.1186    0.0046   -0.0020   -0.0958   -0.0027   -0.0023
          37    0.0001    0.0010    0.0001    0.0017    0.3095   -0.0000    0.0752    0.0527
          38   -0.0001    0.0007   -0.0004   -0.0002   -0.0368   -0.0003   -0.1203   -0.0259
          39   -0.0961    0.5349   -0.2286   -0.0004    0.0003   -0.1317   -0.0002   -0.0000
          40   -0.0403   -0.4328   -0.0120    0.0057    0.1435   -0.0880    0.0721    0.0552
          41    0.0443   -0.2292    0.1331   -0.0013    0.2313    0.1675   -0.1147   -0.0260
          42   -0.1126   -0.3090   -0.1188    0.0046    0.0016   -0.0958    0.0025    0.0022
          43    0.0000   -0.0000    0.0000    0.0005    0.0893   -0.0000    0.0185   -0.0642
          44   -0.0000    0.0000   -0.0000   -0.0004   -0.0690    0.0000    0.0062   -0.1264
          45   -0.1897    0.0485    0.0637   -0.3369    0.0019   -0.1168   -0.0002    0.0000
          46    0.0000   -0.0000    0.0000    0.0005    0.0799    0.0000   -0.0777    0.0450
          47   -0.0000   -0.0000   -0.0000    0.0002    0.0379   -0.0001    0.1099    0.0765
          48   -0.2373    0.0031   -0.0737    0.3390   -0.0019    0.0451   -0.0000    0.0000
          49   -0.0000    0.0001   -0.0000   -0.0007   -0.1248    0.0001   -0.0435    0.0509
          50   -0.0000   -0.0000    0.0000    0.0000    0.0039   -0.0001    0.0512    0.1302
          51   -0.0805   -0.0029    0.3084    0.0049   -0.0002   -0.3552   -0.0004   -0.0000


   Root No.       9        10        11        12        13        14        15        16

                 9 A      10 A      11 A      12 A      13 A      14 A      15 A      16 A   

                 707.9     815.0     820.1     883.6     946.6     952.2     982.1     985.1
  
           1   -0.0001    0.0332   -0.0001    0.0001    0.0006    0.5309    0.0002   -0.1110
           2   -0.0000   -0.1970    0.0000   -0.0001    0.0002    0.1623    0.0000   -0.0687
           3   -0.1457   -0.0002    0.1139    0.4429    0.2413   -0.0003   -0.0045    0.0001
           4    0.0001    0.4561   -0.0001    0.0003   -0.0000    0.0748   -0.0002    0.1153
           5   -0.0000   -0.0334   -0.0000   -0.0000    0.0001    0.0739    0.0000   -0.0705
           6   -0.2180    0.0001   -0.3016   -0.1028    0.3559   -0.0004    0.1697   -0.0001
           7   -0.0000   -0.2138    0.0001   -0.0001   -0.0001   -0.0850   -0.0001   -0.3145
           8   -0.0000    0.3411   -0.0001    0.0003   -0.0003   -0.2157   -0.0002   -0.1014
           9    0.0289    0.0002    0.0489   -0.1670    0.0481   -0.0002    0.2727    0.0000
          10    0.0001    0.0087    0.0000   -0.0001   -0.0001   -0.1300    0.0000    0.0070
          11   -0.0000    0.1110   -0.0001    0.0002   -0.0001   -0.0800   -0.0002   -0.1027
          12    0.1631   -0.0002    0.0096   -0.1531   -0.0416    0.0002   -0.1677   -0.0002
          13    0.0001    0.1092    0.0000   -0.0000   -0.0002   -0.2415   -0.0000    0.1874
          14   -0.0000   -0.1265    0.0000   -0.0001   -0.0003   -0.2900   -0.0000    0.3916
          15   -0.0000   -0.0002   -0.2028    0.1399   -0.3658    0.0004   -0.0317   -0.0000
          16   -0.0000   -0.2213    0.0000   -0.0001   -0.0001   -0.1112    0.0000    0.0343
          17    0.0000   -0.4129    0.0001   -0.0003    0.0001    0.0010    0.0002    0.1012
          18   -0.1575    0.0001    0.1165   -0.0938   -0.2749    0.0003    0.1585    0.0001
          19   -0.0000   -0.2025    0.0000   -0.0001   -0.0001   -0.1271   -0.0000    0.0303
          20    0.0001    0.3292   -0.0001    0.0002    0.0002    0.1635    0.0001   -0.1634
          21   -0.1280    0.0001    0.1694   -0.1614   -0.1065    0.0002   -0.2953    0.0001
          22    0.1877    0.0131   -0.0914   -0.3277   -0.1635    0.2034   -0.0011   -0.0480
          23   -0.0673   -0.0542    0.0596   -0.0293   -0.0477    0.1531    0.2693   -0.0334
          24    0.1056   -0.0004   -0.0382   -0.1273   -0.0579    0.0334   -0.0025   -0.0092
          25   -0.1877    0.0128    0.0913    0.3278    0.1639    0.2030    0.0012   -0.0479
          26    0.0672   -0.0543   -0.0596    0.0293    0.0479    0.1532   -0.2691   -0.0325
          27    0.1056    0.0005   -0.0382   -0.1273   -0.0580   -0.0333   -0.0025    0.0092
          28   -0.2622    0.1596   -0.2510   -0.0780    0.2416    0.0259    0.1136    0.0470
          29   -0.0358   -0.0834    0.1121   -0.0980    0.0990    0.1091   -0.1212   -0.1581
          30    0.1438   -0.0160    0.1096    0.0312   -0.0852   -0.0025   -0.0392   -0.0107
          31    0.2622    0.1595    0.2509    0.0782   -0.2416    0.0265   -0.1137    0.0471
          32    0.0358   -0.0835   -0.1120    0.0978   -0.0988    0.1092    0.1212   -0.1579
          33    0.1439    0.0161    0.1097    0.0313   -0.0852    0.0027   -0.0392    0.0108
          34    0.0462   -0.0763    0.0568   -0.1380    0.0398    0.0080    0.1932   -0.0573
          35   -0.0811    0.1157   -0.0936    0.2243   -0.0626    0.1346   -0.3060    0.3691
          36   -0.0330    0.0098   -0.0365    0.0730   -0.0217   -0.0078   -0.0896    0.0036
          37    0.0001   -0.0897    0.0001   -0.0004    0.0003    0.2533    0.0006    0.3487
          38   -0.0002    0.1202   -0.0002    0.0007   -0.0004   -0.2572   -0.0010   -0.3315
          39   -0.0467   -0.0000   -0.0495    0.0954   -0.0310    0.0001   -0.1135    0.0001
          40   -0.0464   -0.0767   -0.0569    0.1384   -0.0399    0.0089   -0.1938   -0.0562
          41    0.0814    0.1162    0.0939   -0.2250    0.0631    0.1331    0.3075    0.3670
          42   -0.0329   -0.0099   -0.0365    0.0729   -0.0217    0.0079   -0.0894   -0.0036
          43    0.0000    0.0313    0.0000    0.0000   -0.0002   -0.2042   -0.0000   -0.0119
          44    0.0000   -0.1788    0.0000   -0.0001    0.0001    0.1046    0.0001    0.0408
          45    0.4873   -0.0000   -0.4155   -0.1275    0.3936   -0.0003   -0.2935   -0.0000
          46   -0.0000   -0.0552   -0.0000   -0.0000   -0.0001   -0.0647    0.0000   -0.1151
          47    0.0000    0.0953   -0.0000    0.0001    0.0000    0.0364    0.0000   -0.1235
          48    0.5419   -0.0003   -0.0785    0.4748    0.0078   -0.0002    0.4076   -0.0001
          49    0.0000    0.0262   -0.0000   -0.0000   -0.0001   -0.1523    0.0000    0.0706
          50    0.0000   -0.0333    0.0001   -0.0000    0.0000   -0.0373   -0.0001    0.1079
          51    0.1626    0.0002    0.6328   -0.0682    0.4546   -0.0003   -0.0889   -0.0000


   Root No.      17        18        19        20        21        22        23        24

                17 A      18 A      19 A      20 A      21 A      22 A      23 A      24 A   

                1015.5    1033.7    1045.1    1059.7    1089.1    1111.6    1159.1    1223.2
  
           1    0.1441   -0.0000   -0.2321   -0.0002    0.0002   -0.0546    0.0439   -0.0182
           2   -0.0931   -0.0000    0.1870    0.0002   -0.0001   -0.0924   -0.0074   -0.0848
           3    0.0000   -0.2305   -0.0001    0.0509   -0.0500   -0.0001    0.0000    0.0000
           4   -0.3392    0.0001   -0.1234   -0.0000    0.0002   -0.0327   -0.0362    0.0922
           5   -0.1463   -0.0000    0.0108    0.0001   -0.0003    0.0915   -0.0242    0.1491
           6   -0.0001    0.2080    0.0001   -0.0352    0.0203    0.0000    0.0000   -0.0000
           7   -0.0478    0.0000   -0.1344    0.0001    0.0000   -0.0843    0.0073    0.0886
           8   -0.0412    0.0001   -0.0623   -0.0001    0.0001   -0.0101   -0.0119   -0.0416
           9    0.0000   -0.1829   -0.0002    0.0790   -0.1625   -0.0004    0.0001    0.0001
          10    0.0039   -0.0000    0.0947    0.0001   -0.0004    0.1136    0.0151   -0.2499
          11    0.0533    0.0001    0.0135   -0.0000   -0.0001    0.0944    0.0151    0.0974
          12   -0.0001    0.2690    0.0004   -0.1106    0.3358    0.0007   -0.0001   -0.0001
          13    0.0236   -0.0000    0.0822    0.0000   -0.0003    0.1494   -0.0370   -0.2266
          14   -0.1568    0.0000   -0.1731   -0.0002    0.0006   -0.1397    0.0100    0.1767
          15    0.0000   -0.2734   -0.0000   -0.1550   -0.1653   -0.0003    0.0000   -0.0000
          16    0.1291   -0.0000    0.0227   -0.0001    0.0002   -0.0803    0.0410    0.0883
          17    0.2331   -0.0000   -0.2613   -0.0003    0.0000    0.0568    0.0045   -0.1568
          18    0.0001    0.3652   -0.0000   -0.0386   -0.1706   -0.0003    0.0000    0.0000
          19   -0.0591   -0.0000    0.1331    0.0001    0.0000   -0.0554   -0.0384    0.1281
          20    0.4546   -0.0000    0.0135   -0.0001    0.0002   -0.0548    0.0146    0.0608
          21    0.0001   -0.2631   -0.0002    0.2540    0.0991    0.0002   -0.0000   -0.0000
          22    0.0682    0.1525   -0.1046   -0.0338    0.0341   -0.0268    0.0358   -0.0289
          23   -0.1962   -0.2224    0.3813   -0.2072    0.5465   -0.2631    0.1793    0.1935
          24    0.0149    0.0508   -0.0246   -0.0126    0.0148   -0.0075    0.0121   -0.0132
          25    0.0683   -0.1525   -0.1048    0.0336   -0.0339   -0.0269    0.0358   -0.0289
          26   -0.1956    0.2221    0.3806    0.2078   -0.5458   -0.2654    0.1797    0.1938
          27   -0.0149    0.0508    0.0246   -0.0126    0.0149    0.0076   -0.0122    0.0131
          28   -0.1417    0.1330   -0.0459   -0.0214    0.0126   -0.0115   -0.0341    0.0895
          29   -0.2763   -0.0887    0.0911   -0.6135   -0.2128    0.4592    0.1519   -0.1907
          30    0.0311   -0.0422    0.0106    0.0064   -0.0035    0.0034    0.0118   -0.0389
          31   -0.1416   -0.1329   -0.0460    0.0214   -0.0124   -0.0115   -0.0341    0.0895
          32   -0.2760    0.0886    0.0904    0.6139    0.2104    0.4602    0.1519   -0.1908
          33   -0.0311   -0.0422   -0.0107    0.0063   -0.0035   -0.0035   -0.0119    0.0390
          34   -0.0057   -0.1228   -0.0332    0.0541   -0.1095   -0.0236    0.0051    0.0632
          35    0.0416    0.1927    0.1158   -0.0828    0.1643    0.0635   -0.0052   -0.1616
          36   -0.0012    0.0537    0.0034   -0.0251    0.0502    0.0041   -0.0022   -0.0304
          37    0.0788   -0.0003    0.1051   -0.0000   -0.0001    0.0684    0.0018    0.0463
          38   -0.0786    0.0006   -0.1195   -0.0002    0.0004   -0.0699   -0.0031   -0.0378
          39    0.0000    0.0678    0.0001   -0.0381    0.0806    0.0003   -0.0001   -0.0003
          40   -0.0054    0.1232   -0.0325   -0.0543    0.1100   -0.0229    0.0051    0.0630
          41    0.0413   -0.1936    0.1147    0.0830   -0.1651    0.0624   -0.0051   -0.1611
          42    0.0012    0.0536   -0.0033   -0.0251    0.0501   -0.0038    0.0022    0.0303
          43    0.2759   -0.0000    0.1837   -0.0000    0.0004   -0.1323    0.5815   -0.2397
          44   -0.0686   -0.0000   -0.1760   -0.0001   -0.0002    0.0760   -0.3363    0.1103
          45   -0.0000   -0.2952    0.0000    0.0338    0.0605    0.0001    0.0000   -0.0000
          46    0.0382   -0.0000    0.4122    0.0004   -0.0002   -0.1034   -0.5644   -0.2390
          47    0.1663   -0.0000    0.2205    0.0002   -0.0001   -0.0613   -0.3229   -0.1471
          48   -0.0001    0.2390    0.0001   -0.1368   -0.0317   -0.0000    0.0000   -0.0000
          49    0.2674   -0.0001    0.2092   -0.0000   -0.0008    0.4436   -0.0176    0.5212
          50   -0.2065    0.0001   -0.1606   -0.0000    0.0006   -0.2743    0.0076   -0.3015
          51    0.0000    0.2364    0.0001    0.0501    0.0893    0.0002   -0.0000    0.0000


   Root No.      25        26        27        28        29        30        31        32

                25 A      26 A      27 A      28 A      29 A      30 A      31 A      32 A   

                1238.2    1320.6    1362.9    1380.1    1392.4    1397.4    1405.2    1443.2
  
           1   -0.0230   -0.0089   -0.2919    0.0680    0.3131    0.0006   -0.0758    0.1062
           2    0.3129   -0.1229    0.0144   -0.3219   -0.1026    0.0013   -0.2180    0.0280
           3   -0.0000    0.0000    0.0000    0.0000   -0.0000    0.0015    0.0000   -0.0000
           4    0.1508   -0.0246    0.2718   -0.0424    0.3597    0.0010   -0.0924   -0.0151
           5   -0.0461   -0.0827    0.0218   -0.2694   -0.1626    0.0011   -0.2303    0.5812
           6    0.0000   -0.0000    0.0000    0.0000    0.0001   -0.0005    0.0000   -0.0000
           7    0.0406    0.0693   -0.0680   -0.2941    0.1087   -0.0016    0.0552   -0.1912
           8   -0.1912    0.0404    0.0490    0.1827    0.0279   -0.0029    0.2492    0.3480
           9    0.0002   -0.0002    0.0002    0.0011   -0.0001   -0.2533   -0.0029   -0.0003
          10   -0.1436   -0.1182   -0.0231    0.0009   -0.1801   -0.0003    0.0166    0.1175
          11    0.4274   -0.2593    0.0445    0.0015   -0.1150   -0.0005    0.1179   -0.2871
          12   -0.0001    0.0000   -0.0000   -0.0000    0.0000   -0.0097   -0.0002   -0.0000
          13   -0.1520   -0.0771    0.0175    0.0655   -0.1294   -0.0008    0.0812    0.0933
          14    0.1004    0.1947    0.0340    0.0707    0.2217    0.0001    0.0280   -0.2190
          15    0.0000   -0.0000   -0.0000   -0.0000   -0.0000   -0.0009   -0.0000    0.0000
          16   -0.1362   -0.1342   -0.0249    0.0196   -0.1373   -0.0005    0.0696   -0.1324
          17   -0.0963    0.2656   -0.0486    0.1503    0.1955   -0.0001    0.0255    0.1358
          18    0.0000   -0.0000    0.0000    0.0000    0.0000    0.0015    0.0000    0.0000
          19   -0.0858   -0.1541    0.0304   -0.0563   -0.1596   -0.0002    0.0160   -0.0763
          20   -0.1528   -0.1682   -0.0455    0.0767   -0.1146   -0.0008    0.1209   -0.2828
          21    0.0000    0.0000   -0.0000    0.0000   -0.0000   -0.0002   -0.0000    0.0000
          22   -0.0124    0.3008    0.3573   -0.0543   -0.2000   -0.0015    0.0407   -0.0326
          23   -0.2391    0.0761   -0.0011    0.1350    0.0507   -0.0135    0.0913   -0.0278
          24   -0.0066    0.1981    0.2868   -0.0466   -0.1875   -0.0017    0.0417   -0.0406
          25   -0.0124    0.3008    0.3573   -0.0543   -0.2000    0.0007    0.0407   -0.0325
          26   -0.2391    0.0761   -0.0011    0.1351    0.0508    0.0126    0.0917   -0.0277
          27    0.0066   -0.1981   -0.2868    0.0466    0.1875   -0.0010   -0.0418    0.0406
          28    0.1583    0.2707   -0.3310    0.0358   -0.2381   -0.0009    0.0501    0.0017
          29   -0.0146    0.0559   -0.0110    0.1189    0.0629    0.0002    0.0872   -0.1633
          30   -0.0734   -0.1794    0.2660   -0.0314    0.2227    0.0006   -0.0503   -0.0042
          31    0.1583    0.2707   -0.3309    0.0358   -0.2380   -0.0004    0.0501    0.0017
          32   -0.0146    0.0560   -0.0111    0.1190    0.0628   -0.0011    0.0872   -0.1633
          33    0.0735    0.1795   -0.2661    0.0314   -0.2228   -0.0006    0.0503    0.0042
          34    0.1182   -0.0534    0.0767    0.3916   -0.1057   -0.1821   -0.3141   -0.0012
          35   -0.1767    0.0442   -0.0741   -0.1370   -0.0431   -0.3967   -0.3049   -0.1896
          36   -0.0693    0.0460   -0.0643   -0.3160    0.0879    0.0854    0.2137   -0.0388
          37    0.2472   -0.1391    0.0737    0.0872   -0.0074   -0.0022    0.3994    0.1988
          38   -0.2359    0.1298   -0.0574   -0.0613    0.0253    0.0033   -0.2657   -0.1114
          39   -0.0004    0.0003   -0.0005   -0.0018   -0.0001    0.7288    0.0066    0.0005
          40    0.1185   -0.0536    0.0768    0.3921   -0.1062    0.1906   -0.3115   -0.0006
          41   -0.1767    0.0445   -0.0743   -0.1380   -0.0431    0.4025   -0.2974   -0.1885
          42    0.0691   -0.0459    0.0640    0.3141   -0.0873    0.0893   -0.2100    0.0394
          43    0.2615    0.1912   -0.0330   -0.0236    0.1394    0.0005   -0.0761    0.1317
          44   -0.2108   -0.0564   -0.0026    0.0655   -0.0468   -0.0005    0.0667   -0.0623
          45    0.0000   -0.0000    0.0000   -0.0000    0.0000   -0.0001   -0.0000   -0.0000
          46    0.1798    0.2392    0.0274    0.0661    0.1889    0.0002   -0.0108    0.0403
          47    0.0722    0.1191   -0.0061    0.0748    0.1051   -0.0001    0.0288   -0.0477
[...]
 REDUCED MASS        0.3100         C  2 -- H 10         +16.7% ( 41.9%)      5.2%
 EFFECTIVE MASS      2.6758
 FORCE CONSTANT      0.3392

 VIBRATION         28   28A           ATOM PAIR      ENERGY CONTRIBUTION    RADIAL
 FREQUENCY          1380.14         C  3 -- H 12         +18.5% ( 52.1%)      4.1%
 TRANSITION DIPOLE   0.0215         C  3 -- H 14         +18.4% ( 52.0%)      4.1%
 TRAVEL (Ang.)       0.3011         C  1 -- C  6          +8.2% ( 34.7%)     79.0%
 REDUCED MASS        0.5389         C  1 -- H  9          +7.1% ( 32.3%)      0.6%
 EFFECTIVE MASS      4.4390
 FORCE CONSTANT      0.6047

 VIBRATION         29   29A           ATOM PAIR      ENERGY CONTRIBUTION    RADIAL
 FREQUENCY          1392.37         C  2 -- C  5         +12.4% ( 46.4%)     89.5%
 TRANSITION DIPOLE   0.1023         C  2 -- H 10         +10.4% ( 42.6%)      7.2%
 TRAVEL (Ang.)       0.2816         C  2 -- H 11         +10.4% ( 42.6%)      7.2%
 REDUCED MASS        0.6107         C  1 -- C  6          +9.3% ( 40.2%)     84.3%
 EFFECTIVE MASS      6.1178
 FORCE CONSTANT      0.6976

 VIBRATION         30   30A           ATOM PAIR      ENERGY CONTRIBUTION    RADIAL
 FREQUENCY          1397.37         C  3 -- H 13         +53.3% ( 62.9%)      0.0%
 TRANSITION DIPOLE   0.0652         C  3 -- H 14         +21.3% ( 39.8%)     10.8%
 TRAVEL (Ang.)       0.3405         C  3 -- H 12         +20.5% ( 39.0%)     11.5%
 REDUCED MASS        0.4162         C  3 -- C  4          +4.9% ( 19.1%)      0.0%
 EFFECTIVE MASS      1.5473
 FORCE CONSTANT      0.4788

 VIBRATION         31   31A           ATOM PAIR      ENERGY CONTRIBUTION    RADIAL
 FREQUENCY          1405.21         C  3 -- H 12         +18.0% ( 45.2%)      0.0%
 TRANSITION DIPOLE   0.0342         C  3 -- H 14         +17.5% ( 44.5%)      0.1%
 TRAVEL (Ang.)       0.3992         C  3 -- H 13         +17.0% ( 43.9%)     12.1%
 REDUCED MASS        0.3011         C  2 -- C  7          +6.2% ( 26.6%)     92.5%
 EFFECTIVE MASS      3.1632
 FORCE CONSTANT      0.3503

 VIBRATION         32   32A           ATOM PAIR      ENERGY CONTRIBUTION    RADIAL
 FREQUENCY          1443.24         C  2 -- C  7         +15.9% ( 60.6%)     76.5%
 TRANSITION DIPOLE   0.0302         C  2 -- C  5         +14.5% ( 58.0%)     81.8%
 TRAVEL (Ang.)       0.1554         C  2 -- H 11         +11.1% ( 50.8%)      0.0%
 REDUCED MASS        1.9342         C  2 -- H 10         +11.1% ( 50.8%)      0.0%
 EFFECTIVE MASS      9.4553         C  3 -- C  4         +10.6% ( 49.6%)     99.0%
 FORCE CONSTANT      2.3737

 VIBRATION         33   33A           ATOM PAIR      ENERGY CONTRIBUTION    RADIAL
 FREQUENCY          1499.53         C  1 -- C  4         +21.7% ( 71.8%)     79.8%
 TRANSITION DIPOLE   0.0775         C  3 -- C  4         +12.8% ( 55.1%)     75.7%
 TRAVEL (Ang.)       0.1352         C  1 -- C  6         +11.9% ( 53.1%)     75.8%
 REDUCED MASS        2.4601         C  4 -- C  5          +9.5% ( 47.6%)      0.6%
 EFFECTIVE MASS     10.8349
 FORCE CONSTANT      3.2592

 VIBRATION         34   34A           ATOM PAIR      ENERGY CONTRIBUTION    RADIAL
 FREQUENCY          1880.96         C  6 -- C  7         +37.5% ( 90.6%)    100.0%
 TRANSITION DIPOLE   0.1100         C  2 -- C  7         +12.1% ( 51.4%)     57.8%
 TRAVEL (Ang.)       0.0942         C  1 -- C  6         +12.1% ( 51.4%)     57.0%
 REDUCED MASS        4.0418         C  6 -- H 15         +11.1% ( 49.2%)      4.5%
 EFFECTIVE MASS     11.8756         C  7 -- H 16         +11.1% ( 49.2%)      4.6%
 FORCE CONSTANT      8.4253

 VIBRATION         35   35A           ATOM PAIR      ENERGY CONTRIBUTION    RADIAL
 FREQUENCY          1906.77         C  4 -- C  5         +37.2% ( 89.6%)     99.1%
 TRANSITION DIPOLE   0.0845         C  3 -- C  4         +12.8% ( 52.5%)     37.5%
 TRAVEL (Ang.)       0.0926         C  1 -- C  4         +12.8% ( 52.5%)     28.4%
 REDUCED MASS        4.1211         C  2 -- C  5         +11.1% ( 49.0%)     49.2%
 EFFECTIVE MASS     11.8599         C  5 -- H 17         +10.3% ( 47.2%)      4.2%
 FORCE CONSTANT      8.8279

 VIBRATION         36   36A           ATOM PAIR      ENERGY CONTRIBUTION    RADIAL
 FREQUENCY          2927.28         C  1 -- H  9         +48.6% ( 72.3%)     96.5%
 TRANSITION DIPOLE   0.0238         C  1 -- H  8         +48.6% ( 72.3%)     96.5%
 TRAVEL (Ang.)       0.2124         C  1 -- C  6          +1.1% ( 10.8%)      0.0%
 REDUCED MASS        0.5106         C  1 -- C  4          +1.1% ( 10.8%)      0.0%
 EFFECTIVE MASS      1.5349
 FORCE CONSTANT      2.5780

 VIBRATION         37   37A           ATOM PAIR      ENERGY CONTRIBUTION    RADIAL
 FREQUENCY          2929.44         C  2 -- H 10         +48.6% ( 72.3%)     96.6%
 TRANSITION DIPOLE   0.0179         C  2 -- H 11         +48.6% ( 72.3%)     96.6%
 TRAVEL (Ang.)       0.2123         C  2 -- C  7          +1.1% ( 10.7%)      0.0%
 REDUCED MASS        0.5106         C  2 -- C  5          +1.1% ( 10.7%)      0.0%
 EFFECTIVE MASS      1.5355
 FORCE CONSTANT      2.5816

 VIBRATION         38   38A           ATOM PAIR      ENERGY CONTRIBUTION    RADIAL
 FREQUENCY          3004.89         C  1 -- H  8         +48.0% ( 68.3%)     97.7%
 TRANSITION DIPOLE   0.0634         C  1 -- H  9         +47.9% ( 68.3%)     97.7%
 TRAVEL (Ang.)       0.2212         C  2 -- H 11          +0.9% (  9.5%)     97.8%
 REDUCED MASS        0.4585         C  2 -- H 10          +0.9% (  9.5%)     97.8%
 EFFECTIVE MASS      1.2791
 FORCE CONSTANT      2.4393

 VIBRATION         39   39A           ATOM PAIR      ENERGY CONTRIBUTION    RADIAL
 FREQUENCY          3007.58         C  2 -- H 11         +47.5% ( 68.0%)     97.7%
 TRANSITION DIPOLE   0.0765         C  2 -- H 10         +47.5% ( 68.0%)     97.7%
 TRAVEL (Ang.)       0.2232         C  5 -- H 17          +1.1% ( 10.2%)     99.9%
 REDUCED MASS        0.4499         C  1 -- H  8          +1.0% (  9.8%)     97.6%
 EFFECTIVE MASS      1.2843
 FORCE CONSTANT      2.3980

 VIBRATION         40   40A           ATOM PAIR      ENERGY CONTRIBUTION    RADIAL
 FREQUENCY          3045.85         C  5 -- H 17         +44.7% ( 67.9%)    100.0%
 TRANSITION DIPOLE   0.1315         C  7 -- H 16         +27.1% ( 52.9%)    100.0%
 TRAVEL (Ang.)       0.2588         C  6 -- H 15         +25.1% ( 50.8%)    100.0%
 REDUCED MASS        0.3306         C  4 -- C  5          +0.7% (  8.6%)     39.4%
 EFFECTIVE MASS      1.4790
 FORCE CONSTANT      1.8069

 VIBRATION         41   41A           ATOM PAIR      ENERGY CONTRIBUTION    RADIAL
 FREQUENCY          3046.92         C  5 -- H 17         +50.8% ( 72.3%)    100.0%
 TRANSITION DIPOLE   0.3796         C  6 -- H 15         +27.4% ( 53.1%)    100.0%
 TRAVEL (Ang.)       0.2484         C  7 -- H 16         +17.9% ( 42.9%)    100.0%
 REDUCED MASS        0.3588         C  4 -- C  5          +0.8% (  9.2%)     38.0%
 EFFECTIVE MASS      1.4943
 FORCE CONSTANT      1.9626

 VIBRATION         42   42A           ATOM PAIR      ENERGY CONTRIBUTION    RADIAL
 FREQUENCY          3066.62         C  7 -- H 16         +51.4% ( 72.7%)     99.9%
 TRANSITION DIPOLE   0.2663         C  6 -- H 15         +43.9% ( 67.2%)     99.9%
 TRAVEL (Ang.)       0.2189         C  6 -- C  7          +2.0% ( 14.5%)     99.7%
 REDUCED MASS        0.4588         C  2 -- C  7          +0.9% (  9.4%)     14.7%
 EFFECTIVE MASS      1.5904
 FORCE CONSTANT      2.5420

 VIBRATION         43   43A           ATOM PAIR      ENERGY CONTRIBUTION    RADIAL
 FREQUENCY          3067.62         C  3 -- H 14         +49.3% ( 72.4%)     97.1%
 TRANSITION DIPOLE   0.0154         C  3 -- H 12         +48.8% ( 72.1%)     97.0%
 TRAVEL (Ang.)       0.2077         C  3 -- C  4          +1.0% ( 10.2%)      0.0%
 REDUCED MASS        0.5094         C  3 -- H 13          +0.9% (  9.9%)      0.0%
 EFFECTIVE MASS      1.5019
 FORCE CONSTANT      2.8245

 VIBRATION         44   44A           ATOM PAIR      ENERGY CONTRIBUTION    RADIAL
 FREQUENCY          3075.23         C  3 -- H 13         +61.3% ( 80.8%)     98.8%
 TRANSITION DIPOLE   0.0176         C  3 -- H 12         +19.0% ( 45.0%)     85.9%
 TRAVEL (Ang.)       0.2144         C  3 -- H 14         +18.6% ( 44.5%)     85.6%
 REDUCED MASS        0.4768         C  3 -- C  4          +1.0% ( 10.6%)      0.0%
 EFFECTIVE MASS      1.5119
 FORCE CONSTANT      2.6569

 VIBRATION         45   45A           ATOM PAIR      ENERGY CONTRIBUTION    RADIAL
 FREQUENCY          3167.68         C  3 -- H 13         +37.4% ( 58.9%)     97.6%
 TRANSITION DIPOLE   0.0395         C  3 -- H 12         +31.2% ( 53.8%)     96.8%
 TRAVEL (Ang.)       0.2543         C  3 -- H 14         +31.1% ( 53.7%)     96.7%
 REDUCED MASS        0.3291         C  3 -- C  4          +0.3% (  5.3%)     99.6%
 EFFECTIVE MASS      1.1390
 FORCE CONSTANT      1.9457

      SYMMETRY NUMBER FOR POINT-GROUP C1  =  1


          SYSTEM IS A GROUND STATE



 InChI=1S/C7H10/c1-7-5-3-2-4-6-7/h2-3,6H,4-5H2,1H3


          MOLECULE IS NOT LINEAR

          THERE ARE 45 GENUINE VIBRATIONS IN THIS SYSTEM
          THIS THERMODYNAMICS CALCULATION IS LIMITED TO
          MOLECULES WHICH HAVE NO INTERNAL ROTATIONS




                    CALCULATED THERMODYNAMIC PROPERTIES
                                          *
   TEMP. (K)   PARTITION FUNCTION   H.O.F.    ENTHALPY  HEAT CAPACITY ENTROPY
                                   KCAL/MOL   CAL/MOLE    CAL/K/MOL  CAL/K/MOL


 298.00  VIB.     0.3453D+02                  2624.8033    20.1567    15.8463
         ROT.     0.1955D+06                   888.2803     2.9808    27.1917
         INT.     0.6751D+07                  3513.0836    23.1376    43.0380
         TRA.     0.8833D+27                  1480.4672     4.9680    39.5363
         TOT.                        9.794    4993.5507    28.1056    82.5743

 200.00  VIB.     0.8590D+01                  1078.6737    11.6807     9.6671
         ROT.     0.1075D+06                   596.1613     2.9808    26.0030
         INT.     0.9234D+06                  1674.8350    14.6615    35.6701
         TRA.     0.4856D+27                   993.6021     4.9680    37.5551
         TOT.                        7.469    2668.4371    19.6295    73.2253

 210.00  VIB.     0.9844D+01                  1199.3286    12.4547    10.2556
         ROT.     0.1157D+06                   625.9693     2.9808    26.1485
         INT.     0.1139D+07                  1825.2980    15.4355    36.4041
         TRA.     0.5225D+27                  1043.2822     4.9680    37.7975
         TOT.                        7.669    2868.5802    20.4035    74.2016

 220.00  VIB.     0.1129D+02                  1327.8528    13.2544    10.8534
         ROT.     0.1240D+06                   655.7774     2.9808    26.2871
         INT.     0.1401D+07                  1983.6302    16.2352    37.1405
         TRA.     0.5603D+27                  1092.9623     4.9680    38.0286
         TOT.                        7.877    3076.5925    21.2032    75.1692

 230.00  VIB.     0.1298D+02                  1464.4978    14.0786    11.4606
         ROT.     0.1326D+06                   685.5855     2.9808    26.4196
         INT.     0.1720D+07                  2150.0833    17.0594    37.8803
         TRA.     0.5989D+27                  1142.6424     4.9680    38.2495
         TOT.                        8.093    3292.7258    22.0274    76.1298

 240.00  VIB.     0.1492D+02                  1609.4995    14.9254    12.0776
         ROT.     0.1413D+06                   715.3935     2.9808    26.5465
         INT.     0.2109D+07                  2324.8930    17.9062    38.6241
         TRA.     0.6384D+27                  1192.3226     4.9680    38.4609
         TOT.                        8.317    3517.2156    22.8742    77.0851

 250.00  VIB.     0.1719D+02                  1763.0729    15.7925    12.7044
         ROT.     0.1502D+06                   745.2016     2.9808    26.6682
         INT.     0.2582D+07                  2508.2745    18.7733    39.3726
         TRA.     0.6787D+27                  1242.0027     4.9680    38.6637
         TOT.                        8.551    3750.2772    23.7414    78.0363

 260.00  VIB.     0.1982D+02                  1925.4099    16.6776    13.3410
         ROT.     0.1593D+06                   775.0097     2.9808    26.7851
         INT.     0.3159D+07                  2700.4196    19.6584    40.1261
         TRA.     0.7198D+27                  1291.6828     4.9680    38.8586
         TOT.                        8.792    3992.1024    24.6264    78.9847

 270.00  VIB.     0.2290D+02                  2096.6763    17.5780    13.9873
         ROT.     0.1686D+06                   804.8177     2.9808    26.8976
         INT.     0.3861D+07                  2901.4941    20.5588    40.8849
         TRA.     0.7618D+27                  1341.3629     4.9680    39.0461
         TOT.                        9.043    4242.8569    25.5268    79.9309

 280.00  VIB.     0.2648D+02                  2277.0109    18.4908    14.6430
         ROT.     0.1781D+06                   834.6258     2.9808    27.0060
         INT.     0.4715D+07                  3111.6367    21.4716    41.6490
         TRA.     0.8045D+27                  1391.0430     4.9680    39.2267
         TOT.                        9.303    4502.6797    26.4396    80.8758

 290.00  VIB.     0.3067D+02                  2466.5251    19.4134    15.3079
         ROT.     0.1877D+06                   864.4339     2.9808    27.1106
         INT.     0.5756D+07                  3330.9590    22.3942    42.4185
         TRA.     0.8479D+27                  1440.7231     4.9680    39.4011
         TOT.                        9.572    4771.6821    27.3622    81.8196

 300.00  VIB.     0.3557D+02                  2665.3031    20.3431    15.9817
         ROT.     0.1975D+06                   894.2419     2.9808    27.2117
         INT.     0.7025D+07                  3559.5450    23.3239    43.1934
         TRA.     0.8922D+27                  1490.4032     4.9680    39.5695
         TOT.                        9.850    5049.9482    28.2919    82.7629

 310.00  VIB.     0.4132D+02                  2873.4027    21.2773    16.6640
         ROT.     0.2074D+06                   924.0500     2.9808    27.3094
         INT.     0.8571D+07                  3797.4527    24.2581    43.9734
         TRA.     0.9372D+27                  1540.0833     4.9680    39.7324
         TOT.                       10.138    5337.5360    29.2261    83.7058

 320.00  VIB.     0.4806D+02                  3090.8566    22.2136    17.3543
         ROT.     0.2176D+06                   953.8580     2.9808    27.4040
         INT.     0.1046D+08                  4044.7147    25.1944    44.7584
         TRA.     0.9829D+27                  1589.7634     4.9680    39.8901
         TOT.                       10.435    5634.4781    30.1624    84.6485

 330.00  VIB.     0.5598D+02                  3317.6741    23.1497    18.0522
         ROT.     0.2278D+06                   983.6661     2.9808    27.4958
         INT.     0.1276D+08                  4301.3402    26.1305    45.5480
         TRA.     0.1029D+28                  1639.4435     4.9680    40.0430
         TOT.                       10.741    5940.7837    31.0985    85.5910

 340.00  VIB.     0.6531D+02                  3553.8424    24.0835    18.7572
         ROT.     0.2383D+06                  1013.4742     2.9808    27.5847
         INT.     0.1556D+08                  4567.3166    27.0643    46.3419
         TRA.     0.1076D+28                  1689.1236     4.9680    40.1913
         TOT.                       11.057    6256.4402    32.0323    86.5332

 350.00  VIB.     0.7628D+02                  3799.3292    25.0131    19.4687
         ROT.     0.2489D+06                  1043.2822     2.9808    27.6712
         INT.     0.1898D+08                  4842.6115    27.9939    47.1399
         TRA.     0.1124D+28                  1738.8037     4.9680    40.3353
         TOT.                       11.382    6581.4152    32.9619    87.4752

 360.00  VIB.     0.8923D+02                  4054.0840    25.9368    20.1863
         ROT.     0.2596D+06                  1073.0903     2.9808    27.7551
         INT.     0.2316D+08                  5127.1743    28.9176    47.9414
         TRA.     0.1173D+28                  1788.4838     4.9680    40.4753
         TOT.                       11.716    6915.6582    33.8856    88.4167

 370.00  VIB.     0.1045D+03                  4318.0404    26.8531    20.9095
         ROT.     0.2705D+06                  1102.8984     2.9808    27.8368
         INT.     0.2827D+08                  5420.9388    29.8339    48.7463
         TRA.     0.1222D+28                  1838.1639     4.9680    40.6114
         TOT.                       12.059    7259.1027    34.8020    89.3577

 380.00  VIB.     0.1226D+03                  4591.1179    27.7608    21.6377
         ROT.     0.2815D+06                  1132.7064     2.9808    27.9163
         INT.     0.3451D+08                  5723.8243    30.7416    49.5539
         TRA.     0.1272D+28                  1887.8440     4.9680    40.7439
         TOT.                       12.412    7611.6684    35.7096    90.2978

 390.00  VIB.     0.1439D+03                  4873.2237    28.6586    22.3704
         ROT.     0.2927D+06                  1162.5145     2.9808    27.9937
         INT.     0.4213D+08                  6035.7382    31.6394    50.3641
         TRA.     0.1322D+28                  1937.5242     4.9680    40.8729
         TOT.                       12.774    7973.2624    36.6075    91.2371

 400.00  VIB.     0.1692D+03                  5164.2548    29.5457    23.1072
         ROT.     0.3041D+06                  1192.3226     2.9808    28.0692
         INT.     0.5145D+08                  6356.5773    32.5265    51.1764
         TRA.     0.1374D+28                  1987.2043     4.9680    40.9987
         TOT.                       13.144    8343.7816    37.4945    92.1751

   *: NOTE: HEATS OF FORMATION ARE RELATIVE TO THE
            ELEMENTS IN THEIR STANDARD STATE AT 298K
              (=  Standard Enthalpy of Formation).

            Hvib:  Zero-point energy is not included.
                   frequencies of less than zero cm-1 are not included.
            Hrot = (3/2)RT
            Htra = (3/2)RT + pV = (5/2)RT

            Heat capacity is Cp, not Cv

          For more information, see: HTTP://OpenMOPAC.net/Manual/thermochemistry.html


           FORCE CONSTANT IN CARTESIAN COORDINATES (Millidynes/A)

    ATOM   CHEMICAL       X               Y               Z
   NUMBER   SYMBOL  FORCE CONSTANT  FORCE CONSTANT  FORCE CONSTANT

      1       C        8.959421        9.474608        7.656097
      2       C        9.028768        9.459793        7.644821
      3       C        8.543834        8.951017        7.956489
      4       C       15.476118        9.829721        2.760023
      5       C       15.327334        9.750336        2.337082
      6       C       15.410445        9.579571        2.353816
      7       C       15.385982        9.611620        2.353680
      8       H        2.054790        0.682757        3.441302
      9       H        2.055279        0.682961        3.440655
     10       H        2.057743        0.669994        3.445766
     11       H        2.059035        0.670073        3.444502
     12       H        2.228109        0.692155        3.745716
     13       H        2.427708        3.693247        0.654679
     14       H        2.207938        0.692145        3.765035
     15       H        1.901080        3.996785        0.348199
     16       H        1.895560        4.006680        0.348359
     17       H        1.929472        3.957289        0.345751

 **********************
 *                    *
 * JOB ENDED NORMALLY *
 *                    *
 **********************



 TOTAL JOB TIME:             1.86 SECONDS

 == MOPAC DONE ==
