 *******************************************************************************
 **                                                                           **
 **                              MOPAC v23.1.2                                **
 **                                                                           **
 *******************************************************************************
 **          Digital Object Identifier (DOI): 10.5281/zenodo.6511958          **
 **    Visit the DOI location for information on how to cite this program.    **
 *******************************************************************************

                              PM3 CALCULATION RESULTS

 *******************************************************************************
 *  CALCULATION DONE: (MAX THREADS = 1)              Tue Jun  3 16:39:57 2025  *
 *  PM3        - The PM3 Hamiltonian to be used
 *  PRECISE    - TIGHTER CRITERIA TO BE USED
 *  NOSYM      - POINT-GROUP SYMMETRY SET TO C1
 *  THREADS=1  - MULTI-THREADING NOT USED
 *  T=         - A TIME OF 172800.0 SECONDS REQUESTED
 *  DUMP=N     - RESTART FILE WRITTEN EVERY 7200.0 SECONDS REQUESTED
 *******************************************************************************
pm3  precise nosym THREADS=1
 InChI=1S/C12H20/c1-4-7-11(6-3)12-8-10(5-2)9-12/h4,8,11-12H,1,5-7,9H2,2-3H3

   ATOM   CHEMICAL          X               Y               Z
  NUMBER   SYMBOL      (ANGSTROMS)     (ANGSTROMS)     (ANGSTROMS)

     1       C         -1.02900000  *  -0.03280000  *  -0.21000000  *
     2       C          0.33970000  *  -0.54410000  *   0.31950000  *
     3       C         -1.77290000  *  -1.11940000  *  -1.03700000  *
     4       C          1.32880000  *  -0.82750000  *  -0.69030000  *
     5       C         -1.88620000  *   0.51410000  *   0.96010000  *
     6       C          3.53620000  *   0.80870000  *  -0.47780000  *
     7       C         -2.15670000  *  -2.37420000  *  -0.24800000  *
     8       C          4.51170000  *   0.61000000  *   0.67590000  *
     9       C          2.18980000  *   0.25700000  *  -0.13190000  *
    10       C          1.22310000  *   0.55660000  *   0.82730000  *
    11       C         -3.21140000  *   1.06690000  *   0.50560000  *
    12       C         -3.29640000  *   2.19350000  *  -0.20800000  *
    13       H         -0.83300000  *   0.81750000  *  -0.90280000  *
    14       H          0.24770000  *  -1.35110000  *   1.08000000  *
    15       H         -2.69560000  *  -0.68380000  *  -1.47650000  *
    16       H         -1.14330000  *  -1.42920000  *  -1.89760000  *
    17       H         -1.33720000  *   1.32420000  *   1.48710000  *
    18       H         -2.06450000  *  -0.28690000  *   1.70830000  *
    19       H          3.43960000  *   1.89160000  *  -0.70290000  *
    20       H          3.92230000  *   0.28980000  *  -1.38080000  *
    21       H          1.03210000  *  -0.59320000  *  -1.73610000  *
    22       H          1.80090000  *  -1.82750000  *  -0.57310000  *
    23       H         -2.65970000  *  -3.09230000  *  -0.92940000  *
    24       H         -1.25850000  *  -2.87320000  *   0.16910000  *
    25       H         -2.86530000  *  -2.13010000  *   0.56970000  *
    26       H          5.50580000  *   1.01760000  *   0.39550000  *
    27       H          4.62150000  *  -0.47200000  *   0.90500000  *
    28       H          4.15120000  *   1.14310000  *   1.58160000  *
    29       H         -4.12290000  *   0.54820000  *   0.78810000  *
    30       H          1.15410000  *   1.28070000  *   1.63180000  *
    31       H         -2.40490000  *   2.74520000  *  -0.49140000  *
    32       H         -4.26710000  *   2.57220000  *  -0.51110000  *



          CARTESIAN COORDINATES 

    NO.       ATOM           X           Y           Z

     1         C         -1.0290     -0.0328     -0.2100
     2         C          0.3397     -0.5441      0.3195
     3         C         -1.7729     -1.1194     -1.0370
     4         C          1.3288     -0.8275     -0.6903
     5         C         -1.8862      0.5141      0.9601
     6         C          3.5362      0.8087     -0.4778
     7         C         -2.1567     -2.3742     -0.2480
     8         C          4.5117      0.6100      0.6759
     9         C          2.1898      0.2570     -0.1319
    10         C          1.2231      0.5566      0.8273
    11         C         -3.2114      1.0669      0.5056
    12         C         -3.2964      2.1935     -0.2080
    13         H         -0.8330      0.8175     -0.9028
    14         H          0.2477     -1.3511      1.0800
    15         H         -2.6956     -0.6838     -1.4765
    16         H         -1.1433     -1.4292     -1.8976
    17         H         -1.3372      1.3242      1.4871
    18         H         -2.0645     -0.2869      1.7083
    19         H          3.4396      1.8916     -0.7029
    20         H          3.9223      0.2898     -1.3808
    21         H          1.0321     -0.5932     -1.7361
    22         H          1.8009     -1.8275     -0.5731
    23         H         -2.6597     -3.0923     -0.9294
    24         H         -1.2585     -2.8732      0.1691
    25         H         -2.8653     -2.1301      0.5697
    26         H          5.5058      1.0176      0.3955
    27         H          4.6215     -0.4720      0.9050
    28         H          4.1512      1.1431      1.5816
    29         H         -4.1229      0.5482      0.7881
    30         H          1.1541      1.2807      1.6318
    31         H         -2.4049      2.7452     -0.4914
    32         H         -4.2671      2.5722     -0.5111

  H: (PM3): J. J. P. STEWART, J. COMP. CHEM. 10, 209 (1989).
  C: (PM3): J. J. P. STEWART, J. COMP. CHEM. 10, 209 (1989).

           Empirical Formula: C12 H20  =    32 atoms



      MOLECULAR POINT GROUP   :   C1  


      RHF CALCULATION, NO. OF DOUBLY OCCUPIED LEVELS = 34


          Geometry optimization using EF

          DIAGONAL MATRIX USED AS START HESSIAN

 CYCLE:     1 TIME:   0.016 TIME LEFT:  2.00D  GRAD.:   214.323 HEAT:  36.67074
 CYCLE:     2 TIME:   0.020 TIME LEFT:  2.00D  GRAD.:    70.030 HEAT:  27.16491
 CYCLE:     3 TIME:   0.016 TIME LEFT:  2.00D  GRAD.:    76.506 HEAT:  25.90430
 CYCLE:     4 TIME:   0.020 TIME LEFT:  2.00D  GRAD.:    42.838 HEAT:  24.82416
 CYCLE:     5 TIME:   0.008 TIME LEFT:  2.00D  GRAD.:    52.840 HEAT:  24.61809
 CYCLE:     6 TIME:   0.012 TIME LEFT:  2.00D  GRAD.:    29.749 HEAT:  23.73751
 CYCLE:     7 TIME:   0.020 TIME LEFT:  2.00D  GRAD.:    33.760 HEAT:  23.55580
 CYCLE:     8 TIME:   0.020 TIME LEFT:  2.00D  GRAD.:    24.456 HEAT:  23.34569
 CYCLE:     9 TIME:   0.008 TIME LEFT:  2.00D  GRAD.:    26.404 HEAT:  23.30989
 CYCLE:    10 TIME:   0.012 TIME LEFT:  2.00D  GRAD.:    17.781 HEAT:  23.13406
 CYCLE:    11 TIME:   0.020 TIME LEFT:  2.00D  GRAD.:    13.676 HEAT:  23.05665
 CYCLE:    12 TIME:   0.008 TIME LEFT:  2.00D  GRAD.:    10.333 HEAT:  22.98620
 CYCLE:    13 TIME:   0.020 TIME LEFT:  2.00D  GRAD.:     9.914 HEAT:  22.95729
 CYCLE:    14 TIME:   0.012 TIME LEFT:  2.00D  GRAD.:     6.731 HEAT:  22.91937
 CYCLE:    15 TIME:   0.008 TIME LEFT:  2.00D  GRAD.:     9.449 HEAT:  22.90411
 CYCLE:    16 TIME:   0.016 TIME LEFT:  2.00D  GRAD.:     7.740 HEAT:  22.88227
 CYCLE:    17 TIME:   0.016 TIME LEFT:  2.00D  GRAD.:     6.261 HEAT:  22.86701
 CYCLE:    18 TIME:   0.012 TIME LEFT:  2.00D  GRAD.:     7.537 HEAT:  22.86353
 CYCLE:    19 TIME:   0.012 TIME LEFT:  2.00D  GRAD.:     7.994 HEAT:  22.85938
 CYCLE:    20 TIME:   0.008 TIME LEFT:  2.00D  GRAD.:     6.248 HEAT:  22.84825
 CYCLE:    21 TIME:   0.012 TIME LEFT:  2.00D  GRAD.:     6.232 HEAT:  22.84134
 CYCLE:    22 TIME:   0.012 TIME LEFT:  2.00D  GRAD.:     6.161 HEAT:  22.83632
 CYCLE:    23 TIME:   0.012 TIME LEFT:  2.00D  GRAD.:     5.381 HEAT:  22.82786
 CYCLE:    24 TIME:   0.008 TIME LEFT:  2.00D  GRAD.:     6.168 HEAT:  22.82647
 CYCLE:    25 TIME:   0.012 TIME LEFT:  2.00D  GRAD.:     3.694 HEAT:  22.81354
 CYCLE:    26 TIME:   0.012 TIME LEFT:  2.00D  GRAD.:     5.506 HEAT:  22.81397
 CYCLE:    27 TIME:   0.012 TIME LEFT:  2.00D  GRAD.:     4.925 HEAT:  22.80659
 CYCLE:    28 TIME:   0.008 TIME LEFT:  2.00D  GRAD.:     6.094 HEAT:  22.80482
 CYCLE:    29 TIME:   0.012 TIME LEFT:  2.00D  GRAD.:     3.163 HEAT:  22.79299
 CYCLE:    30 TIME:   0.008 TIME LEFT:  2.00D  GRAD.:     3.340 HEAT:  22.78809
 CYCLE:    31 TIME:   0.012 TIME LEFT:  2.00D  GRAD.:     1.936 HEAT:  22.78071
 CYCLE:    32 TIME:   0.012 TIME LEFT:  2.00D  GRAD.:     3.776 HEAT:  22.77349
 CYCLE:    33 TIME:   0.012 TIME LEFT:  2.00D  GRAD.:     3.649 HEAT:  22.76840
 CYCLE:    34 TIME:   0.008 TIME LEFT:  2.00D  GRAD.:     3.349 HEAT:  22.76366
 CYCLE:    35 TIME:   0.012 TIME LEFT:  2.00D  GRAD.:     2.406 HEAT:  22.75690
 CYCLE:    36 TIME:   0.012 TIME LEFT:  2.00D  GRAD.:     3.042 HEAT:  22.74655
 CYCLE:    37 TIME:   0.012 TIME LEFT:  2.00D  GRAD.:     3.407 HEAT:  22.73502
 CYCLE:    38 TIME:   0.012 TIME LEFT:  2.00D  GRAD.:     4.539 HEAT:  22.72503
 CYCLE:    39 TIME:   0.012 TIME LEFT:  2.00D  GRAD.:     3.768 HEAT:  22.71496
 CYCLE:    40 TIME:   0.012 TIME LEFT:  2.00D  GRAD.:     4.007 HEAT:  22.70461
 CYCLE:    41 TIME:   0.012 TIME LEFT:  2.00D  GRAD.:     2.622 HEAT:  22.69062
 CYCLE:    42 TIME:   0.012 TIME LEFT:  2.00D  GRAD.:     6.008 HEAT:  22.66951
 CYCLE:    43 TIME:   0.012 TIME LEFT:  2.00D  GRAD.:     4.963 HEAT:  22.64917
 CYCLE:    44 TIME:   0.012 TIME LEFT:  2.00D  GRAD.:     4.281 HEAT:  22.60993
 CYCLE:    45 TIME:   0.020 TIME LEFT:  2.00D  GRAD.:     5.868 HEAT:  22.57232
 CYCLE:    46 TIME:   0.012 TIME LEFT:  2.00D  GRAD.:    12.914 HEAT:  22.57221
 CYCLE:    47 TIME:   0.012 TIME LEFT:  2.00D  GRAD.:    10.975 HEAT:  22.56307
 CYCLE:    48 TIME:   0.016 TIME LEFT:  2.00D  GRAD.:    11.442 HEAT:  22.53566
 CYCLE:    49 TIME:   0.008 TIME LEFT:  2.00D  GRAD.:     5.771 HEAT:  22.49029
 CYCLE:    50 TIME:   0.012 TIME LEFT:  2.00D  GRAD.:     5.584 HEAT:  22.46654
 CYCLE:    51 TIME:   0.012 TIME LEFT:  2.00D  GRAD.:     5.380 HEAT:  22.44064
 CYCLE:    52 TIME:   0.016 TIME LEFT:  2.00D  GRAD.:     4.946 HEAT:  22.40508
 CYCLE:    53 TIME:   0.012 TIME LEFT:  2.00D  GRAD.:     6.045 HEAT:  22.37741
 CYCLE:    54 TIME:   0.008 TIME LEFT:  2.00D  GRAD.:     3.376 HEAT:  22.35472
 CYCLE:    55 TIME:   0.016 TIME LEFT:  2.00D  GRAD.:     4.149 HEAT:  22.33583
 CYCLE:    56 TIME:   0.012 TIME LEFT:  2.00D  GRAD.:     5.756 HEAT:  22.30988
 CYCLE:    57 TIME:   0.008 TIME LEFT:  2.00D  GRAD.:     6.484 HEAT:  22.27992
 CYCLE:    58 TIME:   0.012 TIME LEFT:  2.00D  GRAD.:     5.134 HEAT:  22.24193
 CYCLE:    59 TIME:   0.012 TIME LEFT:  2.00D  GRAD.:     5.722 HEAT:  22.18926
 CYCLE:    60 TIME:   0.012 TIME LEFT:  2.00D  GRAD.:     8.936 HEAT:  22.13514
 CYCLE:    61 TIME:   0.012 TIME LEFT:  2.00D  GRAD.:     4.802 HEAT:  22.09872
 CYCLE:    62 TIME:   0.012 TIME LEFT:  2.00D  GRAD.:     6.351 HEAT:  22.05693
 CYCLE:    63 TIME:   0.012 TIME LEFT:  2.00D  GRAD.:     7.575 HEAT:  21.99216
 CYCLE:    64 TIME:   0.012 TIME LEFT:  2.00D  GRAD.:     5.536 HEAT:  21.96061
 CYCLE:    65 TIME:   0.012 TIME LEFT:  2.00D  GRAD.:     5.231 HEAT:  21.92958
 CYCLE:    66 TIME:   0.012 TIME LEFT:  2.00D  GRAD.:     4.726 HEAT:  21.91447
 CYCLE:    67 TIME:   0.012 TIME LEFT:  2.00D  GRAD.:     4.585 HEAT:  21.90183
 CYCLE:    68 TIME:   0.012 TIME LEFT:  2.00D  GRAD.:     5.404 HEAT:  21.89261
 CYCLE:    69 TIME:   0.008 TIME LEFT:  2.00D  GRAD.:     2.856 HEAT:  21.87793
 CYCLE:    70 TIME:   0.012 TIME LEFT:  2.00D  GRAD.:     2.336 HEAT:  21.86418
 CYCLE:    71 TIME:   0.012 TIME LEFT:  2.00D  GRAD.:     2.859 HEAT:  21.84469
 CYCLE:    72 TIME:   0.012 TIME LEFT:  2.00D  GRAD.:     2.567 HEAT:  21.83342
 CYCLE:    73 TIME:   0.012 TIME LEFT:  2.00D  GRAD.:     2.835 HEAT:  21.82284
 CYCLE:    74 TIME:   0.012 TIME LEFT:  2.00D  GRAD.:     3.328 HEAT:  21.81007
 CYCLE:    75 TIME:   0.012 TIME LEFT:  2.00D  GRAD.:     3.892 HEAT:  21.79299
 CYCLE:    76 TIME:   0.012 TIME LEFT:  2.00D  GRAD.:     4.026 HEAT:  21.77140
 CYCLE:    77 TIME:   0.016 TIME LEFT:  2.00D  GRAD.:     3.454 HEAT:  21.74535
 CYCLE:    78 TIME:   0.020 TIME LEFT:  2.00D  GRAD.:     5.552 HEAT:  21.72214
 CYCLE:    79 TIME:   0.008 TIME LEFT:  2.00D  GRAD.:     5.328 HEAT:  21.69217
 CYCLE:    80 TIME:   0.016 TIME LEFT:  2.00D  GRAD.:     3.765 HEAT:  21.66941
 CYCLE:    81 TIME:   0.012 TIME LEFT:  2.00D  GRAD.:     4.047 HEAT:  21.64637
 CYCLE:    82 TIME:   0.012 TIME LEFT:  2.00D  GRAD.:     3.867 HEAT:  21.62949
 CYCLE:    83 TIME:   0.012 TIME LEFT:  2.00D  GRAD.:     5.074 HEAT:  21.60870
 CYCLE:    84 TIME:   0.012 TIME LEFT:  2.00D  GRAD.:     2.984 HEAT:  21.58984
 CYCLE:    85 TIME:   0.012 TIME LEFT:  2.00D  GRAD.:     2.642 HEAT:  21.57454
 CYCLE:    86 TIME:   0.012 TIME LEFT:  2.00D  GRAD.:     3.364 HEAT:  21.56135
 CYCLE:    87 TIME:   0.012 TIME LEFT:  2.00D  GRAD.:     2.034 HEAT:  21.55222
 CYCLE:    88 TIME:   0.012 TIME LEFT:  2.00D  GRAD.:     1.926 HEAT:  21.54402
 CYCLE:    89 TIME:   0.012 TIME LEFT:  2.00D  GRAD.:     1.643 HEAT:  21.53606
 CYCLE:    90 TIME:   0.012 TIME LEFT:  2.00D  GRAD.:     1.695 HEAT:  21.53064
 CYCLE:    91 TIME:   0.012 TIME LEFT:  2.00D  GRAD.:     1.908 HEAT:  21.52404
 CYCLE:    92 TIME:   0.012 TIME LEFT:  2.00D  GRAD.:     1.704 HEAT:  21.51770
 CYCLE:    93 TIME:   0.012 TIME LEFT:  2.00D  GRAD.:     1.626 HEAT:  21.51126
 CYCLE:    94 TIME:   0.012 TIME LEFT:  2.00D  GRAD.:     1.300 HEAT:  21.50682
 CYCLE:    95 TIME:   0.012 TIME LEFT:  2.00D  GRAD.:     1.231 HEAT:  21.50394
 CYCLE:    96 TIME:   0.012 TIME LEFT:  2.00D  GRAD.:     1.089 HEAT:  21.50178
 CYCLE:    97 TIME:   0.012 TIME LEFT:  2.00D  GRAD.:     1.641 HEAT:  21.49916
 CYCLE:    98 TIME:   0.012 TIME LEFT:  2.00D  GRAD.:     1.412 HEAT:  21.49492
 CYCLE:    99 TIME:   0.012 TIME LEFT:  2.00D  GRAD.:     1.536 HEAT:  21.48825
 CYCLE:   100 TIME:   0.012 TIME LEFT:  2.00D  GRAD.:     1.452 HEAT:  21.48265
 CYCLE:   101 TIME:   0.012 TIME LEFT:  2.00D  GRAD.:     1.342 HEAT:  21.47837
 CYCLE:   102 TIME:   0.012 TIME LEFT:  2.00D  GRAD.:     1.310 HEAT:  21.47458
 CYCLE:   103 TIME:   0.012 TIME LEFT:  2.00D  GRAD.:     1.307 HEAT:  21.47059
 CYCLE:   104 TIME:   0.012 TIME LEFT:  2.00D  GRAD.:     1.282 HEAT:  21.46645
 CYCLE:   105 TIME:   0.012 TIME LEFT:  2.00D  GRAD.:     1.097 HEAT:  21.46292
 CYCLE:   106 TIME:   0.012 TIME LEFT:  2.00D  GRAD.:     1.186 HEAT:  21.46049
 CYCLE:   107 TIME:   0.012 TIME LEFT:  2.00D  GRAD.:     1.306 HEAT:  21.45886
 CYCLE:   108 TIME:   0.012 TIME LEFT:  2.00D  GRAD.:     1.060 HEAT:  21.45674
 CYCLE:   109 TIME:   0.012 TIME LEFT:  2.00D  GRAD.:     0.953 HEAT:  21.45343
 CYCLE:   110 TIME:   0.012 TIME LEFT:  2.00D  GRAD.:     1.018 HEAT:  21.45112
 CYCLE:   111 TIME:   0.012 TIME LEFT:  2.00D  GRAD.:     1.008 HEAT:  21.44911
 CYCLE:   112 TIME:   0.012 TIME LEFT:  2.00D  GRAD.:     0.897 HEAT:  21.44758
 CYCLE:   113 TIME:   0.012 TIME LEFT:  2.00D  GRAD.:     0.768 HEAT:  21.44638
 CYCLE:   114 TIME:   0.012 TIME LEFT:  2.00D  GRAD.:     0.592 HEAT:  21.44539
 CYCLE:   115 TIME:   0.008 TIME LEFT:  2.00D  GRAD.:     0.491 HEAT:  21.44468
 CYCLE:   116 TIME:   0.012 TIME LEFT:  2.00D  GRAD.:     0.474 HEAT:  21.44404
 CYCLE:   117 TIME:   0.012 TIME LEFT:  2.00D  GRAD.:     0.491 HEAT:  21.44349
 CYCLE:   118 TIME:   0.012 TIME LEFT:  2.00D  GRAD.:     0.553 HEAT:  21.44292
 CYCLE:   119 TIME:   0.012 TIME LEFT:  2.00D  GRAD.:     0.531 HEAT:  21.44242
 CYCLE:   120 TIME:   0.012 TIME LEFT:  2.00D  GRAD.:     0.609 HEAT:  21.44167
 CYCLE:   121 TIME:   0.008 TIME LEFT:  2.00D  GRAD.:     0.530 HEAT:  21.44116
 CYCLE:   122 TIME:   0.012 TIME LEFT:  2.00D  GRAD.:     0.684 HEAT:  21.43991
 CYCLE:   123 TIME:   0.012 TIME LEFT:  2.00D  GRAD.:     0.443 HEAT:  21.43934
 CYCLE:   124 TIME:   0.012 TIME LEFT:  2.00D  GRAD.:     0.292 HEAT:  21.43878
 CYCLE:   125 TIME:   0.012 TIME LEFT:  2.00D  GRAD.:     0.342 HEAT:  21.43856
 CYCLE:   126 TIME:   0.012 TIME LEFT:  2.00D  GRAD.:     0.287 HEAT:  21.43825
 CYCLE:   127 TIME:   0.012 TIME LEFT:  2.00D  GRAD.:     0.295 HEAT:  21.43807
 CYCLE:   128 TIME:   0.012 TIME LEFT:  2.00D  GRAD.:     0.329 HEAT:  21.43771
 CYCLE:   129 TIME:   0.012 TIME LEFT:  2.00D  GRAD.:     0.267 HEAT:  21.43757
 CYCLE:   130 TIME:   0.012 TIME LEFT:  2.00D  GRAD.:     0.314 HEAT:  21.43726
 CYCLE:   131 TIME:   0.008 TIME LEFT:  2.00D  GRAD.:     0.249 HEAT:  21.43715
 CYCLE:   132 TIME:   0.012 TIME LEFT:  2.00D  GRAD.:     0.231 HEAT:  21.43697
 CYCLE:   133 TIME:   0.012 TIME LEFT:  2.00D  GRAD.:     0.223 HEAT:  21.43688
 CYCLE:   134 TIME:   0.012 TIME LEFT:  2.00D  GRAD.:     0.159 HEAT:  21.43674
 CYCLE:   135 TIME:   0.012 TIME LEFT:  2.00D  GRAD.:     0.129 HEAT:  21.43668
 CYCLE:   136 TIME:   0.012 TIME LEFT:  2.00D  GRAD.:     0.181 HEAT:  21.43660
 CYCLE:   137 TIME:   0.008 TIME LEFT:  2.00D  GRAD.:     0.149 HEAT:  21.43657
 CYCLE:   138 TIME:   0.016 TIME LEFT:  2.00D  GRAD.:     0.154 HEAT:  21.43649
 CYCLE:   139 TIME:   0.008 TIME LEFT:  2.00D  GRAD.:     0.129 HEAT:  21.43646
 CYCLE:   140 TIME:   0.012 TIME LEFT:  2.00D  GRAD.:     0.141 HEAT:  21.43640
 CYCLE:   141 TIME:   0.012 TIME LEFT:  2.00D  GRAD.:     0.211 HEAT:  21.43633
 CYCLE:   142 TIME:   0.012 TIME LEFT:  2.00D  GRAD.:     0.218 HEAT:  21.43628
 CYCLE:   143 TIME:   0.008 TIME LEFT:  2.00D  GRAD.:     0.226 HEAT:  21.43609
 CYCLE:   144 TIME:   0.012 TIME LEFT:  2.00D  GRAD.:     0.249 HEAT:  21.43601
 CYCLE:   145 TIME:   0.012 TIME LEFT:  2.00D  GRAD.:     0.251 HEAT:  21.43588
 CYCLE:   146 TIME:   0.012 TIME LEFT:  2.00D  GRAD.:     0.318 HEAT:  21.43567
 CYCLE:   147 TIME:   0.012 TIME LEFT:  2.00D  GRAD.:     0.324 HEAT:  21.43548
 CYCLE:   148 TIME:   0.012 TIME LEFT:  2.00D  GRAD.:     0.530 HEAT:  21.43486
 CYCLE:   149 TIME:   0.012 TIME LEFT:  2.00D  GRAD.:     0.473 HEAT:  21.43457
 CYCLE:   150 TIME:   0.016 TIME LEFT:  2.00D  GRAD.:     0.491 HEAT:  21.43374
 CYCLE:   151 TIME:   0.008 TIME LEFT:  2.00D  GRAD.:     0.452 HEAT:  21.43338
 CYCLE:   152 TIME:   0.016 TIME LEFT:  2.00D  GRAD.:     1.489 HEAT:  21.43325
 CYCLE:   153 TIME:   0.012 TIME LEFT:  2.00D  GRAD.:     0.604 HEAT:  21.43167
 CYCLE:   154 TIME:   0.012 TIME LEFT:  2.00D  GRAD.:     0.570 HEAT:  21.43119
 CYCLE:   155 TIME:   0.020 TIME LEFT:  2.00D  GRAD.:     1.210 HEAT:  21.42985
 CYCLE:   156 TIME:   0.012 TIME LEFT:  2.00D  GRAD.:     0.613 HEAT:  21.42930
 CYCLE:   157 TIME:   0.012 TIME LEFT:  2.00D  GRAD.:     0.614 HEAT:  21.42854
 CYCLE:   158 TIME:   0.012 TIME LEFT:  2.00D  GRAD.:     0.395 HEAT:  21.42819
 CYCLE:   159 TIME:   0.020 TIME LEFT:  2.00D  GRAD.:     4.142 HEAT:  21.43756
 CYCLE:   160 TIME:   0.012 TIME LEFT:  2.00D  GRAD.:     0.553 HEAT:  21.42770
 CYCLE:   161 TIME:   0.012 TIME LEFT:  2.00D  GRAD.:     0.321 HEAT:  21.42741
 CYCLE:   162 TIME:   0.012 TIME LEFT:  2.00D  GRAD.:     0.316 HEAT:  21.42713
 CYCLE:   163 TIME:   0.012 TIME LEFT:  2.00D  GRAD.:     0.399 HEAT:  21.42688
 CYCLE:   164 TIME:   0.012 TIME LEFT:  2.00D  GRAD.:     0.636 HEAT:  21.42625
 CYCLE:   165 TIME:   0.012 TIME LEFT:  2.00D  GRAD.:     0.643 HEAT:  21.42581
 CYCLE:   166 TIME:   0.020 TIME LEFT:  2.00D  GRAD.:     1.646 HEAT:  21.42627
 CYCLE:   167 TIME:   0.012 TIME LEFT:  2.00D  GRAD.:     0.683 HEAT:  21.42440
 CYCLE:   168 TIME:   0.012 TIME LEFT:  2.00D  GRAD.:     0.551 HEAT:  21.42386
 CYCLE:   169 TIME:   0.016 TIME LEFT:  2.00D  GRAD.:     1.820 HEAT:  21.42186
 CYCLE:   170 TIME:   0.012 TIME LEFT:  2.00D  GRAD.:     0.740 HEAT:  21.41950
 CYCLE:   171 TIME:   0.012 TIME LEFT:  2.00D  GRAD.:     0.575 HEAT:  21.41777
 CYCLE:   172 TIME:   0.012 TIME LEFT:  2.00D  GRAD.:     0.684 HEAT:  21.41382
 CYCLE:   173 TIME:   0.012 TIME LEFT:  2.00D  GRAD.:     0.950 HEAT:  21.41034
 CYCLE:   174 TIME:   0.012 TIME LEFT:  2.00D  GRAD.:     0.940 HEAT:  21.40686
 CYCLE:   175 TIME:   0.012 TIME LEFT:  2.00D  GRAD.:     0.965 HEAT:  21.40554
 CYCLE:   176 TIME:   0.012 TIME LEFT:  2.00D  GRAD.:     1.049 HEAT:  21.40508
 CYCLE:   177 TIME:   0.012 TIME LEFT:  2.00D  GRAD.:     1.034 HEAT:  21.40372
 CYCLE:   178 TIME:   0.012 TIME LEFT:  2.00D  GRAD.:     1.186 HEAT:  21.40266
 CYCLE:   179 TIME:   0.012 TIME LEFT:  2.00D  GRAD.:     1.413 HEAT:  21.39846
 CYCLE:   180 TIME:   0.012 TIME LEFT:  2.00D  GRAD.:     1.819 HEAT:  21.39524
 CYCLE:   181 TIME:   0.012 TIME LEFT:  2.00D  GRAD.:     1.568 HEAT:  21.38414
 CYCLE:   182 TIME:   0.012 TIME LEFT:  2.00D  GRAD.:     2.906 HEAT:  21.37913
 CYCLE:   183 TIME:   0.012 TIME LEFT:  2.00D  GRAD.:     1.704 HEAT:  21.37094
 CYCLE:   184 TIME:   0.012 TIME LEFT:  2.00D  GRAD.:     2.483 HEAT:  21.35788
 CYCLE:   185 TIME:   0.012 TIME LEFT:  2.00D  GRAD.:     3.687 HEAT:  21.33369
 CYCLE:   186 TIME:   0.012 TIME LEFT:  2.00D  GRAD.:     9.162 HEAT:  21.31279
 CYCLE:   187 TIME:   0.027 TIME LEFT:  2.00D  GRAD.:     9.240 HEAT:  21.30673
 CYCLE:   188 TIME:   0.012 TIME LEFT:  2.00D  GRAD.:     6.163 HEAT:  21.24775
 CYCLE:   189 TIME:   0.012 TIME LEFT:  2.00D  GRAD.:     8.103 HEAT:  21.21836
 CYCLE:   190 TIME:   0.012 TIME LEFT:  2.00D  GRAD.:     3.840 HEAT:  21.18317
 CYCLE:   191 TIME:   0.012 TIME LEFT:  2.00D  GRAD.:     2.323 HEAT:  21.16259
 CYCLE:   192 TIME:   0.020 TIME LEFT:  2.00D  GRAD.:     2.336 HEAT:  21.14987
 CYCLE:   193 TIME:   0.012 TIME LEFT:  2.00D  GRAD.:     2.046 HEAT:  21.14275
 CYCLE:   194 TIME:   0.012 TIME LEFT:  2.00D  GRAD.:     1.809 HEAT:  21.13884
 CYCLE:   195 TIME:   0.012 TIME LEFT:  2.00D  GRAD.:     1.404 HEAT:  21.13636
 CYCLE:   196 TIME:   0.008 TIME LEFT:  2.00D  GRAD.:     1.237 HEAT:  21.13347
 CYCLE:   197 TIME:   0.012 TIME LEFT:  2.00D  GRAD.:     1.860 HEAT:  21.12853
 CYCLE:   198 TIME:   0.012 TIME LEFT:  2.00D  GRAD.:     2.191 HEAT:  21.12361
 CYCLE:   199 TIME:   0.012 TIME LEFT:  2.00D  GRAD.:     1.984 HEAT:  21.11697
 CYCLE:   200 TIME:   0.012 TIME LEFT:  2.00D  GRAD.:     2.508 HEAT:  21.10719
 CYCLE:   201 TIME:   0.012 TIME LEFT:  2.00D  GRAD.:     1.950 HEAT:  21.09733
 CYCLE:   202 TIME:   0.012 TIME LEFT:  2.00D  GRAD.:     2.347 HEAT:  21.08653
 CYCLE:   203 TIME:   0.012 TIME LEFT:  2.00D  GRAD.:     2.494 HEAT:  21.07739
 CYCLE:   204 TIME:   0.020 TIME LEFT:  2.00D  GRAD.:     4.080 HEAT:  21.07378
 CYCLE:   205 TIME:   0.012 TIME LEFT:  2.00D  GRAD.:     2.063 HEAT:  21.06312
 CYCLE:   206 TIME:   0.012 TIME LEFT:  2.00D  GRAD.:     1.358 HEAT:  21.05751
 CYCLE:   207 TIME:   0.012 TIME LEFT:  2.00D  GRAD.:     1.132 HEAT:  21.05455
 CYCLE:   208 TIME:   0.012 TIME LEFT:  2.00D  GRAD.:     0.875 HEAT:  21.05329
 CYCLE:   209 TIME:   0.012 TIME LEFT:  2.00D  GRAD.:     0.672 HEAT:  21.05254
 CYCLE:   210 TIME:   0.012 TIME LEFT:  2.00D  GRAD.:     0.617 HEAT:  21.05194
 CYCLE:   211 TIME:   0.008 TIME LEFT:  2.00D  GRAD.:     0.659 HEAT:  21.05130
 CYCLE:   212 TIME:   0.012 TIME LEFT:  2.00D  GRAD.:     0.652 HEAT:  21.05079
 CYCLE:   213 TIME:   0.012 TIME LEFT:  2.00D  GRAD.:     0.608 HEAT:  21.05016
 CYCLE:   214 TIME:   0.012 TIME LEFT:  2.00D  GRAD.:     0.666 HEAT:  21.04948
 CYCLE:   215 TIME:   0.012 TIME LEFT:  2.00D  GRAD.:     0.950 HEAT:  21.04784
 CYCLE:   216 TIME:   0.016 TIME LEFT:  2.00D  GRAD.:     1.211 HEAT:  21.04556
 CYCLE:   217 TIME:   0.012 TIME LEFT:  2.00D  GRAD.:     3.241 HEAT:  21.04062
 CYCLE:   218 TIME:   0.012 TIME LEFT:  2.00D  GRAD.:     2.293 HEAT:  21.03611
 CYCLE:   219 TIME:   0.012 TIME LEFT:  2.00D  GRAD.:     2.355 HEAT:  21.03073
 CYCLE:   220 TIME:   0.012 TIME LEFT:  2.00D  GRAD.:     1.636 HEAT:  21.02323
 CYCLE:   221 TIME:   0.012 TIME LEFT:  2.00D  GRAD.:     2.743 HEAT:  21.01910
 CYCLE:   222 TIME:   0.012 TIME LEFT:  2.00D  GRAD.:     2.026 HEAT:  21.01502
 CYCLE:   223 TIME:   0.012 TIME LEFT:  2.00D  GRAD.:     1.363 HEAT:  21.00876
 CYCLE:   224 TIME:   0.012 TIME LEFT:  2.00D  GRAD.:     1.772 HEAT:  21.00331
 CYCLE:   225 TIME:   0.008 TIME LEFT:  2.00D  GRAD.:     1.340 HEAT:  21.00025
 CYCLE:   226 TIME:   0.012 TIME LEFT:  2.00D  GRAD.:     1.485 HEAT:  20.99707
 CYCLE:   227 TIME:   0.012 TIME LEFT:  2.00D  GRAD.:     1.181 HEAT:  20.99455
 CYCLE:   228 TIME:   0.012 TIME LEFT:  2.00D  GRAD.:     0.821 HEAT:  20.99312
 CYCLE:   229 TIME:   0.008 TIME LEFT:  2.00D  GRAD.:     0.674 HEAT:  20.99206
 CYCLE:   230 TIME:   0.012 TIME LEFT:  2.00D  GRAD.:     0.586 HEAT:  20.99165
 CYCLE:   231 TIME:   0.012 TIME LEFT:  2.00D  GRAD.:     0.433 HEAT:  20.99141
 CYCLE:   232 TIME:   0.008 TIME LEFT:  2.00D  GRAD.:     0.538 HEAT:  20.99107
 CYCLE:   233 TIME:   0.012 TIME LEFT:  2.00D  GRAD.:     0.444 HEAT:  20.99082
 CYCLE:   234 TIME:   0.012 TIME LEFT:  2.00D  GRAD.:     0.345 HEAT:  20.99065
 CYCLE:   235 TIME:   0.008 TIME LEFT:  2.00D  GRAD.:     0.436 HEAT:  20.99060
 CYCLE:   236 TIME:   0.012 TIME LEFT:  2.00D  GRAD.:     0.418 HEAT:  20.99039
 CYCLE:   237 TIME:   0.008 TIME LEFT:  2.00D  GRAD.:     0.681 HEAT:  20.99039
 CYCLE:   238 TIME:   0.012 TIME LEFT:  2.00D  GRAD.:     0.402 HEAT:  20.99015
 CYCLE:   239 TIME:   0.012 TIME LEFT:  2.00D  GRAD.:     3.188 HEAT:  20.99705
 CYCLE:   240 TIME:   0.008 TIME LEFT:  2.00D  GRAD.:     0.398 HEAT:  20.99000
 CYCLE:   241 TIME:   0.012 TIME LEFT:  2.00D  GRAD.:     0.317 HEAT:  20.98969
 CYCLE:   242 TIME:   0.012 TIME LEFT:  2.00D  GRAD.:     0.288 HEAT:  20.98955
 CYCLE:   243 TIME:   0.008 TIME LEFT:  2.00D  GRAD.:     0.708 HEAT:  20.98881
 CYCLE:   244 TIME:   0.012 TIME LEFT:  2.00D  GRAD.:     0.621 HEAT:  20.98838
 CYCLE:   245 TIME:   0.008 TIME LEFT:  2.00D  GRAD.:     0.304 HEAT:  20.98779
 CYCLE:   246 TIME:   0.012 TIME LEFT:  2.00D  GRAD.:     0.562 HEAT:  20.98742
 CYCLE:   247 TIME:   0.012 TIME LEFT:  2.00D  GRAD.:     1.386 HEAT:  20.98734
 CYCLE:   248 TIME:   0.008 TIME LEFT:  2.00D  GRAD.:     0.538 HEAT:  20.98673
 CYCLE:   249 TIME:   0.008 TIME LEFT:  2.00D  GRAD.:     0.405 HEAT:  20.98637
 CYCLE:   250 TIME:   0.016 TIME LEFT:  2.00D  GRAD.:     0.887 HEAT:  20.98529
 CYCLE:   251 TIME:   0.008 TIME LEFT:  2.00D  GRAD.:     0.936 HEAT:  20.98468
 CYCLE:   252 TIME:   0.008 TIME LEFT:  2.00D  GRAD.:     0.983 HEAT:  20.98393
 CYCLE:   253 TIME:   0.012 TIME LEFT:  2.00D  GRAD.:     0.736 HEAT:  20.98305
 CYCLE:   254 TIME:   0.012 TIME LEFT:  2.00D  GRAD.:     0.672 HEAT:  20.98284
 CYCLE:   255 TIME:   0.008 TIME LEFT:  2.00D  GRAD.:     0.484 HEAT:  20.98238
 CYCLE:   256 TIME:   0.012 TIME LEFT:  2.00D  GRAD.:     0.576 HEAT:  20.98210
 CYCLE:   257 TIME:   0.012 TIME LEFT:  2.00D  GRAD.:     0.763 HEAT:  20.98188
 CYCLE:   258 TIME:   0.012 TIME LEFT:  2.00D  GRAD.:     0.715 HEAT:  20.98160
 CYCLE:   259 TIME:   0.012 TIME LEFT:  2.00D  GRAD.:     3.354 HEAT:  20.99108
 CYCLE:   260 TIME:   0.012 TIME LEFT:  2.00D  GRAD.:     0.562 HEAT:  20.98120
 CYCLE:   261 TIME:   0.008 TIME LEFT:  2.00D  GRAD.:     0.352 HEAT:  20.98083
 CYCLE:   262 TIME:   0.012 TIME LEFT:  2.00D  GRAD.:     0.549 HEAT:  20.98047
 CYCLE:   263 TIME:   0.008 TIME LEFT:  2.00D  GRAD.:     0.388 HEAT:  20.98028
 CYCLE:   264 TIME:   0.012 TIME LEFT:  2.00D  GRAD.:     1.032 HEAT:  20.98041
 CYCLE:   265 TIME:   0.012 TIME LEFT:  2.00D  GRAD.:     0.277 HEAT:  20.97980
 CYCLE:   266 TIME:   0.008 TIME LEFT:  2.00D  GRAD.:     0.151 HEAT:  20.97974
 CYCLE:   267 TIME:   0.012 TIME LEFT:  2.00D  GRAD.:     0.145 HEAT:  20.97972
 CYCLE:   268 TIME:   0.008 TIME LEFT:  2.00D  GRAD.:     0.064 HEAT:  20.97970
 CYCLE:   269 TIME:   0.008 TIME LEFT:  2.00D  GRAD.:     0.081 HEAT:  20.97971
 CYCLE:   270 TIME:   0.012 TIME LEFT:  2.00D  GRAD.:     0.039 HEAT:  20.97970

     GRADIENT =  0.03916 IS LESS THAN CUTOFF =  0.05000



 -------------------------------------------------------------------------------
 pm3  precise nosym THREADS=1
 InChI=1S/C12H20/c1-4-7-11(6-3)12-8-10(5-2)9-12/h4,8,11-12H,1,5-7,9H2,2-3H3



     GEOMETRY OPTIMISED USING EIGENVECTOR FOLLOWING (EF).     
     SCF FIELD WAS ACHIEVED                                   


                              PM3 CALCULATION
                                                       MOPAC v23.1.2 MacOS
                                                       Tue Jun  3 16:40:00 2025




          FINAL HEAT OF FORMATION =         20.97970 KCAL/MOL =      87.77908 KJ/MOL


          COSMO AREA              =        236.01 SQUARE ANGSTROMS
          COSMO VOLUME            =        250.68 CUBIC ANGSTROMS

          GRADIENT NORM           =          0.03916          =       0.00692 PER ATOM
          IONIZATION POTENTIAL    =          9.544496 EV
          HOMO LUMO ENERGIES (EV) =         -9.544  0.980
          NO. OF FILLED LEVELS    =         34
          MOLECULAR WEIGHT        =        164.2900         POINT GROUP:  C1  

          MOLECULAR DIMENSIONS (Angstroms)

            Atom       Atom       Distance
            H    32    H    26    10.10785
            H    23    H    19     6.69627
            H    20    H    18     2.94212


          SCF CALCULATIONS        =        287

          WALL-CLOCK TIME         =      3.195 SECONDS
          COMPUTATION TIME        =      2.444 SECONDS




   ATOM   CHEMICAL          X               Y               Z
  NUMBER   SYMBOL      (ANGSTROMS)     (ANGSTROMS)     (ANGSTROMS)

     1       C         -1.04674518  *  -0.15084536  *  -0.31919575  *
     2       C          0.25878999  *  -0.41706563  *   0.41465875  *
     3       C         -1.59950329  *  -1.43376417  *  -0.94955123  *
     4       C          1.49035497  *  -0.80501653  *  -0.48915892  *
     5       C         -2.06517655  *   0.48915620  *   0.63212275  *
     6       C          3.45284164  *   1.05083720  *  -0.25243398  *
     7       C         -1.99130992  *  -2.49300746  *   0.05746137  *
     8       C          4.57229352  *   0.14272180  *   0.21322140  *
     9       C          2.13354119  *   0.47145953  *   0.02913534  *
    10       C          1.07421143  *   0.81732171  *   0.79109488  *
    11       C         -3.10523880  *   1.25589927  *  -0.10573902  *
    12       C         -3.47374945  *   2.48648875  *   0.23042569  *
    13       H         -0.83631127  *   0.57093258  *  -1.14727709  *
    14       H          0.09922619  *  -1.11152926  *   1.26643668  *
    15       H         -2.48118907  *  -1.17223254  *  -1.56962567  *
    16       H         -0.84973271  *  -1.84587209  *  -1.65435973  *
    17       H         -1.54197602  *   1.13935400  *   1.36252523  *
    18       H         -2.56511980  *  -0.30639068  *   1.23231363  *
    19       H          3.53604212  *   2.04372713  *   0.23131160  *
    20       H          3.53341132  *   1.23273048  *  -1.34290963  *
    21       H          1.29574799  *  -0.82349492  *  -1.57174994  *
    22       H          2.00335575  *  -1.73744548  *  -0.21382892  *
    23       H         -2.56518645  *  -3.29998377  *  -0.41426235  *
    24       H         -1.11525171  *  -2.95046187  *   0.53635385  *
    25       H         -2.61327703  *  -2.06076030  *   0.85969762  *
    26       H          5.55340642  *   0.55857942  *  -0.04846951  *
    27       H          4.50090088  *  -0.85299515  *  -0.24458706  *
    28       H          4.55296736  *   0.00242428  *   1.30164125  *
    29       H         -3.56888374  *   0.74007349  *  -0.95632430  *
    30       H          0.82897940  *   1.64216251  *   1.44675166  *
    31       H         -3.03682916  *   3.03412679  *   1.06116825  *
    32       H         -4.24337460  *   3.03364090  *  -0.30514867  *

                             CARTESIAN COORDINATES

   1    C       -1.046745180    -0.150845360    -0.319195752
   2    C        0.258789991    -0.417065631     0.414658754
   3    C       -1.599503295    -1.433764175    -0.949551230
   4    C        1.490354975    -0.805016532    -0.489158923
   5    C       -2.065176548     0.489156201     0.632122745
   6    C        3.452841643     1.050837196    -0.252433978
   7    C       -1.991309916    -2.493007465     0.057461372
   8    C        4.572293523     0.142721797     0.213221403
   9    C        2.133541190     0.471459526     0.029135341
  10    C        1.074211433     0.817321711     0.791094877
  11    C       -3.105238801     1.255899266    -0.105739018
  12    C       -3.473749451     2.486488753     0.230425692
  13    H       -0.836311269     0.570932579    -1.147277094
  14    H        0.099226193    -1.111529258     1.266436679
  15    H       -2.481189073    -1.172232542    -1.569625671
  16    H       -0.849732705    -1.845872094    -1.654359731
  17    H       -1.541976019     1.139354002     1.362525229
  18    H       -2.565119803    -0.306390682     1.232313634
  19    H        3.536042124     2.043727126     0.231311597
  20    H        3.533411325     1.232730476    -1.342909628
  21    H        1.295747994    -0.823494919    -1.571749936
  22    H        2.003355751    -1.737445485    -0.213828917
  23    H       -2.565186453    -3.299983768    -0.414262351
  24    H       -1.115251707    -2.950461873     0.536353853
  25    H       -2.613277026    -2.060760302     0.859697621
  26    H        5.553406421     0.558579423    -0.048469506
  27    H        4.500900876    -0.852995149    -0.244587061
  28    H        4.552967356     0.002424276     1.301641246
  29    H       -3.568883738     0.740073486    -0.956324297
  30    H        0.828979395     1.642162507     1.446751658
  31    H       -3.036829161     3.034126789     1.061168250
  32    H       -4.243374596     3.033640900    -0.305148668


           Empirical Formula: C12 H20  =    32 atoms



      MOLECULAR POINT GROUP   :   C1  


                  EIGENVALUES  
 -41.93516 -37.54623 -33.66083 -32.72342 -28.13084 -25.57895 -24.14932 -23.90897
 -21.90515 -19.44213 -18.77145 -17.67420 -17.13140 -16.63704 -16.05447 -15.66108
 -15.25620 -14.98131 -14.65188 -14.35647 -14.17381 -13.53707 -13.13088 -12.84524
 -12.76583 -12.50027 -12.21854 -11.94366 -11.76891 -11.59902 -11.51735 -11.33777
 -10.05878  -9.54450   0.98030   1.19604   3.15662   3.21725   3.25952   3.56768
   3.62515   3.77226   3.79476   3.82838   3.87926   3.91695   3.98002   3.99169
   4.11477   4.15416   4.17221   4.24707   4.31414   4.49129   4.53041   4.61338
   4.65664   4.74255   4.80442   4.85453   4.90694   5.09404   5.12452   5.26731
   5.40294   5.66120   5.91804   6.25847


              NET ATOMIC CHARGES AND DIPOLE CONTRIBUTIONS

  ATOM NO.   TYPE          CHARGE      No. of ELECS.   s-Pop       p-Pop       
    1          C          -0.062110        4.0621     1.17653     2.88558
    2          C          -0.066026        4.0660     1.18974     2.87629
    3          C          -0.098566        4.0986     1.16130     2.93727
    4          C          -0.072139        4.0721     1.17118     2.90096
    5          C          -0.083714        4.0837     1.15572     2.92799
    6          C          -0.023574        4.0236     1.13187     2.89170
    7          C          -0.120924        4.1209     1.14043     2.98050
    8          C          -0.105240        4.1052     1.13704     2.96820
    9          C          -0.143250        4.1433     1.22154     2.92171
   10          C          -0.164619        4.1646     1.21974     2.94488
   11          C          -0.135731        4.1357     1.19531     2.94042
   12          C          -0.169153        4.1692     1.18257     2.98658
   13          H           0.070697        0.9293     0.92930
   14          H           0.080561        0.9194     0.91944
   15          H           0.049406        0.9506     0.95059
   16          H           0.051542        0.9485     0.94846
   17          H           0.061501        0.9385     0.93850
   18          H           0.067170        0.9328     0.93283
   19          H           0.052369        0.9476     0.94763
   20          H           0.054274        0.9457     0.94573
   21          H           0.065654        0.9343     0.93435
   22          H           0.061918        0.9381     0.93808
   23          H           0.039515        0.9605     0.96049
   24          H           0.040261        0.9597     0.95974
   25          H           0.046411        0.9536     0.95359
   26          H           0.037150        0.9628     0.96285
   27          H           0.039637        0.9604     0.96036
   28          H           0.040567        0.9594     0.95943
   29          H           0.098383        0.9016     0.90162
   30          H           0.128050        0.8719     0.87195
   31          H           0.081212        0.9188     0.91879
   32          H           0.078768        0.9212     0.92123
 DIPOLE           X         Y         Z       TOTAL
 POINT-CHG.     0.256    -0.317    -0.129     0.427
 HYBRID        -0.031     0.013     0.031     0.046
 SUM            0.224    -0.303    -0.098     0.390


          ATOMIC ORBITAL ELECTRON POPULATIONS

     Atom    s        px        py        pz   
    1  C   1.17653   0.93761   0.96856   0.97940
    2  C   1.18974   0.93122   0.96478   0.98029
    3  C   1.16130   1.00678   0.95386   0.97664
    4  C   1.17118   0.95472   0.95700   0.98924
    5  C   1.15572   0.95865   0.99602   0.97331
    6  C   1.13187   0.91356   0.97493   1.00321
    7  C   1.14043   1.00822   0.98013   0.99215
    8  C   1.13704   0.96998   0.99072   1.00750
    9  C   1.22154   0.95912   0.97488   0.98771
   10  C   1.21974   0.96267   0.98330   0.99891
   11  C   1.19531   0.98060   0.96608   0.99374
   12  C   1.18257   1.01160   0.96390   1.01108
   13  H   0.92930
   14  H   0.91944
   15  H   0.95059
   16  H   0.94846
   17  H   0.93850
   18  H   0.93283
   19  H   0.94763
   20  H   0.94573
   21  H   0.93435
   22  H   0.93808
   23  H   0.96049
   24  H   0.95974
   25  H   0.95359
   26  H   0.96285
   27  H   0.96036
   28  H   0.95943
   29  H   0.90162
   30  H   0.87195
   31  H   0.91879
   32  H   0.92123
 *******************************************************************************
 **                                                                           **
 **                              MOPAC v23.1.2                                **
 **                                                                           **
 *******************************************************************************
 **          Digital Object Identifier (DOI): 10.5281/zenodo.6511958          **
 **    Visit the DOI location for information on how to cite this program.    **
 *******************************************************************************

                              PM3 CALCULATION RESULTS

 *******************************************************************************
 *  CALCULATION DONE: (MAX THREADS = 1)              Tue Jun  3 16:40:00 2025  *
 *  PM3        - The PM3 Hamiltonian to be used
 *  OLDGEO     - PREVIOUS GEOMETRY TO BE USED
 *  PRECISE    - TIGHTER CRITERIA TO BE USED
 *  NOSYM      - POINT-GROUP SYMMETRY SET TO C1
 *  THREADS=1  - MULTI-THREADING NOT USED
 *  T=         - A TIME OF 172800.0 SECONDS REQUESTED
 *  DUMP=N     - RESTART FILE WRITTEN EVERY 7200.0 SECONDS REQUESTED
 *  THERMO     - THERMODYNAMIC QUANTITIES TO BE CALCULATED
 *******************************************************************************
oldgeo thermo nosym precise THREADS=1  pm3
 InChI=1S/C12H20/c1-4-7-11(6-3)12-8-10(5-2)9-12/h4,8,11-12H,1,5-7,9H2,2-3H3

   ATOM   CHEMICAL          X               Y               Z
  NUMBER   SYMBOL      (ANGSTROMS)     (ANGSTROMS)     (ANGSTROMS)

     1       C         -1.04674518  *  -0.15084536  *  -0.31919575  *
     2       C          0.25878999  *  -0.41706563  *   0.41465875  *
     3       C         -1.59950329  *  -1.43376417  *  -0.94955123  *
     4       C          1.49035497  *  -0.80501653  *  -0.48915892  *
     5       C         -2.06517655  *   0.48915620  *   0.63212275  *
     6       C          3.45284164  *   1.05083720  *  -0.25243398  *
     7       C         -1.99130992  *  -2.49300746  *   0.05746137  *
     8       C          4.57229352  *   0.14272180  *   0.21322140  *
     9       C          2.13354119  *   0.47145953  *   0.02913534  *
    10       C          1.07421143  *   0.81732171  *   0.79109488  *
    11       C         -3.10523880  *   1.25589927  *  -0.10573902  *
    12       C         -3.47374945  *   2.48648875  *   0.23042569  *
    13       H         -0.83631127  *   0.57093258  *  -1.14727709  *
    14       H          0.09922619  *  -1.11152926  *   1.26643668  *
    15       H         -2.48118907  *  -1.17223254  *  -1.56962567  *
    16       H         -0.84973271  *  -1.84587209  *  -1.65435973  *
    17       H         -1.54197602  *   1.13935400  *   1.36252523  *
    18       H         -2.56511980  *  -0.30639068  *   1.23231363  *
    19       H          3.53604212  *   2.04372713  *   0.23131160  *
    20       H          3.53341132  *   1.23273048  *  -1.34290963  *
    21       H          1.29574799  *  -0.82349492  *  -1.57174994  *
    22       H          2.00335575  *  -1.73744548  *  -0.21382892  *
    23       H         -2.56518645  *  -3.29998377  *  -0.41426235  *
    24       H         -1.11525171  *  -2.95046187  *   0.53635385  *
    25       H         -2.61327703  *  -2.06076030  *   0.85969762  *
    26       H          5.55340642  *   0.55857942  *  -0.04846951  *
    27       H          4.50090088  *  -0.85299515  *  -0.24458706  *
    28       H          4.55296736  *   0.00242428  *   1.30164125  *
    29       H         -3.56888374  *   0.74007349  *  -0.95632430  *
    30       H          0.82897940  *   1.64216251  *   1.44675166  *
    31       H         -3.03682916  *   3.03412679  *   1.06116825  *
    32       H         -4.24337460  *   3.03364090  *  -0.30514867  *



          CARTESIAN COORDINATES 

    NO.       ATOM           X           Y           Z

     1         C         -1.0467     -0.1508     -0.3192
     2         C          0.2588     -0.4171      0.4147
     3         C         -1.5995     -1.4338     -0.9496
     4         C          1.4904     -0.8050     -0.4892
     5         C         -2.0652      0.4892      0.6321
     6         C          3.4528      1.0508     -0.2524
     7         C         -1.9913     -2.4930      0.0575
     8         C          4.5723      0.1427      0.2132
     9         C          2.1335      0.4715      0.0291
    10         C          1.0742      0.8173      0.7911
    11         C         -3.1052      1.2559     -0.1057
    12         C         -3.4737      2.4865      0.2304
    13         H         -0.8363      0.5709     -1.1473
    14         H          0.0992     -1.1115      1.2664
    15         H         -2.4812     -1.1722     -1.5696
    16         H         -0.8497     -1.8459     -1.6544
    17         H         -1.5420      1.1394      1.3625
    18         H         -2.5651     -0.3064      1.2323
    19         H          3.5360      2.0437      0.2313
    20         H          3.5334      1.2327     -1.3429
    21         H          1.2957     -0.8235     -1.5717
    22         H          2.0034     -1.7374     -0.2138
    23         H         -2.5652     -3.3000     -0.4143
    24         H         -1.1153     -2.9505      0.5364
    25         H         -2.6133     -2.0608      0.8597
    26         H          5.5534      0.5586     -0.0485
    27         H          4.5009     -0.8530     -0.2446
    28         H          4.5530      0.0024      1.3016
    29         H         -3.5689      0.7401     -0.9563
    30         H          0.8290      1.6422      1.4468
    31         H         -3.0368      3.0341      1.0612
    32         H         -4.2434      3.0336     -0.3051

  H: (PM3): J. J. P. STEWART, J. COMP. CHEM. 10, 209 (1989).
  C: (PM3): J. J. P. STEWART, J. COMP. CHEM. 10, 209 (1989).

           Empirical Formula: C12 H20  =    32 atoms



      MOLECULAR POINT GROUP   :   C1  


      RHF CALCULATION, NO. OF DOUBLY OCCUPIED LEVELS = 34



          HEAT OF FORMATION =      20.979703 KCALS/MOLE


          CARTESIAN COORDINATE DERIVATIVES

   NUMBER  ATOM         X            Y            Z

     1       C     -0.001049     0.000935     0.000207
     2       C      0.001443     0.001121    -0.001011
     3       C     -0.000272     0.000200     0.001298
     4       C     -0.000549    -0.002703     0.000629
     5       C      0.002029     0.002825     0.002491
     6       C     -0.006484    -0.002745    -0.005476
     7       C      0.001130     0.002400     0.004537
     8       C      0.004381    -0.002271     0.003461
     9       C     -0.000492     0.001683    -0.000153
    10       C      0.000391     0.001598     0.001154
    11       C      0.002060     0.016749     0.000976
    12       C     -0.002590    -0.020307     0.002773
    13       H     -0.000894     0.000303    -0.000816
    14       H     -0.001115    -0.001748     0.000287
    15       H      0.001500    -0.000118    -0.001139
    16       H      0.000797    -0.000961     0.000505
    17       H      0.000998    -0.001099    -0.001408
    18       H      0.000197     0.001782    -0.001480
    19       H      0.001805    -0.008733    -0.003391
    20       H     -0.006165     0.001743     0.009412
    21       H     -0.000453     0.000475     0.000032
    22       H      0.000298     0.001731    -0.000560
    23       H     -0.001314     0.001916    -0.000723
    24       H      0.003356    -0.000569     0.000918
    25       H     -0.001373    -0.003642    -0.003193
    26       H      0.000401    -0.002755     0.001637
    27       H      0.000684     0.014090     0.003038
    28       H      0.005863     0.001293    -0.009337
    29       H      0.000917    -0.000176    -0.002453
    30       H      0.000520    -0.002638    -0.001096
    31       H     -0.002331     0.002505     0.001011
    32       H     -0.003689    -0.002884    -0.002128



          GRADIENT NORM =   0.03979

          MOLECULAR WEIGHT =  164.29



          ROTATIONAL CONSTANTS IN CM(-1)

          A =    0.04857800   B =    0.01507534   C =    0.01232128



           PRINCIPAL MOMENTS OF INERTIA IN UNITS OF 10**(-40)*GRAM-CM**2

          A =      576.2434   B =     1856.8573   C =     2271.9031


          ORIENTATION OF MOLECULE IN FORCE CALCULATION

    NO.       ATOM         X         Y         Z

     1          C      -1.0024    0.3738   -0.2887
     2          C       0.5188    0.3738   -0.2887
     3          C      -1.5563    1.8027   -0.2887
     4          C       1.2076    0.9115    1.0230
     5          C      -1.5295   -0.4309   -1.4830
     6          C       2.6814   -1.0469    2.1824
     7          C      -1.2214    2.5909   -1.5361
     8          C       4.0258   -0.3489    2.1890
     9          C       1.7863   -0.4877    1.1619
    10          C       1.1842   -0.9580    0.0489
    11          C      -2.9123   -0.9275   -1.2481
    12          C      -3.2818   -2.1814   -1.4817
    13          H      -1.3476   -0.1242    0.6515
    14          H       0.9143    0.8366   -1.2174
    15          H      -2.6580    1.7554   -0.1686
    16          H      -1.1807    2.3392    0.6057
    17          H      -0.8419   -1.2726   -1.7034
    18          H      -1.5298    0.2119   -2.3940
    19          H       2.8124   -2.1332    2.0100
    20          H       2.1926   -0.9499    3.1726
    21          H       0.5216    1.2149    1.8276
    22          H       1.9440    1.7142    0.8750
    23          H      -1.8003    3.5211   -1.5885
    24          H      -0.1584    2.8636   -1.5783
    25          H      -1.4438    2.0033   -2.4430
    26          H       4.6688   -0.7370    2.9890
    27          H       3.9179    0.7328    2.3452
    28          H       4.5588   -0.4889    1.2399
    29          H      -3.6303   -0.1882   -0.8707
    30          H       1.1457   -1.9078   -0.4675
    31          H      -2.6018   -2.9449   -1.8499
    32          H      -4.2965   -2.5320   -1.3204


    FIRST DERIVATIVES WILL BE USED IN THE CALCULATION OF SECOND DERIVATIVES

          ESTIMATED TIME TO COMPLETE CALCULATION =        4.50 SECONDS

    FOR POINT-GROUP C1   THERE ARE   1 UNIQUE SYMMETRY FUNCTIONS.

 STEP:   1 TIME =     0.04 SECS, INTEGRAL =      0.04 TIME LEFT: 172799.95
 STEP:   2 TIME =     0.04 SECS, INTEGRAL =      0.07 TIME LEFT: 172799.92
 STEP:   3 TIME =     0.04 SECS, INTEGRAL =      0.11 TIME LEFT: 172799.88
 STEP:   4 TIME =     0.04 SECS, INTEGRAL =      0.15 TIME LEFT: 172799.84
 STEP:   5 TIME =     0.04 SECS, INTEGRAL =      0.19 TIME LEFT: 172799.80
 STEP:   6 TIME =     0.04 SECS, INTEGRAL =      0.22 TIME LEFT: 172799.77
 STEP:   7 TIME =     0.04 SECS, INTEGRAL =      0.26 TIME LEFT: 172799.73
 STEP:   8 TIME =     0.04 SECS, INTEGRAL =      0.29 TIME LEFT: 172799.70
 STEP:   9 TIME =     0.04 SECS, INTEGRAL =      0.33 TIME LEFT: 172799.66
 STEP:  10 TIME =     0.04 SECS, INTEGRAL =      0.37 TIME LEFT: 172799.62
 STEP:  11 TIME =     0.04 SECS, INTEGRAL =      0.40 TIME LEFT: 172799.59
 STEP:  12 TIME =     0.04 SECS, INTEGRAL =      0.44 TIME LEFT: 172799.55
 STEP:  13 TIME =     0.04 SECS, INTEGRAL =      0.48 TIME LEFT: 172799.51
 STEP:  14 TIME =     0.04 SECS, INTEGRAL =      0.52 TIME LEFT: 172799.47
 STEP:  15 TIME =     0.04 SECS, INTEGRAL =      0.55 TIME LEFT: 172799.43
 STEP:  16 TIME =     0.04 SECS, INTEGRAL =      0.59 TIME LEFT: 172799.39
 STEP:  17 TIME =     0.04 SECS, INTEGRAL =      0.63 TIME LEFT: 172799.36
 STEP:  18 TIME =     0.04 SECS, INTEGRAL =      0.67 TIME LEFT: 172799.32
 STEP:  19 TIME =     0.04 SECS, INTEGRAL =      0.71 TIME LEFT: 172799.28
 STEP:  20 TIME =     0.04 SECS, INTEGRAL =      0.74 TIME LEFT: 172799.25
 STEP:  21 TIME =     0.04 SECS, INTEGRAL =      0.78 TIME LEFT: 172799.21
 STEP:  22 TIME =     0.04 SECS, INTEGRAL =      0.81 TIME LEFT: 172799.18
 STEP:  23 TIME =     0.04 SECS, INTEGRAL =      0.85 TIME LEFT: 172799.14
 STEP:  24 TIME =     0.04 SECS, INTEGRAL =      0.89 TIME LEFT: 172799.10
 STEP:  25 TIME =     0.04 SECS, INTEGRAL =      0.93 TIME LEFT: 172799.06
 STEP:  26 TIME =     0.04 SECS, INTEGRAL =      0.97 TIME LEFT: 172799.02
 STEP:  27 TIME =     0.04 SECS, INTEGRAL =      1.00 TIME LEFT: 172798.98
 STEP:  28 TIME =     0.04 SECS, INTEGRAL =      1.04 TIME LEFT: 172798.95
 STEP:  29 TIME =     0.04 SECS, INTEGRAL =      1.08 TIME LEFT: 172798.91
 STEP:  30 TIME =     0.04 SECS, INTEGRAL =      1.11 TIME LEFT: 172798.88
 STEP:  31 TIME =     0.04 SECS, INTEGRAL =      1.15 TIME LEFT: 172798.84
 STEP:  32 TIME =     0.04 SECS, INTEGRAL =      1.19 TIME LEFT: 172798.80
 STEP:  33 TIME =     0.04 SECS, INTEGRAL =      1.23 TIME LEFT: 172798.76
 STEP:  34 TIME =     0.04 SECS, INTEGRAL =      1.26 TIME LEFT: 172798.73
 STEP:  35 TIME =     0.04 SECS, INTEGRAL =      1.30 TIME LEFT: 172798.69
 STEP:  36 TIME =     0.04 SECS, INTEGRAL =      1.34 TIME LEFT: 172798.65
 STEP:  37 TIME =     0.04 SECS, INTEGRAL =      1.37 TIME LEFT: 172798.62
 STEP:  38 TIME =     0.04 SECS, INTEGRAL =      1.41 TIME LEFT: 172798.58
 STEP:  39 TIME =     0.04 SECS, INTEGRAL =      1.44 TIME LEFT: 172798.55
 STEP:  40 TIME =     0.04 SECS, INTEGRAL =      1.48 TIME LEFT: 172798.51
 STEP:  41 TIME =     0.04 SECS, INTEGRAL =      1.52 TIME LEFT: 172798.47
 STEP:  42 TIME =     0.04 SECS, INTEGRAL =      1.55 TIME LEFT: 172798.43
 STEP:  43 TIME =     0.04 SECS, INTEGRAL =      1.59 TIME LEFT: 172798.40
 STEP:  44 TIME =     0.04 SECS, INTEGRAL =      1.63 TIME LEFT: 172798.36
 STEP:  45 TIME =     0.04 SECS, INTEGRAL =      1.67 TIME LEFT: 172798.32
 STEP:  46 TIME =     0.04 SECS, INTEGRAL =      1.70 TIME LEFT: 172798.29
 STEP:  47 TIME =     0.04 SECS, INTEGRAL =      1.74 TIME LEFT: 172798.25
 STEP:  48 TIME =     0.04 SECS, INTEGRAL =      1.77 TIME LEFT: 172798.21
 STEP:  49 TIME =     0.04 SECS, INTEGRAL =      1.81 TIME LEFT: 172798.18
 STEP:  50 TIME =     0.04 SECS, INTEGRAL =      1.85 TIME LEFT: 172798.14
 STEP:  51 TIME =     0.04 SECS, INTEGRAL =      1.89 TIME LEFT: 172798.10
 STEP:  52 TIME =     0.04 SECS, INTEGRAL =      1.93 TIME LEFT: 172798.06
 STEP:  53 TIME =     0.04 SECS, INTEGRAL =      1.97 TIME LEFT: 172798.02
 STEP:  54 TIME =     0.04 SECS, INTEGRAL =      2.00 TIME LEFT: 172797.98
 STEP:  55 TIME =     0.04 SECS, INTEGRAL =      2.04 TIME LEFT: 172797.95
 STEP:  56 TIME =     0.04 SECS, INTEGRAL =      2.08 TIME LEFT: 172797.91
 STEP:  57 TIME =     0.04 SECS, INTEGRAL =      2.12 TIME LEFT: 172797.87
 STEP:  58 TIME =     0.04 SECS, INTEGRAL =      2.16 TIME LEFT: 172797.83
 STEP:  59 TIME =     0.04 SECS, INTEGRAL =      2.20 TIME LEFT: 172797.79
 STEP:  60 TIME =     0.04 SECS, INTEGRAL =      2.23 TIME LEFT: 172797.75
 STEP:  61 TIME =     0.04 SECS, INTEGRAL =      2.27 TIME LEFT: 172797.72
 STEP:  62 TIME =     0.04 SECS, INTEGRAL =      2.31 TIME LEFT: 172797.68
 STEP:  63 TIME =     0.04 SECS, INTEGRAL =      2.35 TIME LEFT: 172797.64
 STEP:  64 TIME =     0.04 SECS, INTEGRAL =      2.39 TIME LEFT: 172797.60
 STEP:  65 TIME =     0.04 SECS, INTEGRAL =      2.42 TIME LEFT: 172797.57
 STEP:  66 TIME =     0.04 SECS, INTEGRAL =      2.46 TIME LEFT: 172797.53
 STEP:  67 TIME =     0.04 SECS, INTEGRAL =      2.50 TIME LEFT: 172797.49
 STEP:  68 TIME =     0.04 SECS, INTEGRAL =      2.54 TIME LEFT: 172797.45
 STEP:  69 TIME =     0.04 SECS, INTEGRAL =      2.58 TIME LEFT: 172797.41
 STEP:  70 TIME =     0.04 SECS, INTEGRAL =      2.61 TIME LEFT: 172797.38
 STEP:  71 TIME =     0.04 SECS, INTEGRAL =      2.65 TIME LEFT: 172797.34
 STEP:  72 TIME =     0.04 SECS, INTEGRAL =      2.69 TIME LEFT: 172797.30
 STEP:  73 TIME =     0.04 SECS, INTEGRAL =      2.73 TIME LEFT: 172797.26
 STEP:  74 TIME =     0.04 SECS, INTEGRAL =      2.77 TIME LEFT: 172797.22
 STEP:  75 TIME =     0.04 SECS, INTEGRAL =      2.80 TIME LEFT: 172797.19
 STEP:  76 TIME =     0.04 SECS, INTEGRAL =      2.84 TIME LEFT: 172797.15
 STEP:  77 TIME =     0.04 SECS, INTEGRAL =      2.88 TIME LEFT: 172797.11
 STEP:  78 TIME =     0.04 SECS, INTEGRAL =      2.91 TIME LEFT: 172797.08
 STEP:  79 TIME =     0.04 SECS, INTEGRAL =      2.95 TIME LEFT: 172797.04
 STEP:  80 TIME =     0.04 SECS, INTEGRAL =      2.98 TIME LEFT: 172797.00
 STEP:  81 TIME =     0.04 SECS, INTEGRAL =      3.02 TIME LEFT: 172796.96
 STEP:  82 TIME =     0.04 SECS, INTEGRAL =      3.06 TIME LEFT: 172796.93
 STEP:  83 TIME =     0.04 SECS, INTEGRAL =      3.10 TIME LEFT: 172796.89
 STEP:  84 TIME =     0.04 SECS, INTEGRAL =      3.14 TIME LEFT: 172796.85
 STEP:  85 TIME =     0.04 SECS, INTEGRAL =      3.17 TIME LEFT: 172796.82
 STEP:  86 TIME =     0.04 SECS, INTEGRAL =      3.21 TIME LEFT: 172796.78
 STEP:  87 TIME =     0.04 SECS, INTEGRAL =      3.25 TIME LEFT: 172796.74
 STEP:  88 TIME =     0.04 SECS, INTEGRAL =      3.29 TIME LEFT: 172796.70
 STEP:  89 TIME =     0.04 SECS, INTEGRAL =      3.32 TIME LEFT: 172796.66
 STEP:  90 TIME =     0.04 SECS, INTEGRAL =      3.36 TIME LEFT: 172796.63
 STEP:  91 TIME =     0.04 SECS, INTEGRAL =      3.39 TIME LEFT: 172796.59
 STEP:  92 TIME =     0.04 SECS, INTEGRAL =      3.43 TIME LEFT: 172796.56
 STEP:  93 TIME =     0.04 SECS, INTEGRAL =      3.47 TIME LEFT: 172796.52
 STEP:  94 TIME =     0.04 SECS, INTEGRAL =      3.51 TIME LEFT: 172796.48
 STEP:  95 TIME =     0.04 SECS, INTEGRAL =      3.55 TIME LEFT: 172796.44
 STEP:  96 TIME =     0.04 SECS, INTEGRAL =      3.59 TIME LEFT: 172796.40

(To convert to Hartree/Bohr^2, multiply by (10^(-21) x N x a0^2)/(4.184 x 627.51) =  0.0642)


           FORCE MATRIX IN MILLIDYNES/ANGSTROM


                  C  1       C  2       C  3       C  4       C  5       C  6
 ------------------------------------------------------------------------------
     C    1  14.202928
     C    2   4.056389  14.319105
     C    3   3.762855   0.621374  14.233097
     C    4   0.475441   2.846211   0.042289  14.170944
     C    5   3.743476   0.644029   0.609771   0.046420  14.529207
     C    6   0.019515   0.130010   0.003258   0.367437   0.002172  14.933413
     C    7   0.596788   0.052134   4.425099   0.004594   0.080022   0.000575
     C    8   0.002636   0.019220   0.000295   0.027401   0.000316   4.364450
     C    9   0.049158   2.237022   0.007594   3.992612   0.006208   5.590344
     C   10   0.524698   3.838220   0.047669   2.236662   0.049349   0.562752
     C   11   0.665636   0.048974   0.043624   0.008248   4.955138   0.000766
     C   12   0.043804   0.008236   0.002842   0.001954   0.840313   0.000388
     H   13   4.199522   0.431113   0.417512   0.021361   0.428875   0.001392
     H   14   0.440914   4.395760   0.016884   0.415160   0.021800   0.016777
     H   15   0.437115   0.049874   4.418546   0.002402   0.018576   0.000739
     H   16   0.439849   0.025028   4.439067   0.014160   0.049831   0.000792
     H   17   0.442388   0.072722   0.045784   0.002711   4.422523   0.000911
     H   18   0.457610   0.012685   0.045424   0.001409   4.215113   0.000200
     H   19   0.001062   0.004778   0.000252   0.033801   0.000402   4.471014
     H   20   0.003197   0.015751   0.000861   0.008855   0.000443   4.430659
     H   21   0.021116   0.433084   0.014941   4.677159   0.002518   0.007361
     H   22   0.026427   0.421768   0.001918   4.706535   0.005359   0.005804
     H   23   0.051196   0.003762   0.452798   0.000387   0.006488   0.000158
     H   24   0.009855   0.018200   0.463212   0.001349   0.003329   0.000218
     H   25   0.025736   0.004906   0.465771   0.000425   0.093782   0.000226
     H   26   0.000439   0.003557   0.000138   0.001334   0.000117   0.450698
     H   27   0.000345   0.000937   0.000167   0.005844   0.000208   0.463672
     H   28   0.000169   0.000744   0.000182   0.002390   0.000148   0.461155
     H   29   0.024860   0.002018   0.017905   0.000710   0.433549   0.000286
     H   30   0.010094   0.334726   0.002356   0.110900   0.011353   0.036962
     H   31   0.009840   0.002069   0.000890   0.000503   0.099978   0.000201
     H   32   0.017146   0.003045   0.000618   0.000604   0.140793   0.000138


                  C  7       C  8       C  9       C 10       C 11       C 12
 ------------------------------------------------------------------------------
     C    7  14.293165
     C    8   0.000397  14.333331
     C    9   0.000675   0.742091  19.118926
     C   10   0.002190   0.031967  10.098110  18.217482
     C   11   0.004274   0.000374   0.000775   0.002898  18.160110
     C   12   0.001945   0.000356   0.000340   0.001849  11.065156  18.023338
     H   13   0.048322   0.000261   0.003834   0.018835   0.049718   0.003143
     H   14   0.019050   0.003263   0.042835   0.413001   0.001502   0.000734
     H   15   0.436397   0.000176   0.001035   0.008445   0.018899   0.001624
     H   16   0.436952   0.000126   0.001482   0.001897   0.002453   0.000863
     H   17   0.005317   0.000306   0.000439   0.020618   0.458095   0.050147
     H   18   0.107806   0.000076   0.000481   0.002722   0.413964   0.033001
     H   19   0.000098   0.439749   0.451102   0.013887   0.000221   0.000165
     H   20   0.000145   0.446412   0.425290   0.032340   0.000159   0.000197
     H   21   0.000937   0.001417   0.438705   0.040407   0.000826   0.000285
     H   22   0.000849   0.006403   0.439795   0.039688   0.001119   0.000452
     H   23   4.768211   0.000073   0.000178   0.000879   0.001247   0.000470
     H   24   4.720095   0.000157   0.000342   0.001167   0.000978   0.000558
     H   25   4.545482   0.000125   0.000231   0.000442   0.002641   0.001165
     H   26   0.000146   4.754736   0.055080   0.005360   0.000134   0.000125
     H   27   0.000078   4.724798   0.025973   0.001840   0.000144   0.000128
     H   28   0.000068   4.749179   0.015645   0.002582   0.000102   0.000104
     H   29   0.001718   0.000124   0.000282   0.001068   4.761164   0.454012
     H   30   0.000725   0.004821   0.430306   5.264660   0.001944   0.001321
     H   31   0.000571   0.000116   0.000215   0.001144   0.491760   5.069560
     H   32   0.000338   0.000079   0.000134   0.000602   0.462475   5.106305


                  H 13       H 14       H 15       H 16       H 17       H 18
 ------------------------------------------------------------------------------
     H   13   4.666738
     H   14   0.041881   4.910366
     H   15   0.038031   0.001790   5.019792
     H   16   0.034989   0.001821   0.567160   5.054434
     H   17   0.013602   0.005848   0.001933   0.008016   5.028772
     H   18   0.040924   0.004818   0.003252   0.003156   0.542047   4.890629
     H   19   0.000217   0.000792   0.000079   0.000212   0.000193   0.000035
     H   20   0.000280   0.001762   0.000234   0.000114   0.000274   0.000060
     H   21   0.016684   0.024685   0.000634   0.022419   0.000524   0.000457
     H   22   0.001354   0.026128   0.000327   0.000917   0.000415   0.000414
     H   23   0.008142   0.000967   0.036020   0.023055   0.000284   0.002610
     H   24   0.001339   0.020773   0.048148   0.030179   0.000542   0.000933
     H   25   0.002749   0.002232   0.019084   0.047729   0.001590   0.147766
     H   26   0.000111   0.000696   0.000070   0.000041   0.000119   0.000032
     H   27   0.000082   0.000213   0.000062   0.000079   0.000077   0.000023
     H   28   0.000093   0.000190   0.000064   0.000043   0.000080   0.000020
     H   29   0.008133   0.000721   0.022981   0.001302   0.039652   0.015866
     H   30   0.002496   0.005681   0.000720   0.000686   0.023632   0.000761
     H   31   0.000800   0.000230   0.000382   0.000271   0.029464   0.012613
     H   32   0.000958   0.000169   0.000390   0.000161   0.003547   0.018589


                  H 19       H 20       H 21       H 22       H 23       H 24
 ------------------------------------------------------------------------------
     H   19   5.053870
     H   20   0.557790   5.014637
     H   21   0.001300   0.003010   5.296309
     H   22   0.001289   0.000693   0.528350   5.322872
     H   23   0.000017   0.000032   0.000257   0.000242   5.492489
     H   24   0.000062   0.000068   0.000425   0.001560   0.575267   5.455168
     H   25   0.000042   0.000080   0.000421   0.000298   0.552062   0.568450
     H   26   0.027479   0.029591   0.000173   0.000465   0.000027   0.000049
     H   27   0.048392   0.022540   0.000350   0.008166   0.000019   0.000054
     H   28   0.025507   0.049014   0.000219   0.000535   0.000017   0.000043
     H   29   0.000051   0.000059   0.000298   0.000121   0.000591   0.000668
     H   30   0.005891   0.003560   0.014869   0.014661   0.000273   0.000427
     H   31   0.000078   0.000060   0.000102   0.000116   0.000101   0.000113
     H   32   0.000041   0.000037   0.000104   0.000100   0.000128   0.000088


                  H 25       H 26       H 27       H 28       H 29       H 30
 ------------------------------------------------------------------------------
     H   25   5.337145
     H   26   0.000045   5.488149
     H   27   0.000029   0.568171   5.463134
     H   28   0.000023   0.572565   0.579673   5.486917
     H   29   0.000834   0.000050   0.000029   0.000033   5.129565
     H   30   0.000201   0.001097   0.000527   0.000571   0.000706   5.655137
     H   31   0.000260   0.000047   0.000044   0.000036   0.120883   0.000834
     H   32   0.000249   0.000032   0.000030   0.000027   0.081595   0.000549


                  H 31       H 32
 ------------------------------
     H   31   5.467385
     H   32   0.425131   5.496676


          HEAT OF FORMATION =      20.979703 KCALS/MOLE

          ZERO POINT ENERGY     179.844 KCAL/MOL


           NORMAL COORDINATE ANALYSIS (Total motion = 1 Angstrom)


   Root No.       1         2         3         4         5         6         7         8

                 1 A       2 A       3 A       4 A       5 A       6 A       7 A       8 A   

                  32.3      35.0      60.9      65.4      81.3     119.0     156.8     173.7
  
           1    0.0038    0.0013    0.0028    0.0031   -0.0135   -0.0010   -0.0038    0.0088
           2   -0.0079    0.0126    0.0159    0.0009    0.0079   -0.0068    0.0033   -0.0084
           3    0.0017   -0.0090    0.0068    0.0038    0.0041    0.0011    0.0067   -0.0124
           4    0.0038    0.0014    0.0030    0.0031   -0.0142   -0.0009   -0.0033    0.0082
           5   -0.0112    0.0124    0.0133    0.0165   -0.0030    0.0120    0.0037   -0.0034
           6   -0.0074   -0.0082    0.0001    0.0137    0.0196   -0.0086    0.0017   -0.0085
           7    0.0077    0.0013    0.0057   -0.0076    0.0012   -0.0147   -0.0122    0.0125
           8   -0.0063    0.0125    0.0172   -0.0030    0.0139   -0.0121   -0.0005   -0.0068
           9    0.0052   -0.0053   -0.0084   -0.0126   -0.0137   -0.0053   -0.0025    0.0027
          10    0.0121   -0.0019    0.0069   -0.0143   -0.0188   -0.0084    0.0167   -0.0166
          11   -0.0102   -0.0049    0.0048   -0.0047   -0.0137    0.0087    0.0156   -0.0050
          12   -0.0123    0.0006    0.0018    0.0320    0.0262   -0.0033   -0.0133    0.0057
          13   -0.0054   -0.0002   -0.0065    0.0149   -0.0070   -0.0034    0.0051   -0.0033
          14   -0.0057    0.0140    0.0004   -0.0149    0.0052   -0.0135   -0.0054    0.0024
          15    0.0044   -0.0094    0.0215    0.0096    0.0029    0.0068    0.0079   -0.0136
          16    0.0155   -0.0132   -0.0065    0.0084    0.0187   -0.0110    0.0012   -0.0099
          17   -0.0113   -0.0242   -0.0106   -0.0118   -0.0090    0.0059   -0.0042    0.0101
          18   -0.0177   -0.0164   -0.0050   -0.0070   -0.0136   -0.0041   -0.0054    0.0136
          19    0.0043   -0.0043   -0.0097   -0.0209    0.0381    0.0423   -0.0026    0.0041
          20   -0.0067    0.0145   -0.0014   -0.0167    0.0052    0.0018   -0.0016   -0.0001
          21    0.0040   -0.0056   -0.0243   -0.0251   -0.0096    0.0185   -0.0007    0.0050
          22   -0.0159   -0.0219   -0.0045    0.0071    0.0025   -0.0032    0.0054   -0.0065
          23    0.0482   -0.0083   -0.0148   -0.0093    0.0230   -0.0100   -0.0134    0.0040
          24    0.0415    0.0237    0.0107   -0.0004   -0.0244    0.0072    0.0044   -0.0084
          25    0.0118   -0.0050    0.0005    0.0053   -0.0078    0.0026    0.0012   -0.0064
          26   -0.0105   -0.0078    0.0015    0.0005   -0.0110    0.0124    0.0103    0.0001
          27   -0.0140   -0.0145   -0.0045    0.0024    0.0086   -0.0123    0.0023    0.0053
          28    0.0044   -0.0003    0.0002    0.0196   -0.0153    0.0167   -0.0147    0.0179
          29   -0.0114    0.0076    0.0099    0.0182   -0.0056    0.0180    0.0018    0.0016
          30   -0.0097   -0.0235   -0.0078   -0.0128    0.0103   -0.0223    0.0146   -0.0087
          31   -0.0107    0.0092    0.0070    0.0017   -0.0025   -0.0044    0.0010    0.0014
          32    0.0097   -0.0052   -0.0249    0.0132   -0.0078   -0.0088   -0.0007   -0.0007
          33    0.0055    0.0054    0.0477   -0.0084    0.0015    0.0129   -0.0087    0.0113
          34   -0.0285    0.0360    0.0038   -0.0168    0.0095   -0.0149    0.0040   -0.0080
          35    0.0173   -0.0224   -0.0087    0.0160   -0.0104   -0.0041   -0.0027    0.0032
          36   -0.0072    0.0553   -0.0352    0.0063   -0.0040    0.0041   -0.0034    0.0059
          37    0.0079    0.0019    0.0074    0.0017   -0.0284    0.0089   -0.0024    0.0114
          38   -0.0074    0.0110    0.0296    0.0065    0.0180   -0.0068    0.0067   -0.0157
          39    0.0034   -0.0094    0.0159    0.0062    0.0038    0.0046    0.0087   -0.0149
          40   -0.0010    0.0028    0.0008    0.0042   -0.0042   -0.0107   -0.0080    0.0130
          41   -0.0131    0.0241    0.0172    0.0429    0.0019    0.0258   -0.0116    0.0057
          42   -0.0104   -0.0017    0.0013    0.0273    0.0258   -0.0058   -0.0079   -0.0016
          43    0.0081    0.0019    0.0072   -0.0066   -0.0019   -0.0202   -0.0134    0.0135
          44   -0.0033    0.0123    0.0212   -0.0092    0.0262   -0.0242   -0.0078   -0.0033
          45    0.0102   -0.0008    0.0066   -0.0057   -0.0381   -0.0597   -0.0152    0.0126
          46    0.0132    0.0052    0.0187   -0.0061   -0.0124   -0.0635   -0.0262    0.0225
          47   -0.0077    0.0113    0.0296    0.0111    0.0131   -0.0192    0.0037   -0.0134
          48    0.0037   -0.0062   -0.0213   -0.0217   -0.0075    0.0192    0.0008    0.0026
          49   -0.0141    0.0081    0.0036    0.0060   -0.0002   -0.0055    0.0047   -0.0041
          50   -0.0134    0.0242    0.0113   -0.0302    0.0110   -0.0161   -0.0097    0.0070
          51    0.0065   -0.0224    0.0113    0.0409    0.0014    0.0108    0.0224   -0.0322
          52    0.0009   -0.0183   -0.0359    0.0426   -0.0111   -0.0006    0.0193   -0.0215
          53   -0.0078    0.0191   -0.0050   -0.0333    0.0063   -0.0157   -0.0122    0.0113
          54    0.0029   -0.0056    0.0176   -0.0033    0.0035    0.0050    0.0030   -0.0072
          55    0.0675    0.0025   -0.0085    0.0104    0.0412   -0.0218   -0.0043   -0.0169
          56    0.0014   -0.0180   -0.0093   -0.0091   -0.0029    0.0040   -0.0020    0.0067
          57   -0.0584   -0.0438   -0.0152   -0.0228   -0.0345   -0.0002   -0.0252    0.0297
          58   -0.0113   -0.0299   -0.0124    0.0106    0.0326   -0.0192    0.0042   -0.0031
          59   -0.0732   -0.0571   -0.0194   -0.0269   -0.0375    0.0140   -0.0199    0.0287
          60   -0.0247   -0.0213   -0.0070   -0.0045   -0.0040   -0.0089   -0.0025    0.0149
          61    0.0172   -0.0039    0.0092   -0.0252   -0.0227   -0.0127    0.0285   -0.0311
          62   -0.0088   -0.0129    0.0055   -0.0341   -0.0308   -0.0015    0.0381   -0.0171
          63   -0.0085    0.0019    0.0035    0.0337    0.0293   -0.0030   -0.0120   -0.0020
          64    0.0116    0.0004    0.0110   -0.0250   -0.0262   -0.0142    0.0259   -0.0217
          65   -0.0108   -0.0048    0.0016    0.0098   -0.0048    0.0153    0.0033    0.0027
          66   -0.0176    0.0127    0.0041    0.0571    0.0376    0.0035   -0.0345    0.0227
          67    0.0047   -0.0016   -0.0026   -0.0325    0.0467    0.0050   -0.0250    0.0296
          68   -0.0064    0.0165    0.0030   -0.0246    0.0095   -0.0239   -0.0167    0.0173
          69    0.0055    0.0006   -0.0252   -0.0365   -0.0285   -0.0264   -0.0221    0.0320
          70    0.0043   -0.0037   -0.0081   -0.0244    0.0412    0.0331   -0.0086    0.0109
          71   -0.0074    0.0111   -0.0111   -0.0040   -0.0030    0.0497    0.0251   -0.0303
          72    0.0006   -0.0120   -0.0469   -0.0322    0.0146    0.0962    0.0229   -0.0184
          73    0.0012   -0.0122   -0.0312   -0.0158    0.0548    0.1335    0.0338   -0.0355
          74   -0.0069    0.0175   -0.0102   -0.0319    0.0022   -0.0115   -0.0140    0.0173
          75    0.0048   -0.0056   -0.0132   -0.0165   -0.0119    0.0045   -0.0016    0.0035
          76   -0.0161   -0.0302   -0.0111    0.0101    0.0284   -0.0188    0.0438    0.0373
          77    0.0426   -0.0215   -0.0245   -0.0199    0.0192   -0.0100   -0.1088   -0.0599
          78    0.0390    0.0240    0.0113   -0.0080   -0.0471    0.0198   -0.0727   -0.0747
          79   -0.0673   -0.0374   -0.0023    0.0054   -0.0201    0.0076    0.0205    0.0066
          80    0.0368   -0.0136   -0.0160   -0.0118    0.0167   -0.0072   -0.0307   -0.0075
          81    0.0855    0.0503    0.0204    0.0160    0.0037   -0.0048    0.1328    0.0803
          82    0.0112   -0.0048    0.0014    0.0047   -0.0138    0.0082   -0.0442   -0.0613
          83    0.1126    0.0230   -0.0073    0.0059    0.0586   -0.0257    0.0910    0.0747
          84    0.0472    0.0287    0.0130   -0.0040   -0.0389    0.0159   -0.0389   -0.0497
          85    0.0007   -0.0068    0.0193    0.0076   -0.0091    0.0029   -0.0045    0.0119
          86    0.0149   -0.0051   -0.0587    0.0329   -0.0162   -0.0083    0.0038   -0.0044
          87    0.0170   -0.0255    0.1372   -0.0353    0.0052    0.0262   -0.0281    0.0390
          88    0.0004    0.0015   -0.0019    0.0384   -0.0157    0.0320   -0.0308    0.0377
          89   -0.0119    0.0144    0.0127    0.0297   -0.0022    0.0234   -0.0061    0.0061
          90   -0.0085   -0.0362   -0.0129   -0.0354    0.0041   -0.0335    0.0302   -0.0183
          91   -0.0403    0.0527   -0.0081   -0.0237    0.0168   -0.0235    0.0098   -0.0200
          92    0.0124   -0.0230    0.0242   -0.0028   -0.0022   -0.0052   -0.0067    0.0059
          93   -0.0189    0.0874   -0.1253    0.0327   -0.0077   -0.0093    0.0158   -0.0216
          94   -0.0325    0.0431    0.0127   -0.0264    0.0130   -0.0159    0.0009   -0.0048
          95    0.0291   -0.0373   -0.0270    0.0376   -0.0210    0.0015   -0.0005    0.0044
          96   -0.0067    0.0676   -0.0186   -0.0070   -0.0052    0.0099   -0.0180    0.0290


   Root No.       9        10        11        12        13        14        15        16

                 9 A      10 A      11 A      12 A      13 A      14 A      15 A      16 A   

                 196.5     224.0     249.6     309.5     349.4     366.5     404.4     468.6
  
           1    0.0152   -0.0032   -0.0064    0.0047    0.0053   -0.0102   -0.0098   -0.0265
           2    0.0043   -0.0010    0.0019   -0.0100    0.0128    0.0048   -0.0030   -0.0031
           3   -0.0040   -0.0203    0.0114   -0.0117   -0.0096    0.0024   -0.0011    0.0193
           4    0.0137   -0.0030   -0.0050    0.0024    0.0104   -0.0175   -0.0076   -0.0256
           5    0.0003   -0.0131   -0.0071    0.0077    0.0080   -0.0050    0.0210   -0.0276
           6   -0.0048    0.0027   -0.0024   -0.0039    0.0025   -0.0001    0.0218    0.0152
           7    0.0014   -0.0015    0.0299    0.0339    0.0014    0.0060    0.0015   -0.0073
           8   -0.0015    0.0011    0.0173   -0.0006    0.0156    0.0119   -0.0009    0.0121
           9   -0.0016   -0.0139    0.0152    0.0158   -0.0153    0.0091    0.0111   -0.0015
          10    0.0080   -0.0105   -0.0068   -0.0128    0.0193   -0.0214    0.0316   -0.0008
          11   -0.0093   -0.0064   -0.0082    0.0276   -0.0044   -0.0094   -0.0003    0.0045
          12    0.0004    0.0063   -0.0023    0.0015    0.0062   -0.0045    0.0151   -0.0161
          13    0.0176   -0.0141   -0.0145    0.0028    0.0017    0.0335   -0.0032    0.0115
          14   -0.0037    0.0110   -0.0005   -0.0114   -0.0225   -0.0164    0.0129    0.0077
          15    0.0014   -0.0248    0.0175   -0.0127    0.0089   -0.0007   -0.0261   -0.0058
          16   -0.0114    0.0204   -0.0052   -0.0004    0.0029   -0.0030   -0.0026   -0.0027
          17   -0.0077    0.0044    0.0115   -0.0157   -0.0048    0.0203    0.0025   -0.0133
          18    0.0086    0.0022    0.0065   -0.0192    0.0117   -0.0127    0.0078    0.0073
          19   -0.0162   -0.0152    0.0010    0.0063   -0.0059    0.0018    0.0052   -0.0019
          20    0.0099    0.0191    0.0005   -0.0040    0.0535    0.0082   -0.0237    0.0068
          21    0.0009   -0.0067   -0.0044    0.0066    0.0074    0.0068   -0.0031   -0.0060
          22   -0.0229    0.0277    0.0002   -0.0066   -0.0003    0.0080   -0.0029   -0.0108
          23    0.0162   -0.0095    0.0011   -0.0061    0.0033   -0.0015    0.0039   -0.0020
          24   -0.0235    0.0210    0.0028   -0.0071   -0.0013    0.0083   -0.0003   -0.0060
          25   -0.0169    0.0142    0.0054   -0.0161    0.0042    0.0013    0.0113    0.0077
          26   -0.0185    0.0032   -0.0029    0.0270   -0.0108   -0.0008   -0.0105    0.0086
          27    0.0085    0.0044   -0.0103    0.0193    0.0053   -0.0251   -0.0114    0.0094
          28   -0.0071    0.0037    0.0126   -0.0065    0.0064   -0.0268   -0.0126    0.0384
          29   -0.0103   -0.0079   -0.0021    0.0162    0.0023   -0.0116    0.0128   -0.0023
          30    0.0004    0.0138   -0.0148    0.0194   -0.0015   -0.0055   -0.0081   -0.0020
          31    0.0172   -0.0057   -0.0188    0.0035   -0.0020    0.0347    0.0064    0.0196
          32    0.0041   -0.0015   -0.0034   -0.0137   -0.0353   -0.0068   -0.0113   -0.0027
          33    0.0128    0.0060   -0.0127   -0.0063   -0.0158    0.0019   -0.0125   -0.0068
          34    0.0038   -0.0082    0.0050   -0.0158   -0.0381   -0.0047   -0.0162   -0.0029
          35    0.0100   -0.0005   -0.0119   -0.0098   -0.0288    0.0051   -0.0078    0.0029
          36    0.0037    0.0053   -0.0089    0.0017   -0.0020    0.0054    0.0038    0.0042
          37    0.0191   -0.0137   -0.0085    0.0047    0.0035   -0.0219   -0.0196   -0.0552
          38    0.0045   -0.0032    0.0105   -0.0187    0.0313    0.0087   -0.0214    0.0066
          39   -0.0018   -0.0248    0.0146   -0.0161   -0.0004    0.0007   -0.0152    0.0127
          40    0.0191    0.0083   -0.0149    0.0082    0.0153   -0.0150   -0.0126   -0.0561
          41   -0.0010   -0.0167    0.0013   -0.0002    0.0122   -0.0076    0.0394   -0.0317
          42   -0.0025    0.0056   -0.0026   -0.0051    0.0070   -0.0008    0.0280   -0.0016
          43    0.0022   -0.0010    0.0341    0.0386    0.0002    0.0075    0.0034   -0.0079
          44   -0.0184   -0.0044    0.0472    0.0279    0.0048    0.0303    0.0199    0.0296
          45    0.0019   -0.0091    0.0604    0.0631   -0.0276    0.0267    0.0308   -0.0008
          46   -0.0045   -0.0002    0.0793    0.0850   -0.0119    0.0291    0.0273    0.0006
          47    0.0007   -0.0047    0.0169   -0.0132    0.0037    0.0036   -0.0023    0.0152
          48   -0.0005   -0.0109   -0.0049    0.0028   -0.0023    0.0050    0.0014   -0.0067
          49    0.0143   -0.0108   -0.0145    0.0043    0.0081    0.0372    0.0092    0.0242
          50   -0.0084    0.0206   -0.0045   -0.0098   -0.0201   -0.0215    0.0316    0.0189
          51    0.0087   -0.0496    0.0296   -0.0131    0.0241    0.0304   -0.0550   -0.0090
          52    0.0206   -0.0387   -0.0014   -0.0021    0.0035    0.0544   -0.0294    0.0160
          53   -0.0122    0.0215   -0.0083   -0.0116   -0.0181   -0.0279    0.0253    0.0195
          54   -0.0043   -0.0172    0.0121   -0.0123    0.0104   -0.0085   -0.0164    0.0027
          55   -0.0001    0.0165   -0.0127    0.0062    0.0061   -0.0120   -0.0059   -0.0020
          56   -0.0077    0.0044    0.0066   -0.0046   -0.0062    0.0151   -0.0032   -0.0100
          57    0.0190   -0.0025    0.0328   -0.0888    0.0249    0.0140    0.0455   -0.0151
          58   -0.0007    0.0171   -0.0126    0.0166    0.0045   -0.0191   -0.0140    0.0023
          59   -0.0020    0.0009    0.0388   -0.0820    0.0059    0.0484    0.0384   -0.0346
          60    0.0130    0.0011    0.0004   -0.0049    0.0114   -0.0228   -0.0009    0.0113
          61    0.0054   -0.0181   -0.0062   -0.0221    0.0252   -0.0249    0.0622    0.0270
          62    0.0055   -0.0249   -0.0194    0.0363    0.0064   -0.0434    0.0083    0.0479
          63   -0.0076    0.0070    0.0027   -0.0097    0.0065    0.0065    0.0368   -0.0104
          64    0.0249   -0.0273   -0.0145   -0.0126    0.0328   -0.0440    0.0470    0.0041
          65   -0.0233    0.0095   -0.0006    0.0269   -0.0165    0.0127   -0.0165   -0.0092
          66    0.0066    0.0111    0.0005   -0.0007    0.0057    0.0078   -0.0001   -0.0747
          67   -0.1071   -0.0773   -0.0544   -0.0183    0.0168    0.0087   -0.0054   -0.0013
          68   -0.0489   -0.0203   -0.0357   -0.0195    0.0704    0.0124   -0.0318    0.0072
          69   -0.0434   -0.0267   -0.0394    0.0019    0.0556    0.0081   -0.0308   -0.0117
          70   -0.0418   -0.0328   -0.0152   -0.0013   -0.0003    0.0036    0.0026   -0.0018
          71    0.1159    0.0914    0.0641    0.0237    0.0279    0.0002   -0.0114    0.0069
          72    0.0486    0.0258    0.0017   -0.0041   -0.0116   -0.0031    0.0051   -0.0031
          73    0.0854    0.0509    0.0475    0.0145   -0.0447   -0.0091    0.0240    0.0015
          74   -0.0253    0.0046   -0.0346   -0.0172    0.0755    0.0024   -0.0357    0.0062
[...]
 TRANSITION DIPOLE   0.0235         C  6 -- H 19         +41.0% ( 66.4%)     95.6%
 TRAVEL (Ang.)       0.2139         C  2 -- H 14          +2.3% ( 15.8%)    100.0%
 REDUCED MASS        0.4999         C  6 -- C  8          +1.1% ( 11.1%)      0.1%
 EFFECTIVE MASS      1.5433
 FORCE CONSTANT      2.5618

 VIBRATION         75   75A           ATOM PAIR      ENERGY CONTRIBUTION    RADIAL
 FREQUENCY          2949.60         C  2 -- H 14         +92.5% ( 98.2%)    100.0%
 TRANSITION DIPOLE   0.1197         C  6 -- H 20          +1.4% ( 12.3%)     97.2%
 TRAVEL (Ang.)       0.1624         C  6 -- H 19          +1.1% ( 10.7%)     95.5%
 REDUCED MASS        0.8670         C  2 -- C  4          +1.0% ( 10.2%)     14.2%
 EFFECTIVE MASS      1.4417
 FORCE CONSTANT      4.4444

 VIBRATION         76   76A           ATOM PAIR      ENERGY CONTRIBUTION    RADIAL
 FREQUENCY          2999.03         C  5 -- H 17         +76.5% ( 86.7%)     99.6%
 TRANSITION DIPOLE   0.0822         C  5 -- H 18         +21.1% ( 45.5%)     90.1%
 TRAVEL (Ang.)       0.1924         C  5 -- C 11          +0.7% (  8.4%)     26.0%
 REDUCED MASS        0.6073         C  1 -- C  5          +0.7% (  8.1%)     24.0%
 EFFECTIVE MASS      1.3015
 FORCE CONSTANT      3.2180

 VIBRATION         77   77A           ATOM PAIR      ENERGY CONTRIBUTION    RADIAL
 FREQUENCY          3023.05         C  3 -- H 16         +51.2% ( 70.7%)     98.3%
 TRANSITION DIPOLE   0.0793         C  3 -- H 15         +39.0% ( 61.7%)     96.8%
 TRAVEL (Ang.)       0.2309         C 11 -- H 29          +6.5% ( 25.3%)    100.0%
 REDUCED MASS        0.4183         C  7 -- H 25          +0.9% (  9.3%)     97.5%
 EFFECTIVE MASS      1.2930
 FORCE CONSTANT      2.2521

 VIBRATION         78   78A           ATOM PAIR      ENERGY CONTRIBUTION    RADIAL
 FREQUENCY          3024.81         C  6 -- H 19         +56.4% ( 74.1%)     98.4%
 TRANSITION DIPOLE   0.0478         C  6 -- H 20         +41.7% ( 63.7%)     96.6%
 TRAVEL (Ang.)       0.2136         C  6 -- C  8          +0.7% (  8.0%)     26.3%
 REDUCED MASS        0.4886         C  6 -- C  9          +0.6% (  7.9%)     30.4%
 EFFECTIVE MASS      1.2793
 FORCE CONSTANT      2.6341

 VIBRATION         79   79A           ATOM PAIR      ENERGY CONTRIBUTION    RADIAL
 FREQUENCY          3034.63         C 11 -- H 29         +89.9% ( 95.9%)    100.0%
 TRANSITION DIPOLE   0.2293         C  3 -- H 15          +3.4% ( 18.6%)     98.6%
 TRAVEL (Ang.)       0.1677         C  3 -- H 16          +2.5% ( 16.1%)     96.7%
 REDUCED MASS        0.7901         C 11 -- C 12          +1.3% ( 11.7%)     31.0%
 EFFECTIVE MASS      1.4870
 FORCE CONSTANT      4.2871

 VIBRATION         80   80A           ATOM PAIR      ENERGY CONTRIBUTION    RADIAL
 FREQUENCY          3043.72         C  4 -- H 21         +54.9% ( 77.1%)     97.7%
 TRANSITION DIPOLE   0.0757         C  4 -- H 22         +40.9% ( 66.5%)     96.1%
 TRAVEL (Ang.)       0.2066         C  4 -- C 10          +1.1% ( 10.9%)      0.2%
 REDUCED MASS        0.5189         C  4 -- C  9          +1.1% ( 10.8%)      0.1%
 EFFECTIVE MASS      1.5380
 FORCE CONSTANT      2.8321

 VIBRATION         81   81A           ATOM PAIR      ENERGY CONTRIBUTION    RADIAL
 FREQUENCY          3046.28         C  7 -- H 25         +78.0% ( 90.8%)     99.3%
 TRANSITION DIPOLE   0.0415         C  7 -- H 24         +14.7% ( 39.5%)     85.2%
 TRAVEL (Ang.)       0.1843         C  7 -- H 23          +4.5% ( 21.7%)     56.8%
 REDUCED MASS        0.6520         C  3 -- H 16          +1.2% ( 11.1%)     99.6%
 EFFECTIVE MASS      1.4800
 FORCE CONSTANT      3.5646

 VIBRATION         82   82A           ATOM PAIR      ENERGY CONTRIBUTION    RADIAL
 FREQUENCY          3080.63         C  8 -- H 27         +63.1% ( 82.0%)     98.6%
 TRANSITION DIPOLE   0.0188         C  8 -- H 28         +31.1% ( 57.5%)     93.3%
 TRAVEL (Ang.)       0.2043         C  8 -- H 26          +4.3% ( 21.4%)     50.1%
 REDUCED MASS        0.5246         C  6 -- C  8          +1.0% ( 10.2%)      0.0%
 EFFECTIVE MASS      1.5011
 FORCE CONSTANT      2.9331

 VIBRATION         83   83A           ATOM PAIR      ENERGY CONTRIBUTION    RADIAL
 FREQUENCY          3082.38         C  7 -- H 23         +48.5% ( 71.8%)     97.4%
 TRANSITION DIPOLE   0.0125         C  7 -- H 24         +47.4% ( 71.0%)     96.5%
 TRAVEL (Ang.)       0.2113         C  7 -- H 25          +2.7% ( 17.0%)     31.4%
 REDUCED MASS        0.4901         C  3 -- C  7          +1.0% ( 10.3%)      0.0%
 EFFECTIVE MASS      1.5042
 FORCE CONSTANT      2.7435

 VIBRATION         84   84A           ATOM PAIR      ENERGY CONTRIBUTION    RADIAL
 FREQUENCY          3087.13         C  8 -- H 26         +60.4% ( 80.1%)     98.5%
 TRANSITION DIPOLE   0.0153         C  8 -- H 28         +32.8% ( 59.1%)     93.6%
 TRAVEL (Ang.)       0.2083         C  8 -- H 27          +5.4% ( 24.0%)     56.7%
 REDUCED MASS        0.5036         C  6 -- C  8          +1.0% ( 10.4%)      0.1%
 EFFECTIVE MASS      1.5052
 FORCE CONSTANT      2.8279

 VIBRATION         85   85A           ATOM PAIR      ENERGY CONTRIBUTION    RADIAL
 FREQUENCY          3098.76         C  4 -- H 22         +56.7% ( 74.8%)     97.9%
 TRANSITION DIPOLE   0.1163         C  4 -- H 21         +41.0% ( 63.6%)     95.7%
 TRAVEL (Ang.)       0.2102         C  4 -- C 10          +0.7% (  8.3%)     98.7%
 REDUCED MASS        0.4923         C  2 -- C  4          +0.7% (  8.3%)     51.7%
 EFFECTIVE MASS      1.2812
 FORCE CONSTANT      2.7851

 VIBRATION         86   86A           ATOM PAIR      ENERGY CONTRIBUTION    RADIAL
 FREQUENCY          3135.33         C 12 -- H 31         +91.0% ( 97.2%)     99.8%
 TRANSITION DIPOLE   0.1880         C 12 -- H 32          +7.6% ( 28.1%)     73.8%
 TRAVEL (Ang.)       0.1598         C 11 -- C 12          +1.3% ( 11.7%)     20.8%
 REDUCED MASS        0.8424
 EFFECTIVE MASS      1.5410
 FORCE CONSTANT      4.8788

 VIBRATION         87   87A           ATOM PAIR      ENERGY CONTRIBUTION    RADIAL
 FREQUENCY          3147.63         C 12 -- H 32         +91.2% ( 96.1%)     99.6%
 TRANSITION DIPOLE   0.2582         C 12 -- H 31          +6.5% ( 25.7%)     46.4%
 TRAVEL (Ang.)       0.1628         C 11 -- C 12          +1.6% ( 12.7%)     74.3%
 REDUCED MASS        0.8080         C 11 -- H 29          +0.7% (  8.2%)     94.1%
 EFFECTIVE MASS      1.4608
 FORCE CONSTANT      4.7169

 VIBRATION         88   88A           ATOM PAIR      ENERGY CONTRIBUTION    RADIAL
 FREQUENCY          3168.47         C  7 -- H 23         +47.4% ( 66.5%)     98.5%
 TRANSITION DIPOLE   0.0249         C  7 -- H 24         +37.3% ( 58.9%)     97.3%
 TRAVEL (Ang.)       0.2390         C  7 -- H 25         +15.0% ( 37.4%)     90.4%
 REDUCED MASS        0.3726         C  3 -- C  7          +0.3% (  5.5%)     85.2%
 EFFECTIVE MASS      1.1532
 FORCE CONSTANT      2.2038

 VIBRATION         89   89A           ATOM PAIR      ENERGY CONTRIBUTION    RADIAL
 FREQUENCY          3182.18         C  8 -- H 28         +35.4% ( 57.3%)     97.5%
 TRANSITION DIPOLE   0.0224         C  8 -- H 26         +34.4% ( 56.4%)     97.3%
 TRAVEL (Ang.)       0.2540         C  8 -- H 27         +29.9% ( 52.7%)     96.5%
 REDUCED MASS        0.3284         C  6 -- C  8          +0.3% (  5.1%)     99.6%
 EFFECTIVE MASS      1.1357
 FORCE CONSTANT      1.9593

 VIBRATION         90   90A           ATOM PAIR      ENERGY CONTRIBUTION    RADIAL
 FREQUENCY          3201.05         C 10 -- H 30         +94.1% ( 99.9%)    100.0%
 TRANSITION DIPOLE   0.4224         C  9 -- C 10          +2.1% ( 14.7%)     64.8%
 TRAVEL (Ang.)       0.1506         C  4 -- C 10          +1.9% ( 14.1%)     99.3%
 REDUCED MASS        0.9292         C  2 -- C 10          +1.8% ( 14.0%)     37.4%
 EFFECTIVE MASS      1.6016
 FORCE CONSTANT      5.6097

      SYMMETRY NUMBER FOR POINT-GROUP C1  =  1


          SYSTEM IS A GROUND STATE



 InChI=1S/C12H20/c1-4-7-11(6-3)12-8-10(5-2)9-12/h4,8,11-12H,1,5-7,9H2,2-3H3


          MOLECULE IS NOT LINEAR

          THERE ARE 90 GENUINE VIBRATIONS IN THIS SYSTEM
          THIS THERMODYNAMICS CALCULATION IS LIMITED TO
          MOLECULES WHICH HAVE NO INTERNAL ROTATIONS




                    CALCULATED THERMODYNAMIC PROPERTIES
                                          *
   TEMP. (K)   PARTITION FUNCTION   H.O.F.    ENTHALPY  HEAT CAPACITY ENTROPY
                                   KCAL/MOL   CAL/MOLE    CAL/K/MOL  CAL/K/MOL


 298.00  VIB.     0.2327D+06                  7099.1764    46.2322    48.3800
         ROT.     0.1759D+07                   888.2803     2.9808    31.5571
         INT.     0.4094D+12                  7987.4567    49.2130    79.9372
         TRA.     0.2036D+28                  1480.4672     4.9680    41.1956
         TOT.                       20.980    9467.9239    54.1810   121.1328

 200.00  VIB.     0.4183D+04                  3359.5995    30.6652    33.3690
         ROT.     0.9670D+06                   596.1613     2.9808    30.3685
         INT.     0.4045D+10                  3955.7608    33.6460    63.7375
         TRA.     0.1119D+28                   993.6021     4.9680    39.2145
         TOT.                       16.461    4949.3629    38.6140   102.9520

 210.00  VIB.     0.6372D+04                  3673.2751    32.0774    34.8992
         ROT.     0.1040D+07                   625.9693     2.9808    30.5139
         INT.     0.6630D+10                  4299.2444    35.0582    65.4131
         TRA.     0.1204D+28                  1043.2822     4.9680    39.4569
         TOT.                       16.854    5342.5266    40.0262   104.8700

 220.00  VIB.     0.9675D+04                  4001.2981    33.5348    36.4249
         ROT.     0.1116D+07                   655.7774     2.9808    30.6526
         INT.     0.1079D+11                  4657.0755    36.5156    67.0774
         TRA.     0.1291D+28                  1092.9623     4.9680    39.6880
         TOT.                       17.262    5750.0378    41.4836   106.7654

 230.00  VIB.     0.1465D+05                  4344.1221    35.0374    37.9485
         ROT.     0.1193D+07                   685.5855     2.9808    30.7851
         INT.     0.1747D+11                  5029.7076    38.0182    68.7336
         TRA.     0.1380D+28                  1142.6424     4.9680    39.9088
         TOT.                       17.684    6172.3500    42.9863   108.6424

 240.00  VIB.     0.2211D+05                  4702.1927    36.5838    39.4722
         ROT.     0.1271D+07                   715.3935     2.9808    30.9119
         INT.     0.2811D+11                  5417.5863    39.5646    70.3842
         TRA.     0.1471D+28                  1192.3226     4.9680    40.1203
         TOT.                       18.122    6609.9088    44.5326   110.5044

 250.00  VIB.     0.3331D+05                  5075.9345    38.1711    40.9977
         ROT.     0.1351D+07                   745.2016     2.9808    31.0336
         INT.     0.4502D+11                  5821.1361    41.1519    72.0313
         TRA.     0.1564D+28                  1242.0027     4.9680    40.3231
         TOT.                       18.575    7063.1387    46.1200   112.3544

 260.00  VIB.     0.5008D+05                  5465.7404    39.7960    42.5263
         ROT.     0.1433D+07                   775.0097     2.9808    31.1505
         INT.     0.7178D+11                  6240.7501    42.7768    73.6769
         TRA.     0.1659D+28                  1291.6828     4.9680    40.5179
         TOT.                       19.044    7532.4328    47.7448   114.1948

 270.00  VIB.     0.7517D+05                  5871.9643    41.4540    44.0592
         ROT.     0.1517D+07                   804.8177     2.9808    31.2630
         INT.     0.1140D+12                  6676.7820    44.4348    75.3223
         TRA.     0.1756D+28                  1341.3629     4.9680    40.7054
         TOT.                       19.530    8018.1449    49.4028   116.0277

 280.00  VIB.     0.1127D+06                  6294.9148    43.1405    45.5972
         ROT.     0.1602D+07                   834.6258     2.9808    31.3714
         INT.     0.1805D+12                  7129.5406    46.1213    76.9687
         TRA.     0.1854D+28                  1391.0430     4.9680    40.8861
         TOT.                       20.032    8520.5835    51.0893   117.8548

 290.00  VIB.     0.1687D+06                  6734.8524    44.8506    47.1409
         ROT.     0.1688D+07                   864.4339     2.9808    31.4760
         INT.     0.2848D+12                  7599.2863    47.8314    78.6169
         TRA.     0.1954D+28                  1440.7231     4.9680    41.0604
         TOT.                       20.552    9040.0094    52.7994   119.6773

 300.00  VIB.     0.2522D+06                  7191.9877    46.5792    48.6904
         ROT.     0.1777D+07                   894.2419     2.9808    31.5771
         INT.     0.4481D+12                  8086.2296    49.5600    80.2675
         TRA.     0.2056D+28                  1490.4032     4.9680    41.2289
         TOT.                       21.088    9576.6328    54.5280   121.4964

 310.00  VIB.     0.3770D+06                  7666.4809    48.3213    50.2461
         ROT.     0.1866D+07                   924.0500     2.9808    31.6748
         INT.     0.7035D+12                  8590.5309    51.3021    81.9210
         TRA.     0.2160D+28                  1540.0833     4.9680    41.3918
         TOT.                       21.642   10130.6142    56.2702   123.3127

 320.00  VIB.     0.5630D+06                  8158.4435    50.0722    51.8079
         ROT.     0.1957D+07                   953.8580     2.9808    31.7695
         INT.     0.1102D+13                  9112.3016    53.0531    83.5774
         TRA.     0.2265D+28                  1589.7634     4.9680    41.5495
         TOT.                       22.214   10702.0650    58.0211   125.1269

 330.00  VIB.     0.8406D+06                  8667.9397    51.8273    53.3756
         ROT.     0.2050D+07                   983.6661     2.9808    31.8612
         INT.     0.1723D+13                  9651.6058    54.8081    85.2368
         TRA.     0.2372D+28                  1639.4435     4.9680    41.7024
         TOT.                       22.803   11291.0493    59.7761   126.9391

 340.00  VIB.     0.1254D+07                  9194.9894    53.5823    54.9488
         ROT.     0.2143D+07                  1013.4742     2.9808    31.9502
         INT.     0.2689D+13                 10208.4636    56.5631    86.8990
         TRA.     0.2481D+28                  1689.1236     4.9680    41.8507
         TOT.                       23.409   11897.5872    61.5311   128.7497

 350.00  VIB.     0.1872D+07                  9739.5712    55.3331    56.5273
         ROT.     0.2239D+07                  1043.2822     2.9808    32.0366
         INT.     0.4190D+13                 10782.8535    58.3139    88.5639
         TRA.     0.2591D+28                  1738.8037     4.9680    41.9947
         TOT.                       24.033   12521.6572    63.2819   130.5586

 360.00  VIB.     0.2792D+07                 10301.6261    57.0763    58.1106
         ROT.     0.2335D+07                  1073.0903     2.9808    32.1205
         INT.     0.6521D+13                 11374.7164    60.0571    90.2311
         TRA.     0.2703D+28                  1788.4838     4.9680    42.1347
         TOT.                       24.675   13163.2002    65.0251   132.3658

 370.00  VIB.     0.4166D+07                 10881.0608    58.8086    59.6981
         ROT.     0.2433D+07                  1102.8984     2.9808    32.2022
         INT.     0.1014D+14                 11983.9592    61.7894    91.9003
         TRA.     0.2817D+28                  1838.1639     4.9680    42.2708
         TOT.                       25.334   13822.1231    66.7574   134.1710

 380.00  VIB.     0.6214D+07                 11477.7516    60.5271    61.2892
         ROT.     0.2533D+07                  1132.7064     2.9808    32.2817
         INT.     0.1574D+14                 12610.4580    63.5079    93.5709
         TRA.     0.2932D+28                  1887.8440     4.9680    42.4033
         TOT.                       26.010   14498.3020    68.4759   135.9742

 390.00  VIB.     0.9271D+07                 12091.5478    62.2293    62.8835
         ROT.     0.2633D+07                  1162.5145     2.9808    32.3591
         INT.     0.2441D+14                 13254.0623    65.2101    95.2426
         TRA.     0.3048D+28                  1937.5242     4.9680    42.5323
         TOT.                       26.703   15191.5865    70.1781   137.7749

 400.00  VIB.     0.1383D+08                 12722.2756    63.9130    64.4803
         ROT.     0.2735D+07                  1192.3226     2.9808    32.4346
         INT.     0.3783D+14                 13914.5982    66.8939    96.9149
         TRA.     0.3166D+28                  1987.2043     4.9680    42.6581
         TOT.                       27.414   15901.8025    71.8619   139.5730

   *: NOTE: HEATS OF FORMATION ARE RELATIVE TO THE
            ELEMENTS IN THEIR STANDARD STATE AT 298K
              (=  Standard Enthalpy of Formation).

            Hvib:  Zero-point energy is not included.
                   frequencies of less than zero cm-1 are not included.
            Hrot = (3/2)RT
            Htra = (3/2)RT + pV = (5/2)RT

            Heat capacity is Cp, not Cv

          For more information, see: HTTP://OpenMOPAC.net/Manual/thermochemistry.html


           FORCE CONSTANT IN CARTESIAN COORDINATES (Millidynes/A)

    ATOM   CHEMICAL       X               Y               Z
   NUMBER   SYMBOL  FORCE CONSTANT  FORCE CONSTANT  FORCE CONSTANT

      1       C        8.365741        7.963741        8.259659
      2       C        8.858671        6.979306        8.422150
      3       C        8.289833        7.922387        8.428200
      4       C        7.356147        9.480897        7.016764
      5       C        9.035151        8.448621        7.611344
      6       C        8.547305        8.548609        8.705005
      7       C        8.242321        8.483142        8.023311
      8       C        8.319179        8.198291        8.305715
      9       C        7.777958        7.930589       12.308358
     10       C        4.906910       11.126712       10.303117
     11       C        9.269662       14.347520        3.469560
     12       C        9.234000       14.282624        2.941705
     13       H        1.098336        1.484524        3.435246
     14       H        1.248930        1.337665        3.592514
     15       H        4.874594        0.737117        0.728786
     16       H        1.248666        1.727200        3.414656
     17       H        2.363186        3.213909        0.825485
     18       H        0.658569        2.253208        3.379966
     19       H        0.773234        4.756510        0.804692
     20       H        1.513306        0.719814        4.025633
     21       H        2.453096        1.003725        3.093584
     22       H        2.714845        3.073600        0.773047
     23       H        2.052693        4.032954        0.699756
     24       H        5.095892        0.949234        0.709631
     25       H        0.876886        2.196153        3.696521
     26       H        2.238910        1.321070        3.226053
     27       H        0.785367        5.210792        0.767673
     28       H        1.738071        0.778480        4.268546
     29       H        2.614684        2.647585        0.908622
     30       H        0.450850        4.448314        1.677856
     31       H        2.546709        2.992325        0.921589
     32       H        4.838859        1.151378        0.483797

 **********************
 *                    *
 * JOB ENDED NORMALLY *
 *                    *
 **********************



 TOTAL JOB TIME:            10.21 SECONDS

 == MOPAC DONE ==
