 *******************************************************************************
 **                                                                           **
 **                              MOPAC v23.1.2                                **
 **                                                                           **
 *******************************************************************************
 **          Digital Object Identifier (DOI): 10.5281/zenodo.6511958          **
 **    Visit the DOI location for information on how to cite this program.    **
 *******************************************************************************

                              PM3 CALCULATION RESULTS

 *******************************************************************************
 *  CALCULATION DONE: (MAX THREADS = 1)              Tue Jun  3 16:42:10 2025  *
 *  PM3        - The PM3 Hamiltonian to be used
 *  PRECISE    - TIGHTER CRITERIA TO BE USED
 *  NOSYM      - POINT-GROUP SYMMETRY SET TO C1
 *  THREADS=1  - MULTI-THREADING NOT USED
 *  T=         - A TIME OF 172800.0 SECONDS REQUESTED
 *  DUMP=N     - RESTART FILE WRITTEN EVERY 7200.0 SECONDS REQUESTED
 *******************************************************************************
pm3  precise nosym THREADS=1
 InChI=1S/C12H20/c1-4-6-7-10(3)12-8-11(5-2)9-12/h4,7,10-12H,5,8-9H2,1-3H3

   ATOM   CHEMICAL          X               Y               Z
  NUMBER   SYMBOL      (ANGSTROMS)     (ANGSTROMS)     (ANGSTROMS)

     1       C          0.42060000  *  -1.24740000  *  -0.89360000  *
     2       C          2.12050000  *  -0.02580000  *  -0.33420000  *
     3       C         -0.85440000  *  -1.45140000  *  -0.04300000  *
     4       C          1.72760000  *  -1.48910000  *  -0.13210000  *
     5       C          0.81240000  *   0.22110000  *  -1.08610000  *
     6       C          2.24570000  *   0.75720000  *   0.98490000  *
     7       C         -1.09100000  *  -2.93980000  *   0.23500000  *
     8       C          2.56140000  *   2.22870000  *   0.73040000  *
     9       C         -2.57760000  *   2.28150000  *   0.83420000  *
    10       C         -2.04750000  *  -0.88980000  *  -0.76900000  *
    11       C         -3.33430000  *   1.16670000  *   0.19230000  *
    12       C         -2.70060000  *   0.13490000  *  -0.29170000  *
    13       H          3.01550000  *   0.07700000  *  -0.98820000  *
    14       H          0.39120000  *  -1.79880000  *  -1.86100000  *
    15       H         -0.72970000  *  -0.93480000  *   0.93760000  *
    16       H          1.30790000  *   0.68050000  *   1.57870000  *
    17       H          3.06990000  *   0.31730000  *   1.58680000  *
    18       H          1.58860000  *  -1.76990000  *   0.93570000  *
    19       H          2.40480000  *  -2.18300000  *  -0.67630000  *
    20       H          0.98650000  *   0.47060000  *  -2.15550000  *
    21       H          0.13250000  *   0.94120000  *  -0.57940000  *
    22       H          2.67200000  *   2.75740000  *   1.70050000  *
    23       H          3.51090000  *   2.32640000  *   0.16240000  *
    24       H          1.74080000  *   2.70990000  *   0.15760000  *
    25       H         -1.19900000  *  -3.50540000  *  -0.71580000  *
    26       H         -0.24370000  *  -3.36850000  *   0.81000000  *
    27       H         -2.01510000  *  -3.07250000  *   0.83770000  *
    28       H         -3.28590000  *   3.05930000  *   1.18840000  *
    29       H         -2.00000000  *   1.89840000  *   1.70240000  *
    30       H         -1.87920000  *   2.73840000  *   0.10110000  *
    31       H         -4.41380000  *   1.20790000  *   0.12990000  *
    32       H         -2.33680000  *  -1.29810000  *  -1.72920000  *



          CARTESIAN COORDINATES 

    NO.       ATOM           X           Y           Z

     1         C          0.4206     -1.2474     -0.8936
     2         C          2.1205     -0.0258     -0.3342
     3         C         -0.8544     -1.4514     -0.0430
     4         C          1.7276     -1.4891     -0.1321
     5         C          0.8124      0.2211     -1.0861
     6         C          2.2457      0.7572      0.9849
     7         C         -1.0910     -2.9398      0.2350
     8         C          2.5614      2.2287      0.7304
     9         C         -2.5776      2.2815      0.8342
    10         C         -2.0475     -0.8898     -0.7690
    11         C         -3.3343      1.1667      0.1923
    12         C         -2.7006      0.1349     -0.2917
    13         H          3.0155      0.0770     -0.9882
    14         H          0.3912     -1.7988     -1.8610
    15         H         -0.7297     -0.9348      0.9376
    16         H          1.3079      0.6805      1.5787
    17         H          3.0699      0.3173      1.5868
    18         H          1.5886     -1.7699      0.9357
    19         H          2.4048     -2.1830     -0.6763
    20         H          0.9865      0.4706     -2.1555
    21         H          0.1325      0.9412     -0.5794
    22         H          2.6720      2.7574      1.7005
    23         H          3.5109      2.3264      0.1624
    24         H          1.7408      2.7099      0.1576
    25         H         -1.1990     -3.5054     -0.7158
    26         H         -0.2437     -3.3685      0.8100
    27         H         -2.0151     -3.0725      0.8377
    28         H         -3.2859      3.0593      1.1884
    29         H         -2.0000      1.8984      1.7024
    30         H         -1.8792      2.7384      0.1011
    31         H         -4.4138      1.2079      0.1299
    32         H         -2.3368     -1.2981     -1.7292

  H: (PM3): J. J. P. STEWART, J. COMP. CHEM. 10, 209 (1989).
  C: (PM3): J. J. P. STEWART, J. COMP. CHEM. 10, 209 (1989).

           Empirical Formula: C12 H20  =    32 atoms



      MOLECULAR POINT GROUP   :   C1  


      RHF CALCULATION, NO. OF DOUBLY OCCUPIED LEVELS = 34


          Geometry optimization using EF

          DIAGONAL MATRIX USED AS START HESSIAN

 CYCLE:     1 TIME:   0.012 TIME LEFT:  2.00D  GRAD.:    88.667 HEAT:  35.23960
 CYCLE:     2 TIME:   0.020 TIME LEFT:  2.00D  GRAD.:   101.155 HEAT:  33.19241
 CYCLE:     3 TIME:   0.012 TIME LEFT:  2.00D  GRAD.:   141.826 HEAT:  32.28237
 CYCLE:     4 TIME:   0.020 TIME LEFT:  2.00D  GRAD.:    75.056 HEAT:  29.97779
 CYCLE:     5 TIME:   0.012 TIME LEFT:  2.00D  GRAD.:    62.657 HEAT:  29.00154
 CYCLE:     6 TIME:   0.012 TIME LEFT:  2.00D  GRAD.:    48.201 HEAT:  27.52461
 CYCLE:     7 TIME:   0.012 TIME LEFT:  2.00D  GRAD.:    67.318 HEAT:  26.84402
 CYCLE:     8 TIME:   0.008 TIME LEFT:  2.00D  GRAD.:    68.030 HEAT:  25.75598
 CYCLE:     9 TIME:   0.016 TIME LEFT:  2.00D  GRAD.:    70.395 HEAT:  24.93499
 CYCLE:    10 TIME:   0.016 TIME LEFT:  2.00D  GRAD.:    42.666 HEAT:  23.72907
 CYCLE:    11 TIME:   0.012 TIME LEFT:  2.00D  GRAD.:    42.938 HEAT:  23.14966
 CYCLE:    12 TIME:   0.008 TIME LEFT:  2.00D  GRAD.:    62.900 HEAT:  23.07189
 CYCLE:    13 TIME:   0.012 TIME LEFT:  2.00D  GRAD.:    40.118 HEAT:  21.95269
 CYCLE:    14 TIME:   0.020 TIME LEFT:  2.00D  GRAD.:    40.904 HEAT:  21.64607
 CYCLE:    15 TIME:   0.012 TIME LEFT:  2.00D  GRAD.:    30.882 HEAT:  21.09949
 CYCLE:    16 TIME:   0.012 TIME LEFT:  2.00D  GRAD.:    40.340 HEAT:  20.76877
 CYCLE:    17 TIME:   0.012 TIME LEFT:  2.00D  GRAD.:    37.376 HEAT:  20.26568
 CYCLE:    18 TIME:   0.016 TIME LEFT:  2.00D  GRAD.:    40.179 HEAT:  20.07598
 CYCLE:    19 TIME:   0.012 TIME LEFT:  2.00D  GRAD.:    31.703 HEAT:  19.67230
 CYCLE:    20 TIME:   0.012 TIME LEFT:  2.00D  GRAD.:    33.454 HEAT:  19.35784
 CYCLE:    21 TIME:   0.012 TIME LEFT:  2.00D  GRAD.:    37.193 HEAT:  19.13562
 CYCLE:    22 TIME:   0.020 TIME LEFT:  2.00D  GRAD.:    28.812 HEAT:  18.89464
 CYCLE:    23 TIME:   0.008 TIME LEFT:  2.00D  GRAD.:    26.415 HEAT:  18.74521
 CYCLE:    24 TIME:   0.012 TIME LEFT:  2.00D  GRAD.:    15.549 HEAT:  18.49150
 CYCLE:    25 TIME:   0.012 TIME LEFT:  2.00D  GRAD.:    24.290 HEAT:  18.41109
 CYCLE:    26 TIME:   0.012 TIME LEFT:  2.00D  GRAD.:    24.223 HEAT:  18.27214
 CYCLE:    27 TIME:   0.012 TIME LEFT:  2.00D  GRAD.:    25.125 HEAT:  18.11152
 CYCLE:    28 TIME:   0.008 TIME LEFT:  2.00D  GRAD.:    16.215 HEAT:  17.88794
 CYCLE:    29 TIME:   0.016 TIME LEFT:  2.00D  GRAD.:    18.261 HEAT:  17.74430
 CYCLE:    30 TIME:   0.008 TIME LEFT:  2.00D  GRAD.:    16.403 HEAT:  17.55227
 CYCLE:    31 TIME:   0.012 TIME LEFT:  2.00D  GRAD.:    18.270 HEAT:  17.32048
 CYCLE:    32 TIME:   0.012 TIME LEFT:  2.00D  GRAD.:    16.119 HEAT:  17.11858
 CYCLE:    33 TIME:   0.012 TIME LEFT:  2.00D  GRAD.:    15.861 HEAT:  16.89670
 CYCLE:    34 TIME:   0.012 TIME LEFT:  2.00D  GRAD.:    18.325 HEAT:  16.73082
 CYCLE:    35 TIME:   0.012 TIME LEFT:  2.00D  GRAD.:    14.548 HEAT:  16.55394
 CYCLE:    36 TIME:   0.012 TIME LEFT:  2.00D  GRAD.:    16.023 HEAT:  16.45279
 CYCLE:    37 TIME:   0.012 TIME LEFT:  2.00D  GRAD.:    13.511 HEAT:  16.32602
 CYCLE:    38 TIME:   0.012 TIME LEFT:  2.00D  GRAD.:    17.877 HEAT:  16.28298
 CYCLE:    39 TIME:   0.012 TIME LEFT:  2.00D  GRAD.:     9.427 HEAT:  16.16069
 CYCLE:    40 TIME:   0.012 TIME LEFT:  2.00D  GRAD.:     8.864 HEAT:  16.09626
 CYCLE:    41 TIME:   0.012 TIME LEFT:  2.00D  GRAD.:     7.366 HEAT:  16.01955
 CYCLE:    42 TIME:   0.012 TIME LEFT:  2.00D  GRAD.:    12.699 HEAT:  15.95226
 CYCLE:    43 TIME:   0.008 TIME LEFT:  2.00D  GRAD.:     7.936 HEAT:  15.88094
 CYCLE:    44 TIME:   0.012 TIME LEFT:  2.00D  GRAD.:     7.074 HEAT:  15.82956
 CYCLE:    45 TIME:   0.012 TIME LEFT:  2.00D  GRAD.:     9.787 HEAT:  15.75806
 CYCLE:    46 TIME:   0.012 TIME LEFT:  2.00D  GRAD.:     9.630 HEAT:  15.65087
 CYCLE:    47 TIME:   0.012 TIME LEFT:  2.00D  GRAD.:     6.491 HEAT:  15.59477
 CYCLE:    48 TIME:   0.012 TIME LEFT:  2.00D  GRAD.:     5.500 HEAT:  15.55259
 CYCLE:    49 TIME:   0.012 TIME LEFT:  2.00D  GRAD.:     4.385 HEAT:  15.50387
 CYCLE:    50 TIME:   0.012 TIME LEFT:  2.00D  GRAD.:     5.639 HEAT:  15.46195
 CYCLE:    51 TIME:   0.012 TIME LEFT:  2.00D  GRAD.:     5.485 HEAT:  15.43631
 CYCLE:    52 TIME:   0.012 TIME LEFT:  2.00D  GRAD.:     4.828 HEAT:  15.40588
 CYCLE:    53 TIME:   0.012 TIME LEFT:  2.00D  GRAD.:     4.266 HEAT:  15.36830
 CYCLE:    54 TIME:   0.008 TIME LEFT:  2.00D  GRAD.:     4.309 HEAT:  15.34886
 CYCLE:    55 TIME:   0.012 TIME LEFT:  2.00D  GRAD.:     3.437 HEAT:  15.32710
 CYCLE:    56 TIME:   0.012 TIME LEFT:  2.00D  GRAD.:     3.971 HEAT:  15.31131
 CYCLE:    57 TIME:   0.012 TIME LEFT:  2.00D  GRAD.:     2.924 HEAT:  15.29829
 CYCLE:    58 TIME:   0.012 TIME LEFT:  2.00D  GRAD.:     2.482 HEAT:  15.28676
 CYCLE:    59 TIME:   0.012 TIME LEFT:  2.00D  GRAD.:     2.286 HEAT:  15.27458
 CYCLE:    60 TIME:   0.008 TIME LEFT:  2.00D  GRAD.:     1.960 HEAT:  15.26777
 CYCLE:    61 TIME:   0.012 TIME LEFT:  2.00D  GRAD.:     1.985 HEAT:  15.26006
 CYCLE:    62 TIME:   0.012 TIME LEFT:  2.00D  GRAD.:     2.093 HEAT:  15.25282
 CYCLE:    63 TIME:   0.012 TIME LEFT:  2.00D  GRAD.:     1.942 HEAT:  15.24550
 CYCLE:    64 TIME:   0.012 TIME LEFT:  2.00D  GRAD.:     2.483 HEAT:  15.23453
 CYCLE:    65 TIME:   0.008 TIME LEFT:  2.00D  GRAD.:     3.259 HEAT:  15.22066
 CYCLE:    66 TIME:   0.016 TIME LEFT:  2.00D  GRAD.:     3.211 HEAT:  15.20290
 CYCLE:    67 TIME:   0.008 TIME LEFT:  2.00D  GRAD.:     3.704 HEAT:  15.17633
 CYCLE:    68 TIME:   0.012 TIME LEFT:  2.00D  GRAD.:     4.931 HEAT:  15.13985
 CYCLE:    69 TIME:   0.012 TIME LEFT:  2.00D  GRAD.:     5.780 HEAT:  15.09541
 CYCLE:    70 TIME:   0.008 TIME LEFT:  2.00D  GRAD.:     5.354 HEAT:  15.04597
 CYCLE:    71 TIME:   0.012 TIME LEFT:  2.00D  GRAD.:     6.048 HEAT:  15.00602
 CYCLE:    72 TIME:   0.020 TIME LEFT:  2.00D  GRAD.:     7.138 HEAT:  15.00564
 CYCLE:    73 TIME:   0.012 TIME LEFT:  2.00D  GRAD.:     2.668 HEAT:  14.96327
 CYCLE:    74 TIME:   0.008 TIME LEFT:  2.00D  GRAD.:     2.443 HEAT:  14.94717
 CYCLE:    75 TIME:   0.012 TIME LEFT:  2.00D  GRAD.:     2.537 HEAT:  14.92783
 CYCLE:    76 TIME:   0.012 TIME LEFT:  2.00D  GRAD.:     2.831 HEAT:  14.91039
 CYCLE:    77 TIME:   0.012 TIME LEFT:  2.00D  GRAD.:     3.808 HEAT:  14.89255
 CYCLE:    78 TIME:   0.012 TIME LEFT:  2.00D  GRAD.:     2.078 HEAT:  14.88541
 CYCLE:    79 TIME:   0.012 TIME LEFT:  2.00D  GRAD.:     1.612 HEAT:  14.87685
 CYCLE:    80 TIME:   0.012 TIME LEFT:  2.00D  GRAD.:     1.668 HEAT:  14.86947
 CYCLE:    81 TIME:   0.012 TIME LEFT:  2.00D  GRAD.:     1.601 HEAT:  14.86495
 CYCLE:    82 TIME:   0.012 TIME LEFT:  2.00D  GRAD.:     1.470 HEAT:  14.86005
 CYCLE:    83 TIME:   0.012 TIME LEFT:  2.00D  GRAD.:     1.749 HEAT:  14.85713
 CYCLE:    84 TIME:   0.012 TIME LEFT:  2.00D  GRAD.:     1.327 HEAT:  14.85322
 CYCLE:    85 TIME:   0.012 TIME LEFT:  2.00D  GRAD.:     1.469 HEAT:  14.84743
 CYCLE:    86 TIME:   0.012 TIME LEFT:  2.00D  GRAD.:     1.480 HEAT:  14.84440
 CYCLE:    87 TIME:   0.012 TIME LEFT:  2.00D  GRAD.:     1.163 HEAT:  14.83972
 CYCLE:    88 TIME:   0.012 TIME LEFT:  2.00D  GRAD.:     1.165 HEAT:  14.83660
 CYCLE:    89 TIME:   0.008 TIME LEFT:  2.00D  GRAD.:     2.013 HEAT:  14.83642
 CYCLE:    90 TIME:   0.012 TIME LEFT:  2.00D  GRAD.:     0.985 HEAT:  14.83407
 CYCLE:    91 TIME:   0.012 TIME LEFT:  2.00D  GRAD.:     0.627 HEAT:  14.83292
 CYCLE:    92 TIME:   0.012 TIME LEFT:  2.00D  GRAD.:     0.711 HEAT:  14.83092
 CYCLE:    93 TIME:   0.012 TIME LEFT:  2.00D  GRAD.:     0.857 HEAT:  14.82905
 CYCLE:    94 TIME:   0.012 TIME LEFT:  2.00D  GRAD.:     1.001 HEAT:  14.82707
 CYCLE:    95 TIME:   0.012 TIME LEFT:  2.00D  GRAD.:     0.959 HEAT:  14.82558
 CYCLE:    96 TIME:   0.012 TIME LEFT:  2.00D  GRAD.:     1.007 HEAT:  14.82349
 CYCLE:    97 TIME:   0.012 TIME LEFT:  2.00D  GRAD.:     0.911 HEAT:  14.82221
 CYCLE:    98 TIME:   0.012 TIME LEFT:  2.00D  GRAD.:     1.436 HEAT:  14.81842
 CYCLE:    99 TIME:   0.012 TIME LEFT:  2.00D  GRAD.:     1.107 HEAT:  14.81663
 CYCLE:   100 TIME:   0.012 TIME LEFT:  2.00D  GRAD.:     1.265 HEAT:  14.81318
 CYCLE:   101 TIME:   0.012 TIME LEFT:  2.00D  GRAD.:     0.762 HEAT:  14.81179
 CYCLE:   102 TIME:   0.012 TIME LEFT:  2.00D  GRAD.:     0.556 HEAT:  14.81070
 CYCLE:   103 TIME:   0.012 TIME LEFT:  2.00D  GRAD.:     0.651 HEAT:  14.80960
 CYCLE:   104 TIME:   0.008 TIME LEFT:  2.00D  GRAD.:     0.786 HEAT:  14.80800
 CYCLE:   105 TIME:   0.012 TIME LEFT:  2.00D  GRAD.:     0.768 HEAT:  14.80686
 CYCLE:   106 TIME:   0.012 TIME LEFT:  2.00D  GRAD.:     0.811 HEAT:  14.80447
 CYCLE:   107 TIME:   0.012 TIME LEFT:  2.00D  GRAD.:     0.762 HEAT:  14.80296
 CYCLE:   108 TIME:   0.012 TIME LEFT:  2.00D  GRAD.:     0.885 HEAT:  14.80048
 CYCLE:   109 TIME:   0.012 TIME LEFT:  2.00D  GRAD.:     0.749 HEAT:  14.79945
 CYCLE:   110 TIME:   0.012 TIME LEFT:  2.00D  GRAD.:     0.924 HEAT:  14.79823
 CYCLE:   111 TIME:   0.012 TIME LEFT:  2.00D  GRAD.:     0.573 HEAT:  14.79710
 CYCLE:   112 TIME:   0.012 TIME LEFT:  2.00D  GRAD.:     0.431 HEAT:  14.79639
 CYCLE:   113 TIME:   0.008 TIME LEFT:  2.00D  GRAD.:     0.417 HEAT:  14.79557
 CYCLE:   114 TIME:   0.012 TIME LEFT:  2.00D  GRAD.:     0.511 HEAT:  14.79486
 CYCLE:   115 TIME:   0.012 TIME LEFT:  2.00D  GRAD.:     0.565 HEAT:  14.79402
 CYCLE:   116 TIME:   0.012 TIME LEFT:  2.00D  GRAD.:     0.578 HEAT:  14.79328
 CYCLE:   117 TIME:   0.016 TIME LEFT:  2.00D  GRAD.:     0.720 HEAT:  14.79244
 CYCLE:   118 TIME:   0.012 TIME LEFT:  2.00D  GRAD.:     0.540 HEAT:  14.79163
 CYCLE:   119 TIME:   0.008 TIME LEFT:  2.00D  GRAD.:     0.426 HEAT:  14.79076
 CYCLE:   120 TIME:   0.012 TIME LEFT:  2.00D  GRAD.:     0.417 HEAT:  14.79030
 CYCLE:   121 TIME:   0.012 TIME LEFT:  2.00D  GRAD.:     0.427 HEAT:  14.78995
 CYCLE:   122 TIME:   0.012 TIME LEFT:  2.00D  GRAD.:     0.396 HEAT:  14.78964
 CYCLE:   123 TIME:   0.012 TIME LEFT:  2.00D  GRAD.:     0.429 HEAT:  14.78922
 CYCLE:   124 TIME:   0.012 TIME LEFT:  2.00D  GRAD.:     0.417 HEAT:  14.78883
 CYCLE:   125 TIME:   0.012 TIME LEFT:  2.00D  GRAD.:     0.636 HEAT:  14.78779
 CYCLE:   126 TIME:   0.008 TIME LEFT:  2.00D  GRAD.:     0.512 HEAT:  14.78722
 CYCLE:   127 TIME:   0.016 TIME LEFT:  2.00D  GRAD.:     0.573 HEAT:  14.78705
 CYCLE:   128 TIME:   0.012 TIME LEFT:  2.00D  GRAD.:     0.373 HEAT:  14.78593
 CYCLE:   129 TIME:   0.012 TIME LEFT:  2.00D  GRAD.:     0.362 HEAT:  14.78530
 CYCLE:   130 TIME:   0.012 TIME LEFT:  2.00D  GRAD.:     0.562 HEAT:  14.78514
 CYCLE:   131 TIME:   0.016 TIME LEFT:  2.00D  GRAD.:     0.386 HEAT:  14.78437
 CYCLE:   132 TIME:   0.012 TIME LEFT:  2.00D  GRAD.:     0.329 HEAT:  14.78396
 CYCLE:   133 TIME:   0.012 TIME LEFT:  2.00D  GRAD.:     0.347 HEAT:  14.78354
 CYCLE:   134 TIME:   0.016 TIME LEFT:  2.00D  GRAD.:     0.327 HEAT:  14.78310
 CYCLE:   135 TIME:   0.012 TIME LEFT:  2.00D  GRAD.:     0.476 HEAT:  14.78238
 CYCLE:   136 TIME:   0.016 TIME LEFT:  2.00D  GRAD.:     0.318 HEAT:  14.78216
 CYCLE:   137 TIME:   0.012 TIME LEFT:  2.00D  GRAD.:     0.316 HEAT:  14.78191
 CYCLE:   138 TIME:   0.012 TIME LEFT:  2.00D  GRAD.:     0.230 HEAT:  14.78174
 CYCLE:   139 TIME:   0.012 TIME LEFT:  2.00D  GRAD.:     0.247 HEAT:  14.78154
 CYCLE:   140 TIME:   0.012 TIME LEFT:  2.00D  GRAD.:     0.199 HEAT:  14.78142
 CYCLE:   141 TIME:   0.012 TIME LEFT:  2.00D  GRAD.:     0.241 HEAT:  14.78124
 CYCLE:   142 TIME:   0.012 TIME LEFT:  2.00D  GRAD.:     0.217 HEAT:  14.78111
 CYCLE:   143 TIME:   0.016 TIME LEFT:  2.00D  GRAD.:     0.526 HEAT:  14.78198
 CYCLE:   144 TIME:   0.012 TIME LEFT:  2.00D  GRAD.:     0.166 HEAT:  14.78088
 CYCLE:   145 TIME:   0.012 TIME LEFT:  2.00D  GRAD.:     0.168 HEAT:  14.78081
 CYCLE:   146 TIME:   0.012 TIME LEFT:  2.00D  GRAD.:     0.170 HEAT:  14.78072
 CYCLE:   147 TIME:   0.012 TIME LEFT:  2.00D  GRAD.:     0.146 HEAT:  14.78062
 CYCLE:   148 TIME:   0.016 TIME LEFT:  2.00D  GRAD.:     0.164 HEAT:  14.78053
 CYCLE:   149 TIME:   0.008 TIME LEFT:  2.00D  GRAD.:     0.134 HEAT:  14.78049
 CYCLE:   150 TIME:   0.012 TIME LEFT:  2.00D  GRAD.:     0.184 HEAT:  14.78050
 CYCLE:   151 TIME:   0.016 TIME LEFT:  2.00D  GRAD.:     0.106 HEAT:  14.78042
 CYCLE:   152 TIME:   0.012 TIME LEFT:  2.00D  GRAD.:     0.226 HEAT:  14.78048
 CYCLE:   153 TIME:   0.012 TIME LEFT:  2.00D  GRAD.:     0.112 HEAT:  14.78035
 CYCLE:   154 TIME:   0.012 TIME LEFT:  2.00D  GRAD.:     0.137 HEAT:  14.78036
 CYCLE:   155 TIME:   0.012 TIME LEFT:  2.00D  GRAD.:     0.115 HEAT:  14.78030
 CYCLE:   156 TIME:   0.012 TIME LEFT:  2.00D  GRAD.:     0.191 HEAT:  14.78014
 CYCLE:   157 TIME:   0.012 TIME LEFT:  2.00D  GRAD.:     0.231 HEAT:  14.78004
 CYCLE:   158 TIME:   0.012 TIME LEFT:  2.00D  GRAD.:     0.364 HEAT:  14.77974
 CYCLE:   159 TIME:   0.012 TIME LEFT:  2.00D  GRAD.:     0.311 HEAT:  14.77955
 CYCLE:   160 TIME:   0.012 TIME LEFT:  2.00D  GRAD.:     0.426 HEAT:  14.77921
 CYCLE:   161 TIME:   0.012 TIME LEFT:  2.00D  GRAD.:     0.246 HEAT:  14.77899
 CYCLE:   162 TIME:   0.012 TIME LEFT:  2.00D  GRAD.:     0.107 HEAT:  14.77882
 CYCLE:   163 TIME:   0.012 TIME LEFT:  2.00D  GRAD.:     0.107 HEAT:  14.77873
 CYCLE:   164 TIME:   0.012 TIME LEFT:  2.00D  GRAD.:     0.090 HEAT:  14.77868
 CYCLE:   165 TIME:   0.012 TIME LEFT:  2.00D  GRAD.:     0.079 HEAT:  14.77867
 CYCLE:   166 TIME:   0.012 TIME LEFT:  2.00D  GRAD.:     0.100 HEAT:  14.77865
 CYCLE:   167 TIME:   0.012 TIME LEFT:  2.00D  GRAD.:     0.061 HEAT:  14.77864
 CYCLE:   168 TIME:   0.008 TIME LEFT:  2.00D  GRAD.:     0.080 HEAT:  14.77863
 CYCLE:   169 TIME:   0.016 TIME LEFT:  2.00D  GRAD.:     0.081 HEAT:  14.77862
 CYCLE:   170 TIME:   0.008 TIME LEFT:  2.00D  GRAD.:     0.059 HEAT:  14.77861
 CYCLE:   171 TIME:   0.012 TIME LEFT:  2.00D  GRAD.:     0.061 HEAT:  14.77860
 CYCLE:   172 TIME:   0.012 TIME LEFT:  2.00D  GRAD.:     0.066 HEAT:  14.77859
 CYCLE:   173 TIME:   0.012 TIME LEFT:  2.00D  GRAD.:     0.099 HEAT:  14.77857
 CYCLE:   174 TIME:   0.012 TIME LEFT:  2.00D  GRAD.:     0.083 HEAT:  14.77856
 CYCLE:   175 TIME:   0.008 TIME LEFT:  2.00D  GRAD.:     0.209 HEAT:  14.77852
 CYCLE:   176 TIME:   0.012 TIME LEFT:  2.00D  GRAD.:     0.125 HEAT:  14.77849
 CYCLE:   177 TIME:   0.012 TIME LEFT:  2.00D  GRAD.:     0.081 HEAT:  14.77845
 CYCLE:   178 TIME:   0.012 TIME LEFT:  2.00D  GRAD.:     0.108 HEAT:  14.77842
 CYCLE:   179 TIME:   0.008 TIME LEFT:  2.00D  GRAD.:     0.086 HEAT:  14.77840
 CYCLE:   180 TIME:   0.016 TIME LEFT:  2.00D  GRAD.:     0.129 HEAT:  14.77839
 CYCLE:   181 TIME:   0.008 TIME LEFT:  2.00D  GRAD.:     0.046 HEAT:  14.77836

     GRADIENT =  0.04570 IS LESS THAN CUTOFF =  0.05000



 -------------------------------------------------------------------------------
 pm3  precise nosym THREADS=1
 InChI=1S/C12H20/c1-4-6-7-10(3)12-8-11(5-2)9-12/h4,7,10-12H,5,8-9H2,1-3H3



     GEOMETRY OPTIMISED USING EIGENVECTOR FOLLOWING (EF).     
     SCF FIELD WAS ACHIEVED                                   


                              PM3 CALCULATION
                                                       MOPAC v23.1.2 MacOS
                                                       Tue Jun  3 16:42:12 2025




          FINAL HEAT OF FORMATION =         14.77836 KCAL/MOL =      61.83266 KJ/MOL


          COSMO AREA              =        231.47 SQUARE ANGSTROMS
          COSMO VOLUME            =        253.37 CUBIC ANGSTROMS

          GRADIENT NORM           =          0.04570          =       0.00808 PER ATOM
          IONIZATION POTENTIAL    =          9.760357 EV
          HOMO LUMO ENERGIES (EV) =         -9.760  1.063
          NO. OF FILLED LEVELS    =         34
          MOLECULAR WEIGHT        =        164.2900         POINT GROUP:  C1  

          MOLECULAR DIMENSIONS (Angstroms)

            Atom       Atom       Distance
            H    28    H    19     7.97247
            H    27    H    23     7.78077
            H    20    H    22     4.03168


          SCF CALCULATIONS        =        189

          WALL-CLOCK TIME         =      2.148 SECONDS
          COMPUTATION TIME        =      1.596 SECONDS




   ATOM   CHEMICAL          X               Y               Z
  NUMBER   SYMBOL      (ANGSTROMS)     (ANGSTROMS)     (ANGSTROMS)

     1       C          0.36594218  *  -1.20007648  *  -0.90875548  *
     2       C          2.10564813  *   0.00970075  *  -0.33030566  *
     3       C         -0.82755967  *  -1.53802813  *  -0.01955449  *
     4       C          1.74898704  *  -1.49524079  *  -0.27716638  *
     5       C          0.72747982  *   0.30405868  *  -0.96913467  *
     6       C          2.33794600  *   0.64215421  *   1.02630394  *
     7       C         -1.02697399  *  -3.04315475  *   0.07070273  *
     8       C          2.61664104  *   2.12427485  *   0.91717517  *
     9       C         -2.79434691  *   2.54429389  *   0.25501597  *
    10       C         -2.06288340  *  -0.89846306  *  -0.58095176  *
    11       C         -3.19433378  *   1.15032281  *   0.56156177  *
    12       C         -2.63627689  *   0.12113898  *  -0.00966704  *
    13       H          2.95771132  *   0.23665032  *  -1.00499008  *
    14       H          0.23101600  *  -1.66016356  *  -1.91022099  *
    15       H         -0.63123020  *  -1.13736464  *   1.00665312  *
    16       H          1.45878760  *   0.46755389  *   1.67994419  *
    17       H          3.18590684  *   0.13042195  *   1.52304438  *
    18       H          1.71487479  *  -1.92611785  *   0.73670040  *
    19       H          2.39920425  *  -2.14226246  *  -0.88390586  *
    20       H          0.77388030  *   0.72118955  *  -1.98576248  *
    21       H          0.06719630  *   0.96180575  *  -0.37777608  *
    22       H          2.78120788  *   2.57222921  *   1.90530553  *
    23       H          3.50982334  *   2.32639712  *   0.31121275  *
    24       H          1.77743503  *   2.65695556  *   0.44940958  *
    25       H         -1.22909765  *  -3.48770991  *  -0.91321909  *
    26       H         -0.13386567  *  -3.53582806  *   0.47766826  *
    27       H         -1.87183949  *  -3.29282399  *   0.72477025  *
    28       H         -3.60319605  *   3.06883685  *  -0.27078652  *
    29       H         -2.58486647  *   3.09727994  *   1.18011703  *
    30       H         -1.89548993  *   2.59605420  *  -0.37415173  *
    31       H         -3.99209511  *   1.00228474  *   1.29934062  *
    32       H         -2.46539425  *  -1.31295921  *  -1.51362228  *

                             CARTESIAN COORDINATES

   1    C        0.365942176    -1.200076479    -0.908755485
   2    C        2.105648128     0.009700746    -0.330305660
   3    C       -0.827559666    -1.538028127    -0.019554493
   4    C        1.748987039    -1.495240794    -0.277166375
   5    C        0.727479821     0.304058681    -0.969134675
   6    C        2.337945995     0.642154212     1.026303937
   7    C       -1.026973987    -3.043154754     0.070702727
   8    C        2.616641044     2.124274847     0.917175173
   9    C       -2.794346914     2.544293886     0.255015966
  10    C       -2.062883398    -0.898463055    -0.580951765
  11    C       -3.194333778     1.150322814     0.561561770
  12    C       -2.636276888     0.121138982    -0.009667036
  13    H        2.957711322     0.236650320    -1.004990080
  14    H        0.231015995    -1.660163559    -1.910220986
  15    H       -0.631230202    -1.137364641     1.006653120
  16    H        1.458787597     0.467553887     1.679944187
  17    H        3.185906844     0.130421946     1.523044378
  18    H        1.714874786    -1.926117852     0.736700396
  19    H        2.399204247    -2.142262457    -0.883905862
  20    H        0.773880303     0.721189552    -1.985762480
  21    H        0.067196302     0.961805753    -0.377776078
  22    H        2.781207877     2.572229210     1.905305534
  23    H        3.509823341     2.326397120     0.311212747
  24    H        1.777435034     2.656955562     0.449409578
  25    H       -1.229097649    -3.487709911    -0.913219091
  26    H       -0.133865674    -3.535828058     0.477668260
  27    H       -1.871839490    -3.292823990     0.724770254
  28    H       -3.603196054     3.068836847    -0.270786524
  29    H       -2.584866467     3.097279936     1.180117026
  30    H       -1.895489930     2.596054202    -0.374151734
  31    H       -3.992095106     1.002284738     1.299340618
  32    H       -2.465394249    -1.312959206    -1.513622278


           Empirical Formula: C12 H20  =    32 atoms



      MOLECULAR POINT GROUP   :   C1  


                  EIGENVALUES  
 -42.02018 -36.72012 -34.49899 -31.83084 -28.53232 -25.89797 -24.50937 -23.76201
 -22.03010 -19.83394 -19.04618 -17.67926 -17.11532 -16.41665 -16.18560 -15.32563
 -15.09614 -14.93484 -14.38645 -14.20204 -13.98747 -13.77116 -13.09104 -12.88392
 -12.81368 -12.75786 -12.55344 -12.03193 -11.95501 -11.46001 -11.25894 -11.14072
  -9.91316  -9.76036   1.06315   1.12552   2.99591   3.28857   3.41457   3.46771
   3.66791   3.67546   3.85137   3.91509   3.96799   4.01230   4.04712   4.12190
   4.14926   4.18430   4.25398   4.42612   4.43271   4.46494   4.54633   4.55614
   4.60155   4.66859   4.73046   4.87497   4.97237   5.02462   5.14185   5.18762
   5.32223   5.53757   5.68102   6.62650


              NET ATOMIC CHARGES AND DIPOLE CONTRIBUTIONS

  ATOM NO.   TYPE          CHARGE      No. of ELECS.   s-Pop       p-Pop       
    1          C          -0.089143        4.0891     1.19262     2.89653
    2          C          -0.092613        4.0926     1.19019     2.90243
    3          C          -0.027786        4.0278     1.16360     2.86418
    4          C          -0.111642        4.1116     1.17817     2.93347
    5          C          -0.115229        4.1152     1.17857     2.93666
    6          C          -0.089989        4.0900     1.15752     2.93247
    7          C          -0.110223        4.1102     1.14138     2.96885
    8          C          -0.109388        4.1094     1.13795     2.97144
    9          C          -0.065825        4.0658     1.12341     2.94241
   10          C          -0.066113        4.0661     1.16420     2.90191
   11          C          -0.071285        4.0713     1.15890     2.91238
   12          C          -0.201954        4.2020     1.21442     2.98754
   13          H           0.071189        0.9288     0.92881
   14          H           0.072437        0.9276     0.92756
   15          H           0.072482        0.9275     0.92752
   16          H           0.052652        0.9473     0.94735
   17          H           0.048884        0.9511     0.95112
   18          H           0.063246        0.9368     0.93675
   19          H           0.055336        0.9447     0.94466
   20          H           0.055774        0.9442     0.94423
   21          H           0.071389        0.9286     0.92861
   22          H           0.036694        0.9633     0.96331
   23          H           0.037607        0.9624     0.96239
   24          H           0.039255        0.9607     0.96074
   25          H           0.039939        0.9601     0.96006
   26          H           0.041537        0.9585     0.95846
   27          H           0.042013        0.9580     0.95799
   28          H           0.044975        0.9550     0.95503
   29          H           0.042908        0.9571     0.95709
   30          H           0.044936        0.9551     0.95506
   31          H           0.106898        0.8931     0.89310
   32          H           0.111040        0.8890     0.88896
 DIPOLE           X         Y         Z       TOTAL
 POINT-CHG.     0.137     0.171     0.141     0.260
 HYBRID        -0.065    -0.017    -0.043     0.079
 SUM            0.072     0.155     0.098     0.197


          ATOMIC ORBITAL ELECTRON POPULATIONS

     Atom    s        px        py        pz   
    1  C   1.19262   0.93824   0.96849   0.98979
    2  C   1.19019   0.97399   0.95666   0.97177
    3  C   1.16360   0.92363   0.95171   0.98884
    4  C   1.17817   0.96473   0.95748   1.01126
    5  C   1.17857   0.96824   0.95814   1.01028
    6  C   1.15752   1.01400   0.95733   0.96114
    7  C   1.14138   1.00995   0.94758   1.01132
    8  C   1.13795   1.00777   0.95637   1.00729
    9  C   1.12341   1.00390   0.93428   1.00424
   10  C   1.16420   0.96406   0.95230   0.98555
   11  C   1.15890   0.99476   0.92366   0.99396
   12  C   1.21442   1.00284   0.98061   1.00409
   13  H   0.92881
   14  H   0.92756
   15  H   0.92752
   16  H   0.94735
   17  H   0.95112
   18  H   0.93675
   19  H   0.94466
   20  H   0.94423
   21  H   0.92861
   22  H   0.96331
   23  H   0.96239
   24  H   0.96074
   25  H   0.96006
   26  H   0.95846
   27  H   0.95799
   28  H   0.95503
   29  H   0.95709
   30  H   0.95506
   31  H   0.89310
   32  H   0.88896
 *******************************************************************************
 **                                                                           **
 **                              MOPAC v23.1.2                                **
 **                                                                           **
 *******************************************************************************
 **          Digital Object Identifier (DOI): 10.5281/zenodo.6511958          **
 **    Visit the DOI location for information on how to cite this program.    **
 *******************************************************************************

                              PM3 CALCULATION RESULTS

 *******************************************************************************
 *  CALCULATION DONE: (MAX THREADS = 1)              Tue Jun  3 16:42:12 2025  *
 *  PM3        - The PM3 Hamiltonian to be used
 *  OLDGEO     - PREVIOUS GEOMETRY TO BE USED
 *  PRECISE    - TIGHTER CRITERIA TO BE USED
 *  NOSYM      - POINT-GROUP SYMMETRY SET TO C1
 *  THREADS=1  - MULTI-THREADING NOT USED
 *  T=         - A TIME OF 172800.0 SECONDS REQUESTED
 *  DUMP=N     - RESTART FILE WRITTEN EVERY 7200.0 SECONDS REQUESTED
 *  THERMO     - THERMODYNAMIC QUANTITIES TO BE CALCULATED
 *******************************************************************************
oldgeo thermo nosym precise THREADS=1  pm3
 InChI=1S/C12H20/c1-4-6-7-10(3)12-8-11(5-2)9-12/h4,7,10-12H,5,8-9H2,1-3H3

   ATOM   CHEMICAL          X               Y               Z
  NUMBER   SYMBOL      (ANGSTROMS)     (ANGSTROMS)     (ANGSTROMS)

     1       C          0.36594218  *  -1.20007648  *  -0.90875548  *
     2       C          2.10564813  *   0.00970075  *  -0.33030566  *
     3       C         -0.82755967  *  -1.53802813  *  -0.01955449  *
     4       C          1.74898704  *  -1.49524079  *  -0.27716638  *
     5       C          0.72747982  *   0.30405868  *  -0.96913467  *
     6       C          2.33794600  *   0.64215421  *   1.02630394  *
     7       C         -1.02697399  *  -3.04315475  *   0.07070273  *
     8       C          2.61664104  *   2.12427485  *   0.91717517  *
     9       C         -2.79434691  *   2.54429389  *   0.25501597  *
    10       C         -2.06288340  *  -0.89846306  *  -0.58095176  *
    11       C         -3.19433378  *   1.15032281  *   0.56156177  *
    12       C         -2.63627689  *   0.12113898  *  -0.00966704  *
    13       H          2.95771132  *   0.23665032  *  -1.00499008  *
    14       H          0.23101600  *  -1.66016356  *  -1.91022099  *
    15       H         -0.63123020  *  -1.13736464  *   1.00665312  *
    16       H          1.45878760  *   0.46755389  *   1.67994419  *
    17       H          3.18590684  *   0.13042195  *   1.52304438  *
    18       H          1.71487479  *  -1.92611785  *   0.73670040  *
    19       H          2.39920425  *  -2.14226246  *  -0.88390586  *
    20       H          0.77388030  *   0.72118955  *  -1.98576248  *
    21       H          0.06719630  *   0.96180575  *  -0.37777608  *
    22       H          2.78120788  *   2.57222921  *   1.90530553  *
    23       H          3.50982334  *   2.32639712  *   0.31121275  *
    24       H          1.77743503  *   2.65695556  *   0.44940958  *
    25       H         -1.22909765  *  -3.48770991  *  -0.91321909  *
    26       H         -0.13386567  *  -3.53582806  *   0.47766826  *
    27       H         -1.87183949  *  -3.29282399  *   0.72477025  *
    28       H         -3.60319605  *   3.06883685  *  -0.27078652  *
    29       H         -2.58486647  *   3.09727994  *   1.18011703  *
    30       H         -1.89548993  *   2.59605420  *  -0.37415173  *
    31       H         -3.99209511  *   1.00228474  *   1.29934062  *
    32       H         -2.46539425  *  -1.31295921  *  -1.51362228  *



          CARTESIAN COORDINATES 

    NO.       ATOM           X           Y           Z

     1         C          0.3659     -1.2001     -0.9088
     2         C          2.1056      0.0097     -0.3303
     3         C         -0.8276     -1.5380     -0.0196
     4         C          1.7490     -1.4952     -0.2772
     5         C          0.7275      0.3041     -0.9691
     6         C          2.3379      0.6422      1.0263
     7         C         -1.0270     -3.0432      0.0707
     8         C          2.6166      2.1243      0.9172
     9         C         -2.7943      2.5443      0.2550
    10         C         -2.0629     -0.8985     -0.5810
    11         C         -3.1943      1.1503      0.5616
    12         C         -2.6363      0.1211     -0.0097
    13         H          2.9577      0.2367     -1.0050
    14         H          0.2310     -1.6602     -1.9102
    15         H         -0.6312     -1.1374      1.0067
    16         H          1.4588      0.4676      1.6799
    17         H          3.1859      0.1304      1.5230
    18         H          1.7149     -1.9261      0.7367
    19         H          2.3992     -2.1423     -0.8839
    20         H          0.7739      0.7212     -1.9858
    21         H          0.0672      0.9618     -0.3778
    22         H          2.7812      2.5722      1.9053
    23         H          3.5098      2.3264      0.3112
    24         H          1.7774      2.6570      0.4494
    25         H         -1.2291     -3.4877     -0.9132
    26         H         -0.1339     -3.5358      0.4777
    27         H         -1.8718     -3.2928      0.7248
    28         H         -3.6032      3.0688     -0.2708
    29         H         -2.5849      3.0973      1.1801
    30         H         -1.8955      2.5961     -0.3742
    31         H         -3.9921      1.0023      1.2993
    32         H         -2.4654     -1.3130     -1.5136

  H: (PM3): J. J. P. STEWART, J. COMP. CHEM. 10, 209 (1989).
  C: (PM3): J. J. P. STEWART, J. COMP. CHEM. 10, 209 (1989).

           Empirical Formula: C12 H20  =    32 atoms



      MOLECULAR POINT GROUP   :   C1  


      RHF CALCULATION, NO. OF DOUBLY OCCUPIED LEVELS = 34



          HEAT OF FORMATION =      14.778359 KCALS/MOLE


          CARTESIAN COORDINATE DERIVATIVES

   NUMBER  ATOM         X            Y            Z

     1       C     -0.000157     0.001734    -0.002562
     2       C     -0.004914    -0.000210    -0.004410
     3       C     -0.000743     0.000140     0.001401
     4       C     -0.001305    -0.000510     0.001128
     5       C     -0.002885     0.003106    -0.004480
     6       C     -0.004818     0.000002    -0.005833
     7       C      0.000265     0.003071    -0.002188
     8       C     -0.000321    -0.001224    -0.008750
     9       C      0.000901    -0.003313     0.006365
    10       C      0.004367     0.005784    -0.005560
    11       C      0.015298    -0.003016    -0.002530
    12       C     -0.008423    -0.002374     0.005555
    13       H     -0.001258     0.000485     0.001000
    14       H     -0.003218     0.002323    -0.008389
    15       H      0.004280    -0.000117    -0.000719
    16       H      0.010209    -0.001191     0.003215
    17       H     -0.005543     0.003428    -0.003901
    18       H      0.007268    -0.000012     0.004112
    19       H      0.001622    -0.000640     0.009034
    20       H      0.003861     0.000299     0.000071
    21       H     -0.002364    -0.002190     0.005991
    22       H     -0.018938     0.001194     0.000134
    23       H     -0.008792     0.004639    -0.001316
    24       H      0.008316     0.003412     0.003248
    25       H      0.002145    -0.001792     0.005111
    26       H      0.000387    -0.001975    -0.002700
    27       H     -0.000201    -0.001080     0.004895
    28       H      0.002375     0.000779     0.005726
    29       H      0.002895    -0.003606     0.001241
    30       H      0.004967    -0.008054    -0.001690
    31       H     -0.003639    -0.001836     0.006160
    32       H     -0.001638     0.002742    -0.009358



          GRADIENT NORM =   0.04654

          MOLECULAR WEIGHT =  164.29



          ROTATIONAL CONSTANTS IN CM(-1)

          A =    0.03205245   B =    0.02150110   C =    0.01430241



           PRINCIPAL MOMENTS OF INERTIA IN UNITS OF 10**(-40)*GRAM-CM**2

          A =      873.3421   B =     1301.9220   C =     1957.2048


          ORIENTATION OF MOLECULE IN FORCE CALCULATION

    NO.       ATOM         X         Y         Z

     1          C      -0.4208   -1.1761    0.8900
     2          C       1.7758   -1.1761    0.8900
     3          C      -1.3180    0.0585    0.8900
     4          C       0.6784   -1.1786    1.9812
     5          C       0.6781   -1.1822   -0.2005
     6          C       2.6653    0.0498    0.9053
     7          C      -2.2812    0.0284    2.0667
     8          C       3.6736    0.0288   -0.2213
     9          C      -0.5550    1.5946   -3.3133
    10          C      -2.0920    0.1108   -0.3939
    11          C      -1.5589    1.8541   -2.2540
    12          C      -1.8341    0.9849   -1.3236
    13          H       2.3979   -2.0957    0.8892
    14          H      -1.0448   -2.0945    0.8902
    15          H      -0.6716    0.9679    0.9754
    16          H       2.0450    0.9674    0.8435
    17          H       3.1859    0.1062    1.8817
    18          H       0.6811   -0.2955    2.6406
    19          H       0.6772   -2.0679    2.6283
    20          H       0.6769   -2.0743   -0.8438
    21          H       0.6731   -0.3016   -0.8660
    22          H       4.3109    0.9220   -0.2018
    23          H       4.3328   -0.8473   -0.1606
    24          H       3.1792   -0.0020   -1.2018
    25          H      -2.9452   -0.8458    2.0282
    26          H      -1.7380   -0.0123    3.0203
    27          H      -2.9156    0.9234    2.0831
    28          H      -1.0452    1.4980   -4.2911
    29          H       0.1591    2.4260   -3.3793
    30          H       0.0197    0.6761   -3.1332
    31          H      -2.0780    2.8199   -2.2729
    32          H      -2.8847   -0.6344   -0.5350


    FIRST DERIVATIVES WILL BE USED IN THE CALCULATION OF SECOND DERIVATIVES

          ESTIMATED TIME TO COMPLETE CALCULATION =        4.50 SECONDS

    FOR POINT-GROUP C1   THERE ARE   1 UNIQUE SYMMETRY FUNCTIONS.

 STEP:   1 TIME =     0.04 SECS, INTEGRAL =      0.04 TIME LEFT: 172799.95
 STEP:   2 TIME =     0.04 SECS, INTEGRAL =      0.07 TIME LEFT: 172799.92
 STEP:   3 TIME =     0.04 SECS, INTEGRAL =      0.11 TIME LEFT: 172799.88
 STEP:   4 TIME =     0.04 SECS, INTEGRAL =      0.14 TIME LEFT: 172799.84
 STEP:   5 TIME =     0.04 SECS, INTEGRAL =      0.18 TIME LEFT: 172799.81
 STEP:   6 TIME =     0.04 SECS, INTEGRAL =      0.21 TIME LEFT: 172799.77
 STEP:   7 TIME =     0.04 SECS, INTEGRAL =      0.25 TIME LEFT: 172799.73
 STEP:   8 TIME =     0.04 SECS, INTEGRAL =      0.29 TIME LEFT: 172799.70
 STEP:   9 TIME =     0.04 SECS, INTEGRAL =      0.33 TIME LEFT: 172799.66
 STEP:  10 TIME =     0.04 SECS, INTEGRAL =      0.37 TIME LEFT: 172799.62
 STEP:  11 TIME =     0.04 SECS, INTEGRAL =      0.41 TIME LEFT: 172799.58
 STEP:  12 TIME =     0.04 SECS, INTEGRAL =      0.44 TIME LEFT: 172799.55
 STEP:  13 TIME =     0.04 SECS, INTEGRAL =      0.48 TIME LEFT: 172799.51
 STEP:  14 TIME =     0.04 SECS, INTEGRAL =      0.52 TIME LEFT: 172799.47
 STEP:  15 TIME =     0.04 SECS, INTEGRAL =      0.56 TIME LEFT: 172799.43
 STEP:  16 TIME =     0.04 SECS, INTEGRAL =      0.59 TIME LEFT: 172799.39
 STEP:  17 TIME =     0.04 SECS, INTEGRAL =      0.63 TIME LEFT: 172799.36
 STEP:  18 TIME =     0.04 SECS, INTEGRAL =      0.67 TIME LEFT: 172799.32
 STEP:  19 TIME =     0.04 SECS, INTEGRAL =      0.70 TIME LEFT: 172799.29
 STEP:  20 TIME =     0.04 SECS, INTEGRAL =      0.75 TIME LEFT: 172799.24
 STEP:  21 TIME =     0.04 SECS, INTEGRAL =      0.78 TIME LEFT: 172799.21
 STEP:  22 TIME =     0.04 SECS, INTEGRAL =      0.82 TIME LEFT: 172799.17
 STEP:  23 TIME =     0.04 SECS, INTEGRAL =      0.86 TIME LEFT: 172799.13
 STEP:  24 TIME =     0.04 SECS, INTEGRAL =      0.89 TIME LEFT: 172799.09
 STEP:  25 TIME =     0.04 SECS, INTEGRAL =      0.93 TIME LEFT: 172799.06
 STEP:  26 TIME =     0.04 SECS, INTEGRAL =      0.97 TIME LEFT: 172799.02
 STEP:  27 TIME =     0.04 SECS, INTEGRAL =      1.01 TIME LEFT: 172798.98
 STEP:  28 TIME =     0.04 SECS, INTEGRAL =      1.04 TIME LEFT: 172798.95
 STEP:  29 TIME =     0.04 SECS, INTEGRAL =      1.08 TIME LEFT: 172798.91
 STEP:  30 TIME =     0.04 SECS, INTEGRAL =      1.11 TIME LEFT: 172798.88
 STEP:  31 TIME =     0.04 SECS, INTEGRAL =      1.15 TIME LEFT: 172798.84
 STEP:  32 TIME =     0.04 SECS, INTEGRAL =      1.19 TIME LEFT: 172798.80
 STEP:  33 TIME =     0.04 SECS, INTEGRAL =      1.23 TIME LEFT: 172798.76
 STEP:  34 TIME =     0.04 SECS, INTEGRAL =      1.27 TIME LEFT: 172798.71
 STEP:  35 TIME =     0.04 SECS, INTEGRAL =      1.31 TIME LEFT: 172798.68
 STEP:  36 TIME =     0.04 SECS, INTEGRAL =      1.35 TIME LEFT: 172798.64
 STEP:  37 TIME =     0.04 SECS, INTEGRAL =      1.39 TIME LEFT: 172798.60
 STEP:  38 TIME =     0.04 SECS, INTEGRAL =      1.43 TIME LEFT: 172798.56
 STEP:  39 TIME =     0.04 SECS, INTEGRAL =      1.47 TIME LEFT: 172798.52
 STEP:  40 TIME =     0.04 SECS, INTEGRAL =      1.51 TIME LEFT: 172798.48
 STEP:  41 TIME =     0.04 SECS, INTEGRAL =      1.54 TIME LEFT: 172798.45
 STEP:  42 TIME =     0.04 SECS, INTEGRAL =      1.58 TIME LEFT: 172798.41
 STEP:  43 TIME =     0.04 SECS, INTEGRAL =      1.62 TIME LEFT: 172798.37
 STEP:  44 TIME =     0.04 SECS, INTEGRAL =      1.66 TIME LEFT: 172798.33
 STEP:  45 TIME =     0.04 SECS, INTEGRAL =      1.70 TIME LEFT: 172798.29
 STEP:  46 TIME =     0.04 SECS, INTEGRAL =      1.73 TIME LEFT: 172798.25
 STEP:  47 TIME =     0.04 SECS, INTEGRAL =      1.77 TIME LEFT: 172798.22
 STEP:  48 TIME =     0.04 SECS, INTEGRAL =      1.81 TIME LEFT: 172798.18
 STEP:  49 TIME =     0.04 SECS, INTEGRAL =      1.85 TIME LEFT: 172798.14
 STEP:  50 TIME =     0.04 SECS, INTEGRAL =      1.89 TIME LEFT: 172798.10
 STEP:  51 TIME =     0.04 SECS, INTEGRAL =      1.93 TIME LEFT: 172798.06
 STEP:  52 TIME =     0.04 SECS, INTEGRAL =      1.96 TIME LEFT: 172798.02
 STEP:  53 TIME =     0.04 SECS, INTEGRAL =      2.00 TIME LEFT: 172797.98
 STEP:  54 TIME =     0.04 SECS, INTEGRAL =      2.04 TIME LEFT: 172797.95
 STEP:  55 TIME =     0.04 SECS, INTEGRAL =      2.09 TIME LEFT: 172797.90
 STEP:  56 TIME =     0.04 SECS, INTEGRAL =      2.12 TIME LEFT: 172797.87
 STEP:  57 TIME =     0.04 SECS, INTEGRAL =      2.16 TIME LEFT: 172797.83
 STEP:  58 TIME =     0.04 SECS, INTEGRAL =      2.20 TIME LEFT: 172797.79
 STEP:  59 TIME =     0.04 SECS, INTEGRAL =      2.23 TIME LEFT: 172797.75
 STEP:  60 TIME =     0.04 SECS, INTEGRAL =      2.27 TIME LEFT: 172797.71
 STEP:  61 TIME =     0.04 SECS, INTEGRAL =      2.31 TIME LEFT: 172797.68
 STEP:  62 TIME =     0.04 SECS, INTEGRAL =      2.35 TIME LEFT: 172797.64
 STEP:  63 TIME =     0.04 SECS, INTEGRAL =      2.39 TIME LEFT: 172797.60
 STEP:  64 TIME =     0.04 SECS, INTEGRAL =      2.42 TIME LEFT: 172797.57
 STEP:  65 TIME =     0.04 SECS, INTEGRAL =      2.46 TIME LEFT: 172797.53
 STEP:  66 TIME =     0.04 SECS, INTEGRAL =      2.50 TIME LEFT: 172797.49
 STEP:  67 TIME =     0.04 SECS, INTEGRAL =      2.53 TIME LEFT: 172797.46
 STEP:  68 TIME =     0.04 SECS, INTEGRAL =      2.57 TIME LEFT: 172797.42
 STEP:  69 TIME =     0.04 SECS, INTEGRAL =      2.61 TIME LEFT: 172797.38
 STEP:  70 TIME =     0.04 SECS, INTEGRAL =      2.65 TIME LEFT: 172797.34
 STEP:  71 TIME =     0.04 SECS, INTEGRAL =      2.69 TIME LEFT: 172797.30
 STEP:  72 TIME =     0.04 SECS, INTEGRAL =      2.72 TIME LEFT: 172797.27
 STEP:  73 TIME =     0.04 SECS, INTEGRAL =      2.76 TIME LEFT: 172797.23
 STEP:  74 TIME =     0.04 SECS, INTEGRAL =      2.80 TIME LEFT: 172797.19
 STEP:  75 TIME =     0.04 SECS, INTEGRAL =      2.84 TIME LEFT: 172797.15
 STEP:  76 TIME =     0.04 SECS, INTEGRAL =      2.88 TIME LEFT: 172797.11
 STEP:  77 TIME =     0.04 SECS, INTEGRAL =      2.92 TIME LEFT: 172797.07
 STEP:  78 TIME =     0.04 SECS, INTEGRAL =      2.96 TIME LEFT: 172797.03
 STEP:  79 TIME =     0.04 SECS, INTEGRAL =      3.00 TIME LEFT: 172796.99
 STEP:  80 TIME =     0.04 SECS, INTEGRAL =      3.03 TIME LEFT: 172796.96
 STEP:  81 TIME =     0.04 SECS, INTEGRAL =      3.07 TIME LEFT: 172796.92
 STEP:  82 TIME =     0.04 SECS, INTEGRAL =      3.11 TIME LEFT: 172796.88
 STEP:  83 TIME =     0.04 SECS, INTEGRAL =      3.15 TIME LEFT: 172796.84
 STEP:  84 TIME =     0.04 SECS, INTEGRAL =      3.19 TIME LEFT: 172796.80
 STEP:  85 TIME =     0.04 SECS, INTEGRAL =      3.23 TIME LEFT: 172796.76
 STEP:  86 TIME =     0.04 SECS, INTEGRAL =      3.27 TIME LEFT: 172796.72
 STEP:  87 TIME =     0.04 SECS, INTEGRAL =      3.30 TIME LEFT: 172796.68
 STEP:  88 TIME =     0.04 SECS, INTEGRAL =      3.34 TIME LEFT: 172796.65
 STEP:  89 TIME =     0.04 SECS, INTEGRAL =      3.38 TIME LEFT: 172796.61
 STEP:  90 TIME =     0.04 SECS, INTEGRAL =      3.41 TIME LEFT: 172796.57
 STEP:  91 TIME =     0.04 SECS, INTEGRAL =      3.46 TIME LEFT: 172796.53
 STEP:  92 TIME =     0.04 SECS, INTEGRAL =      3.50 TIME LEFT: 172796.49
 STEP:  93 TIME =     0.04 SECS, INTEGRAL =      3.54 TIME LEFT: 172796.45
 STEP:  94 TIME =     0.04 SECS, INTEGRAL =      3.57 TIME LEFT: 172796.41
 STEP:  95 TIME =     0.04 SECS, INTEGRAL =      3.61 TIME LEFT: 172796.38
 STEP:  96 TIME =     0.04 SECS, INTEGRAL =      3.66 TIME LEFT: 172796.33

(To convert to Hartree/Bohr^2, multiply by (10^(-21) x N x a0^2)/(4.184 x 627.51) =  0.0642)


           FORCE MATRIX IN MILLIDYNES/ANGSTROM


                  C  1       C  2       C  3       C  4       C  5       C  6
 ------------------------------------------------------------------------------
     C    1  14.418362
     C    2   1.800221  14.556701
     C    3   3.902220   0.039792  14.607307
     C    4   3.441890   3.484433   0.530959  14.326434
     C    5   3.462105   3.483049   0.527001   1.832150  14.318357
     C    6   0.039801   4.304678   0.005916   0.552592   0.544366  14.488394
     C    7   0.647955   0.005077   4.152097   0.038642   0.050577   0.001152
     C    8   0.004840   0.658593   0.001023   0.051127   0.033018   4.472369
     C    9   0.013167   0.000550   0.084403   0.002378   0.002351   0.000211
     C   10   0.693698   0.005121   4.481969   0.048202   0.046792   0.001123
     C   11   0.010530   0.000367   0.067197   0.001160   0.001332   0.000415
     C   12   0.033228   0.001465   0.904547   0.004336   0.024696   0.000458
     H   13   0.028733   4.428374   0.001579   0.427458   0.428455   0.431591
     H   14   4.426394   0.028669   0.437581   0.427750   0.427580   0.002144
     H   15   0.432311   0.002965   4.183435   0.029366   0.019399   0.005248
     H   16   0.002863   0.450603   0.005322   0.021778   0.023579   4.419289
     H   17   0.003359   0.434164   0.000673   0.019103   0.047688   4.456667
     H   18   0.450856   0.451895   0.028202   4.631338   0.028710   0.031712
     H   19   0.441855   0.442243   0.034038   4.713379   0.031051   0.034579
     H   20   0.444184   0.441909   0.034943   0.031183   4.712009   0.034879
     H   21   0.453162   0.450424   0.028315   0.028313   4.587535   0.024903
     H   22   0.000577   0.052602   0.000269   0.008804   0.002315   0.451294
     H   23   0.000321   0.023706   0.000299   0.001644   0.002138   0.464154
     H   24   0.000453   0.020011   0.000379   0.001886   0.007581   0.464207
     H   25   0.022278   0.000348   0.469577   0.002310   0.001598   0.000234
     H   26   0.022949   0.000525   0.455129   0.010506   0.002054   0.000445
     H   27   0.051330   0.000631   0.455456   0.002471   0.008717   0.000270
     H   28   0.001288   0.000145   0.010284   0.000115   0.000368   0.000094
     H   29   0.002147   0.000153   0.010454   0.000491   0.000301   0.000151
     H   30   0.000517   0.000420   0.001072   0.000217   0.006635   0.000224
     H   31   0.010094   0.000199   0.069020   0.001829   0.000837   0.000223
     H   32   0.011218   0.000407   0.446987   0.002323   0.002803   0.000537


                  C  7       C  8       C  9       C 10       C 11       C 12
 ------------------------------------------------------------------------------
     C    7  14.350740
     C    8   0.000698  14.374938
     C    9   0.009086   0.000144  14.625407
     C   10   0.712277   0.000925   0.071129  18.276214
     C   11   0.012595   0.000424   5.103057   0.743224  18.288862
     C   12   0.042261   0.000384   0.955698  11.550583  11.515932  24.953970
     H   13   0.000570   0.030526   0.000084   0.000743   0.000144   0.000168
     H   14   0.028485   0.000576   0.000323   0.020517   0.000547   0.001945
     H   15   0.416846   0.000661   0.001078   0.438661   0.004835   0.050281
     H   16   0.000511   0.437374   0.000105   0.000534   0.000261   0.000462
     H   17   0.000449   0.440179   0.000071   0.000410   0.000138   0.000167
     H   18   0.011361   0.003029   0.000135   0.002459   0.000156   0.000992
     H   19   0.001710   0.006533   0.000380   0.006924   0.000151   0.001019
     H   20   0.006498   0.001789   0.000408   0.002702   0.000208   0.001045
     H   21   0.003311   0.009288   0.006889   0.012467   0.005153   0.015529
     H   22   0.000214   4.752788   0.000089   0.000277   0.000211   0.000149
     H   23   0.000209   4.725365   0.000064   0.000194   0.000151   0.000150
     H   24   0.000237   4.710784   0.000337   0.000244   0.000256   0.000248
     H   25   4.713926   0.000187   0.000221   0.026573   0.000389   0.001722
     H   26   4.722691   0.000261   0.001672   0.050428   0.002339   0.007192
     H   27   4.760736   0.000175   0.000469   0.020052   0.000288   0.003179
     H   28   0.001374   0.000089   4.709749   0.010559   0.436354   0.030951
     H   29   0.000744   0.000168   4.722585   0.009269   0.440387   0.037883
     H   30   0.000502   0.000431   4.728606   0.004947   0.474747   0.037028
     H   31   0.008399   0.000234   0.438063   0.047759   4.753800   0.448167
     H   32   0.021990   0.000192   0.072044   4.736678   0.046754   0.446080


                  H 13       H 14       H 15       H 16       H 17       H 18
 ------------------------------------------------------------------------------
     H   13   4.929560
     H   14   0.002668   4.929287
     H   15   0.000559   0.041308   4.653467
     H   16   0.043871   0.000538   0.010438   5.031187
     H   17   0.025028   0.000667   0.000386   0.568279   5.065912
     H   18   0.030386   0.030412   0.026189   0.016941   0.012021   5.270158
     H   19   0.026540   0.026562   0.001625   0.001326   0.001937   0.553605
     H   20   0.027018   0.026815   0.001390   0.001767   0.006068   0.000974
     H   21   0.029948   0.030093   0.015071   0.022187   0.003580   0.002870
     H   22   0.001976   0.000131   0.000150   0.030136   0.028988   0.000716
     H   23   0.021407   0.000119   0.000221   0.048227   0.024377   0.000464
     H   24   0.001896   0.000306   0.000174   0.024451   0.049016   0.000422
     H   25   0.000118   0.020274   0.045118   0.000165   0.000077   0.000467
     H   26   0.000324   0.001964   0.029473   0.000173   0.000124   0.020941
     H   27   0.000145   0.001951   0.029364   0.000133   0.000120   0.000632
     H   28   0.000034   0.000131   0.000139   0.000078   0.000034   0.000034
     H   29   0.000053   0.000132   0.000328   0.000111   0.000066   0.000050
     H   30   0.000150   0.000168   0.000229   0.000155   0.000108   0.000064
     H   31   0.000079   0.000295   0.000951   0.000159   0.000085   0.000130
     H   32   0.000304   0.007062   0.036365   0.000212   0.000182   0.000703


                  H 19       H 20       H 21       H 22       H 23       H 24
 ------------------------------------------------------------------------------
     H   19   5.331791
     H   20   0.003375   5.329709
     H   21   0.000925   0.551516   5.218163
     H   22   0.001301   0.000335   0.000658   5.489331
     H   23   0.000353   0.000356   0.000509   0.572999   5.467818
     H   24   0.000415   0.000757   0.014513   0.572318   0.576460   5.449627
     H   25   0.000376   0.000334   0.000496   0.000044   0.000048   0.000039
     H   26   0.000927   0.000425   0.000500   0.000090   0.000052   0.000070
     H   27   0.000315   0.001290   0.000756   0.000054   0.000044   0.000069
     H   28   0.000061   0.000115   0.000673   0.000048   0.000042   0.000081
     H   29   0.000116   0.000195   0.000394   0.000082   0.000064   0.000141
     H   30   0.000068   0.000658   0.007869   0.000087   0.000093   0.001093
     H   31   0.000333   0.000087   0.000717   0.000095   0.000069   0.000116
     H   32   0.000640   0.000783   0.001215   0.000067   0.000071   0.000119


                  H 25       H 26       H 27       H 28       H 29       H 30
 ------------------------------------------------------------------------------
     H   25   5.457485
     H   26   0.570701   5.458271
     H   27   0.571673   0.566689   5.492145
     H   28   0.000082   0.000301   0.000155   5.422752
     H   29   0.000108   0.000115   0.000137   0.572361   5.435268
     H   30   0.000085   0.000135   0.000115   0.559048   0.563172   5.439693
     H   31   0.000250   0.001531   0.000484   0.015524   0.024438   0.041261
     H   32   0.018058   0.002192   0.002956   0.009657   0.008047   0.001268


                  H 31       H 32
 ------------------------------
     H   31   5.133939
     H   32   0.059649   5.121897


          HEAT OF FORMATION =      14.778359 KCALS/MOLE

          ZERO POINT ENERGY     180.354 KCAL/MOL


           NORMAL COORDINATE ANALYSIS (Total motion = 1 Angstrom)


   Root No.       1         2         3         4         5         6         7         8

                 1 A       2 A       3 A       4 A       5 A       6 A       7 A       8 A   

                  26.7      39.4      58.9      90.5     108.7     113.2     178.9     180.0
  
           1   -0.0075    0.0015   -0.0001   -0.0044    0.0002    0.0028   -0.0005   -0.0063
           2   -0.0036   -0.0054   -0.0157   -0.0085    0.0039   -0.0028   -0.0020    0.0007
           3    0.0037    0.0181    0.0005   -0.0020   -0.0079    0.0098   -0.0026    0.0132
           4   -0.0075    0.0015   -0.0000   -0.0043    0.0003    0.0028   -0.0008   -0.0069
           5    0.0064    0.0018   -0.0149    0.0074   -0.0014    0.0014    0.0003    0.0015
           6   -0.0124    0.0115    0.0074   -0.0141   -0.0020    0.0100    0.0011   -0.0166
           7   -0.0075   -0.0004    0.0218    0.0027    0.0000    0.0003   -0.0022   -0.0040
           8   -0.0033   -0.0069    0.0005   -0.0031    0.0036   -0.0047   -0.0039    0.0023
           9    0.0125   -0.0042   -0.0060   -0.0005   -0.0100    0.0077   -0.0033    0.0156
          10    0.0005    0.0048   -0.0036    0.0018   -0.0029    0.0030   -0.0026    0.0071
          11   -0.0035    0.0204   -0.0288   -0.0035   -0.0003    0.0057    0.0007   -0.0075
          12   -0.0043    0.0150    0.0039   -0.0083   -0.0051    0.0102   -0.0008   -0.0018
          13   -0.0154   -0.0018    0.0034   -0.0101    0.0034    0.0025    0.0012   -0.0205
          14   -0.0008   -0.0258   -0.0299   -0.0176    0.0076   -0.0068   -0.0001    0.0086
          15   -0.0042    0.0150    0.0039   -0.0083   -0.0051    0.0101   -0.0009   -0.0020
          16   -0.0182   -0.0038   -0.0226   -0.0284    0.0068    0.0013   -0.0002   -0.0063
          17    0.0143    0.0060    0.0019    0.0255   -0.0063    0.0025   -0.0003    0.0010
          18   -0.0181   -0.0185    0.0114   -0.0258    0.0073    0.0004    0.0005   -0.0084
          19   -0.0091   -0.0121    0.0269    0.0100    0.0145   -0.0154    0.0008   -0.0085
          20   -0.0133    0.0035    0.0309    0.0070    0.0222   -0.0239    0.0026    0.0104
          21    0.0108   -0.0135   -0.0012    0.0056    0.0016   -0.0048   -0.0007    0.0117
          22   -0.0320   -0.0115   -0.0302    0.0297   -0.0023   -0.0039   -0.0017    0.0113
          23    0.0285   -0.0120    0.0323   -0.0082    0.0052   -0.0030   -0.0021    0.0050
          24   -0.0308   -0.0252    0.0042    0.0270   -0.0010   -0.0043   -0.0008    0.0076
          25    0.0430    0.0134   -0.0118    0.0017    0.0170   -0.0273   -0.0061    0.0022
          26   -0.0287    0.0356    0.0076   -0.0023    0.0002    0.0009    0.0039    0.0230
          27    0.0159    0.0155   -0.0143    0.0068    0.0254   -0.0356   -0.0072   -0.0170
          28   -0.0039    0.0123    0.0157   -0.0042   -0.0134    0.0126   -0.0082    0.0082
          29    0.0094   -0.0194    0.0015    0.0004   -0.0149    0.0132   -0.0024   -0.0089
          30    0.0108   -0.0123   -0.0022    0.0039   -0.0033    0.0016    0.0003    0.0074
          31    0.0426   -0.0052   -0.0024    0.0036   -0.0118    0.0099    0.0176    0.0055
          32   -0.0057    0.0048    0.0044    0.0018   -0.0113    0.0097    0.0052   -0.0201
          33    0.0099    0.0053   -0.0047    0.0076    0.0009   -0.0029    0.0145   -0.0045
          34    0.0183    0.0029    0.0080   -0.0025   -0.0227    0.0231    0.0054    0.0228
          35    0.0016   -0.0083    0.0032    0.0006   -0.0157    0.0122   -0.0055   -0.0267
          36    0.0095   -0.0046   -0.0027    0.0046   -0.0066    0.0034    0.0009   -0.0056
          37    0.0005    0.0054    0.0156    0.0127   -0.0043    0.0041   -0.0011   -0.0074
          38    0.0118    0.0045   -0.0040    0.0191   -0.0046    0.0023    0.0000    0.0010
          39   -0.0181    0.0292    0.0093   -0.0102   -0.0042    0.0155    0.0028   -0.0326
          40   -0.0072    0.0034   -0.0150   -0.0085    0.0002    0.0050    0.0025   -0.0078
          41   -0.0037   -0.0066   -0.0053   -0.0055    0.0039   -0.0042   -0.0043    0.0017
          42    0.0068    0.0390   -0.0004    0.0067   -0.0121    0.0141   -0.0046    0.0172
          43   -0.0072   -0.0025    0.0393    0.0096    0.0017   -0.0033   -0.0041   -0.0034
          44   -0.0042   -0.0051   -0.0106   -0.0072    0.0044   -0.0040   -0.0017    0.0019
          45    0.0217   -0.0068   -0.0183   -0.0067   -0.0293    0.0266   -0.0093    0.0152
          46   -0.0273   -0.0082   -0.0411   -0.0430    0.0111    0.0001    0.0003   -0.0038
          47    0.0090    0.0021   -0.0096    0.0108   -0.0022    0.0015    0.0001    0.0022
          48   -0.0066   -0.0324    0.0237   -0.0984    0.0251   -0.0019    0.0006   -0.0139
          49   -0.0067    0.0026   -0.0170   -0.0783    0.0149    0.0055    0.0008   -0.0194
          50    0.0149    0.0276    0.0034    0.0804   -0.0228    0.0084   -0.0001   -0.0029
          51   -0.0243   -0.0232    0.0083   -0.0023    0.0040   -0.0022   -0.0001   -0.0009
          52    0.0012    0.0036   -0.0056   -0.0005   -0.0024    0.0012   -0.0057    0.0144
          53   -0.0070    0.0337   -0.0385   -0.0061   -0.0009    0.0095    0.0019   -0.0131
          54    0.0003   -0.0028    0.0168   -0.0047   -0.0043    0.0051   -0.0024    0.0056
          55    0.0093    0.0098   -0.0055    0.0120   -0.0070    0.0048   -0.0025    0.0163
          56   -0.0069    0.0335   -0.0383   -0.0061   -0.0010    0.0095    0.0018   -0.0132
          57   -0.0089    0.0330   -0.0090   -0.0118   -0.0061    0.0155    0.0007   -0.0094
          58   -0.0162   -0.0009    0.0059   -0.0075    0.0032    0.0043    0.0033   -0.0292
          59   -0.0023   -0.0401   -0.0398   -0.0291    0.0116   -0.0106    0.0004    0.0133
          60   -0.0021    0.0348    0.0177    0.0076   -0.0106    0.0154   -0.0016   -0.0085
          61   -0.0245   -0.0067    0.0049   -0.0193    0.0074   -0.0001    0.0013   -0.0291
          62   -0.0023   -0.0404   -0.0401   -0.0295    0.0116   -0.0108    0.0003    0.0134
          63   -0.0063   -0.0043   -0.0095   -0.0238    0.0002    0.0049   -0.0003    0.0042
          64   -0.0382   -0.0145   -0.0452    0.0011    0.0069   -0.0065   -0.0046    0.0762
          65    0.0329   -0.0093    0.0429    0.0126   -0.0016   -0.0009    0.0001   -0.0429
          66   -0.0332   -0.0466    0.0107    0.0079    0.0113   -0.0143   -0.0060    0.0814
          67   -0.0250   -0.0080   -0.0151    0.0539   -0.0108   -0.0009    0.0013   -0.0532
          68    0.0328   -0.0085    0.0427    0.0159   -0.0027   -0.0006    0.0004   -0.0471
          69   -0.0443   -0.0130   -0.0107    0.1114   -0.0232   -0.0005    0.0023   -0.0423
          70   -0.0439   -0.0181   -0.0361    0.0802   -0.0102   -0.0084   -0.0030    0.0260
          71    0.0310   -0.0324    0.0359   -0.0803    0.0292   -0.0123   -0.0083    0.1095
          72   -0.0249   -0.0212    0.0070    0.0039    0.0022   -0.0017   -0.0000   -0.0029
          73   -0.0099   -0.0128    0.0129    0.0039    0.0175   -0.0156    0.1545   -0.0116
          74   -0.0123    0.0041    0.0409    0.0112    0.0189   -0.0229   -0.1197    0.0127
          75    0.0019   -0.0133    0.0128    0.0125    0.0262   -0.0283    0.1285    0.0136
          76   -0.0102   -0.0211    0.0301    0.0154    0.0256   -0.0275    0.0058   -0.0113
          77   -0.0227    0.0102    0.0346    0.0065    0.0429   -0.0410    0.2413    0.0128
          78    0.0110   -0.0082   -0.0028    0.0025   -0.0038    0.0013    0.0064    0.0134
          79   -0.0083   -0.0111    0.0413    0.0160    0.0113   -0.0151   -0.1568   -0.0052
          80   -0.0129    0.0044    0.0412    0.0112    0.0201   -0.0239   -0.1064    0.0129
          81    0.0183   -0.0266   -0.0099    0.0066   -0.0083    0.0027   -0.1369    0.0055
          82    0.0464    0.0284   -0.0212    0.0039    0.0604   -0.0468   -0.0304   -0.0029
          83   -0.0200    0.0382    0.0051    0.0302    0.1422    0.1500    0.0003    0.0380
          84    0.0134    0.0077   -0.0093    0.0026   -0.0100   -0.0405    0.0053   -0.0160
          85    0.0609   -0.0010   -0.0156    0.0229    0.0948    0.0627   -0.0084   -0.0146
          86   -0.0438    0.0496    0.0103   -0.0187   -0.0565   -0.0702    0.0042    0.0389
          87    0.0185    0.0350   -0.0221    0.0274    0.1474    0.0395   -0.0279   -0.0018
          88    0.0228    0.0279   -0.0066   -0.0221   -0.0736   -0.1258   -0.0013    0.0211
          89   -0.0405    0.0441    0.0099   -0.0203   -0.0684   -0.0786    0.0048    0.0299
          90    0.0205    0.0124   -0.0193   -0.0094   -0.0358   -0.1296   -0.0182   -0.0434
          91    0.0638   -0.0262   -0.0052    0.0117   -0.0141    0.0223    0.0378   -0.0171
          92    0.0056   -0.0064    0.0030    0.0062   -0.0128    0.0168    0.0167   -0.0314
          93    0.0058    0.0068    0.0006    0.0114   -0.0057    0.0146    0.0401    0.0099
          94   -0.0190    0.0305    0.0159   -0.0090   -0.0049   -0.0014   -0.0233    0.0069
          95    0.0257   -0.0365    0.0006    0.0049   -0.0254    0.0287    0.0126   -0.0082
          96    0.0103   -0.0240    0.0015    0.0076    0.0065   -0.0040    0.0097    0.0099


   Root No.       9        10        11        12        13        14        15        16

                 9 A      10 A      11 A      12 A      13 A      14 A      15 A      16 A   

                 185.9     199.8     234.4     261.9     346.3     375.1     399.4     440.4
  
           1    0.0019   -0.0021   -0.0004    0.0032   -0.0124    0.0105   -0.0023   -0.0006
           2   -0.0068   -0.0028    0.0047   -0.0096   -0.0253    0.0358   -0.0003    0.0019
           3   -0.0043   -0.0115   -0.0121   -0.0037    0.0017    0.0007    0.0375    0.0097
           4    0.0025   -0.0024   -0.0041    0.0006   -0.0193   -0.0037    0.0010   -0.0042
           5    0.0029    0.0083    0.0062    0.0209    0.0140   -0.0210   -0.0039    0.0311
           6    0.0052    0.0094    0.0147    0.0109   -0.0106   -0.0074    0.0030   -0.0230
           7    0.0021   -0.0084    0.0033    0.0075   -0.0019    0.0126   -0.0105    0.0130
           8   -0.0070   -0.0090    0.0078   -0.0078   -0.0230    0.0302   -0.0042    0.0115
           9   -0.0125   -0.0135    0.0020   -0.0002   -0.0033   -0.0027   -0.0178   -0.0017
          10   -0.0020   -0.0118   -0.0142   -0.0043   -0.0106    0.0062    0.0198    0.0179
          11    0.0142    0.0148    0.0032   -0.0278    0.0259    0.0132   -0.0227   -0.0016
          12    0.0005   -0.0010    0.0021    0.0040   -0.0033   -0.0008    0.0262   -0.0092
          13    0.0069    0.0078    0.0095    0.0098   -0.0227   -0.0021   -0.0215   -0.0214
          14   -0.0228    0.0039   -0.0028    0.0315    0.0108    0.0116    0.0162   -0.0190
          15    0.0008   -0.0013    0.0007    0.0030   -0.0073   -0.0080    0.0280   -0.0093
          16   -0.0030    0.0037   -0.0137   -0.0074    0.0024   -0.0268    0.0010    0.0119
          17    0.0073    0.0036    0.0126    0.0263   -0.0037   -0.0089   -0.0024    0.0179
          18   -0.0055    0.0062    0.0004   -0.0004    0.0084    0.0002   -0.0093    0.0299
          19    0.0047    0.0187    0.0310   -0.0038    0.0235    0.0105    0.0208    0.0038
          20   -0.0035    0.0047   -0.0306    0.0128   -0.0013   -0.0133   -0.0136   -0.0073
          21   -0.0099    0.0085    0.0247   -0.0107    0.0148   -0.0067    0.0050   -0.0109
          22    0.0066   -0.0059   -0.0160   -0.0151   -0.0022   -0.0199    0.0085   -0.0127
          23    0.0020   -0.0061   -0.0179   -0.0280   -0.0006   -0.0063    0.0052   -0.0150
          24    0.0033   -0.0025   -0.0015   -0.0087    0.0058    0.0113   -0.0044    0.0116
          25   -0.0062   -0.0065    0.0137   -0.0057   -0.0030   -0.0087    0.0062    0.0005
          26   -0.0165    0.0156    0.0136   -0.0076   -0.0065   -0.0074    0.0014    0.0005
          27    0.0097   -0.0138   -0.0075    0.0051    0.0008    0.0076   -0.0090    0.0010
          28   -0.0071   -0.0296   -0.0029    0.0139    0.0255    0.0219   -0.0130    0.0008
          29    0.0021   -0.0135    0.0189   -0.0118   -0.0161   -0.0220   -0.0022    0.0037
          30   -0.0061   -0.0015    0.0067   -0.0040   -0.0164   -0.0092   -0.0276    0.0036
          31    0.0032    0.0330   -0.0119    0.0004   -0.0032    0.0071    0.0072    0.0016
          32    0.0168   -0.0022   -0.0106    0.0039    0.0095    0.0070    0.0199    0.0006
          33    0.0112    0.0265   -0.0256    0.0082   -0.0023    0.0179   -0.0094    0.0018
          34   -0.0133    0.0029    0.0015    0.0043    0.0196    0.0006   -0.0302   -0.0123
          35    0.0164   -0.0303    0.0023    0.0014    0.0157   -0.0130    0.0093   -0.0069
          36    0.0058   -0.0090   -0.0089    0.0066    0.0108   -0.0042   -0.0266   -0.0094
          37    0.0071   -0.0057    0.0021    0.0112   -0.0331   -0.0097    0.0010    0.0084
          38    0.0058    0.0059    0.0103    0.0273    0.0043   -0.0238   -0.0037    0.0376
          39    0.0236    0.0206    0.0287   -0.0016   -0.0138   -0.0111   -0.0261   -0.0430
          40    0.0032    0.0055   -0.0040    0.0059    0.0031    0.0012    0.0003   -0.0137
          41   -0.0075   -0.0076    0.0069   -0.0109   -0.0346    0.0408   -0.0023    0.0105
          42    0.0065   -0.0138   -0.0215   -0.0302    0.0133    0.0038    0.0503    0.0349
          43    0.0045   -0.0072   -0.0001    0.0133    0.0095   -0.0104   -0.0151    0.0130
          44   -0.0082   -0.0072    0.0093   -0.0116   -0.0288    0.0455    0.0002    0.0103
          45   -0.0156   -0.0335    0.0069   -0.0005   -0.0093   -0.0035   -0.0320   -0.0010
          46   -0.0049    0.0089   -0.0164   -0.0041    0.0213   -0.0434   -0.0032    0.0461
          47    0.0052    0.0073    0.0093    0.0263    0.0104   -0.0203   -0.0056    0.0419
          48   -0.0181    0.0096   -0.0205   -0.0255    0.0315   -0.0150   -0.0158    0.0730
          49   -0.0101    0.0109   -0.0153   -0.0062    0.0073   -0.0409   -0.0011    0.0259
          50    0.0172    0.0013    0.0356    0.0519   -0.0376    0.0090    0.0065   -0.0432
          51   -0.0021    0.0023   -0.0004   -0.0032    0.0081    0.0066   -0.0087    0.0264
          52   -0.0081   -0.0206   -0.0204   -0.0213   -0.0223    0.0336    0.0356    0.0167
          53    0.0244    0.0234    0.0014   -0.0514    0.0524    0.0194   -0.0418   -0.0189
          54   -0.0128   -0.0122    0.0046    0.0347   -0.0369   -0.0083    0.0498    0.0133
          55   -0.0007   -0.0137   -0.0219    0.0052    0.0109   -0.0190    0.0295    0.0449
          56    0.0245    0.0234    0.0016   -0.0520    0.0532    0.0200   -0.0431   -0.0189
          57    0.0146    0.0106   -0.0001   -0.0287    0.0333    0.0081   -0.0011   -0.0321
          58    0.0138    0.0190    0.0180    0.0280   -0.0083   -0.0327   -0.0353   -0.0172
          59   -0.0365    0.0052   -0.0087    0.0501    0.0256    0.0159    0.0342   -0.0547
          60    0.0196   -0.0030    0.0087   -0.0224   -0.0272   -0.0137    0.0037    0.0387
          61    0.0069    0.0090    0.0160    0.0009   -0.0448    0.0200   -0.0331   -0.0490
          62   -0.0365    0.0051   -0.0088    0.0495    0.0257    0.0153    0.0334   -0.0537
          63   -0.0169    0.0002   -0.0073    0.0258    0.0116   -0.0038    0.0492   -0.0526
          64    0.0946   -0.0109    0.0156    0.0246   -0.0092   -0.0178    0.0047    0.0047
          65   -0.0625   -0.0022   -0.0407   -0.0565    0.0045   -0.0082    0.0079   -0.0275
          66    0.0857   -0.0216   -0.0015   -0.0280   -0.0009    0.0204    0.0063   -0.0317
          67   -0.0801   -0.0003   -0.0467   -0.0530    0.0048   -0.0235    0.0121   -0.0278
          68   -0.0680   -0.0015   -0.0415   -0.0566    0.0048   -0.0088    0.0080   -0.0267
          69   -0.0639    0.0044   -0.0048   -0.0023    0.0072    0.0147   -0.0050    0.0159
          70    0.0142   -0.0146   -0.0192   -0.0253   -0.0068   -0.0114    0.0164   -0.0436
          71    0.1334   -0.0235    0.0009   -0.0215   -0.0092   -0.0018    0.0098   -0.0343
          72   -0.0045    0.0024   -0.0006   -0.0040    0.0085    0.0068   -0.0083    0.0274
          73    0.0007   -0.0203    0.0579   -0.0148    0.0184    0.0290    0.0285    0.0138
          74   -0.0006    0.0347   -0.0515    0.0213    0.0019   -0.0268   -0.0202   -0.0147
          75   -0.0095    0.0043    0.0328   -0.0108    0.0452   -0.0324    0.0221   -0.0297
          76    0.0060    0.0399    0.0565   -0.0155    0.0488    0.0111    0.0567   -0.0060
          77   -0.0067   -0.0416   -0.0244    0.0147    0.0101   -0.0307   -0.0176   -0.0149
          78   -0.0109   -0.0053    0.0110   -0.0041    0.0016   -0.0077   -0.0147   -0.0058
          79    0.0086    0.0586    0.0034    0.0079    0.0303   -0.0085    0.0135   -0.0070
          80   -0.0007    0.0323   -0.0512    0.0216    0.0032   -0.0279   -0.0202   -0.0154
          81   -0.0080    0.0459    0.0516   -0.0267    0.0189    0.0184    0.0374   -0.0061
          82   -0.0147   -0.0485    0.0403   -0.0122   -0.0040   -0.0290    0.0038   -0.0003
          83   -0.0288    0.0147    0.0174   -0.0081   -0.0092   -0.0085   -0.0053   -0.0008
          84    0.0152    0.0071   -0.0210    0.0084    0.0015    0.0177   -0.0072    0.0015
          85    0.0060   -0.0190    0.0015    0.0013    0.0066    0.0018    0.0152   -0.0001
          86   -0.0289    0.0240    0.0267   -0.0144   -0.0155   -0.0185   -0.0073    0.0008
          87   -0.0118   -0.0419    0.0204   -0.0027   -0.0058   -0.0121   -0.0210   -0.0004
          88   -0.0189    0.0110    0.0250   -0.0129   -0.0136   -0.0191   -0.0031    0.0012
          89   -0.0219    0.0212    0.0215   -0.0120   -0.0119   -0.0149   -0.0026    0.0009
          90    0.0236   -0.0428   -0.0037    0.0061    0.0079    0.0036    0.0005    0.0011
          91    0.0282    0.0699   -0.0369    0.0017   -0.0227    0.0148    0.0428    0.0171
          92    0.0298    0.0194   -0.0240    0.0043   -0.0018    0.0109    0.0392    0.0092
          93    0.0118    0.0861   -0.0435    0.0067   -0.0262    0.0306    0.0000    0.0151
          94   -0.0108   -0.0625   -0.0068    0.0249    0.0542    0.0551   -0.0134   -0.0053
          95    0.0064    0.0178    0.0218   -0.0218   -0.0385   -0.0572   -0.0021    0.0057
          96   -0.0071    0.0233    0.0117   -0.0129   -0.0569   -0.0081   -0.0251    0.0254


   Root No.      17        18        19        20        21        22        23        24

                17 A      18 A      19 A      20 A      21 A      22 A      23 A      24 A   

                 449.0     488.0     576.1     594.6     749.0     812.7     830.3     880.9
  
           1    0.0165   -0.0095    0.0006    0.0018    0.0274   -0.0024   -0.0071   -0.0046
           2   -0.0158   -0.0192    0.0170    0.0156    0.0167    0.0093   -0.0032   -0.0163
           3    0.0081    0.0037    0.0080    0.0044    0.0000    0.0003    0.0012    0.0005
           4    0.0094   -0.0198    0.0007   -0.0056   -0.0270    0.0051    0.0047   -0.0067
           5   -0.0169    0.0070    0.0003    0.0033    0.0178   -0.0044   -0.0059    0.0157
           6   -0.0116    0.0083   -0.0012   -0.0000   -0.0001    0.0010   -0.0025   -0.0000
           7    0.0071    0.0418   -0.0123    0.0034    0.0024    0.0008   -0.0019   -0.0032
           8   -0.0210    0.0105    0.0018    0.0064   -0.0215   -0.0061    0.0092    0.0195
           9   -0.0027   -0.0040   -0.0307   -0.0208    0.0028   -0.0001   -0.0014   -0.0017
          10    0.0297   -0.0223    0.0085   -0.0007    0.0005   -0.0072   -0.0001    0.0131
          11    0.0154    0.0041   -0.0044   -0.0017    0.0080    0.0015   -0.0044   -0.0004
          12    0.0004    0.0133    0.0072    0.0071    0.0274   -0.0076   -0.0056    0.0013
          13    0.0039   -0.0165   -0.0082   -0.0081    0.0098   -0.0101    0.0080    0.0145
          14    0.0123    0.0117    0.0020    0.0024    0.0072    0.0036   -0.0074   -0.0009
          15   -0.0053    0.0067    0.0080    0.0030   -0.0205    0.0000    0.0107   -0.0015
          16   -0.0193    0.0018    0.0002   -0.0004   -0.0161    0.0121   -0.0146   -0.0033
          17   -0.0017   -0.0083    0.0005   -0.0016   -0.0152    0.0000    0.0135   -0.0165
          18    0.0089   -0.0128    0.0007   -0.0016   -0.0139    0.0104   -0.0127   -0.0029
          19   -0.0014    0.0165    0.0144    0.0155   -0.0009   -0.0002   -0.0028   -0.0052
          20    0.0040   -0.0116   -0.0030   -0.0037   -0.0026   -0.0020    0.0028    0.0103
          21   -0.0115   -0.0343   -0.0236   -0.0279    0.0033    0.0005    0.0015    0.0039
          22   -0.0226    0.0126   -0.0002    0.0013   -0.0037    0.0041   -0.0038   -0.0053
          23   -0.0098    0.0080   -0.0004    0.0003   -0.0033    0.0010    0.0032   -0.0093
          24    0.0138   -0.0072    0.0005   -0.0007   -0.0005    0.0013   -0.0040    0.0037
          25    0.0051   -0.0018   -0.0169    0.0106    0.0002   -0.0059   -0.0036   -0.0036
          26    0.0042    0.0000   -0.0083    0.0058    0.0000   -0.0043   -0.0024   -0.0016
          27   -0.0042    0.0066    0.0264   -0.0202   -0.0025   -0.0065   -0.0028   -0.0032
          28   -0.0145    0.0084   -0.0316   -0.0297    0.0068    0.0197    0.0045   -0.0119
          29    0.0151    0.0138    0.0051   -0.0222   -0.0033   -0.0159   -0.0068    0.0019
          30    0.0101    0.0212   -0.0112    0.0051   -0.0010   -0.0076   -0.0045   -0.0008
          31   -0.0032   -0.0037   -0.0276    0.0209   -0.0045   -0.0153   -0.0068   -0.0051
          32   -0.0061   -0.0081    0.0066   -0.0435    0.0004   -0.0123   -0.0061   -0.0028
          33   -0.0087    0.0043    0.0021    0.0054   -0.0048   -0.0118   -0.0050   -0.0037
          34   -0.0075   -0.0071    0.0866   -0.0105   -0.0033    0.0002    0.0028    0.0078
          35    0.0057   -0.0154   -0.0134    0.0446    0.0026    0.0114    0.0052    0.0012
          36    0.0019   -0.0060    0.0105    0.0740   -0.0004    0.0136    0.0072    0.0035
          37    0.0063   -0.0338    0.0025   -0.0074   -0.0401   -0.0035    0.0280   -0.0060
          38   -0.0180   -0.0023    0.0014    0.0020    0.0074   -0.0093    0.0097    0.0141
          39   -0.0247    0.0114   -0.0127   -0.0056    0.0081   -0.0039    0.0069    0.0022
          40    0.0389   -0.0195   -0.0005   -0.0043    0.0536   -0.0084   -0.0192   -0.0052
          41   -0.0296   -0.0113    0.0169    0.0187   -0.0018    0.0122    0.0056   -0.0135
          42    0.0238   -0.0014    0.0217    0.0113   -0.0045    0.0007   -0.0019    0.0005
          43    0.0180    0.0630   -0.0193   -0.0049   -0.0068   -0.0094   -0.0073    0.0024
          44   -0.0275   -0.0055    0.0105    0.0158   -0.0150    0.0015    0.0130    0.0159
          45   -0.0042   -0.0003   -0.0553   -0.0518    0.0112    0.0031   -0.0059   -0.0204
          46   -0.0357    0.0104    0.0009    0.0043    0.0122   -0.0110    0.0153    0.0034
          47   -0.0126   -0.0020    0.0009    0.0018    0.0058   -0.0182    0.0381   -0.0128
          48   -0.0018   -0.0105    0.0025    0.0031    0.0308   -0.0550    0.1067   -0.0377
          49   -0.0315    0.0044    0.0006    0.0013    0.0008   -0.0218    0.0536   -0.0294
          50    0.0125   -0.0138   -0.0019   -0.0089   -0.0744    0.0645   -0.0885   -0.0050
          51    0.0144   -0.0137    0.0007   -0.0019   -0.0180    0.0229   -0.0402    0.0099
          52    0.0400   -0.0395    0.0247    0.0080   -0.0007    0.0020    0.0041   -0.0233
[...]
 TRANSITION DIPOLE   0.0624         C  6 -- H 16         +13.2% ( 37.2%)     97.3%
 TRAVEL (Ang.)       0.2074         C  6 -- H 17         +10.6% ( 33.3%)     95.9%
 REDUCED MASS        0.5302         C  1 -- H 14          +1.6% ( 12.9%)    100.0%
 EFFECTIVE MASS      1.4696
 FORCE CONSTANT      2.7293

 VIBRATION         75   75A           ATOM PAIR      ENERGY CONTRIBUTION    RADIAL
 FREQUENCY          3020.26         C  5 -- H 21         +67.9% ( 85.6%)     98.7%
 TRANSITION DIPOLE   0.1090         C  5 -- H 20         +25.5% ( 52.4%)     92.6%
 TRAVEL (Ang.)       0.1974         C  4 -- H 18          +1.2% ( 11.2%)     97.9%
 REDUCED MASS        0.5731         C  4 -- C  5          +1.1% ( 10.9%)      2.4%
 EFFECTIVE MASS      1.5236
 FORCE CONSTANT      3.0800

 VIBRATION         76   76A           ATOM PAIR      ENERGY CONTRIBUTION    RADIAL
 FREQUENCY          3027.78         C  6 -- H 17         +56.3% ( 74.0%)     98.5%
 TRANSITION DIPOLE   0.0189         C  6 -- H 16         +41.0% ( 63.1%)     96.6%
 TRAVEL (Ang.)       0.2151         C  6 -- C  8          +0.6% (  7.8%)     26.1%
 REDUCED MASS        0.4812         C  2 -- C  6          +0.6% (  7.7%)     28.8%
 EFFECTIVE MASS      1.2793
 FORCE CONSTANT      2.5989

 VIBRATION         77   77A           ATOM PAIR      ENERGY CONTRIBUTION    RADIAL
 FREQUENCY          3031.40         C  4 -- H 18         +60.9% ( 81.2%)     98.2%
 TRANSITION DIPOLE   0.0896         C  4 -- H 19         +33.1% ( 59.9%)     94.6%
 TRAVEL (Ang.)       0.2050         C  5 -- H 21          +1.2% ( 11.3%)     98.9%
 REDUCED MASS        0.5293         C  4 -- C  5          +1.1% ( 11.1%)      3.0%
 EFFECTIVE MASS      1.5365
 FORCE CONSTANT      2.8659

 VIBRATION         78   78A           ATOM PAIR      ENERGY CONTRIBUTION    RADIAL
 FREQUENCY          3034.25         C 10 -- H 32         +96.8% ( 99.8%)    100.0%
 TRANSITION DIPOLE   0.2819         C 10 -- C 12          +1.6% ( 12.7%)     41.8%
 TRAVEL (Ang.)       0.1552         C  3 -- C 10          +1.3% ( 11.7%)     14.8%
 REDUCED MASS        0.9225         C 11 -- H 31          +0.2% (  4.8%)     99.7%
 EFFECTIVE MASS      1.5184
 FORCE CONSTANT      5.0038

 VIBRATION         79   79A           ATOM PAIR      ENERGY CONTRIBUTION    RADIAL
 FREQUENCY          3037.14         C 11 -- H 31         +94.6% ( 98.8%)    100.0%
 TRANSITION DIPOLE   0.3037         C 11 -- C 12          +1.5% ( 12.6%)     40.5%
 TRAVEL (Ang.)       0.1584         C  9 -- H 30          +1.4% ( 11.9%)     98.0%
 REDUCED MASS        0.8853         C  9 -- C 11          +1.4% ( 11.9%)     12.2%
 EFFECTIVE MASS      1.5224
 FORCE CONSTANT      4.8112

 VIBRATION         80   80A           ATOM PAIR      ENERGY CONTRIBUTION    RADIAL
 FREQUENCY          3072.28         C  9 -- H 28         +57.6% ( 78.3%)     98.0%
 TRANSITION DIPOLE   0.0249         C  9 -- H 29         +39.4% ( 64.7%)     95.4%
 TRAVEL (Ang.)       0.2063         C  9 -- H 30          +2.0% ( 14.6%)     23.6%
 REDUCED MASS        0.5158         C  9 -- C 11          +1.0% ( 10.2%)      0.0%
 EFFECTIVE MASS      1.5024
 FORCE CONSTANT      2.8682

 VIBRATION         81   81A           ATOM PAIR      ENERGY CONTRIBUTION    RADIAL
 FREQUENCY          3075.61         C  9 -- H 30         +60.5% ( 80.2%)     98.8%
 TRANSITION DIPOLE   0.0923         C  9 -- H 29         +23.4% ( 49.9%)     90.3%
 TRAVEL (Ang.)       0.2194         C  9 -- H 28          +9.0% ( 30.9%)     72.4%
 REDUCED MASS        0.4556         C  8 -- H 24          +2.4% ( 16.1%)     98.5%
 EFFECTIVE MASS      1.5102
 FORCE CONSTANT      2.5389

 VIBRATION         82   82A           ATOM PAIR      ENERGY CONTRIBUTION    RADIAL
 FREQUENCY          3076.24         C  8 -- H 24         +57.5% ( 78.2%)     98.3%
 TRANSITION DIPOLE   0.0140         C  8 -- H 23         +34.7% ( 60.8%)     94.7%
 TRAVEL (Ang.)       0.2143         C  9 -- H 30          +2.5% ( 16.4%)     98.8%
 REDUCED MASS        0.4775         C  8 -- H 22          +2.5% ( 16.4%)     32.9%
 EFFECTIVE MASS      1.5014
 FORCE CONSTANT      2.6622

 VIBRATION         83   83A           ATOM PAIR      ENERGY CONTRIBUTION    RADIAL
 FREQUENCY          3077.13         C  7 -- H 25         +55.3% ( 76.7%)     97.9%
 TRANSITION DIPOLE   0.0102         C  7 -- H 26         +41.8% ( 66.7%)     95.9%
 TRAVEL (Ang.)       0.2074         C  7 -- H 27          +1.7% ( 13.5%)     17.5%
 REDUCED MASS        0.5096         C  3 -- C  7          +1.0% ( 10.4%)      0.0%
 EFFECTIVE MASS      1.5042
 FORCE CONSTANT      2.8428

 VIBRATION         84   84A           ATOM PAIR      ENERGY CONTRIBUTION    RADIAL
 FREQUENCY          3084.22         C  8 -- H 22         +59.2% ( 79.3%)     98.5%
 TRANSITION DIPOLE   0.0034         C  8 -- H 23         +30.2% ( 56.7%)     92.5%
 TRAVEL (Ang.)       0.2137         C  8 -- H 24          +9.1% ( 31.2%)     71.0%
 REDUCED MASS        0.4786         C  6 -- C  8          +1.0% ( 10.3%)      0.0%
 EFFECTIVE MASS      1.5037
 FORCE CONSTANT      2.6825

 VIBRATION         85   85A           ATOM PAIR      ENERGY CONTRIBUTION    RADIAL
 FREQUENCY          3084.87         C  7 -- H 27         +59.4% ( 79.5%)     98.6%
 TRANSITION DIPOLE   0.0213         C  7 -- H 26         +26.4% ( 53.0%)     90.8%
 TRAVEL (Ang.)       0.2157         C  7 -- H 25         +13.1% ( 37.3%)     78.9%
 REDUCED MASS        0.4697         C  3 -- C  7          +1.0% ( 10.4%)      0.1%
 EFFECTIVE MASS      1.5070
 FORCE CONSTANT      2.6334

 VIBRATION         86   86A           ATOM PAIR      ENERGY CONTRIBUTION    RADIAL
 FREQUENCY          3095.22         C  5 -- H 20         +67.4% ( 81.6%)     99.2%
 TRANSITION DIPOLE   0.1000         C  5 -- H 21         +23.4% ( 48.1%)     91.3%
 TRAVEL (Ang.)       0.2082         C  4 -- H 19          +4.5% ( 21.0%)     99.0%
 REDUCED MASS        0.5028         C  4 -- H 18          +2.4% ( 15.4%)     95.2%
 EFFECTIVE MASS      1.2877
 FORCE CONSTANT      2.8382

 VIBRATION         87   87A           ATOM PAIR      ENERGY CONTRIBUTION    RADIAL
 FREQUENCY          3100.67         C  4 -- H 19         +59.8% ( 76.8%)     98.7%
 TRANSITION DIPOLE   0.0591         C  4 -- H 18         +30.9% ( 55.2%)     94.1%
 TRAVEL (Ang.)       0.2184         C  5 -- H 20          +5.1% ( 22.3%)     98.9%
 REDUCED MASS        0.4561         C  5 -- H 21          +1.8% ( 13.3%)     90.3%
 EFFECTIVE MASS      1.3001
 FORCE CONSTANT      2.5837

 VIBRATION         88   88A           ATOM PAIR      ENERGY CONTRIBUTION    RADIAL
 FREQUENCY          3167.80         C  9 -- H 29         +35.0% ( 57.0%)     97.4%
 TRANSITION DIPOLE   0.0671         C  9 -- H 30         +32.7% ( 55.1%)     96.9%
 TRAVEL (Ang.)       0.2550         C  9 -- H 28         +31.9% ( 54.4%)     96.9%
 REDUCED MASS        0.3274         C  9 -- C 11          +0.3% (  5.3%)     99.8%
 EFFECTIVE MASS      1.1380
 FORCE CONSTANT      1.9358

 VIBRATION         89   89A           ATOM PAIR      ENERGY CONTRIBUTION    RADIAL
 FREQUENCY          3177.73         C  7 -- H 27         +38.8% ( 60.0%)     97.9%
 TRANSITION DIPOLE   0.0349         C  7 -- H 26         +30.5% ( 53.2%)     96.6%
 TRAVEL (Ang.)       0.2533         C  7 -- H 25         +30.4% ( 53.1%)     96.5%
 REDUCED MASS        0.3307         C  3 -- C  7          +0.3% (  5.0%)     98.7%
 EFFECTIVE MASS      1.1354
 FORCE CONSTANT      1.9678

 VIBRATION         90   90A           ATOM PAIR      ENERGY CONTRIBUTION    RADIAL
 FREQUENCY          3179.29         C  8 -- H 22         +37.6% ( 59.0%)     97.7%
 TRANSITION DIPOLE   0.0079         C  8 -- H 23         +32.7% ( 55.0%)     97.0%
 TRAVEL (Ang.)       0.2536         C  8 -- H 24         +29.4% ( 52.2%)     96.4%
 REDUCED MASS        0.3297         C  6 -- C  8          +0.3% (  5.1%)     99.2%
 EFFECTIVE MASS      1.1369
 FORCE CONSTANT      1.9636

      SYMMETRY NUMBER FOR POINT-GROUP C1  =  1


          SYSTEM IS A GROUND STATE



 InChI=1S/C12H20/c1-4-6-7-10(3)12-8-11(5-2)9-12/h4,7,10-12H,5,8-9H2,1-3H3


          MOLECULE IS NOT LINEAR

          THERE ARE 90 GENUINE VIBRATIONS IN THIS SYSTEM
          THIS THERMODYNAMICS CALCULATION IS LIMITED TO
          MOLECULES WHICH HAVE NO INTERNAL ROTATIONS




                    CALCULATED THERMODYNAMIC PROPERTIES
                                          *
   TEMP. (K)   PARTITION FUNCTION   H.O.F.    ENTHALPY  HEAT CAPACITY ENTROPY
                                   KCAL/MOL   CAL/MOLE    CAL/K/MOL  CAL/K/MOL


 298.00  VIB.     0.1913D+06                  7145.5087    46.3445    48.1454
         ROT.     0.1683D+07                   888.2803     2.9808    31.4694
         INT.     0.3219D+12                  8033.7890    49.3253    79.6148
         TRA.     0.2036D+28                  1480.4672     4.9680    41.1956
         TOT.                       14.778    9514.2562    54.2933   120.8104

 200.00  VIB.     0.3343D+04                  3378.7647    31.1103    33.0193
         ROT.     0.9253D+06                   596.1613     2.9808    30.2807
         INT.     0.3093D+10                  3974.9260    34.0911    63.3000
         TRA.     0.1119D+28                   993.6021     4.9680    39.2145
         TOT.                       10.233    4968.5281    39.0591   102.5145

 210.00  VIB.     0.5106D+04                  3696.7397    32.4916    34.5704
         ROT.     0.9955D+06                   625.9693     2.9808    30.4261
         INT.     0.5083D+10                  4322.7090    35.4724    64.9965
         TRA.     0.1204D+28                  1043.2822     4.9680    39.4569
         TOT.                       10.630    5365.9913    40.4404   104.4534

 220.00  VIB.     0.7773D+04                  4028.7375    33.9152    36.1146
         ROT.     0.1067D+07                   655.7774     2.9808    30.5648
         INT.     0.8297D+10                  4684.5149    36.8960    66.6794
         TRA.     0.1291D+28                  1092.9623     4.9680    39.6880
         TOT.                       11.042    5777.4772    41.8640   106.3674

 230.00  VIB.     0.1180D+05                  4375.1888    35.3823    37.6544
         ROT.     0.1141D+07                   685.5855     2.9808    30.6973
         INT.     0.1347D+11                  5060.7743    38.3631    68.3517
         TRA.     0.1380D+28                  1142.6424     4.9680    39.9088
         TOT.                       11.468    6203.4167    43.3311   108.2606

 240.00  VIB.     0.1787D+05                  4736.5267    36.8923    39.1920
         ROT.     0.1216D+07                   715.3935     2.9808    30.8241
         INT.     0.2174D+11                  5451.9202    39.8731    70.0162
         TRA.     0.1471D+28                  1192.3226     4.9680    40.1203
         TOT.                       11.908    6644.2428    44.8411   110.1365

 250.00  VIB.     0.2700D+05                  5113.1717    38.4433    40.7294
         ROT.     0.1293D+07                   745.2016     2.9808    30.9458
         INT.     0.3491D+11                  5858.3733    41.4241    71.6752
         TRA.     0.1564D+28                  1242.0027     4.9680    40.3231
         TOT.                       12.364    7100.3760    46.3921   111.9983

 260.00  VIB.     0.4072D+05                  5505.5197    40.0323    42.2680
         ROT.     0.1371D+07                   775.0097     2.9808    31.0627
         INT.     0.5584D+11                  6280.5294    43.0131    73.3307
         TRA.     0.1659D+28                  1291.6828     4.9680    40.5179
         TOT.                       12.836    7572.2122    47.9811   113.8487

 270.00  VIB.     0.6129D+05                  5913.9325    41.6556    43.8091
         ROT.     0.1451D+07                   804.8177     2.9808    31.1752
         INT.     0.8895D+11                  6718.7503    44.6364    74.9844
         TRA.     0.1756D+28                  1341.3629     4.9680    40.7054
         TOT.                       13.324    8060.1131    49.6044   115.6898

 280.00  VIB.     0.9212D+05                  6338.7310    43.3087    45.3539
         ROT.     0.1533D+07                   834.6258     2.9808    31.2836
         INT.     0.1412D+12                  7173.3568    46.2895    76.6375
         TRA.     0.1854D+28                  1391.0430     4.9680    40.8861
         TOT.                       13.829    8564.3998    51.2575   117.5236

 290.00  VIB.     0.1383D+06                  6780.1906    44.9870    46.9028
         ROT.     0.1616D+07                   864.4339     2.9808    31.3882
         INT.     0.2234D+12                  7644.6244    47.9678    78.2911
         TRA.     0.1954D+28                  1440.7231     4.9680    41.0604
         TOT.                       14.349    9085.3475    52.9358   119.3515

 300.00  VIB.     0.2074D+06                  7238.5387    46.6856    48.4565
         ROT.     0.1700D+07                   894.2419     2.9808    31.4893
         INT.     0.3525D+12                  8132.7806    49.6664    79.9458
         TRA.     0.2056D+28                  1490.4032     4.9680    41.2289
         TOT.                       14.887    9623.1838    54.6344   121.1747

 310.00  VIB.     0.3107D+06                  7713.9536    48.3996    50.0153
         ROT.     0.1786D+07                   924.0500     2.9808    31.5870
         INT.     0.5548D+12                  8638.0036    51.3804    81.6023
         TRA.     0.2160D+28                  1540.0833     4.9680    41.3918
         TOT.                       15.442   10178.0869    56.3484   122.9941

 320.00  VIB.     0.4652D+06                  8206.5655    50.1242    51.5791
         ROT.     0.1873D+07                   953.8580     2.9808    31.6817
         INT.     0.8712D+12                  9160.4235    53.1050    83.2608
         TRA.     0.2265D+28                  1589.7634     4.9680    41.5495
         TOT.                       16.014   10750.1869    58.0730   124.8103

 330.00  VIB.     0.6961D+06                  8716.4570    51.8548    53.1480
         ROT.     0.1961D+07                   983.6661     2.9808    31.7734
         INT.     0.1365D+13                  9700.1231    54.8356    84.9214
         TRA.     0.2372D+28                  1639.4435     4.9680    41.7024
         TOT.                       16.604   11339.5666    59.8036   126.6237

 340.00  VIB.     0.1041D+07                  9243.6664    53.5870    54.7217
         ROT.     0.2051D+07                  1013.4742     2.9808    31.8624
         INT.     0.2135D+13                 10257.1406    56.5679    86.5841
         TRA.     0.2481D+28                  1689.1236     4.9680    41.8507
         TOT.                       17.210   11946.2642    61.5359   128.4348

 350.00  VIB.     0.1557D+07                  9788.1900    55.3170    56.3000
         ROT.     0.2142D+07                  1043.2822     2.9808    31.9488
         INT.     0.3335D+13                 10831.4722    58.2978    88.2488
         TRA.     0.2591D+28                  1738.8037     4.9680    41.9947
         TOT.                       17.834   12570.2760    63.2658   130.2435

 360.00  VIB.     0.2327D+07                 10349.9855    57.0408    57.8826
         ROT.     0.2234D+07                  1073.0903     2.9808    32.0328
         INT.     0.5200D+13                 11423.0758    60.0217    89.9153
         TRA.     0.2703D+28                  1788.4838     4.9680    42.1347
         TOT.                       18.476   13211.5597    64.9897   132.0500

 370.00  VIB.     0.3478D+07                 10928.9757    58.7554    59.4688
         ROT.     0.2328D+07                  1102.8984     2.9808    32.1144
         INT.     0.8097D+13                 12031.8740    61.7362    91.5832
         TRA.     0.2817D+28                  1838.1639     4.9680    42.2708
         TOT.                       19.134   13870.0380    66.7042   133.8540

 380.00  VIB.     0.5197D+07                 11525.0516    60.4575    61.0583
         ROT.     0.2423D+07                  1132.7064     2.9808    32.1939
         INT.     0.1259D+14                 12657.7580    63.4383    93.2523
         TRA.     0.2932D+28                  1887.8440     4.9680    42.4033
         TOT.                       19.810   14545.6021    68.4064   135.6555

 390.00  VIB.     0.7765D+07                 12138.0766    62.1448    62.6506
         ROT.     0.2520D+07                  1162.5145     2.9808    32.2714
         INT.     0.1956D+14                 13300.5911    65.1256    94.9220
         TRA.     0.3048D+28                  1937.5242     4.9680    42.5323
         TOT.                       20.502   15238.1153    70.0936   137.4543

 400.00  VIB.     0.1160D+08                 12767.8896    63.8148    64.2451
         ROT.     0.2617D+07                  1192.3226     2.9808    32.3468
         INT.     0.3036D+14                 13960.2121    66.7956    96.5919
         TRA.     0.3166D+28                  1987.2043     4.9680    42.6581
         TOT.                       21.212   15947.4164    71.7636   139.2500

   *: NOTE: HEATS OF FORMATION ARE RELATIVE TO THE
            ELEMENTS IN THEIR STANDARD STATE AT 298K
              (=  Standard Enthalpy of Formation).

            Hvib:  Zero-point energy is not included.
                   frequencies of less than zero cm-1 are not included.
            Hrot = (3/2)RT
            Htra = (3/2)RT + pV = (5/2)RT

            Heat capacity is Cp, not Cv

          For more information, see: HTTP://OpenMOPAC.net/Manual/thermochemistry.html


           FORCE CONSTANT IN CARTESIAN COORDINATES (Millidynes/A)

    ATOM   CHEMICAL       X               Y               Z
   NUMBER   SYMBOL  FORCE CONSTANT  FORCE CONSTANT  FORCE CONSTANT

      1       C        9.784087        8.432400        6.402502
      2       C        9.847129        8.639768        6.345185
      3       C        8.407378        8.144506        8.721561
      4       C        5.980968        8.649548        9.729007
      5       C        6.004046        8.624508        9.724899
      6       C        8.402231        8.261935        8.428128
      7       C        8.243806        8.324743        8.283314
      8       C        8.342323        8.348203        8.204696
      9       C        8.475537        8.302534        8.520210
     10       C        6.229354        9.453096       11.290716
     11       C        5.819830       10.806099       10.310502
     12       C        2.788176       11.805939       13.869308
     13       H        2.066510        3.528535        0.665910
     14       H        2.069975        3.524024        0.664217
     15       H        1.984322        3.257105        0.772901
     16       H        2.069651        3.566129        0.736023
     17       H        1.698457        0.695890        3.982170
     18       H        0.699125        3.625539        2.293641
     19       H        0.666172        3.730972        2.235955
     20       H        0.667334        3.747175        2.216053
     21       H        0.682005        3.573092        2.294880
     22       H        2.221377        3.861561        0.708715
     23       H        2.331628        3.714419        0.732107
     24       H        1.738477        0.672245        4.342097
     25       H        2.352976        3.690795        0.730691
     26       H        1.943278        0.670203        4.150028
     27       H        2.211010        3.879507        0.697446
     28       H        1.680459        0.682279        4.285003
     29       H        2.587335        3.434651        0.656165
     30       H        1.913379        3.969918        0.859794
     31       H        1.507655        4.020356        0.565783
     32       H        2.824320        2.536469        0.720091

 **********************
 *                    *
 * JOB ENDED NORMALLY *
 *                    *
 **********************



 TOTAL JOB TIME:             8.18 SECONDS

 == MOPAC DONE ==
