 *******************************************************************************
 **                                                                           **
 **                              MOPAC v23.1.2                                **
 **                                                                           **
 *******************************************************************************
 **          Digital Object Identifier (DOI): 10.5281/zenodo.6511958          **
 **    Visit the DOI location for information on how to cite this program.    **
 *******************************************************************************

                              PM3 CALCULATION RESULTS

 *******************************************************************************
 *  CALCULATION DONE: (MAX THREADS = 1)              Tue Jun  3 16:43:03 2025  *
 *  PM3        - The PM3 Hamiltonian to be used
 *  PRECISE    - TIGHTER CRITERIA TO BE USED
 *  NOSYM      - POINT-GROUP SYMMETRY SET TO C1
 *  THREADS=1  - MULTI-THREADING NOT USED
 *  T=         - A TIME OF 172800.0 SECONDS REQUESTED
 *  DUMP=N     - RESTART FILE WRITTEN EVERY 7200.0 SECONDS REQUESTED
 *******************************************************************************
pm3  precise nosym THREADS=1
 InChI=1S/C12H22/c1-3-9-7-11(8-9)12-6-5-10(12)4-2/h9-12H,3-8H2,1-2H3

   ATOM   CHEMICAL          X               Y               Z
  NUMBER   SYMBOL      (ANGSTROMS)     (ANGSTROMS)     (ANGSTROMS)

     1       C         -0.62710000  *  -0.78720000  *   0.01410000  *
     2       C         -1.91430000  *  -0.07930000  *   0.45560000  *
     3       C          0.46280000  *  -0.80070000  *   1.10590000  *
     4       C          2.50840000  *  -0.17910000  *   0.78260000  *
     5       C          1.74910000  *  -1.50110000  *   0.66790000  *
     6       C          1.21990000  *   0.52240000  *   1.21670000  *
     7       C         -2.67500000  *  -1.40130000  *   0.33520000  *
     8       C         -1.39290000  *  -2.10600000  *  -0.08930000  *
     9       C         -2.37490000  *   1.00530000  *  -0.53390000  *
    10       C          3.07350000  *   0.31440000  *  -0.56080000  *
    11       C         -3.69630000  *   1.63150000  *  -0.09720000  *
    12       C          3.76210000  *   1.66820000  *  -0.41020000  *
    13       H         -1.87660000  *   0.28960000  *   1.50610000  *
    14       H         -0.24920000  *  -0.45020000  *  -0.97890000  *
    15       H          3.27250000  *  -0.20860000  *   1.59170000  *
    16       H          0.10100000  *  -1.16300000  *   2.09520000  *
    17       H         -1.60220000  *   1.80310000  *  -0.57630000  *
    18       H         -2.48810000  *   0.58260000  *  -1.55680000  *
    19       H          3.81930000  *  -0.42270000  *  -0.92930000  *
    20       H          2.26600000  *   0.39530000  *  -1.32170000  *
    21       H          1.70940000  *  -1.91300000  *  -0.36560000  *
    22       H          2.09290000  *  -2.24700000  *   1.41740000  *
    23       H         -3.44640000  *  -1.41530000  *  -0.46610000  *
    24       H         -3.04930000  *  -1.76280000  *   1.31780000  *
    25       H         -1.44460000  *  -2.48240000  *  -1.13440000  *
    26       H          1.27550000  *   0.88480000  *   2.26630000  *
    27       H          0.86560000  *   1.30330000  *   0.50720000  *
    28       H         -1.07190000  *  -2.87830000  *   0.64450000  *
    29       H         -3.59120000  *   2.09050000  *   0.90890000  *
    30       H         -3.98870000  *   2.42260000  *  -0.81930000  *
    31       H         -4.49930000  *   0.86500000  *  -0.06770000  *
    32       H          4.17870000  *   1.98350000  *  -1.38990000  *
    33       H          3.03770000  *   2.43790000  *  -0.06990000  *
    34       H          4.59340000  *   1.59810000  *   0.32320000  *



          CARTESIAN COORDINATES 

    NO.       ATOM           X           Y           Z

     1         C         -0.6271     -0.7872      0.0141
     2         C         -1.9143     -0.0793      0.4556
     3         C          0.4628     -0.8007      1.1059
     4         C          2.5084     -0.1791      0.7826
     5         C          1.7491     -1.5011      0.6679
     6         C          1.2199      0.5224      1.2167
     7         C         -2.6750     -1.4013      0.3352
     8         C         -1.3929     -2.1060     -0.0893
     9         C         -2.3749      1.0053     -0.5339
    10         C          3.0735      0.3144     -0.5608
    11         C         -3.6963      1.6315     -0.0972
    12         C          3.7621      1.6682     -0.4102
    13         H         -1.8766      0.2896      1.5061
    14         H         -0.2492     -0.4502     -0.9789
    15         H          3.2725     -0.2086      1.5917
    16         H          0.1010     -1.1630      2.0952
    17         H         -1.6022      1.8031     -0.5763
    18         H         -2.4881      0.5826     -1.5568
    19         H          3.8193     -0.4227     -0.9293
    20         H          2.2660      0.3953     -1.3217
    21         H          1.7094     -1.9130     -0.3656
    22         H          2.0929     -2.2470      1.4174
    23         H         -3.4464     -1.4153     -0.4661
    24         H         -3.0493     -1.7628      1.3178
    25         H         -1.4446     -2.4824     -1.1344
    26         H          1.2755      0.8848      2.2663
    27         H          0.8656      1.3033      0.5072
    28         H         -1.0719     -2.8783      0.6445
    29         H         -3.5912      2.0905      0.9089
    30         H         -3.9887      2.4226     -0.8193
    31         H         -4.4993      0.8650     -0.0677
    32         H          4.1787      1.9835     -1.3899
    33         H          3.0377      2.4379     -0.0699
    34         H          4.5934      1.5981      0.3232

  H: (PM3): J. J. P. STEWART, J. COMP. CHEM. 10, 209 (1989).
  C: (PM3): J. J. P. STEWART, J. COMP. CHEM. 10, 209 (1989).

           Empirical Formula: C12 H22  =    34 atoms



      MOLECULAR POINT GROUP   :   C1  


      RHF CALCULATION, NO. OF DOUBLY OCCUPIED LEVELS = 35


          Geometry optimization using L-BFGS
 CYCLE:     1 TIME:   0.012 TIME LEFT:  2.00D  GRAD.:   100.530 HEAT: -19.03380
 CYCLE:     2 TIME:   0.008 TIME LEFT:  2.00D  GRAD.:    98.881 HEAT: -19.13403
 CYCLE:     3 TIME:   0.012 TIME LEFT:  2.00D  GRAD.:    38.785 HEAT: -23.07364
 CYCLE:     4 TIME:   0.012 TIME LEFT:  2.00D  GRAD.:    98.888 HEAT: -19.13411
 CYCLE:     5 TIME:   0.008 TIME LEFT:  2.00D  GRAD.:    38.790 HEAT: -23.07361
 CYCLE:     6 TIME:   0.012 TIME LEFT:  2.00D  GRAD.:    35.167 HEAT: -23.85233
 CYCLE:     7 TIME:   0.008 TIME LEFT:  2.00D  GRAD.:    37.341 HEAT: -25.61640
 CYCLE:     8 TIME:   0.012 TIME LEFT:  2.00D  GRAD.:    67.378 HEAT: -25.18764
 CYCLE:     9 TIME:   0.012 TIME LEFT:  2.00D  GRAD.:    10.582 HEAT: -26.30266
 CYCLE:    10 TIME:   0.008 TIME LEFT:  2.00D  GRAD.:     5.884 HEAT: -26.35708
 CYCLE:    11 TIME:   0.012 TIME LEFT:  2.00D  GRAD.:     3.400 HEAT: -26.39768
 CYCLE:    12 TIME:   0.012 TIME LEFT:  2.00D  GRAD.:     4.012 HEAT: -26.41124
 CYCLE:    13 TIME:   0.008 TIME LEFT:  2.00D  GRAD.:     2.598 HEAT: -26.42601
 CYCLE:    14 TIME:   0.012 TIME LEFT:  2.00D  GRAD.:     2.348 HEAT: -26.43757
 CYCLE:    15 TIME:   0.008 TIME LEFT:  2.00D  GRAD.:     6.072 HEAT: -26.43731
 CYCLE:    16 TIME:   0.012 TIME LEFT:  2.00D  GRAD.:     1.901 HEAT: -26.44671
 CYCLE:    17 TIME:   0.008 TIME LEFT:  2.00D  GRAD.:     1.504 HEAT: -26.44969
 CYCLE:    18 TIME:   0.012 TIME LEFT:  2.00D  GRAD.:     2.025 HEAT: -26.45636
 CYCLE:    19 TIME:   0.012 TIME LEFT:  2.00D  GRAD.:     2.179 HEAT: -26.46216
 CYCLE:    20 TIME:   0.012 TIME LEFT:  2.00D  GRAD.:     4.425 HEAT: -26.46435
 CYCLE:    21 TIME:   0.008 TIME LEFT:  2.00D  GRAD.:     1.374 HEAT: -26.47104
 CYCLE:    22 TIME:   0.012 TIME LEFT:  2.00D  GRAD.:     1.498 HEAT: -26.47368
 CYCLE:    23 TIME:   0.012 TIME LEFT:  2.00D  GRAD.:     1.862 HEAT: -26.47925
 CYCLE:    24 TIME:   0.012 TIME LEFT:  2.00D  GRAD.:     6.580 HEAT: -26.47724
 CYCLE:    25 TIME:   0.008 TIME LEFT:  2.00D  GRAD.:     2.031 HEAT: -26.48661
 CYCLE:    26 TIME:   0.012 TIME LEFT:  2.00D  GRAD.:     1.277 HEAT: -26.48965
 CYCLE:    27 TIME:   0.008 TIME LEFT:  2.00D  GRAD.:     1.922 HEAT: -26.49471
 CYCLE:    28 TIME:   0.012 TIME LEFT:  2.00D  GRAD.:     2.148 HEAT: -26.49993
 CYCLE:    29 TIME:   0.012 TIME LEFT:  2.00D  GRAD.:     2.655 HEAT: -26.50916
 CYCLE:    30 TIME:   0.012 TIME LEFT:  2.00D  GRAD.:     3.425 HEAT: -26.51705
 CYCLE:    31 TIME:   0.012 TIME LEFT:  2.00D  GRAD.:     2.952 HEAT: -26.52403
 CYCLE:    32 TIME:   0.008 TIME LEFT:  2.00D  GRAD.:     3.751 HEAT: -26.52689
 CYCLE:    33 TIME:   0.012 TIME LEFT:  2.00D  GRAD.:    16.904 HEAT: -26.46695
 CYCLE:    34 TIME:   0.012 TIME LEFT:  2.00D  GRAD.:     3.622 HEAT: -26.53684
 CYCLE:    35 TIME:   0.012 TIME LEFT:  2.00D  GRAD.:     3.443 HEAT: -26.53330
 CYCLE:    36 TIME:   0.008 TIME LEFT:  2.00D  GRAD.:     2.417 HEAT: -26.54120
 CYCLE:    37 TIME:   0.012 TIME LEFT:  2.00D  GRAD.:     5.539 HEAT: -26.53765
 CYCLE:    38 TIME:   0.012 TIME LEFT:  2.00D  GRAD.:     3.877 HEAT: -26.54450
 CYCLE:    39 TIME:   0.012 TIME LEFT:  2.00D  GRAD.:     7.601 HEAT: -26.52833
 CYCLE:    40 TIME:   0.008 TIME LEFT:  2.00D  GRAD.:     1.067 HEAT: -26.55085
 CYCLE:    41 TIME:   0.012 TIME LEFT:  2.00D  GRAD.:     0.959 HEAT: -26.55231
 CYCLE:    42 TIME:   0.008 TIME LEFT:  2.00D  GRAD.:     1.591 HEAT: -26.55761
 CYCLE:    43 TIME:   0.012 TIME LEFT:  2.00D  GRAD.:     6.166 HEAT: -26.55184
 CYCLE:    44 TIME:   0.012 TIME LEFT:  2.00D  GRAD.:     1.032 HEAT: -26.56004
 CYCLE:    45 TIME:   0.008 TIME LEFT:  2.00D  GRAD.:     0.736 HEAT: -26.56066
 CYCLE:    46 TIME:   0.012 TIME LEFT:  2.00D  GRAD.:     0.793 HEAT: -26.56223
 CYCLE:    47 TIME:   0.012 TIME LEFT:  2.00D  GRAD.:     0.881 HEAT: -26.56328
 CYCLE:    48 TIME:   0.008 TIME LEFT:  2.00D  GRAD.:     3.054 HEAT: -26.56293
 CYCLE:    49 TIME:   0.012 TIME LEFT:  2.00D  GRAD.:     0.703 HEAT: -26.56565
 CYCLE:    50 TIME:   0.008 TIME LEFT:  2.00D  GRAD.:     0.626 HEAT: -26.56610
 CYCLE:    51 TIME:   0.012 TIME LEFT:  2.00D  GRAD.:     0.963 HEAT: -26.56746
 CYCLE:    52 TIME:   0.012 TIME LEFT:  2.00D  GRAD.:     2.064 HEAT: -26.56807
 CYCLE:    53 TIME:   0.008 TIME LEFT:  2.00D  GRAD.:     0.694 HEAT: -26.56945
 CYCLE:    54 TIME:   0.012 TIME LEFT:  2.00D  GRAD.:     0.564 HEAT: -26.56998
 CYCLE:    55 TIME:   0.012 TIME LEFT:  2.00D  GRAD.:     0.588 HEAT: -26.57056
 CYCLE:    56 TIME:   0.012 TIME LEFT:  2.00D  GRAD.:     0.835 HEAT: -26.57141
 CYCLE:    57 TIME:   0.008 TIME LEFT:  2.00D  GRAD.:     1.178 HEAT: -26.57168
 CYCLE:    58 TIME:   0.012 TIME LEFT:  2.00D  GRAD.:     0.366 HEAT: -26.57226
 CYCLE:    59 TIME:   0.012 TIME LEFT:  2.00D  GRAD.:     0.343 HEAT: -26.57241
 CYCLE:    60 TIME:   0.008 TIME LEFT:  2.00D  GRAD.:     0.606 HEAT: -26.57267
 CYCLE:    61 TIME:   0.012 TIME LEFT:  2.00D  GRAD.:     0.459 HEAT: -26.57303
 CYCLE:    62 TIME:   0.012 TIME LEFT:  2.00D  GRAD.:     0.394 HEAT: -26.57337
 CYCLE:    63 TIME:   0.012 TIME LEFT:  2.00D  GRAD.:     1.010 HEAT: -26.57352
 CYCLE:    64 TIME:   0.008 TIME LEFT:  2.00D  GRAD.:     0.336 HEAT: -26.57384
 CYCLE:    65 TIME:   0.012 TIME LEFT:  2.00D  GRAD.:     0.277 HEAT: -26.57394
 CYCLE:    66 TIME:   0.008 TIME LEFT:  2.00D  GRAD.:     0.370 HEAT: -26.57416
 CYCLE:    67 TIME:   0.012 TIME LEFT:  2.00D  GRAD.:     0.531 HEAT: -26.57433
 CYCLE:    68 TIME:   0.012 TIME LEFT:  2.00D  GRAD.:     0.301 HEAT: -26.57448
 CYCLE:    69 TIME:   0.008 TIME LEFT:  2.00D  GRAD.:     0.245 HEAT: -26.57457
 CYCLE:    70 TIME:   0.012 TIME LEFT:  2.00D  GRAD.:     0.412 HEAT: -26.57472
 CYCLE:    71 TIME:   0.012 TIME LEFT:  2.00D  GRAD.:     0.469 HEAT: -26.57492
 CYCLE:    72 TIME:   0.012 TIME LEFT:  2.00D  GRAD.:     0.505 HEAT: -26.57517
 CYCLE:    73 TIME:   0.008 TIME LEFT:  2.00D  GRAD.:     0.523 HEAT: -26.57545
 CYCLE:    74 TIME:   0.012 TIME LEFT:  2.00D  GRAD.:     0.393 HEAT: -26.57567
 CYCLE:    75 TIME:   0.012 TIME LEFT:  2.00D  GRAD.:     0.338 HEAT: -26.57580
 CYCLE:    76 TIME:   0.008 TIME LEFT:  2.00D  GRAD.:     0.361 HEAT: -26.57596
 CYCLE:    77 TIME:   0.012 TIME LEFT:  2.00D  GRAD.:     0.408 HEAT: -26.57608
 CYCLE:    78 TIME:   0.012 TIME LEFT:  2.00D  GRAD.:     0.274 HEAT: -26.57618
 CYCLE:    79 TIME:   0.012 TIME LEFT:  2.00D  GRAD.:     0.233 HEAT: -26.57629
 CYCLE:    80 TIME:   0.008 TIME LEFT:  2.00D  GRAD.:     0.262 HEAT: -26.57638
 CYCLE:    81 TIME:   0.012 TIME LEFT:  2.00D  GRAD.:     0.621 HEAT: -26.57638
 CYCLE:    82 TIME:   0.008 TIME LEFT:  2.00D  GRAD.:     0.199 HEAT: -26.57647

 -------------------------------------------------------------------------------
 pm3  precise nosym THREADS=1
 InChI=1S/C12H22/c1-3-9-7-11(8-9)12-6-5-10(12)4-2/h9-12H,3-8H2,1-2H3



     HERBERTS TEST WAS SATISFIED IN BFGS                      
     SCF FIELD WAS ACHIEVED                                   


                              PM3 CALCULATION
                                                       MOPAC v23.1.2 MacOS
                                                       Tue Jun  3 16:43:04 2025




          FINAL HEAT OF FORMATION =        -26.57647 KCAL/MOL =    -111.19597 KJ/MOL


          COSMO AREA              =        234.71 SQUARE ANGSTROMS
          COSMO VOLUME            =        254.48 CUBIC ANGSTROMS

          GRADIENT NORM           =          0.19944          =       0.03420 PER ATOM
          IONIZATION POTENTIAL    =         10.878833 EV
          HOMO LUMO ENERGIES (EV) =        -10.879  3.074
          NO. OF FILLED LEVELS    =         35
          MOLECULAR WEIGHT        =        166.3058         POINT GROUP:  C1  

          MOLECULAR DIMENSIONS (Angstroms)

            Atom       Atom       Distance
            H    34    H    31     9.12987
            H    30    H    28     5.76185
            H    25    H    26     3.80625


          SCF CALCULATIONS        =         83

          WALL-CLOCK TIME         =      0.879 SECONDS
          COMPUTATION TIME        =      0.615 SECONDS




   ATOM   CHEMICAL          X               Y               Z
  NUMBER   SYMBOL      (ANGSTROMS)     (ANGSTROMS)     (ANGSTROMS)

     1       C         -0.64201658  *  -0.84122256  *   0.04334134  *
     2       C         -1.95229586  *  -0.10385430  *   0.44837661  *
     3       C          0.45135400  *  -0.80586033  *   1.08197649  *
     4       C          2.51882875  *  -0.14395713  *   0.75270263  *
     5       C          1.76986524  *  -1.49491352  *   0.65310000  *
     6       C          1.19951701  *   0.54664638  *   1.17564847  *
     7       C         -2.73442025  *  -1.43084734  *   0.29674720  *
     8       C         -1.42893147  *  -2.17116596  *  -0.04525161  *
     9       C         -2.35627496  *   1.01401278  *  -0.48902859  *
    10       C          3.11271858  *   0.33617277  *  -0.55522850  *
    11       C         -3.65850819  *   1.65722387  *  -0.06819649  *
    12       C          3.79191282  *   1.67905210  *  -0.40834706  *
    13       H         -1.93351330  *   0.26950772  *   1.49497957  *
    14       H         -0.24252861  *  -0.50539898  *  -0.93935323  *
    15       H          3.29290920  *  -0.12872443  *   1.54858644  *
    16       H          0.06638005  *  -1.16452646  *   2.05997099  *
    17       H         -1.54452480  *   1.76916354  *  -0.51279560  *
    18       H         -2.44038734  *   0.63245453  *  -1.52644630  *
    19       H          3.83660332  *  -0.41866641  *  -0.92120982  *
    20       H          2.32182503  *   0.39268944  *  -1.33101985  *
    21       H          1.75245846  *  -1.93924579  *  -0.35481593  *
    22       H          2.12782498  *  -2.27055269  *   1.34561161  *
    23       H         -3.48877481  *  -1.42809534  *  -0.50559849  *
    24       H         -3.23658212  *  -1.77482752  *   1.21291399  *
    25       H         -1.41101888  *  -2.64844005  *  -1.03603086  *
    26       H          1.21638155  *   0.99225046  *   2.18085295  *
    27       H          0.83810940  *   1.32263717  *   0.48051870  *
    28       H         -1.12603351  *  -2.93359604  *   0.68881524  *
    29       H         -3.59249444  *   2.08761809  *   0.93988965  *
    30       H         -3.94325936  *   2.46616005  *  -0.75277418  *
    31       H         -4.48039243  *   0.92847893  *  -0.05868736  *
    32       H          4.21333088  *   2.01853448  *  -1.36305641  *
    33       H          3.08799657  *   2.44975897  *  -0.06620654  *
    34       H          4.61374108  *   1.64163359  *   0.31901494  *

                             CARTESIAN COORDINATES

   1    C       -0.642016583    -0.841222559     0.043341339
   2    C       -1.952295864    -0.103854302     0.448376607
   3    C        0.451353995    -0.805860333     1.081976487
   4    C        2.518828748    -0.143957131     0.752702631
   5    C        1.769865244    -1.494913519     0.653100001
   6    C        1.199517011     0.546646376     1.175648472
   7    C       -2.734420248    -1.430847339     0.296747197
   8    C       -1.428931465    -2.171165957    -0.045251614
   9    C       -2.356274956     1.014012777    -0.489028593
  10    C        3.112718582     0.336172770    -0.555228504
  11    C       -3.658508194     1.657223872    -0.068196489
  12    C        3.791912821     1.679052096    -0.408347056
  13    H       -1.933513299     0.269507725     1.494979575
  14    H       -0.242528605    -0.505398978    -0.939353230
  15    H        3.292909197    -0.128724431     1.548586445
  16    H        0.066380046    -1.164526462     2.059970986
  17    H       -1.544524805     1.769163535    -0.512795601
  18    H       -2.440387340     0.632454534    -1.526446297
  19    H        3.836603318    -0.418666405    -0.921209817
  20    H        2.321825032     0.392689443    -1.331019848
  21    H        1.752458460    -1.939245787    -0.354815930
  22    H        2.127824979    -2.270552690     1.345611610
  23    H       -3.488774815    -1.428095344    -0.505598491
  24    H       -3.236582119    -1.774827523     1.212913987
  25    H       -1.411018876    -2.648440053    -1.036030858
  26    H        1.216381545     0.992250457     2.180852946
  27    H        0.838109395     1.322637166     0.480518704
  28    H       -1.126033515    -2.933596041     0.688815237
  29    H       -3.592494439     2.087618087     0.939889648
  30    H       -3.943259356     2.466160049    -0.752774177
  31    H       -4.480392430     0.928478929    -0.058687359
  32    H        4.213330885     2.018534477    -1.363056408
  33    H        3.087996575     2.449758969    -0.066206541
  34    H        4.613741076     1.641633593     0.319014941


           Empirical Formula: C12 H22  =    34 atoms



      MOLECULAR POINT GROUP   :   C1  


                  EIGENVALUES  
 -42.76976 -38.96214 -33.74917 -32.34485 -26.65306 -25.78363 -24.82863 -23.41631
 -21.80683 -20.27871 -18.99555 -18.42585 -17.08572 -16.82479 -16.17760 -15.66006
 -15.05013 -14.77479 -14.50601 -14.19083 -13.76447 -13.53894 -13.34014 -13.03928
 -12.74553 -12.46336 -12.41609 -12.39518 -12.11186 -11.57950 -11.49498 -11.37094
 -11.20123 -11.06197 -10.87883   3.07358   3.24764   3.41598   3.46702   3.57680
   3.67280   3.74812   3.77703   3.91007   3.95420   3.97529   4.00270   4.01957
   4.09518   4.10679   4.23687   4.30457   4.35446   4.37147   4.45038   4.51018
   4.54188   4.55653   4.62068   4.65585   4.83851   4.87572   4.95620   5.00041
   5.00633   5.03978   5.38555   5.47580   5.71100   5.76513


              NET ATOMIC CHARGES AND DIPOLE CONTRIBUTIONS

  ATOM NO.   TYPE          CHARGE      No. of ELECS.   s-Pop       p-Pop       
    1          C          -0.087660        4.0877     1.19307     2.89459
    2          C          -0.094200        4.0942     1.19393     2.90027
    3          C          -0.082837        4.0828     1.18830     2.89453
    4          C          -0.093264        4.0933     1.19052     2.90274
    5          C          -0.110548        4.1105     1.17764     2.93291
    6          C          -0.111651        4.1117     1.17774     2.93391
    7          C          -0.109531        4.1095     1.17361     2.93592
    8          C          -0.107228        4.1072     1.17289     2.93434
    9          C          -0.089453        4.0895     1.15739     2.93207
   10          C          -0.089639        4.0896     1.15746     2.93218
   11          C          -0.109477        4.1095     1.13799     2.97149
   12          C          -0.109504        4.1095     1.13796     2.97154
   13          H           0.075889        0.9241     0.92411
   14          H           0.077834        0.9222     0.92217
   15          H           0.071409        0.9286     0.92859
   16          H           0.073805        0.9262     0.92619
   17          H           0.050275        0.9497     0.94972
   18          H           0.051217        0.9488     0.94878
   19          H           0.049356        0.9506     0.95064
   20          H           0.051569        0.9484     0.94843
   21          H           0.062697        0.9373     0.93730
   22          H           0.055247        0.9448     0.94475
   23          H           0.059437        0.9406     0.94056
   24          H           0.054566        0.9454     0.94543
   25          H           0.054557        0.9454     0.94544
   26          H           0.055302        0.9447     0.94470
   27          H           0.065348        0.9347     0.93465
   28          H           0.058827        0.9412     0.94117
   29          H           0.037827        0.9622     0.96217
   30          H           0.036818        0.9632     0.96318
   31          H           0.039195        0.9608     0.96081
   32          H           0.036808        0.9632     0.96319
   33          H           0.039169        0.9608     0.96083
   34          H           0.037841        0.9622     0.96216
 DIPOLE           X         Y         Z       TOTAL
 POINT-CHG.     0.025     0.059    -0.083     0.105
 HYBRID        -0.018     0.001     0.009     0.020
 SUM            0.007     0.060    -0.074     0.096


          ATOMIC ORBITAL ELECTRON POPULATIONS

     Atom    s        px        py        pz   
    1  C   1.19307   0.93911   0.96639   0.98909
    2  C   1.19393   0.95783   0.94392   0.99851
    3  C   1.18830   0.94058   0.96827   0.98567
    4  C   1.19052   0.96200   0.96222   0.97853
    5  C   1.17764   0.95956   0.95660   1.01675
    6  C   1.17774   0.95976   0.95968   1.01447
    7  C   1.17361   0.95889   0.96225   1.01478
    8  C   1.17289   0.96282   0.95721   1.01431
    9  C   1.15739   0.97312   0.97476   0.98419
   10  C   1.15746   0.99800   0.96957   0.96462
   11  C   1.13799   0.97008   0.99678   1.00464
   12  C   1.13796   0.99705   0.96713   1.00737
   13  H   0.92411
   14  H   0.92217
   15  H   0.92859
   16  H   0.92619
   17  H   0.94972
   18  H   0.94878
   19  H   0.95064
   20  H   0.94843
   21  H   0.93730
   22  H   0.94475
   23  H   0.94056
   24  H   0.94543
   25  H   0.94544
   26  H   0.94470
   27  H   0.93465
   28  H   0.94117
   29  H   0.96217
   30  H   0.96318
   31  H   0.96081
   32  H   0.96319
   33  H   0.96083
   34  H   0.96216
 *******************************************************************************
 **                                                                           **
 **                              MOPAC v23.1.2                                **
 **                                                                           **
 *******************************************************************************
 **          Digital Object Identifier (DOI): 10.5281/zenodo.6511958          **
 **    Visit the DOI location for information on how to cite this program.    **
 *******************************************************************************

                              PM3 CALCULATION RESULTS

 *******************************************************************************
 *  CALCULATION DONE: (MAX THREADS = 1)              Tue Jun  3 16:43:04 2025  *
 *  PM3        - The PM3 Hamiltonian to be used
 *  OLDGEO     - PREVIOUS GEOMETRY TO BE USED
 *  PRECISE    - TIGHTER CRITERIA TO BE USED
 *  NOSYM      - POINT-GROUP SYMMETRY SET TO C1
 *  THREADS=1  - MULTI-THREADING NOT USED
 *  T=         - A TIME OF 172800.0 SECONDS REQUESTED
 *  DUMP=N     - RESTART FILE WRITTEN EVERY 7200.0 SECONDS REQUESTED
 *  THERMO     - THERMODYNAMIC QUANTITIES TO BE CALCULATED
 *******************************************************************************
oldgeo thermo nosym precise THREADS=1  pm3
 InChI=1S/C12H22/c1-3-9-7-11(8-9)12-6-5-10(12)4-2/h9-12H,3-8H2,1-2H3

   ATOM   CHEMICAL          X               Y               Z
  NUMBER   SYMBOL      (ANGSTROMS)     (ANGSTROMS)     (ANGSTROMS)

     1       C         -0.64201658  *  -0.84122256  *   0.04334134  *
     2       C         -1.95229586  *  -0.10385430  *   0.44837661  *
     3       C          0.45135400  *  -0.80586033  *   1.08197649  *
     4       C          2.51882875  *  -0.14395713  *   0.75270263  *
     5       C          1.76986524  *  -1.49491352  *   0.65310000  *
     6       C          1.19951701  *   0.54664638  *   1.17564847  *
     7       C         -2.73442025  *  -1.43084734  *   0.29674720  *
     8       C         -1.42893147  *  -2.17116596  *  -0.04525161  *
     9       C         -2.35627496  *   1.01401278  *  -0.48902859  *
    10       C          3.11271858  *   0.33617277  *  -0.55522850  *
    11       C         -3.65850819  *   1.65722387  *  -0.06819649  *
    12       C          3.79191282  *   1.67905210  *  -0.40834706  *
    13       H         -1.93351330  *   0.26950772  *   1.49497957  *
    14       H         -0.24252861  *  -0.50539898  *  -0.93935323  *
    15       H          3.29290920  *  -0.12872443  *   1.54858644  *
    16       H          0.06638005  *  -1.16452646  *   2.05997099  *
    17       H         -1.54452480  *   1.76916354  *  -0.51279560  *
    18       H         -2.44038734  *   0.63245453  *  -1.52644630  *
    19       H          3.83660332  *  -0.41866641  *  -0.92120982  *
    20       H          2.32182503  *   0.39268944  *  -1.33101985  *
    21       H          1.75245846  *  -1.93924579  *  -0.35481593  *
    22       H          2.12782498  *  -2.27055269  *   1.34561161  *
    23       H         -3.48877481  *  -1.42809534  *  -0.50559849  *
    24       H         -3.23658212  *  -1.77482752  *   1.21291399  *
    25       H         -1.41101888  *  -2.64844005  *  -1.03603086  *
    26       H          1.21638155  *   0.99225046  *   2.18085295  *
    27       H          0.83810940  *   1.32263717  *   0.48051870  *
    28       H         -1.12603351  *  -2.93359604  *   0.68881524  *
    29       H         -3.59249444  *   2.08761809  *   0.93988965  *
    30       H         -3.94325936  *   2.46616005  *  -0.75277418  *
    31       H         -4.48039243  *   0.92847893  *  -0.05868736  *
    32       H          4.21333088  *   2.01853448  *  -1.36305641  *
    33       H          3.08799657  *   2.44975897  *  -0.06620654  *
    34       H          4.61374108  *   1.64163359  *   0.31901494  *



          CARTESIAN COORDINATES 

    NO.       ATOM           X           Y           Z

     1         C         -0.6420     -0.8412      0.0433
     2         C         -1.9523     -0.1039      0.4484
     3         C          0.4514     -0.8059      1.0820
     4         C          2.5188     -0.1440      0.7527
     5         C          1.7699     -1.4949      0.6531
     6         C          1.1995      0.5466      1.1756
     7         C         -2.7344     -1.4308      0.2967
     8         C         -1.4289     -2.1712     -0.0453
     9         C         -2.3563      1.0140     -0.4890
    10         C          3.1127      0.3362     -0.5552
    11         C         -3.6585      1.6572     -0.0682
    12         C          3.7919      1.6791     -0.4083
    13         H         -1.9335      0.2695      1.4950
    14         H         -0.2425     -0.5054     -0.9394
    15         H          3.2929     -0.1287      1.5486
    16         H          0.0664     -1.1645      2.0600
    17         H         -1.5445      1.7692     -0.5128
    18         H         -2.4404      0.6325     -1.5264
    19         H          3.8366     -0.4187     -0.9212
    20         H          2.3218      0.3927     -1.3310
    21         H          1.7525     -1.9392     -0.3548
    22         H          2.1278     -2.2706      1.3456
    23         H         -3.4888     -1.4281     -0.5056
    24         H         -3.2366     -1.7748      1.2129
    25         H         -1.4110     -2.6484     -1.0360
    26         H          1.2164      0.9923      2.1809
    27         H          0.8381      1.3226      0.4805
    28         H         -1.1260     -2.9336      0.6888
    29         H         -3.5925      2.0876      0.9399
    30         H         -3.9433      2.4662     -0.7528
    31         H         -4.4804      0.9285     -0.0587
    32         H          4.2133      2.0185     -1.3631
    33         H          3.0880      2.4498     -0.0662
    34         H          4.6137      1.6416      0.3190

  H: (PM3): J. J. P. STEWART, J. COMP. CHEM. 10, 209 (1989).
  C: (PM3): J. J. P. STEWART, J. COMP. CHEM. 10, 209 (1989).

           Empirical Formula: C12 H22  =    34 atoms



      MOLECULAR POINT GROUP   :   C1  


      RHF CALCULATION, NO. OF DOUBLY OCCUPIED LEVELS = 35



          HEAT OF FORMATION =     -26.576475 KCALS/MOLE


          CARTESIAN COORDINATE DERIVATIVES

   NUMBER  ATOM         X            Y            Z

     1       C      0.000743    -0.026772     0.012819
     2       C     -0.018734     0.028637    -0.028733
     3       C     -0.011484     0.031445     0.001764
     4       C      0.020700    -0.033317    -0.019741
     5       C     -0.008974    -0.005344    -0.009728
     6       C     -0.004374     0.024598    -0.006238
     7       C     -0.011352    -0.053290     0.035391
     8       C      0.006424     0.065809    -0.011751
     9       C     -0.000204     0.005809     0.045335
    10       C     -0.012375     0.029918     0.001607
    11       C      0.012116     0.006678    -0.037843
    12       C     -0.007118     0.012914    -0.015390
    13       H     -0.001833    -0.045546     0.009289
    14       H     -0.006164    -0.016681    -0.000508
    15       H      0.031352     0.021436    -0.034479
    16       H      0.010133    -0.000840     0.005957
    17       H     -0.011156    -0.018929    -0.011269
    18       H     -0.004747     0.021433    -0.004074
    19       H      0.005324     0.008020    -0.013896
    20       H      0.014326     0.015037     0.007943
    21       H      0.002913    -0.029831     0.002107
    22       H     -0.016442    -0.000133    -0.000565
    23       H     -0.014449     0.014850     0.005156
    24       H      0.005112    -0.001983    -0.011340
    25       H     -0.000127     0.000986     0.013780
    26       H     -0.008238     0.001734     0.022518
    27       H      0.015660     0.013258     0.014116
    28       H      0.041419    -0.017060    -0.005761
    29       H      0.006670    -0.023905    -0.012155
    30       H      0.035532     0.022010    -0.023494
    31       H     -0.007400    -0.009197    -0.006309
    32       H     -0.009011    -0.018536     0.017756
    33       H     -0.033711    -0.008510     0.033393
    34       H     -0.020532    -0.014698     0.024345



          GRADIENT NORM =   0.20159

          MOLECULAR WEIGHT =  166.31



          ROTATIONAL CONSTANTS IN CM(-1)

          A =    0.04962661   B =    0.01585672   C =    0.01326792



           PRINCIPAL MOMENTS OF INERTIA IN UNITS OF 10**(-40)*GRAM-CM**2

          A =      564.0674   B =     1765.3557   C =     2109.8076


          ORIENTATION OF MOLECULE IN FORCE CALCULATION

    NO.       ATOM         X         Y         Z

     1          C       0.1535   -0.6028   -0.7682
     2          C       1.7106   -0.6028   -0.7682
     3          C      -0.4797    0.7663   -0.7682
     4          C      -1.9916    1.4855    0.6523
     5          C      -2.0270    0.7606   -0.7149
     6          C      -0.4444    1.4861    0.6024
     7          C       1.7009   -1.3812   -2.1060
     8          C       0.1628   -1.3285   -2.1354
     9          C       2.3360   -1.3184    0.4100
    10          C      -2.6042    0.6967    1.7909
    11          C       3.8459   -1.3243    0.3269
    12          C      -2.5016    1.4326    3.1077
    13          H       2.1438    0.4161   -0.8642
    14          H      -0.2793   -1.2207    0.0497
    15          H      -2.4288    2.5057    0.6198
    16          H      -0.0712    1.3805   -1.5985
    17          H       2.0044   -0.8221    1.3446
    18          H       1.9563   -2.3580    0.4724
    19          H      -3.6660    0.4867    1.5538
    20          H      -2.1137   -0.2951    1.8701
    21          H      -2.4850   -0.2411   -0.6939
    22          H      -2.5154    1.3259   -1.5219
    23          H       2.1283   -2.3945   -2.0487
    24          H       2.1989   -0.8658   -2.9404
    25          H      -0.3360   -2.3087   -2.1367
    26          H       0.0139    2.4856    0.5833
    27          H       0.0464    0.9172    1.4095
    28          H      -0.2622   -0.7459   -2.9672
    29          H       4.2564   -0.3059    0.3112
    30          H       4.2905   -1.8445    1.1847
    31          H       4.1949   -1.8309   -0.5832
    32          H      -2.9438    0.8492    3.9253
    33          H      -1.4553    1.6338    3.3748
    34          H      -3.0217    2.3992    3.0749


    FIRST DERIVATIVES WILL BE USED IN THE CALCULATION OF SECOND DERIVATIVES

          ESTIMATED TIME TO COMPLETE CALCULATION =        4.78 SECONDS

    FOR POINT-GROUP C1   THERE ARE   1 UNIQUE SYMMETRY FUNCTIONS.

 STEP:   1 TIME =     0.04 SECS, INTEGRAL =      0.04 TIME LEFT: 172799.95
 STEP:   2 TIME =     0.04 SECS, INTEGRAL =      0.08 TIME LEFT: 172799.91
 STEP:   3 TIME =     0.04 SECS, INTEGRAL =      0.12 TIME LEFT: 172799.87
 STEP:   4 TIME =     0.04 SECS, INTEGRAL =      0.16 TIME LEFT: 172799.83
 STEP:   5 TIME =     0.04 SECS, INTEGRAL =      0.20 TIME LEFT: 172799.79
 STEP:   6 TIME =     0.04 SECS, INTEGRAL =      0.23 TIME LEFT: 172799.75
 STEP:   7 TIME =     0.04 SECS, INTEGRAL =      0.27 TIME LEFT: 172799.71
 STEP:   8 TIME =     0.04 SECS, INTEGRAL =      0.31 TIME LEFT: 172799.68
 STEP:   9 TIME =     0.04 SECS, INTEGRAL =      0.35 TIME LEFT: 172799.64
 STEP:  10 TIME =     0.04 SECS, INTEGRAL =      0.39 TIME LEFT: 172799.60
 STEP:  11 TIME =     0.04 SECS, INTEGRAL =      0.43 TIME LEFT: 172799.56
 STEP:  12 TIME =     0.04 SECS, INTEGRAL =      0.47 TIME LEFT: 172799.52
 STEP:  13 TIME =     0.04 SECS, INTEGRAL =      0.50 TIME LEFT: 172799.48
 STEP:  14 TIME =     0.04 SECS, INTEGRAL =      0.54 TIME LEFT: 172799.45
 STEP:  15 TIME =     0.04 SECS, INTEGRAL =      0.58 TIME LEFT: 172799.41
 STEP:  16 TIME =     0.04 SECS, INTEGRAL =      0.62 TIME LEFT: 172799.37
 STEP:  17 TIME =     0.04 SECS, INTEGRAL =      0.66 TIME LEFT: 172799.33
 STEP:  18 TIME =     0.04 SECS, INTEGRAL =      0.70 TIME LEFT: 172799.29
 STEP:  19 TIME =     0.04 SECS, INTEGRAL =      0.74 TIME LEFT: 172799.25
 STEP:  20 TIME =     0.04 SECS, INTEGRAL =      0.78 TIME LEFT: 172799.21
 STEP:  21 TIME =     0.04 SECS, INTEGRAL =      0.82 TIME LEFT: 172799.17
 STEP:  22 TIME =     0.04 SECS, INTEGRAL =      0.86 TIME LEFT: 172799.13
 STEP:  23 TIME =     0.04 SECS, INTEGRAL =      0.90 TIME LEFT: 172799.09
 STEP:  24 TIME =     0.04 SECS, INTEGRAL =      0.94 TIME LEFT: 172799.05
 STEP:  25 TIME =     0.04 SECS, INTEGRAL =      0.98 TIME LEFT: 172799.01
 STEP:  26 TIME =     0.04 SECS, INTEGRAL =      1.02 TIME LEFT: 172798.96
 STEP:  27 TIME =     0.04 SECS, INTEGRAL =      1.06 TIME LEFT: 172798.93
 STEP:  28 TIME =     0.04 SECS, INTEGRAL =      1.10 TIME LEFT: 172798.89
 STEP:  29 TIME =     0.04 SECS, INTEGRAL =      1.14 TIME LEFT: 172798.85
 STEP:  30 TIME =     0.04 SECS, INTEGRAL =      1.18 TIME LEFT: 172798.81
 STEP:  31 TIME =     0.04 SECS, INTEGRAL =      1.21 TIME LEFT: 172798.77
 STEP:  32 TIME =     0.04 SECS, INTEGRAL =      1.26 TIME LEFT: 172798.73
 STEP:  33 TIME =     0.04 SECS, INTEGRAL =      1.30 TIME LEFT: 172798.69
 STEP:  34 TIME =     0.04 SECS, INTEGRAL =      1.34 TIME LEFT: 172798.65
 STEP:  35 TIME =     0.04 SECS, INTEGRAL =      1.38 TIME LEFT: 172798.61
 STEP:  36 TIME =     0.04 SECS, INTEGRAL =      1.42 TIME LEFT: 172798.57
 STEP:  37 TIME =     0.04 SECS, INTEGRAL =      1.46 TIME LEFT: 172798.53
 STEP:  38 TIME =     0.04 SECS, INTEGRAL =      1.50 TIME LEFT: 172798.49
 STEP:  39 TIME =     0.05 SECS, INTEGRAL =      1.55 TIME LEFT: 172798.44
 STEP:  40 TIME =     0.04 SECS, INTEGRAL =      1.59 TIME LEFT: 172798.40
 STEP:  41 TIME =     0.04 SECS, INTEGRAL =      1.62 TIME LEFT: 172798.36
 STEP:  42 TIME =     0.04 SECS, INTEGRAL =      1.66 TIME LEFT: 172798.32
 STEP:  43 TIME =     0.04 SECS, INTEGRAL =      1.71 TIME LEFT: 172798.28
 STEP:  44 TIME =     0.04 SECS, INTEGRAL =      1.75 TIME LEFT: 172798.24
 STEP:  45 TIME =     0.04 SECS, INTEGRAL =      1.79 TIME LEFT: 172798.20
 STEP:  46 TIME =     0.04 SECS, INTEGRAL =      1.83 TIME LEFT: 172798.16
 STEP:  47 TIME =     0.04 SECS, INTEGRAL =      1.87 TIME LEFT: 172798.12
 STEP:  48 TIME =     0.04 SECS, INTEGRAL =      1.91 TIME LEFT: 172798.08
 STEP:  49 TIME =     0.04 SECS, INTEGRAL =      1.95 TIME LEFT: 172798.04
 STEP:  50 TIME =     0.04 SECS, INTEGRAL =      1.99 TIME LEFT: 172798.00
 STEP:  51 TIME =     0.04 SECS, INTEGRAL =      2.03 TIME LEFT: 172797.96
 STEP:  52 TIME =     0.04 SECS, INTEGRAL =      2.07 TIME LEFT: 172797.92
 STEP:  53 TIME =     0.04 SECS, INTEGRAL =      2.11 TIME LEFT: 172797.88
 STEP:  54 TIME =     0.04 SECS, INTEGRAL =      2.15 TIME LEFT: 172797.84
 STEP:  55 TIME =     0.04 SECS, INTEGRAL =      2.19 TIME LEFT: 172797.80
 STEP:  56 TIME =     0.04 SECS, INTEGRAL =      2.23 TIME LEFT: 172797.76
 STEP:  57 TIME =     0.04 SECS, INTEGRAL =      2.27 TIME LEFT: 172797.71
 STEP:  58 TIME =     0.04 SECS, INTEGRAL =      2.31 TIME LEFT: 172797.68
 STEP:  59 TIME =     0.04 SECS, INTEGRAL =      2.35 TIME LEFT: 172797.64
 STEP:  60 TIME =     0.04 SECS, INTEGRAL =      2.39 TIME LEFT: 172797.59
 STEP:  61 TIME =     0.04 SECS, INTEGRAL =      2.43 TIME LEFT: 172797.55
 STEP:  62 TIME =     0.04 SECS, INTEGRAL =      2.47 TIME LEFT: 172797.52
 STEP:  63 TIME =     0.05 SECS, INTEGRAL =      2.52 TIME LEFT: 172797.47
 STEP:  64 TIME =     0.04 SECS, INTEGRAL =      2.56 TIME LEFT: 172797.43
 STEP:  65 TIME =     0.04 SECS, INTEGRAL =      2.60 TIME LEFT: 172797.39
 STEP:  66 TIME =     0.04 SECS, INTEGRAL =      2.64 TIME LEFT: 172797.35
 STEP:  67 TIME =     0.04 SECS, INTEGRAL =      2.68 TIME LEFT: 172797.31
 STEP:  68 TIME =     0.04 SECS, INTEGRAL =      2.71 TIME LEFT: 172797.27
 STEP:  69 TIME =     0.04 SECS, INTEGRAL =      2.76 TIME LEFT: 172797.23
 STEP:  70 TIME =     0.04 SECS, INTEGRAL =      2.80 TIME LEFT: 172797.19
 STEP:  71 TIME =     0.04 SECS, INTEGRAL =      2.84 TIME LEFT: 172797.15
 STEP:  72 TIME =     0.04 SECS, INTEGRAL =      2.88 TIME LEFT: 172797.11
 STEP:  73 TIME =     0.04 SECS, INTEGRAL =      2.91 TIME LEFT: 172797.07
 STEP:  74 TIME =     0.04 SECS, INTEGRAL =      2.95 TIME LEFT: 172797.04
 STEP:  75 TIME =     0.04 SECS, INTEGRAL =      3.00 TIME LEFT: 172796.99
 STEP:  76 TIME =     0.04 SECS, INTEGRAL =      3.04 TIME LEFT: 172796.95
 STEP:  77 TIME =     0.04 SECS, INTEGRAL =      3.07 TIME LEFT: 172796.91
 STEP:  78 TIME =     0.04 SECS, INTEGRAL =      3.12 TIME LEFT: 172796.87
 STEP:  79 TIME =     0.04 SECS, INTEGRAL =      3.16 TIME LEFT: 172796.83
 STEP:  80 TIME =     0.04 SECS, INTEGRAL =      3.20 TIME LEFT: 172796.79
 STEP:  81 TIME =     0.04 SECS, INTEGRAL =      3.24 TIME LEFT: 172796.75
 STEP:  82 TIME =     0.04 SECS, INTEGRAL =      3.28 TIME LEFT: 172796.71
 STEP:  83 TIME =     0.04 SECS, INTEGRAL =      3.32 TIME LEFT: 172796.67
 STEP:  84 TIME =     0.04 SECS, INTEGRAL =      3.36 TIME LEFT: 172796.63
 STEP:  85 TIME =     0.04 SECS, INTEGRAL =      3.40 TIME LEFT: 172796.59
 STEP:  86 TIME =     0.04 SECS, INTEGRAL =      3.43 TIME LEFT: 172796.55
 STEP:  87 TIME =     0.04 SECS, INTEGRAL =      3.48 TIME LEFT: 172796.51
 STEP:  88 TIME =     0.04 SECS, INTEGRAL =      3.52 TIME LEFT: 172796.47
 STEP:  89 TIME =     0.04 SECS, INTEGRAL =      3.56 TIME LEFT: 172796.43
 STEP:  90 TIME =     0.04 SECS, INTEGRAL =      3.60 TIME LEFT: 172796.39
 STEP:  91 TIME =     0.04 SECS, INTEGRAL =      3.64 TIME LEFT: 172796.35
 STEP:  92 TIME =     0.04 SECS, INTEGRAL =      3.68 TIME LEFT: 172796.31
 STEP:  93 TIME =     0.04 SECS, INTEGRAL =      3.71 TIME LEFT: 172796.27
 STEP:  94 TIME =     0.04 SECS, INTEGRAL =      3.75 TIME LEFT: 172796.23
 STEP:  95 TIME =     0.04 SECS, INTEGRAL =      3.80 TIME LEFT: 172796.19
 STEP:  96 TIME =     0.04 SECS, INTEGRAL =      3.84 TIME LEFT: 172796.15
 STEP:  97 TIME =     0.04 SECS, INTEGRAL =      3.87 TIME LEFT: 172796.12
 STEP:  98 TIME =     0.04 SECS, INTEGRAL =      3.91 TIME LEFT: 172796.07
 STEP:  99 TIME =     0.04 SECS, INTEGRAL =      3.96 TIME LEFT: 172796.03
 STEP: 100 TIME =     0.04 SECS, INTEGRAL =      4.00 TIME LEFT: 172795.99
 STEP: 101 TIME =     0.04 SECS, INTEGRAL =      4.04 TIME LEFT: 172795.95
 STEP: 102 TIME =     0.04 SECS, INTEGRAL =      4.08 TIME LEFT: 172795.91

(To convert to Hartree/Bohr^2, multiply by (10^(-21) x N x a0^2)/(4.184 x 627.51) =  0.0642)


           FORCE MATRIX IN MILLIDYNES/ANGSTROM


                  C  1       C  2       C  3       C  4       C  5       C  6
 ------------------------------------------------------------------------------
     C    1  14.594379
     C    2   3.184798  14.452205
     C    3   4.464182   0.538253  14.690352
     C    4   0.040500   0.004005   1.803684  14.547980
     C    5   0.552628   0.046344   3.463355   3.477001  14.343561
     C    6   0.556413   0.025515   3.457995   3.466393   1.827273  14.320296
     C    7   1.817249   3.472247   0.041709   0.000288   0.004610   0.003725
     C    8   3.473391   1.816776   0.538816   0.004039   0.022497   0.046770
     C    9   0.538853   4.333680   0.034280   0.000528   0.005695   0.004332
     C   10   0.006056   0.000908   0.039970   4.310021   0.551773   0.541663
     C   11   0.049899   0.660895   0.006867   0.000290   0.001522   0.000685
     C   12   0.001025   0.000522   0.004978   0.657911   0.051137   0.031675
     H   13   0.436997   4.396956   0.034411   0.000588   0.002693   0.004188
     H   14   4.358890   0.436840   0.435177   0.002868   0.026427   0.024049
     H   15   0.001933   0.000666   0.028498   4.427361   0.427778   0.429041
     H   16   0.436802   0.022814   4.421731   0.028529   0.427887   0.427782
     H   17   0.020247   0.433130   0.001667   0.000361   0.000445   0.005658
     H   18   0.021518   0.450784   0.000885   0.000126   0.000427   0.000281
     H   19   0.000789   0.000205   0.003373   0.433889   0.019792   0.047714
     H   20   0.004687   0.000371   0.002764   0.450197   0.021075   0.024217
     H   21   0.029547   0.002963   0.452432   0.452709   4.651013   0.028425
     H   22   0.034748   0.005436   0.442277   0.442609   4.716910   0.031349
     H   23   0.029225   0.454045   0.001657   0.000151   0.000644   0.000619
     H   24   0.031122   0.441812   0.003808   0.000091   0.000825   0.000786
     H   25   0.442694   0.031316   0.033342   0.000303   0.001459   0.005428
     H   26   0.034912   0.001739   0.442923   0.441317   0.031322   4.717221
     H   27   0.030505   0.004762   0.452879   0.452409   0.028304   4.618739
     H   28   0.454046   0.029316   0.026685   0.000562   0.003620   0.002816
     H   29   0.001670   0.024028   0.000496   0.000039   0.000118   0.000086
     H   30   0.008547   0.052533   0.001393   0.000036   0.000376   0.000127
     H   31   0.001850   0.020245   0.000555   0.000100   0.000122   0.000139
     H   32   0.000237   0.000116   0.000609   0.052448   0.008761   0.002128
     H   33   0.000360   0.000078   0.000474   0.019863   0.001880   0.006929
     H   34   0.000230   0.000104   0.000324   0.023529   0.001606   0.002032


                  C  7       C  8       C  9       C 10       C 11       C 12
 ------------------------------------------------------------------------------
     C    7  14.426545
     C    8   3.757960  14.437467
     C    9   0.531838   0.041650  14.493438
     C   10   0.000271   0.001150   0.000302  14.491693
     C   11   0.031410   0.005697   4.469833   0.000226  14.377086
     C   12   0.000160   0.000437   0.000268   4.473585   0.000217  14.374868
     H   13   0.429942   0.026259   0.430111   0.000464   0.031784   0.000125
     H   14   0.026155   0.428464   0.037607   0.004928   0.002758   0.000689
     H   15   0.000224   0.000723   0.000126   0.431517   0.000096   0.031299
     H   16   0.001476   0.023489   0.000998   0.002194   0.000516   0.000589
     H   17   0.047459   0.002995   4.430163   0.000278   0.439965   0.000134
     H   18   0.022029   0.001763   4.440375   0.000144   0.437299   0.000087
     H   19   0.000072   0.000397   0.000077   4.456718   0.000070   0.439704
     H   20   0.000105   0.000369   0.000251   4.418914   0.000142   0.437680
     H   21   0.000718   0.003812   0.000657   0.031806   0.000187   0.002992
     H   22   0.000377   0.001515   0.000925   0.034203   0.000407   0.006454
     H   23   4.662621   0.445752   0.024404   0.000109   0.008249   0.000048
     H   24   4.707235   0.444985   0.033337   0.000079   0.001629   0.000046
     H   25   0.444992   4.708523   0.003871   0.000238   0.000805   0.000113
     H   26   0.000288   0.005520   0.000454   0.034487   0.000294   0.001680
     H   27   0.000782   0.002965   0.006618   0.025301   0.000581   0.008647
     H   28   0.446196   4.676445   0.001886   0.000343   0.000494   0.000184
     H   29   0.002046   0.000418   0.464288   0.000086   4.725522   0.000049
     H   30   0.002040   0.000788   0.451480   0.000058   4.753283   0.000068
     H   31   0.006544   0.000537   0.463574   0.000064   4.714377   0.000048
     H   32   0.000063   0.000117   0.000095   0.451152   0.000089   4.750608
     H   33   0.000072   0.000173   0.000117   0.463723   0.000092   4.716134
     H   34   0.000038   0.000145   0.000064   0.464118   0.000055   4.725146


                  H 13       H 14       H 15       H 16       H 17       H 18
 ------------------------------------------------------------------------------
     H   13   4.903027
     H   14   0.029903   4.862112
     H   15   0.000273   0.000586   4.927806
     H   16   0.022501   0.041293   0.002645   4.920825
     H   17   0.026054   0.011567   0.000172   0.000334   5.036402
     H   18   0.043334   0.020559   0.000056   0.000505   0.567634   5.055300
     H   19   0.000141   0.000393   0.024519   0.000660   0.000098   0.000044
     H   20   0.000149   0.010253   0.043767   0.000528   0.000164   0.000074
     H   21   0.000621   0.022910   0.030813   0.030310   0.000115   0.000183
     H   22   0.000530   0.001500   0.026477   0.026766   0.000133   0.000063
     H   23   0.031843   0.002580   0.000066   0.000570   0.003371   0.022316
     H   24   0.027247   0.001187   0.000057   0.000709   0.005759   0.001706
     H   25   0.001246   0.027142   0.000177   0.001403   0.000680   0.000755
     H   26   0.000979   0.001417   0.026972   0.026582   0.000315   0.000180
     H   27   0.001153   0.020308   0.030621   0.030436   0.009559   0.000402
     H   28   0.002607   0.031723   0.000220   0.021374   0.000600   0.000525
     H   29   0.022163   0.000507   0.000031   0.000175   0.024072   0.048291
     H   30   0.002021   0.000672   0.000021   0.000121   0.028334   0.030326
     H   31   0.001982   0.000457   0.000038   0.000101   0.049117   0.024532
     H   32   0.000037   0.000163   0.001986   0.000127   0.000046   0.000018
     H   33   0.000065   0.000188   0.001955   0.000303   0.000078   0.000029
     H   34   0.000049   0.000222   0.021672   0.000115   0.000049   0.000034


                  H 19       H 20       H 21       H 22       H 23       H 24
 ------------------------------------------------------------------------------
     H   19   5.065237
     H   20   0.568689   5.031576
     H   21   0.012476   0.016356   5.285133
     H   22   0.001967   0.001300   0.552472   5.334881
     H   23   0.000035   0.000047   0.000228   0.000162   5.292731
     H   24   0.000034   0.000059   0.000268   0.000109   0.556896   5.328775
     H   25   0.000112   0.000127   0.001058   0.000251   0.022846   0.032705
     H   26   0.005970   0.001777   0.000994   0.003358   0.000153   0.000118
     H   27   0.003508   0.023383   0.002860   0.001020   0.000240   0.000253
     H   28   0.000079   0.000143   0.001003   0.000763   0.033796   0.023208
     H   29   0.000024   0.000032   0.000057   0.000049   0.000432   0.000353
     H   30   0.000019   0.000040   0.000057   0.000107   0.000562   0.000327
     H   31   0.000022   0.000057   0.000030   0.000042   0.011147   0.000926
     H   32   0.028941   0.030313   0.000703   0.001228   0.000014   0.000016
     H   33   0.049203   0.024191   0.000401   0.000407   0.000022   0.000026
     H   34   0.024586   0.048190   0.000440   0.000343   0.000011   0.000011


                  H 25       H 26       H 27       H 28       H 29       H 30
 ------------------------------------------------------------------------------
     H   25   5.329606
     H   26   0.000871   5.334846
     H   27   0.000531   0.551390   5.251575
     H   28   0.556589   0.000516   0.000546   5.304173
     H   29   0.000187   0.000070   0.000145   0.000106   5.468488
     H   30   0.000128   0.000063   0.000153   0.000124   0.574165   5.490193
     H   31   0.000255   0.000102   0.000222   0.000281   0.576622   0.571943
     H   32   0.000036   0.000329   0.000597   0.000048   0.000018   0.000026
     H   33   0.000063   0.000796   0.012444   0.000040   0.000021   0.000025
     H   34   0.000033   0.000355   0.000467   0.000036   0.000016   0.000017


                  H 31       H 32       H 33       H 34
 ------------------------------------------------------
     H   31   5.452597
     H   32   0.000020   5.487677
     H   33   0.000035   0.572207   5.454354
     H   34   0.000014   0.574133   0.575917   5.467917


          HEAT OF FORMATION =     -26.576475 KCALS/MOLE

          ZERO POINT ENERGY     196.504 KCAL/MOL


           NORMAL COORDINATE ANALYSIS (Total motion = 1 Angstrom)


   Root No.       1         2         3         4         5         6         7         8

                 1 A       2 A       3 A       4 A       5 A       6 A       7 A       8 A   

                  33.4      45.7      75.0      92.1     103.1     166.0     179.5     181.7
  
           1   -0.0099    0.0024   -0.0033    0.0003    0.0011    0.0132   -0.0065   -0.0072
           2   -0.0008   -0.0117   -0.0087   -0.0044    0.0010    0.0163   -0.0092   -0.0038
           3   -0.0164   -0.0084   -0.0075    0.0100   -0.0160    0.0002    0.0012   -0.0037
           4   -0.0099    0.0026   -0.0035    0.0007    0.0012    0.0131   -0.0063   -0.0074
           5    0.0033    0.0007   -0.0154    0.0043    0.0017   -0.0066   -0.0032   -0.0002
           6    0.0050    0.0011   -0.0111    0.0092   -0.0081   -0.0094    0.0091    0.0117
           7   -0.0130   -0.0070    0.0073   -0.0035   -0.0024    0.0041   -0.0006   -0.0054
           8   -0.0022   -0.0162   -0.0040   -0.0060   -0.0013    0.0119   -0.0062   -0.0027
           9   -0.0178    0.0044    0.0049    0.0058    0.0008    0.0071    0.0045   -0.0047
          10    0.0022   -0.0017    0.0113   -0.0151    0.0009   -0.0181   -0.0013    0.0034
          11   -0.0040   -0.0065    0.0044    0.0060   -0.0032   -0.0087    0.0049    0.0033
          12   -0.0007    0.0050    0.0049   -0.0130    0.0059   -0.0051   -0.0023    0.0016
          13   -0.0124   -0.0067    0.0073   -0.0040   -0.0024    0.0026   -0.0008   -0.0051
          14   -0.0056   -0.0230    0.0125   -0.0041   -0.0018   -0.0196    0.0118    0.0067
          15    0.0004    0.0139    0.0006   -0.0082    0.0051    0.0007   -0.0059   -0.0002
          16    0.0014   -0.0017    0.0115   -0.0146    0.0009   -0.0173   -0.0007    0.0030
          17    0.0044   -0.0189   -0.0191   -0.0060   -0.0170    0.0157   -0.0148   -0.0032
          18   -0.0217    0.0055    0.0130    0.0056    0.0093    0.0049    0.0087   -0.0046
          19    0.0106    0.0173   -0.0099    0.0044    0.0078   -0.0073    0.0037    0.0076
          20    0.0080    0.0254   -0.0197    0.0150   -0.0228   -0.0211    0.0028   -0.0121
          21    0.0022   -0.0133   -0.0085    0.0030    0.0062   -0.0015    0.0059    0.0183
          22    0.0108    0.0168   -0.0095    0.0037    0.0093   -0.0053    0.0038    0.0088
          23    0.0048    0.0079   -0.0023   -0.0044    0.0099    0.0245   -0.0006    0.0006
          24   -0.0192   -0.0189   -0.0109    0.0101   -0.0207   -0.0047   -0.0034   -0.0063
          25   -0.0251    0.0005   -0.0017    0.0069   -0.0016    0.0059    0.0019    0.0009
          26    0.0011   -0.0173   -0.0088   -0.0035    0.0316   -0.0092   -0.0006    0.0097
          27    0.0118   -0.0086   -0.0084    0.0013    0.0109   -0.0063    0.0058    0.0128
          28    0.0234   -0.0105   -0.0087   -0.0352   -0.0121   -0.0081   -0.0096    0.0031
          29   -0.0073    0.0172    0.0088    0.0208    0.0057   -0.0031    0.0061    0.0009
          30    0.0086    0.0164   -0.0030   -0.0140    0.0049    0.0040   -0.0061   -0.0001
          31   -0.0239    0.0011    0.0002    0.0065   -0.0028    0.0068    0.0015   -0.0004
          32    0.0064   -0.0053    0.0484   -0.0029   -0.0064   -0.0046    0.0051    0.0023
          33    0.0346    0.0004    0.0210   -0.0075   -0.0060    0.0116   -0.0106   -0.0226
          34    0.0421   -0.0125   -0.0005    0.0445    0.0002    0.0116    0.0103   -0.0038
          35   -0.0082    0.0420   -0.0021   -0.0138    0.0024    0.0067    0.0010   -0.0016
          36    0.0076    0.0028    0.0025   -0.0008    0.0059   -0.0026   -0.0047    0.0017
          37   -0.0115   -0.0048   -0.0015   -0.0046   -0.0006    0.0283   -0.0129   -0.0113
          38    0.0048    0.0059   -0.0166    0.0074    0.0007   -0.0147    0.0004    0.0010
          39    0.0146    0.0234   -0.0177    0.0182   -0.0293   -0.0219    0.0134    0.0065
          40   -0.0189    0.0020   -0.0044    0.0023   -0.0001    0.0166   -0.0113   -0.0142
          41   -0.0054   -0.0257   -0.0118   -0.0045   -0.0097    0.0130   -0.0137   -0.0074
          42   -0.0247   -0.0194   -0.0104    0.0107   -0.0244    0.0000   -0.0051   -0.0105
          43   -0.0044    0.0075    0.0280   -0.0058    0.0118   -0.0344    0.0101    0.0076
          44   -0.0067   -0.0029    0.0117    0.0096    0.0015   -0.0161    0.0096    0.0052
          45    0.0049   -0.0105    0.0075   -0.0256    0.0036   -0.0180    0.0021    0.0066
          46   -0.0234   -0.0166    0.0149    0.0028   -0.0058   -0.0018    0.0096   -0.0052
          47   -0.0058   -0.0097    0.0013   -0.0051    0.0094    0.0191   -0.0044   -0.0048
          48   -0.0256    0.0043    0.0125    0.0094    0.0070    0.0097    0.0106   -0.0063
          49   -0.0407   -0.0085   -0.0372    0.0119    0.0196   -0.0053    0.0089    0.0211
          50   -0.0033   -0.0372   -0.0323   -0.0101    0.0742   -0.0152   -0.0003    0.0177
          51    0.0086   -0.0012   -0.0085    0.0065   -0.0041   -0.0071    0.0080    0.0153
          52   -0.0226    0.0073    0.0341    0.0073   -0.0242    0.0087    0.0054   -0.0044
          53   -0.0004   -0.0211   -0.0230   -0.0040    0.0424   -0.0109   -0.0015    0.0125
          54    0.0024   -0.0306   -0.0289   -0.0039    0.0543   -0.0153    0.0104    0.0266
          55    0.0204   -0.0105   -0.0117   -0.0539   -0.0156   -0.0112   -0.0132    0.0043
          56   -0.0110    0.0182    0.0310    0.0908    0.0240   -0.0031    0.0178   -0.0014
          57    0.0256    0.0157   -0.0092    0.0079    0.0045    0.0185    0.0006   -0.0037
          58    0.0284   -0.0160   -0.0282   -0.0936   -0.0289   -0.0083   -0.0190    0.0052
          59   -0.0056    0.0163   -0.0011   -0.0107   -0.0026   -0.0031    0.0007    0.0019
          60   -0.0003    0.0373   -0.0073   -0.0462    0.0040    0.0041   -0.0143   -0.0001
          61   -0.0106   -0.0011   -0.0031   -0.0047   -0.0014    0.0240   -0.0132   -0.0118
          62   -0.0063   -0.0252    0.0171   -0.0036   -0.0022   -0.0294    0.0174    0.0098
          63    0.0065    0.0301   -0.0058   -0.0044    0.0063    0.0074   -0.0139   -0.0017
          64   -0.0228   -0.0153    0.0154    0.0037   -0.0054   -0.0065    0.0120   -0.0036
          65   -0.0070   -0.0362    0.0219   -0.0101   -0.0020   -0.0373    0.0221    0.0124
          66    0.0057    0.0098    0.0024   -0.0170    0.0069   -0.0060   -0.0065    0.0027
          67    0.0119    0.0292   -0.0216    0.0181   -0.0172   -0.0395    0.0054   -0.0039
          68    0.0087    0.0295   -0.0243    0.0202   -0.0318   -0.0341    0.0034   -0.0162
          69    0.0047   -0.0307   -0.0038   -0.0080    0.0352    0.0124    0.0043    0.0355
          70    0.0212    0.0146   -0.0024   -0.0065    0.0352    0.0112    0.0081    0.0273
          71    0.0119    0.0471   -0.0288    0.0290   -0.0519   -0.0479    0.0074   -0.0261
          72    0.0110   -0.0015   -0.0096    0.0051    0.0047   -0.0068    0.0114    0.0215
          73    0.0129    0.0287   -0.0211    0.0168   -0.0133   -0.0370    0.0062   -0.0002
          74    0.0038    0.0019    0.0037   -0.0112    0.0216    0.0409   -0.0018    0.0053
          75   -0.0302   -0.0347   -0.0171    0.0133   -0.0386   -0.0150   -0.0131   -0.0194
          76   -0.0045    0.0074    0.0277   -0.0061    0.0110   -0.0336    0.0131    0.0072
          77    0.0069   -0.0230   -0.0263   -0.0098   -0.0214    0.0232   -0.0210   -0.0052
          78   -0.0327    0.0086    0.0267    0.0121    0.0228    0.0057    0.0189   -0.0063
          79    0.0158   -0.0076   -0.0021   -0.0293   -0.0069   -0.0137   -0.0135    0.0039
          80    0.0109   -0.0256   -0.0359   -0.0109   -0.0317    0.0253   -0.0267   -0.0054
          81   -0.0257    0.0044    0.0095    0.0112    0.0039    0.0093    0.0083   -0.0067
          82    0.0214    0.0133   -0.0009   -0.0083    0.0386    0.0161    0.0078    0.0286
          83    0.0071    0.0143    0.0073   -0.0108    0.0271    0.0454    0.0039    0.0083
          84   -0.0231   -0.0126   -0.0086    0.0119   -0.0238   -0.0013   -0.0023   -0.0111
          85   -0.0270   -0.0059   -0.0368    0.0064    0.0199    0.0060   -0.0032    0.0119
          86    0.0078   -0.0022    0.0638   -0.0028   -0.0165   -0.0037    0.0068   -0.0004
          87    0.0446    0.0217    0.0492   -0.0020   -0.0657    0.0538   -0.0251    0.1343
          88   -0.0351   -0.0005    0.0027    0.0115   -0.0046   -0.0033    0.0138    0.0139
          89    0.0048   -0.0181    0.0479   -0.0096    0.0297   -0.0353    0.0153   -0.1448
          90    0.0395   -0.0066    0.0194   -0.0141    0.0169   -0.0016   -0.0109   -0.1196
          91   -0.0084    0.0101    0.0361    0.0014   -0.0246    0.0185   -0.0066   -0.0297
          92    0.0109    0.0139    0.0792    0.0041   -0.0632    0.0286   -0.0019    0.1472
          93    0.0381   -0.0069    0.0177   -0.0134    0.0172   -0.0023   -0.0099   -0.1148
          94    0.0574   -0.0176   -0.0181    0.0144   -0.0153    0.0476    0.1694   -0.0193
          95   -0.0107    0.0594    0.0020    0.0032    0.0116    0.0019   -0.0726    0.0021
          96    0.0142    0.0124   -0.0040   -0.0050    0.0041    0.0133    0.0287   -0.0041
          97    0.0456   -0.0127    0.0023    0.0644    0.0038    0.0146    0.0076   -0.0047
          98   -0.0045    0.0432   -0.0267   -0.0989   -0.0211    0.0320    0.1439   -0.0132
          99   -0.0089    0.0025    0.0101   -0.0145    0.0093   -0.0329   -0.1005    0.0138
         100    0.0380   -0.0088    0.0207    0.1179    0.0218   -0.0108   -0.1281    0.0069
         101   -0.0101    0.0434    0.0094    0.0266    0.0141   -0.0051   -0.0716    0.0040
         102    0.0170   -0.0174    0.0059    0.0280    0.0052    0.0058    0.0572   -0.0029


   Root No.       9        10        11        12        13        14        15        16

                 9 A      10 A      11 A      12 A      13 A      14 A      15 A      16 A   

                 209.3     250.1     309.7     330.6     383.6     420.2     445.5     480.6
  
           1    0.0103    0.0053    0.0040   -0.0077    0.0051    0.0034    0.0048    0.0062
           2    0.0070   -0.0005    0.0184   -0.0201   -0.0218    0.0042    0.0067   -0.0146
           3   -0.0054   -0.0067   -0.0142    0.0073   -0.0025    0.0064    0.0004    0.0228
           4    0.0106    0.0078    0.0094    0.0021    0.0016    0.0036    0.0028    0.0038
           5    0.0171   -0.0030    0.0066   -0.0076   -0.0107    0.0211   -0.0032    0.0289
           6   -0.0253   -0.0061   -0.0034   -0.0034   -0.0142   -0.0050    0.0042   -0.0066
           7    0.0038   -0.0108   -0.0148   -0.0171    0.0119   -0.0156    0.0064    0.0033
           8    0.0027   -0.0054    0.0151   -0.0220   -0.0144   -0.0083    0.0052   -0.0233
           9   -0.0016   -0.0073   -0.0133    0.0057    0.0340    0.0151   -0.0113    0.0024
          10    0.0045    0.0051   -0.0160   -0.0095   -0.0220   -0.0015   -0.0136    0.0056
          11   -0.0041    0.0270   -0.0042    0.0122    0.0163    0.0301    0.0054   -0.0156
          12    0.0034    0.0031    0.0093   -0.0016   -0.0040   -0.0065   -0.0293   -0.0029
          13    0.0043   -0.0107   -0.0193   -0.0200    0.0113   -0.0156    0.0050    0.0055
          14   -0.0020   -0.0078    0.0320    0.0216    0.0107   -0.0068   -0.0117    0.0022
          15    0.0022    0.0195   -0.0109   -0.0070   -0.0026    0.0172   -0.0316   -0.0168
          16    0.0046    0.0049   -0.0171   -0.0104   -0.0210   -0.0023   -0.0155    0.0055
          17   -0.0129    0.0227   -0.0075   -0.0051    0.0274   -0.0134   -0.0254   -0.0036
          18    0.0077   -0.0208    0.0007   -0.0058    0.0186    0.0163    0.0010   -0.0134
          19   -0.0022    0.0096    0.0184   -0.0107    0.0177    0.0046   -0.0054    0.0014
          20    0.0046   -0.0103   -0.0163    0.0061   -0.0066   -0.0058    0.0033   -0.0012
          21   -0.0183   -0.0017    0.0111   -0.0116   -0.0160    0.0118   -0.0009    0.0128
          22   -0.0045    0.0101    0.0189   -0.0103    0.0165    0.0053   -0.0055    0.0021
          23   -0.0234   -0.0070   -0.0207    0.0112   -0.0187    0.0035    0.0056    0.0137
          24    0.0119   -0.0047    0.0057   -0.0088   -0.0124    0.0084    0.0044    0.0114
          25   -0.0089    0.0070    0.0065    0.0306   -0.0148   -0.0060   -0.0011   -0.0098
          26    0.0259   -0.0079   -0.0176    0.0137    0.0044   -0.0019   -0.0015    0.0048
          27   -0.0094   -0.0075   -0.0144   -0.0020   -0.0008   -0.0163    0.0084   -0.0217
          28   -0.0083   -0.0108   -0.0049    0.0101    0.0079    0.0211    0.0268   -0.0034
          29    0.0030    0.0298   -0.0067   -0.0018    0.0015   -0.0004    0.0271    0.0038
          30    0.0013   -0.0020    0.0160   -0.0004    0.0041   -0.0215    0.0102    0.0078
          31   -0.0091    0.0081    0.0085    0.0345   -0.0179   -0.0069   -0.0016   -0.0132
          32   -0.0136   -0.0042   -0.0037   -0.0143    0.0055   -0.0015    0.0019   -0.0008
          33    0.0230    0.0045   -0.0017    0.0271   -0.0073   -0.0029   -0.0014   -0.0036
          34   -0.0003   -0.0211    0.0016    0.0023    0.0024    0.0064   -0.0042   -0.0031
          35    0.0002   -0.0247    0.0085    0.0009    0.0003   -0.0056   -0.0036    0.0020
          36    0.0024    0.0278    0.0095   -0.0011    0.0065   -0.0230    0.0354    0.0123
          37    0.0141    0.0092    0.0187   -0.0128   -0.0039    0.0027    0.0100   -0.0075
          38    0.0138   -0.0042    0.0016   -0.0018   -0.0080    0.0201   -0.0059    0.0322
          39   -0.0359   -0.0079   -0.0037   -0.0091   -0.0159   -0.0086    0.0053   -0.0108
          40    0.0257    0.0091    0.0036   -0.0006    0.0098    0.0188    0.0012    0.0261
          41    0.0161   -0.0013    0.0276   -0.0322   -0.0353   -0.0035    0.0130   -0.0213
          42    0.0106   -0.0053   -0.0068    0.0003   -0.0107    0.0095    0.0038    0.0274
          43    0.0128    0.0092   -0.0135   -0.0063   -0.0456    0.0084   -0.0120    0.0067
          44   -0.0005    0.0279   -0.0019    0.0137    0.0054    0.0327    0.0039   -0.0145
          45    0.0015   -0.0066    0.0296    0.0137   -0.0076   -0.0082   -0.0527   -0.0018
          46    0.0006   -0.0311   -0.0129   -0.0070    0.0328   -0.0274    0.0192    0.0178
          47    0.0103   -0.0142    0.0238   -0.0316   -0.0158    0.0011    0.0170   -0.0411
          48    0.0029   -0.0241   -0.0052    0.0023    0.0418    0.0160    0.0042   -0.0053
          49   -0.0132    0.0000   -0.0051    0.0349   -0.0170   -0.0165    0.0017   -0.0233
          50    0.0479   -0.0156   -0.0486    0.0356    0.0230   -0.0301    0.0035   -0.0270
          51   -0.0221   -0.0060   -0.0026   -0.0115   -0.0114   -0.0054    0.0068   -0.0098
          52   -0.0323    0.0103    0.0158    0.0236   -0.0189   -0.0055   -0.0013   -0.0132
          53    0.0348   -0.0098   -0.0233    0.0176    0.0070   -0.0049   -0.0008    0.0024
          54    0.0012   -0.0166   -0.0471    0.0203    0.0159   -0.0498    0.0145   -0.0620
          55   -0.0107   -0.0130   -0.0051    0.0136    0.0118    0.0290    0.0321   -0.0068
          56    0.0174    0.0551   -0.0164   -0.0256   -0.0320   -0.0394   -0.0162    0.0218
          57   -0.0005   -0.0176    0.0266    0.0056    0.0177   -0.0213    0.0262    0.0062
          58   -0.0215   -0.0296    0.0028    0.0323    0.0394    0.0588    0.0647   -0.0210
          59   -0.0035    0.0185   -0.0022    0.0087    0.0162    0.0160    0.0444   -0.0038
          60    0.0010   -0.0228    0.0199   -0.0033   -0.0017   -0.0328    0.0100    0.0144
          61    0.0086   -0.0059   -0.0339   -0.0550   -0.0081   -0.0138    0.0194   -0.0227
          62   -0.0040   -0.0097    0.0390    0.0382    0.0199   -0.0078   -0.0179    0.0158
          63    0.0025    0.0545   -0.0430   -0.0220   -0.0153    0.0595   -0.0257   -0.0507
          64   -0.0001   -0.0272   -0.0084    0.0097    0.0489   -0.0235    0.0078    0.0377
          65   -0.0033   -0.0331    0.0672    0.0487    0.0195   -0.0413   -0.0275    0.0392
          66    0.0040    0.0121    0.0066   -0.0065   -0.0197   -0.0014   -0.0440   -0.0115
          67    0.0197    0.0073    0.0220   -0.0159    0.0306   -0.0062   -0.0065   -0.0186
          68    0.0140   -0.0111   -0.0143    0.0035   -0.0014   -0.0094    0.0026   -0.0084
          69   -0.0198    0.0054    0.0314   -0.0231   -0.0213    0.0428   -0.0107    0.0541
          70   -0.0311    0.0131    0.0208   -0.0114    0.0127    0.0145   -0.0098    0.0163
          71    0.0089   -0.0173   -0.0324    0.0122    0.0037   -0.0366    0.0102   -0.0444
          72   -0.0331   -0.0039    0.0027   -0.0084   -0.0130   -0.0006    0.0007   -0.0038
          73    0.0152    0.0084    0.0248   -0.0156    0.0289   -0.0033   -0.0082   -0.0164
          74   -0.0337   -0.0061   -0.0241    0.0142   -0.0250    0.0081    0.0070    0.0241
          75    0.0486   -0.0020    0.0362   -0.0379   -0.0149    0.0043    0.0096   -0.0267
          76    0.0118    0.0047   -0.0157    0.0002   -0.0350    0.0406    0.0199   -0.0098
          77   -0.0160    0.0225   -0.0079   -0.0102    0.0337   -0.0335   -0.0418    0.0034
          78    0.0223   -0.0503    0.0199   -0.0224   -0.0134    0.0336    0.0512   -0.0442
          79   -0.0022    0.0150   -0.0163   -0.0140   -0.0272   -0.0368   -0.0577    0.0222
          80   -0.0264    0.0400   -0.0234    0.0026    0.0649   -0.0402   -0.0681    0.0239
          81    0.0026   -0.0154   -0.0107    0.0019    0.0476    0.0200   -0.0011   -0.0051
          82   -0.0346    0.0143    0.0203   -0.0075    0.0107    0.0150   -0.0098    0.0187
          83   -0.0532   -0.0101   -0.0503    0.0363   -0.0205    0.0092    0.0048    0.0513
          84    0.0069   -0.0090   -0.0150    0.0065   -0.0101    0.0073    0.0059    0.0280
          85    0.0217    0.0057   -0.0017    0.0589   -0.0204   -0.0076   -0.0049   -0.0090
          86   -0.0253   -0.0033    0.0004   -0.0243    0.0067   -0.0013    0.0033   -0.0026
          87    0.0875    0.0040   -0.0088    0.0501   -0.0076   -0.0029   -0.0053   -0.0012
          88   -0.0454    0.0016    0.0055   -0.0003   -0.0109   -0.0163    0.0083   -0.0294
          89   -0.0736    0.0006    0.0105   -0.0348    0.0039    0.0023    0.0034   -0.0001
          90    0.0057    0.0110    0.0085    0.0336   -0.0123    0.0044   -0.0059    0.0052
          91   -0.0033    0.0178    0.0234    0.0471   -0.0242    0.0032   -0.0087   -0.0021
          92    0.0242   -0.0074   -0.0102   -0.0131    0.0093   -0.0055    0.0034   -0.0061
          93    0.0043    0.0101    0.0076    0.0317   -0.0120    0.0032   -0.0051    0.0035
          94    0.0274   -0.0016   -0.0013   -0.0073   -0.0055   -0.0035   -0.0218   -0.0019
          95   -0.0125   -0.0765    0.0224    0.0047   -0.0003   -0.0065   -0.0429   -0.0037
          96    0.0083    0.0020    0.0176   -0.0036    0.0020   -0.0293   -0.0006    0.0092
          97    0.0003   -0.0253    0.0035    0.0006    0.0008    0.0035   -0.0154   -0.0040
          98    0.0218   -0.0106    0.0045   -0.0025   -0.0035   -0.0059   -0.0036    0.0030
          99   -0.0162    0.0325    0.0054    0.0078    0.0158   -0.0107    0.0769    0.0142
         100   -0.0218   -0.0473    0.0087    0.0063    0.0057    0.0070   -0.0152   -0.0057
         101   -0.0110   -0.0376    0.0121    0.0029    0.0019   -0.0054   -0.0094    0.0007
         102    0.0156    0.0766   -0.0014   -0.0080    0.0050   -0.0296    0.0603    0.0182


   Root No.      17        18        19        20        21        22        23        24

                17 A      18 A      19 A      20 A      21 A      22 A      23 A      24 A   

                 514.7     732.3     758.4     820.0     830.9     848.0     881.4     894.5
  
           1    0.0315   -0.0152    0.0112   -0.0004    0.0025   -0.0083    0.0031    0.0046
           2    0.0078   -0.0116   -0.0115    0.0044   -0.0062   -0.0037    0.0151   -0.0007
           3    0.0147    0.0297   -0.0059   -0.0013    0.0015    0.0107   -0.0069    0.0026
           4    0.0315   -0.0149    0.0100   -0.0008    0.0036   -0.0081   -0.0072   -0.0023
           5   -0.0191   -0.0221    0.0144   -0.0019    0.0036   -0.0105   -0.0117   -0.0006
           6   -0.0067   -0.0084    0.0041   -0.0013   -0.0009   -0.0014    0.0057    0.0015
           7   -0.0135    0.0065    0.0176   -0.0001    0.0045   -0.0005   -0.0012   -0.0005
           8   -0.0134    0.0173   -0.0060   -0.0042   -0.0014    0.0031   -0.0107   -0.0011
           9   -0.0046   -0.0177   -0.0177    0.0034   -0.0057    0.0003    0.0093   -0.0064
          10    0.0008   -0.0059   -0.0182   -0.0017   -0.0020    0.0006   -0.0047   -0.0044
          11    0.0032    0.0075    0.0242    0.0007    0.0078   -0.0013    0.0127   -0.0042
          12    0.0052    0.0032    0.0080   -0.0004    0.0019   -0.0008   -0.0024   -0.0002
          13   -0.0208    0.0051    0.0226    0.0022    0.0040   -0.0017    0.0072    0.0118
          14    0.0096    0.0076    0.0130   -0.0020    0.0048    0.0001   -0.0058   -0.0224
          15    0.0031    0.0032    0.0120    0.0001    0.0017   -0.0016   -0.0032    0.0286
          16   -0.0003   -0.0032   -0.0061    0.0060   -0.0128    0.0023    0.0072    0.0047
          17   -0.0107    0.0008   -0.0061   -0.0045    0.0041    0.0013   -0.0044    0.0298
          18   -0.0127   -0.0088   -0.0205   -0.0021   -0.0057   -0.0012   -0.0094   -0.0065
          19    0.0046    0.0193   -0.0106    0.0007   -0.0020    0.0087    0.0018   -0.0018
          20   -0.0024   -0.0079    0.0052    0.0119    0.0083    0.0030   -0.0072    0.0002
          21   -0.0217   -0.0063    0.0029    0.0031   -0.0012   -0.0233    0.0125    0.0005
          22    0.0045    0.0185   -0.0105   -0.0011   -0.0025    0.0099    0.0001   -0.0009
          23    0.0175    0.0051   -0.0059    0.0102    0.0009    0.0198    0.0139   -0.0020
          24    0.0169    0.0212   -0.0088   -0.0013   -0.0041    0.0033    0.0027   -0.0042
          25   -0.0122   -0.0018    0.0004   -0.0010   -0.0001    0.0013   -0.0009    0.0001
          26   -0.0087    0.0036    0.0018   -0.0161   -0.0077    0.0127    0.0080    0.0006
          27    0.0250   -0.0232    0.0113   -0.0120   -0.0010    0.0088   -0.0109   -0.0010
          28   -0.0022   -0.0066   -0.0215   -0.0107    0.0180   -0.0016   -0.0031   -0.0002
          29   -0.0034   -0.0055   -0.0117    0.0027   -0.0119    0.0002   -0.0110    0.0053
          30   -0.0012    0.0037    0.0085   -0.0004    0.0048    0.0001    0.0063   -0.0014
          31   -0.0180   -0.0042   -0.0005   -0.0004   -0.0003    0.0009   -0.0030   -0.0008
          32    0.0081    0.0012   -0.0003   -0.0033   -0.0021    0.0044    0.0049    0.0003
          33   -0.0072   -0.0033    0.0018   -0.0034   -0.0002    0.0043   -0.0061   -0.0007
          34    0.0002   -0.0009   -0.0031   -0.0027    0.0052   -0.0007   -0.0007   -0.0012
          35    0.0001   -0.0006   -0.0018    0.0005   -0.0026    0.0002   -0.0042    0.0000
          36   -0.0046    0.0014    0.0040    0.0007    0.0015    0.0004    0.0074   -0.0055
          37    0.0602   -0.0372    0.0105    0.0021    0.0009   -0.0305    0.0074   -0.0081
          38   -0.0319   -0.0123    0.0141   -0.0008    0.0059   -0.0021   -0.0180    0.0021
          39   -0.0131   -0.0169    0.0098    0.0203    0.0129   -0.0081   -0.0083    0.0034
          40    0.0492   -0.0341    0.0230   -0.0039    0.0072   -0.0290   -0.0114    0.0008
          41    0.0112    0.0139   -0.0160    0.0007   -0.0098   -0.0048    0.0068   -0.0013
          42    0.0274    0.0378   -0.0035   -0.0055    0.0009   -0.0009   -0.0191    0.0000
          43    0.0130   -0.0071   -0.0201    0.0078   -0.0229    0.0019   -0.0060   -0.0738
          44    0.0090    0.0068    0.0224    0.0042   -0.0006   -0.0008    0.0106   -0.0353
          45    0.0210    0.0109    0.0236   -0.0054    0.0175   -0.0017   -0.0041   -0.0568
          46   -0.0269    0.0177    0.0288   -0.0018    0.0129    0.0032   -0.0098   -0.0693
          47   -0.0186   -0.0015   -0.0256   -0.0053   -0.0112   -0.0060   -0.0092   -0.0353
          48   -0.0155   -0.0244   -0.0272    0.0011   -0.0084   -0.0041    0.0042   -0.0653
          49   -0.0124    0.0056   -0.0112    0.0502    0.0195   -0.0506   -0.0078    0.0020
          50    0.0241    0.0476   -0.0333    0.0731    0.0244   -0.0511    0.0017    0.0006
          51    0.0079   -0.0426    0.0249   -0.0384   -0.0101    0.0221   -0.0102   -0.0002
          52   -0.0189   -0.0106    0.0079   -0.0487   -0.0210    0.0539    0.0143    0.0005
          53   -0.0033    0.0098   -0.0039    0.0092    0.0028   -0.0123    0.0014    0.0004
          54    0.0556    0.0197   -0.0254    0.0794    0.0318   -0.0509   -0.0171    0.0001
          55   -0.0024   -0.0044   -0.0106    0.0017   -0.0095    0.0003   -0.0104    0.0037
          56   -0.0005   -0.0202   -0.0764   -0.0523    0.1015   -0.0074    0.0072   -0.0051
          57   -0.0035    0.0083    0.0230   -0.0016    0.0159   -0.0011    0.0213   -0.0109
          58   -0.0044    0.0057    0.0347    0.0372   -0.0807    0.0044   -0.0190    0.0055
          59   -0.0045    0.0003    0.0151    0.0262   -0.0607    0.0033   -0.0195    0.0080
          60   -0.0028    0.0035    0.0092    0.0147   -0.0354    0.0044   -0.0162    0.0059
          61   -0.0460    0.0450    0.0437   -0.0070    0.0132    0.0045   -0.0263   -0.0784
          62    0.0220   -0.0115    0.0033    0.0023    0.0007   -0.0030    0.0102    0.0213
          63   -0.0037    0.0339    0.0571   -0.0044    0.0239    0.0002    0.0051   -0.1003
          64   -0.0086   -0.0358    0.0118    0.0158   -0.0046   -0.0088    0.0606    0.0935
          65    0.0315   -0.0284   -0.0276    0.0023   -0.0130   -0.0045   -0.0116    0.1163
          66    0.0105    0.0046   -0.0078   -0.0055   -0.0044   -0.0004   -0.0402    0.0696
          67   -0.0015    0.0378   -0.0183   -0.0451   -0.0323   -0.0891    0.0115   -0.0023
          68   -0.0060   -0.0015    0.0029   -0.0068   -0.0038   -0.0399   -0.0049    0.0001
          69   -0.0595   -0.0359    0.0238    0.0522    0.0398    0.0125   -0.0518    0.0012
          70   -0.0149    0.0115   -0.0113    0.0489    0.0253    0.0911    0.0033    0.0025
          71    0.0171    0.0190   -0.0133   -0.0384   -0.0339   -0.0684    0.0568    0.0022
          72   -0.0221    0.0038   -0.0078    0.0036   -0.0089   -0.0145    0.0512    0.0044
          73   -0.0100    0.0049   -0.0131    0.0433    0.0249    0.0949   -0.0137   -0.0004
          74    0.0252    0.0145   -0.0047   -0.0145   -0.0140   -0.0272    0.0198   -0.0022
          75    0.0190   -0.0341   -0.0240    0.0461    0.0009    0.0691    0.0768   -0.0065
          76    0.0093    0.0150    0.0248    0.0039    0.0122    0.0051    0.0511    0.0809
          77   -0.0153   -0.0081   -0.0216   -0.0035   -0.0082    0.0000   -0.0254   -0.0082
          78   -0.0214    0.0397   -0.0110   -0.0221    0.0196    0.0096   -0.0487    0.1180
          79    0.0033   -0.0190   -0.0291    0.0173   -0.0484    0.0019   -0.0157   -0.0749
          80   -0.0117   -0.0452   -0.0342    0.0085   -0.0231   -0.0085    0.0032   -0.0953
          81   -0.0152   -0.0297   -0.0259   -0.0003   -0.0019   -0.0074    0.0098   -0.0405
          82   -0.0076    0.0426   -0.0141   -0.0472   -0.0312   -0.0887    0.0068   -0.0005
          83    0.0320    0.0599    0.0039   -0.0385   -0.0113   -0.0456   -0.0383   -0.0027
          84    0.0324    0.0458   -0.0011   -0.0089    0.0030    0.0127   -0.0352   -0.0050
          85   -0.0382   -0.0020    0.0048   -0.0585   -0.0291    0.0619    0.0333    0.0009
          86    0.0167    0.0007   -0.0028    0.0223    0.0105   -0.0225   -0.0104   -0.0004
          87   -0.0227    0.0165   -0.0110    0.0210    0.0053   -0.0180    0.0086    0.0017
          88    0.0249   -0.0414    0.0179   -0.0055    0.0091    0.0017   -0.0547   -0.0066
          89    0.0162   -0.0011   -0.0022    0.0225    0.0106   -0.0235   -0.0107   -0.0006
          90   -0.0258    0.0152   -0.0093    0.0150    0.0025   -0.0130    0.0124    0.0020
          91   -0.0448    0.0307   -0.0260    0.0671    0.0204   -0.0663    0.0117    0.0031
          92    0.0174    0.0015   -0.0036    0.0238    0.0111   -0.0232   -0.0117   -0.0006
          93   -0.0232    0.0108   -0.0068    0.0096    0.0011   -0.0081    0.0090    0.0014
          94    0.0017    0.0049    0.0182    0.0135   -0.0265    0.0024   -0.0004    0.0028
          95    0.0056    0.0112    0.0290   -0.0017    0.0205   -0.0002    0.0369   -0.0149
          96   -0.0001    0.0127    0.0366    0.0079    0.0007    0.0019    0.0360   -0.0138
          97    0.0015    0.0035    0.0132    0.0105   -0.0216    0.0018   -0.0032    0.0030
          98    0.0001   -0.0038   -0.0184   -0.0236    0.0536   -0.0042    0.0174   -0.0128
          99   -0.0093   -0.0125   -0.0429   -0.0289    0.0556   -0.0052    0.0000   -0.0116
[...]
 EFFECTIVE MASS      1.4691
 FORCE CONSTANT      2.7047

 VIBRATION         81   81A           ATOM PAIR      ENERGY CONTRIBUTION    RADIAL
 FREQUENCY          3025.50         C  9 -- H 18         +37.8% ( 61.4%)     98.1%
 TRANSITION DIPOLE   0.0534         C  9 -- H 17         +32.1% ( 56.7%)     97.2%
 TRAVEL (Ang.)       0.2777         C  6 -- H 27         +16.7% ( 40.8%)     98.6%
 REDUCED MASS        0.2889         C  6 -- H 26          +7.0% ( 26.4%)     93.2%
 EFFECTIVE MASS      1.3374
 FORCE CONSTANT      1.5583

 VIBRATION         82   82A           ATOM PAIR      ENERGY CONTRIBUTION    RADIAL
 FREQUENCY          3027.50         C 10 -- H 19         +43.4% ( 65.4%)     98.4%
 TRANSITION DIPOLE   0.0242         C 10 -- H 20         +32.2% ( 56.3%)     96.7%
 TRAVEL (Ang.)       0.2692         C  6 -- H 27          +7.0% ( 26.2%)     98.6%
 REDUCED MASS        0.3073         C  9 -- H 18          +4.7% ( 21.6%)     97.8%
 EFFECTIVE MASS      1.3058
 FORCE CONSTANT      1.6596

 VIBRATION         83   83A           ATOM PAIR      ENERGY CONTRIBUTION    RADIAL
 FREQUENCY          3028.74         C  7 -- H 23         +20.6% ( 47.1%)     97.5%
 TRANSITION DIPOLE   0.0311         C  6 -- H 27         +15.5% ( 40.8%)     98.4%
 TRAVEL (Ang.)       0.3945         C  7 -- H 24         +15.0% ( 40.1%)     95.7%
 REDUCED MASS        0.1431         C  8 -- H 28         +13.9% ( 38.6%)     97.2%
 EFFECTIVE MASS      1.5111         C  8 -- H 25         +11.1% ( 34.5%)     96.0%
 FORCE CONSTANT      0.7733

 VIBRATION         84   84A           ATOM PAIR      ENERGY CONTRIBUTION    RADIAL
 FREQUENCY          3029.17         C  6 -- H 27         +26.5% ( 53.0%)     98.4%
 TRANSITION DIPOLE   0.0424         C  6 -- H 26         +12.8% ( 36.8%)     94.0%
 TRAVEL (Ang.)       0.4012         C  7 -- H 23         +11.0% ( 34.2%)     97.4%
 REDUCED MASS        0.1383         C  7 -- H 24          +8.3% ( 29.7%)     95.8%
 EFFECTIVE MASS      1.4829
 FORCE CONSTANT      0.7476

 VIBRATION         85   85A           ATOM PAIR      ENERGY CONTRIBUTION    RADIAL
 FREQUENCY          3035.49         C  5 -- H 21         +57.2% ( 78.7%)     98.0%
 TRANSITION DIPOLE   0.0888         C  5 -- H 22         +34.8% ( 61.4%)     95.1%
 TRAVEL (Ang.)       0.2117         C  6 -- H 27          +2.5% ( 16.4%)     98.6%
 REDUCED MASS        0.4955         C  5 -- C  6          +1.1% ( 11.1%)      2.3%
 EFFECTIVE MASS      1.5392
 FORCE CONSTANT      2.6901

 VIBRATION         86   86A           ATOM PAIR      ENERGY CONTRIBUTION    RADIAL
 FREQUENCY          3043.60         C  8 -- H 28         +31.8% ( 58.6%)     97.6%
 TRANSITION DIPOLE   0.0881         C  8 -- H 25         +24.5% ( 51.4%)     96.1%
 TRAVEL (Ang.)       0.2864         C  7 -- H 23         +23.8% ( 50.7%)     97.9%
 REDUCED MASS        0.2701         C  7 -- H 24         +16.2% ( 41.8%)     95.7%
 EFFECTIVE MASS      1.5308
 FORCE CONSTANT      1.4744

 VIBRATION         87   87A           ATOM PAIR      ENERGY CONTRIBUTION    RADIAL
 FREQUENCY          3076.88         C 11 -- H 31         +57.7% ( 78.3%)     98.1%
 TRANSITION DIPOLE   0.0083         C 11 -- H 29         +39.1% ( 64.5%)     95.4%
 TRAVEL (Ang.)       0.2066         C 11 -- H 30          +1.9% ( 14.2%)     21.8%
 REDUCED MASS        0.5136         C  9 -- C 11          +1.0% ( 10.2%)      0.0%
 EFFECTIVE MASS      1.5013
 FORCE CONSTANT      2.8646

 VIBRATION         88   88A           ATOM PAIR      ENERGY CONTRIBUTION    RADIAL
 FREQUENCY          3077.17         C 12 -- H 33         +57.2% ( 78.0%)     98.0%
 TRANSITION DIPOLE   0.0076         C 12 -- H 34         +39.6% ( 64.9%)     95.5%
 TRAVEL (Ang.)       0.2069         C 12 -- H 32          +1.9% ( 14.0%)     20.9%
 REDUCED MASS        0.5117         C 10 -- C 12          +1.0% ( 10.2%)      0.0%
 EFFECTIVE MASS      1.5013
 FORCE CONSTANT      2.8549

 VIBRATION         89   89A           ATOM PAIR      ENERGY CONTRIBUTION    RADIAL
 FREQUENCY          3083.93         C 12 -- H 32         +60.5% ( 80.2%)     98.6%
 TRANSITION DIPOLE   0.0032         C 12 -- H 34         +26.8% ( 53.4%)     91.1%
 TRAVEL (Ang.)       0.2137         C 12 -- H 33         +11.3% ( 34.6%)     76.2%
 REDUCED MASS        0.4787         C 10 -- C 12          +1.0% ( 10.3%)      0.0%
 EFFECTIVE MASS      1.5036
 FORCE CONSTANT      2.6825

 VIBRATION         90   90A           ATOM PAIR      ENERGY CONTRIBUTION    RADIAL
 FREQUENCY          3084.45         C 11 -- H 30         +60.1% ( 79.9%)     98.6%
 TRANSITION DIPOLE   0.0050         C 11 -- H 29         +27.3% ( 53.9%)     91.3%
 TRAVEL (Ang.)       0.2142         C 11 -- H 31         +11.2% ( 34.5%)     75.9%
 REDUCED MASS        0.4766         C  9 -- C 11          +1.0% ( 10.3%)      0.0%
 EFFECTIVE MASS      1.5037
 FORCE CONSTANT      2.6713

 VIBRATION         91   91A           ATOM PAIR      ENERGY CONTRIBUTION    RADIAL
 FREQUENCY          3098.61         C  6 -- H 26         +60.5% ( 77.2%)     99.0%
 TRANSITION DIPOLE   0.0971         C  6 -- H 27         +26.1% ( 50.8%)     93.0%
 TRAVEL (Ang.)       0.2234         C  5 -- H 22          +7.1% ( 26.4%)     98.7%
 REDUCED MASS        0.4360         C  5 -- H 21          +4.2% ( 20.4%)     95.5%
 EFFECTIVE MASS      1.2788
 FORCE CONSTANT      2.4662

 VIBRATION         92   92A           ATOM PAIR      ENERGY CONTRIBUTION    RADIAL
 FREQUENCY          3102.97         C  5 -- H 22         +54.6% ( 73.4%)     98.4%
 TRANSITION DIPOLE   0.0462         C  5 -- H 21         +31.9% ( 56.1%)     94.7%
 TRAVEL (Ang.)       0.2306         C  6 -- H 26          +7.8% ( 27.8%)     98.7%
 REDUCED MASS        0.4087         C  6 -- H 27          +3.4% ( 18.4%)     92.2%
 EFFECTIVE MASS      1.3005
 FORCE CONSTANT      2.3183

 VIBRATION         93   93A           ATOM PAIR      ENERGY CONTRIBUTION    RADIAL
 FREQUENCY          3103.24         C  7 -- H 24         +49.8% ( 70.0%)     98.2%
 TRANSITION DIPOLE   0.0678         C  7 -- H 23         +34.1% ( 57.9%)     95.7%
 TRAVEL (Ang.)       0.2405         C  8 -- H 25          +8.3% ( 28.5%)     98.1%
 REDUCED MASS        0.3756         C  8 -- H 28          +5.8% ( 23.9%)     95.8%
 EFFECTIVE MASS      1.2830
 FORCE CONSTANT      2.1311

 VIBRATION         94   94A           ATOM PAIR      ENERGY CONTRIBUTION    RADIAL
 FREQUENCY          3105.41         C  8 -- H 25         +47.1% ( 68.1%)     97.9%
 TRANSITION DIPOLE   0.0718         C  8 -- H 28         +36.7% ( 60.1%)     96.3%
 TRAVEL (Ang.)       0.2423         C  7 -- H 24          +8.1% ( 28.2%)     98.1%
 REDUCED MASS        0.3700         C  7 -- H 23          +5.9% ( 24.1%)     96.1%
 EFFECTIVE MASS      1.2876
 FORCE CONSTANT      2.1023

 VIBRATION         95   95A           ATOM PAIR      ENERGY CONTRIBUTION    RADIAL
 FREQUENCY          3179.62         C 12 -- H 32         +37.0% ( 58.6%)     97.7%
 TRANSITION DIPOLE   0.0096         C 12 -- H 34         +32.6% ( 54.9%)     97.0%
 TRAVEL (Ang.)       0.2539         C 12 -- H 33         +30.1% ( 52.8%)     96.5%
 REDUCED MASS        0.3290         C 10 -- C 12          +0.3% (  5.1%)     99.4%
 EFFECTIVE MASS      1.1367
 FORCE CONSTANT      1.9596

 VIBRATION         96   96A           ATOM PAIR      ENERGY CONTRIBUTION    RADIAL
 FREQUENCY          3179.82         C 11 -- H 30         +37.5% ( 58.9%)     97.7%
 TRANSITION DIPOLE   0.0114         C 11 -- H 29         +32.6% ( 54.9%)     97.0%
 TRAVEL (Ang.)       0.2537         C 11 -- H 31         +29.7% ( 52.4%)     96.4%
 REDUCED MASS        0.3295         C  9 -- C 11          +0.3% (  5.1%)     99.3%
 EFFECTIVE MASS      1.1369
 FORCE CONSTANT      1.9628

      SYMMETRY NUMBER FOR POINT-GROUP C1  =  1


          SYSTEM IS A GROUND STATE



 InChI=1S/C12H22/c1-3-9-7-11(8-9)12-6-5-10(12)4-2/h9-12H,3-8H2,1-2H3


          MOLECULE IS NOT LINEAR

          THERE ARE 96 GENUINE VIBRATIONS IN THIS SYSTEM
          THIS THERMODYNAMICS CALCULATION IS LIMITED TO
          MOLECULES WHICH HAVE NO INTERNAL ROTATIONS




                    CALCULATED THERMODYNAMIC PROPERTIES
                                          *
   TEMP. (K)   PARTITION FUNCTION   H.O.F.    ENTHALPY  HEAT CAPACITY ENTROPY
                                   KCAL/MOL   CAL/MOLE    CAL/K/MOL  CAL/K/MOL


 298.00  VIB.     0.4011D+05                  6533.0757    44.4888    42.9861
         ROT.     0.1635D+07                   888.2803     2.9808    31.4122
         INT.     0.6558D+11                  7421.3560    47.4696    74.3982
         TRA.     0.2073D+28                  1480.4672     4.9680    41.2320
         TOT.                      -26.576    8901.8231    52.4376   115.6302

 200.00  VIB.     0.1046D+04                  3008.4878    28.2942    28.8580
         ROT.     0.8990D+06                   596.1613     2.9808    30.2235
         INT.     0.9399D+09                  3604.6491    31.2750    59.0815
         TRA.     0.1140D+28                   993.6021     4.9680    39.2509
         TOT.                      -30.880    4598.2512    36.2430    98.3324

 210.00  VIB.     0.1525D+04                  3298.3696    29.6925    30.2721
         ROT.     0.9673D+06                   625.9693     2.9808    30.3689
         INT.     0.1475D+10                  3924.3390    32.6733    60.6410
         TRA.     0.1227D+28                  1043.2822     4.9680    39.4932
         TOT.                      -30.511    4967.6212    37.6414   100.1342

 220.00  VIB.     0.2220D+04                  3602.5494    31.1541    31.6869
         ROT.     0.1037D+07                   655.7774     2.9808    30.5076
         INT.     0.2302D+10                  4258.3268    34.1349    62.1944
         TRA.     0.1315D+28                  1092.9623     4.9680    39.7244
         TOT.                      -30.127    5351.2892    39.1029   101.9188

 230.00  VIB.     0.3226D+04                  3921.6641    32.6794    33.1051
         ROT.     0.1109D+07                   685.5855     2.9808    30.6401
         INT.     0.3576D+10                  4607.2496    35.6602    63.7452
         TRA.     0.1406D+28                  1142.6424     4.9680    39.9452
         TOT.                      -29.728    5749.8920    40.6283   103.6904

 240.00  VIB.     0.4681D+04                  4256.3464    34.2672    34.5293
         ROT.     0.1182D+07                   715.3935     2.9808    30.7670
         INT.     0.5532D+10                  4971.7400    37.2480    65.2962
         TRA.     0.1499D+28                  1192.3226     4.9680    40.1566
         TOT.                      -29.314    6164.0625    42.2160   105.4529

 250.00  VIB.     0.6787D+04                  4607.2069    35.9144    35.9613
         ROT.     0.1256D+07                   745.2016     2.9808    30.8886
         INT.     0.8527D+10                  5352.4085    38.8952    66.8500
         TRA.     0.1593D+28                  1242.0027     4.9680    40.3594
         TOT.                      -28.884    6594.4112    43.8633   107.2094

 260.00  VIB.     0.9831D+04                  4974.8191    37.6168    37.4029
         ROT.     0.1333D+07                   775.0097     2.9808    31.0055
         INT.     0.1310D+11                  5749.8288    40.5976    68.4085
         TRA.     0.1690D+28                  1291.6828     4.9680    40.5543
         TOT.                      -28.437    7041.5115    45.5656   108.9628

 270.00  VIB.     0.1423D+05                  5359.7087    39.3690    38.8553
         ROT.     0.1410D+07                   804.8177     2.9808    31.1180
         INT.     0.2007D+11                  6164.5264    42.3498    69.9733
         TRA.     0.1788D+28                  1341.3629     4.9680    40.7418
         TOT.                      -27.972    7505.8893    47.3178   110.7151

 280.00  VIB.     0.2061D+05                  5762.3451    41.1651    40.3194
         ROT.     0.1489D+07                   834.6258     2.9808    31.2264
         INT.     0.3069D+11                  6596.9709    44.1459    71.5458
         TRA.     0.1888D+28                  1391.0430     4.9680    40.9225
         TOT.                      -27.490    7988.0139    49.1139   112.4683

 290.00  VIB.     0.2983D+05                  6183.1368    42.9990    41.7958
         ROT.     0.1570D+07                   864.4339     2.9808    31.3310
         INT.     0.4682D+11                  7047.5707    45.9798    73.1269
         TRA.     0.1990D+28                  1440.7231     4.9680    41.0968
         TOT.                      -26.990    8488.2938    50.9478   114.2237

 300.00  VIB.     0.4319D+05                  6622.4283    44.8640    43.2849
         ROT.     0.1652D+07                   894.2419     2.9808    31.4321
         INT.     0.7133D+11                  7516.6702    47.8448    74.7170
         TRA.     0.2094D+28                  1490.4032     4.9680    41.2652
         TOT.                      -26.471    9007.0734    52.8128   115.9822

 310.00  VIB.     0.6256D+05                  7080.4992    46.7538    44.7867
         ROT.     0.1735D+07                   924.0500     2.9808    31.5298
         INT.     0.1085D+12                  8004.5492    49.7346    76.3166
         TRA.     0.2200D+28                  1540.0833     4.9680    41.4281
         TOT.                      -25.934    9544.6325    54.7026   117.7447

 320.00  VIB.     0.9067D+05                  7557.5659    48.6621    46.3012
         ROT.     0.1819D+07                   953.8580     2.9808    31.6245
         INT.     0.1650D+12                  8511.4239    51.6429    77.9257
         TRA.     0.2307D+28                  1589.7634     4.9680    41.5859
         TOT.                      -25.377   10101.1873    56.6109   119.5115

 330.00  VIB.     0.1315D+06                  8053.7829    50.5829    47.8280
         ROT.     0.1905D+07                   983.6661     2.9808    31.7162
         INT.     0.2505D+12                  9037.4490    53.5637    79.5442
         TRA.     0.2416D+28                  1639.4435     4.9680    41.7387
         TOT.                      -24.801   10676.8925    58.5317   121.2829

 340.00  VIB.     0.1909D+06                  8569.2468    52.5106    49.3667
         ROT.     0.1993D+07                  1013.4742     2.9808    31.8052
         INT.     0.3803D+12                  9582.7210    55.4914    81.1719
         TRA.     0.2527D+28                  1689.1236     4.9680    41.8870
         TOT.                      -24.206   11271.8446    60.4594   123.0589

 350.00  VIB.     0.2773D+06                  9103.9995    54.4398    50.9167
         ROT.     0.2081D+07                  1043.2822     2.9808    31.8916
         INT.     0.5771D+12                 10147.2817    57.4206    82.8082
         TRA.     0.2639D+28                  1738.8037     4.9680    42.0310
         TOT.                      -23.592   11886.0855    62.3887   124.8393

 360.00  VIB.     0.4032D+06                  9658.0330    56.3660    52.4773
         ROT.     0.2171D+07                  1073.0903     2.9808    31.9756
         INT.     0.8755D+12                 10731.1233    59.3468    84.4528
         TRA.     0.2753D+28                  1788.4838     4.9680    42.1710
         TOT.                      -22.959   12519.6071    64.3148   126.6239

 370.00  VIB.     0.5870D+06                 10231.2935    58.2846    54.0478
         ROT.     0.2262D+07                  1102.8984     2.9808    32.0572
         INT.     0.1328D+13                 11334.1919    61.2654    86.1051
         TRA.     0.2869D+28                  1838.1639     4.9680    42.3071
         TOT.                      -22.306   13172.3558    66.2334   128.4122

 380.00  VIB.     0.8555D+06                 10823.6866    60.1919    55.6275
         ROT.     0.2354D+07                  1132.7064     2.9808    32.1367
         INT.     0.2014D+13                 11956.3930    63.1727    87.7643
         TRA.     0.2986D+28                  1887.8440     4.9680    42.4396
         TOT.                      -21.634   13844.2371    68.1407   130.2039

 390.00  VIB.     0.1248D+07                 11435.0813    62.0844    57.2156
         ROT.     0.2448D+07                  1162.5145     2.9808    32.2142
         INT.     0.3056D+13                 12597.5958    65.0652    89.4297
         TRA.     0.3104D+28                  1937.5242     4.9680    42.5687
         TOT.                      -20.943   14535.1200    70.0332   131.9984

 400.00  VIB.     0.1823D+07                 12065.3149    63.9592    58.8111
         ROT.     0.2543D+07                  1192.3226     2.9808    32.2896
         INT.     0.4636D+13                 13257.6375    66.9400    91.1007
         TRA.     0.3224D+28                  1987.2043     4.9680    42.6944
         TOT.                      -20.233   15244.8417    71.9080   133.7951

   *: NOTE: HEATS OF FORMATION ARE RELATIVE TO THE
            ELEMENTS IN THEIR STANDARD STATE AT 298K
              (=  Standard Enthalpy of Formation).

            Hvib:  Zero-point energy is not included.
                   frequencies of less than zero cm-1 are not included.
            Hrot = (3/2)RT
            Htra = (3/2)RT + pV = (5/2)RT

            Heat capacity is Cp, not Cv

          For more information, see: HTTP://OpenMOPAC.net/Manual/thermochemistry.html


           FORCE CONSTANT IN CARTESIAN COORDINATES (Millidynes/A)

    ATOM   CHEMICAL       X               Y               Z
   NUMBER   SYMBOL  FORCE CONSTANT  FORCE CONSTANT  FORCE CONSTANT

      1       C        7.912411        8.684248        8.273653
      2       C        7.938793        8.517131        8.193666
      3       C        8.053385        8.623744        8.363961
      4       C        7.902765        8.577086        8.336063
      5       C        7.958973        8.455205        7.973971
      6       C        7.954534        8.519454        7.876023
      7       C        8.101756        8.391851        8.033990
      8       C        8.097978        8.426316        8.020736
      9       C        8.502861        8.272409        8.326119
     10       C        8.321149        8.343944        8.432840
     11       C        8.321513        8.246627        8.330735
     12       C        8.227560        8.255636        8.412087
     13       H        1.371048        4.124341        0.755592
     14       H        1.369657        1.971582        2.882678
     15       H        1.352923        4.166486        0.740942
     16       H        1.276949        1.974611        3.003989
     17       H        1.067297        1.619674        3.663071
     18       H        1.197692        4.480900        0.716119
     19       H        4.654494        0.807386        0.914118
     20       H        1.606685        4.003313        0.762234
     21       H        1.463600        4.430214        0.724353
     22       H        1.560815        1.960420        3.115173
     23       H        1.340993        4.533452        0.737358
     24       H        1.590829        1.757041        3.281998
     25       H        1.593455        4.330793        0.706317
     26       H        1.455201        4.476826        0.703805
     27       H        1.569861        1.948228        3.071347
     28       H        1.336058        2.021406        3.258591
     29       H        1.316064        4.792106        0.671830
     30       H        1.420676        1.749529        3.621437
     31       H        1.135191        1.686744        3.930727
     32       H        1.454992        2.113012        3.222235
     33       H        4.987384        0.823169        0.944858
     34       H        1.756430        4.284621        0.737402

 **********************
 *                    *
 * JOB ENDED NORMALLY *
 *                    *
 **********************



 TOTAL JOB TIME:             6.07 SECONDS

 == MOPAC DONE ==
