 *******************************************************************************
 **                                                                           **
 **                              MOPAC v23.1.2                                **
 **                                                                           **
 *******************************************************************************
 **          Digital Object Identifier (DOI): 10.5281/zenodo.6511958          **
 **    Visit the DOI location for information on how to cite this program.    **
 *******************************************************************************

                              PM3 CALCULATION RESULTS

 *******************************************************************************
 *  CALCULATION DONE: (MAX THREADS = 1)              Tue Jun  3 16:31:48 2025  *
 *  PM3        - The PM3 Hamiltonian to be used
 *  PRECISE    - TIGHTER CRITERIA TO BE USED
 *  NOSYM      - POINT-GROUP SYMMETRY SET TO C1
 *  THREADS=1  - MULTI-THREADING NOT USED
 *  T=         - A TIME OF 172800.0 SECONDS REQUESTED
 *  DUMP=N     - RESTART FILE WRITTEN EVERY 7200.0 SECONDS REQUESTED
 *******************************************************************************
pm3  precise nosym THREADS=1
 InChI=1S/C10H10/c1-2-6-10-8-4-3-7-9(10)5-1/h1-3,5,7-8H,4,6H2

   ATOM   CHEMICAL          X               Y               Z
  NUMBER   SYMBOL      (ANGSTROMS)     (ANGSTROMS)     (ANGSTROMS)

     1       C         -1.57410000  *  -1.14680000  *  -0.15360000  *
     2       C          2.31120000  *  -0.97120000  *  -0.25550000  *
     3       C         -0.16410000  *  -0.60290000  *  -0.10360000  *
     4       C          0.07840000  *   0.83530000  *   0.14860000  *
     5       C          0.87340000  *  -1.43170000  *  -0.28950000  *
     6       C          2.49070000  *   0.50400000  *   0.00560000  *
     7       C         -2.63180000  *  -0.09720000  *   0.07300000  *
     8       C          1.46320000  *   1.33440000  *   0.19140000  *
     9       C         -0.95060000  *   1.66940000  *   0.33520000  *
    10       C         -2.34060000  *   1.18780000  *   0.29580000  *
    11       H          2.84410000  *  -1.53700000  *   0.53710000  *
    12       H          2.78330000  *  -1.21680000  *  -1.22980000  *
    13       H         -1.68890000  *  -1.93230000  *   0.62380000  *
    14       H         -1.74990000  *  -1.61130000  *  -1.14740000  *
    15       H          0.68950000  *  -2.48370000  *  -0.47380000  *
    16       H          3.49800000  *   0.89980000  *   0.04260000  *
    17       H         -3.67040000  *  -0.40300000  *   0.05330000  *
    18       H          1.65870000  *   2.38450000  *   0.37490000  *
    19       H         -0.77580000  *   2.72260000  *   0.52000000  *
    20       H         -3.14430000  *   1.89610000  *   0.45180000  *



          CARTESIAN COORDINATES 

    NO.       ATOM           X           Y           Z

     1         C         -1.5741     -1.1468     -0.1536
     2         C          2.3112     -0.9712     -0.2555
     3         C         -0.1641     -0.6029     -0.1036
     4         C          0.0784      0.8353      0.1486
     5         C          0.8734     -1.4317     -0.2895
     6         C          2.4907      0.5040      0.0056
     7         C         -2.6318     -0.0972      0.0730
     8         C          1.4632      1.3344      0.1914
     9         C         -0.9506      1.6694      0.3352
    10         C         -2.3406      1.1878      0.2958
    11         H          2.8441     -1.5370      0.5371
    12         H          2.7833     -1.2168     -1.2298
    13         H         -1.6889     -1.9323      0.6238
    14         H         -1.7499     -1.6113     -1.1474
    15         H          0.6895     -2.4837     -0.4738
    16         H          3.4980      0.8998      0.0426
    17         H         -3.6704     -0.4030      0.0533
    18         H          1.6587      2.3845      0.3749
    19         H         -0.7758      2.7226      0.5200
    20         H         -3.1443      1.8961      0.4518

  H: (PM3): J. J. P. STEWART, J. COMP. CHEM. 10, 209 (1989).
  C: (PM3): J. J. P. STEWART, J. COMP. CHEM. 10, 209 (1989).

           Empirical Formula: C10 H10  =    20 atoms



      MOLECULAR POINT GROUP   :   C1  


      RHF CALCULATION, NO. OF DOUBLY OCCUPIED LEVELS = 25


          Geometry optimization using EF

          DIAGONAL MATRIX USED AS START HESSIAN

 CYCLE:     1 TIME:   0.008 TIME LEFT:  2.00D  GRAD.:    84.797 HEAT:  50.56569
 CYCLE:     2 TIME:   0.012 TIME LEFT:  2.00D  GRAD.:    75.338 HEAT:  49.49244
 CYCLE:     3 TIME:   0.012 TIME LEFT:  2.00D  GRAD.:    42.312 HEAT:  48.54547
 CYCLE:     4 TIME:   0.012 TIME LEFT:  2.00D  GRAD.:    23.358 HEAT:  48.18272
 CYCLE:     5 TIME:   0.008 TIME LEFT:  2.00D  GRAD.:    43.798 HEAT:  48.14729
 CYCLE:     6 TIME:   0.008 TIME LEFT:  2.00D  GRAD.:    28.189 HEAT:  47.83926
 CYCLE:     7 TIME:   0.008 TIME LEFT:  2.00D  GRAD.:    19.427 HEAT:  47.67896
 CYCLE:     8 TIME:   0.020 TIME LEFT:  2.00D  GRAD.:    15.674 HEAT:  47.60972
 CYCLE:     9 TIME:   0.008 TIME LEFT:  2.00D  GRAD.:    11.579 HEAT:  47.55295
 CYCLE:    10 TIME:   0.008 TIME LEFT:  2.00D  GRAD.:     8.842 HEAT:  47.49939
 CYCLE:    11 TIME:   0.008 TIME LEFT:  2.00D  GRAD.:    11.039 HEAT:  47.48848
 CYCLE:    12 TIME:   0.008 TIME LEFT:  2.00D  GRAD.:     9.646 HEAT:  47.47958
 CYCLE:    13 TIME:   0.008 TIME LEFT:  2.00D  GRAD.:     8.334 HEAT:  47.46629
 CYCLE:    14 TIME:   0.008 TIME LEFT:  2.00D  GRAD.:     5.615 HEAT:  47.45726
 CYCLE:    15 TIME:   0.012 TIME LEFT:  2.00D  GRAD.:     2.739 HEAT:  47.44856
 CYCLE:    16 TIME:   0.004 TIME LEFT:  2.00D  GRAD.:     6.353 HEAT:  47.45769
 CYCLE:    17 TIME:   0.008 TIME LEFT:  2.00D  GRAD.:     2.744 HEAT:  47.44656
 CYCLE:    18 TIME:   0.008 TIME LEFT:  2.00D  GRAD.:     4.108 HEAT:  47.44814
 CYCLE:    19 TIME:   0.008 TIME LEFT:  2.00D  GRAD.:     0.850 HEAT:  47.44420
 CYCLE:    20 TIME:   0.008 TIME LEFT:  2.00D  GRAD.:     1.551 HEAT:  47.44416
 CYCLE:    21 TIME:   0.004 TIME LEFT:  2.00D  GRAD.:     2.018 HEAT:  47.44401
 CYCLE:    22 TIME:   0.008 TIME LEFT:  2.00D  GRAD.:     1.201 HEAT:  47.44346
 CYCLE:    23 TIME:   0.004 TIME LEFT:  2.00D  GRAD.:     0.895 HEAT:  47.44321
 CYCLE:    24 TIME:   0.008 TIME LEFT:  2.00D  GRAD.:     0.871 HEAT:  47.44313
 CYCLE:    25 TIME:   0.008 TIME LEFT:  2.00D  GRAD.:     0.388 HEAT:  47.44291
 CYCLE:    26 TIME:   0.004 TIME LEFT:  2.00D  GRAD.:     0.361 HEAT:  47.44284
 CYCLE:    27 TIME:   0.008 TIME LEFT:  2.00D  GRAD.:     0.227 HEAT:  47.44276
 CYCLE:    28 TIME:   0.004 TIME LEFT:  2.00D  GRAD.:     0.329 HEAT:  47.44265
 CYCLE:    29 TIME:   0.008 TIME LEFT:  2.00D  GRAD.:     0.273 HEAT:  47.44261
 CYCLE:    30 TIME:   0.004 TIME LEFT:  2.00D  GRAD.:     0.171 HEAT:  47.44257
 CYCLE:    31 TIME:   0.008 TIME LEFT:  2.00D  GRAD.:     0.115 HEAT:  47.44255
 CYCLE:    32 TIME:   0.008 TIME LEFT:  2.00D  GRAD.:     0.112 HEAT:  47.44254
 CYCLE:    33 TIME:   0.008 TIME LEFT:  2.00D  GRAD.:     0.065 HEAT:  47.44253
 CYCLE:    34 TIME:   0.008 TIME LEFT:  2.00D  GRAD.:     0.048 HEAT:  47.44252

     GRADIENT =  0.04779 IS LESS THAN CUTOFF =  0.05000



 -------------------------------------------------------------------------------
 pm3  precise nosym THREADS=1
 InChI=1S/C10H10/c1-2-6-10-8-4-3-7-9(10)5-1/h1-3,5,7-8H,4,6H2



     GEOMETRY OPTIMISED USING EIGENVECTOR FOLLOWING (EF).     
     SCF FIELD WAS ACHIEVED                                   


                              PM3 CALCULATION
                                                       MOPAC v23.1.2 MacOS
                                                       Tue Jun  3 16:31:49 2025




          FINAL HEAT OF FORMATION =         47.44252 KCAL/MOL =     198.49952 KJ/MOL


          COSMO AREA              =        169.36 SQUARE ANGSTROMS
          COSMO VOLUME            =        168.75 CUBIC ANGSTROMS

          GRADIENT NORM           =          0.04779          =       0.01069 PER ATOM
          IONIZATION POTENTIAL    =          8.070802 EV
          HOMO LUMO ENERGIES (EV) =         -8.071 -0.451
          NO. OF FILLED LEVELS    =         25
          MOLECULAR WEIGHT        =        130.1890         POINT GROUP:  C1  

          MOLECULAR DIMENSIONS (Angstroms)

            Atom       Atom       Distance
            H    17    H    16     7.26599
            H    19    H    15     5.51553
            H    13    H    12     1.77218


          SCF CALCULATIONS        =         42

          WALL-CLOCK TIME         =      0.285 SECONDS
          COMPUTATION TIME        =      0.173 SECONDS




   ATOM   CHEMICAL          X               Y               Z
  NUMBER   SYMBOL      (ANGSTROMS)     (ANGSTROMS)     (ANGSTROMS)

     1       C         -1.55139656  *  -1.11267186  *  -0.14799746  *
     2       C          2.30347248  *  -0.97356822  *  -0.25584211  *
     3       C         -0.15087669  *  -0.59022804  *  -0.10161366  *
     4       C          0.06346912  *   0.83350507  *   0.14913942  *
     5       C          0.88964155  *  -1.42117562  *  -0.28810595  *
     6       C          2.47473233  *   0.47805153  *   0.00112957  *
     7       C         -2.60892801  *  -0.09554628  *   0.07202172  *
     8       C          1.44076912  *   1.30643214  *   0.18718754  *
     9       C         -0.97635114  *   1.67763019  *   0.33804976  *
    10       C         -2.33761960  *   1.19763175  *   0.29735904  *
    11       H          2.84877680  *  -1.54761194  *   0.52217553  *
    12       H          2.78859539  *  -1.23216111  *  -1.22019671  *
    13       H         -1.66831281  *  -1.91396838  *   0.61148171  *
    14       H         -1.72793216  *  -1.59952286  *  -1.13001375  *
    15       H          0.72314332  *  -2.48845540  *  -0.47581784  *
    16       H          3.50562854  *   0.84763314  *   0.03223548  *
    17       H         -3.64180387  *  -0.45956246  *   0.04085951  *
    18       H          1.59742147  *   2.37517022  *   0.37533973  *
    19       H         -0.81270414  *   2.74452174  *   0.52604836  *
    20       H         -3.13817769  *   1.92740331  *   0.45682860  *

                             CARTESIAN COORDINATES

   1    C       -1.551396560    -1.112671856    -0.147997461
   2    C        2.303472477    -0.973568222    -0.255842109
   3    C       -0.150876693    -0.590228037    -0.101613655
   4    C        0.063469118     0.833505067     0.149139417
   5    C        0.889641546    -1.421175620    -0.288105952
   6    C        2.474732329     0.478051532     0.001129574
   7    C       -2.608928009    -0.095546285     0.072021724
   8    C        1.440769115     1.306432140     0.187187545
   9    C       -0.976351138     1.677630193     0.338049763
  10    C       -2.337619596     1.197631755     0.297359039
  11    H        2.848776798    -1.547611936     0.522175532
  12    H        2.788595387    -1.232161112    -1.220196708
  13    H       -1.668312806    -1.913968376     0.611481711
  14    H       -1.727932157    -1.599522859    -1.130013752
  15    H        0.723143317    -2.488455404    -0.475817844
  16    H        3.505628540     0.847633143     0.032235484
  17    H       -3.641803874    -0.459562458     0.040859509
  18    H        1.597421472     2.375170216     0.375339729
  19    H       -0.812704142     2.744521738     0.526048363
  20    H       -3.138177691     1.927403309     0.456828603


           Empirical Formula: C10 H10  =    20 atoms



      MOLECULAR POINT GROUP   :   C1  


                  EIGENVALUES  
 -40.93698 -35.78469 -32.00453 -28.92717 -27.46387 -23.05929 -21.48369 -20.95196
 -17.74182 -17.29822 -17.01132 -15.41117 -15.30651 -15.22263 -14.44816 -14.44754
 -14.15750 -13.49739 -13.02549 -12.30937 -12.05935 -11.62605 -10.62952 -10.13477
  -8.07080  -0.45133   1.00633   1.40598   2.65080   3.13078   3.24894   3.34748
   3.41960   3.61219   3.75005   3.79183   3.95550   4.10691   4.34204   4.37582
   4.50768   4.51257   4.81153   5.08317   5.28017   5.47048   5.72419   5.76247
   6.37693   6.43241


              NET ATOMIC CHARGES AND DIPOLE CONTRIBUTIONS

  ATOM NO.   TYPE          CHARGE      No. of ELECS.   s-Pop       p-Pop       
    1          C          -0.013926        4.0139     1.13166     2.88227
    2          C          -0.019361        4.0194     1.13062     2.88874
    3          C          -0.067493        4.0675     1.17856     2.88894
    4          C          -0.026074        4.0261     1.16321     2.86286
    5          C          -0.155936        4.1559     1.19368     2.96226
    6          C          -0.130812        4.1308     1.19503     2.93578
    7          C          -0.135400        4.1354     1.19557     2.93983
    8          C          -0.102650        4.1026     1.17791     2.92474
    9          C          -0.099102        4.0991     1.17847     2.92063
   10          C          -0.109068        4.1091     1.17657     2.93250
   11          H           0.063410        0.9366     0.93659
   12          H           0.063406        0.9366     0.93659
   13          H           0.063532        0.9365     0.93647
   14          H           0.063519        0.9365     0.93648
   15          H           0.101203        0.8988     0.89880
   16          H           0.098337        0.9017     0.90166
   17          H           0.098408        0.9016     0.90159
   18          H           0.102491        0.8975     0.89751
   19          H           0.104368        0.8956     0.89563
   20          H           0.101148        0.8989     0.89885
 DIPOLE           X         Y         Z       TOTAL
 POINT-CHG.     0.206    -0.456    -0.090     0.508
 HYBRID         0.012    -0.052    -0.010     0.054
 SUM            0.218    -0.507    -0.100     0.561


          ATOMIC ORBITAL ELECTRON POPULATIONS

     Atom    s        px        py        pz   
    1  C   1.13166   0.91241   0.96457   1.00529
    2  C   1.13062   0.94580   0.93990   1.00305
    3  C   1.17856   0.94785   0.93749   1.00360
    4  C   1.16321   0.93636   0.92979   0.99672
    5  C   1.19368   0.94926   0.98437   1.02863
    6  C   1.19503   0.97959   0.95949   0.99669
    7  C   1.19557   0.98107   0.95739   1.00137
    8  C   1.17791   0.92953   0.98079   1.01441
    9  C   1.17847   0.93248   0.97831   1.00984
   10  C   1.17657   0.95909   0.95989   1.01352
   11  H   0.93659
   12  H   0.93659
   13  H   0.93647
   14  H   0.93648
   15  H   0.89880
   16  H   0.90166
   17  H   0.90159
   18  H   0.89751
   19  H   0.89563
   20  H   0.89885
 *******************************************************************************
 **                                                                           **
 **                              MOPAC v23.1.2                                **
 **                                                                           **
 *******************************************************************************
 **          Digital Object Identifier (DOI): 10.5281/zenodo.6511958          **
 **    Visit the DOI location for information on how to cite this program.    **
 *******************************************************************************

                              PM3 CALCULATION RESULTS

 *******************************************************************************
 *  CALCULATION DONE: (MAX THREADS = 1)              Tue Jun  3 16:31:49 2025  *
 *  PM3        - The PM3 Hamiltonian to be used
 *  OLDGEO     - PREVIOUS GEOMETRY TO BE USED
 *  PRECISE    - TIGHTER CRITERIA TO BE USED
 *  NOSYM      - POINT-GROUP SYMMETRY SET TO C1
 *  THREADS=1  - MULTI-THREADING NOT USED
 *  T=         - A TIME OF 172800.0 SECONDS REQUESTED
 *  DUMP=N     - RESTART FILE WRITTEN EVERY 7200.0 SECONDS REQUESTED
 *  THERMO     - THERMODYNAMIC QUANTITIES TO BE CALCULATED
 *******************************************************************************
oldgeo thermo nosym precise THREADS=1  pm3
 InChI=1S/C10H10/c1-2-6-10-8-4-3-7-9(10)5-1/h1-3,5,7-8H,4,6H2

   ATOM   CHEMICAL          X               Y               Z
  NUMBER   SYMBOL      (ANGSTROMS)     (ANGSTROMS)     (ANGSTROMS)

     1       C         -1.55139656  *  -1.11267186  *  -0.14799746  *
     2       C          2.30347248  *  -0.97356822  *  -0.25584211  *
     3       C         -0.15087669  *  -0.59022804  *  -0.10161366  *
     4       C          0.06346912  *   0.83350507  *   0.14913942  *
     5       C          0.88964155  *  -1.42117562  *  -0.28810595  *
     6       C          2.47473233  *   0.47805153  *   0.00112957  *
     7       C         -2.60892801  *  -0.09554628  *   0.07202172  *
     8       C          1.44076912  *   1.30643214  *   0.18718754  *
     9       C         -0.97635114  *   1.67763019  *   0.33804976  *
    10       C         -2.33761960  *   1.19763175  *   0.29735904  *
    11       H          2.84877680  *  -1.54761194  *   0.52217553  *
    12       H          2.78859539  *  -1.23216111  *  -1.22019671  *
    13       H         -1.66831281  *  -1.91396838  *   0.61148171  *
    14       H         -1.72793216  *  -1.59952286  *  -1.13001375  *
    15       H          0.72314332  *  -2.48845540  *  -0.47581784  *
    16       H          3.50562854  *   0.84763314  *   0.03223548  *
    17       H         -3.64180387  *  -0.45956246  *   0.04085951  *
    18       H          1.59742147  *   2.37517022  *   0.37533973  *
    19       H         -0.81270414  *   2.74452174  *   0.52604836  *
    20       H         -3.13817769  *   1.92740331  *   0.45682860  *



          CARTESIAN COORDINATES 

    NO.       ATOM           X           Y           Z

     1         C         -1.5514     -1.1127     -0.1480
     2         C          2.3035     -0.9736     -0.2558
     3         C         -0.1509     -0.5902     -0.1016
     4         C          0.0635      0.8335      0.1491
     5         C          0.8896     -1.4212     -0.2881
     6         C          2.4747      0.4781      0.0011
     7         C         -2.6089     -0.0955      0.0720
     8         C          1.4408      1.3064      0.1872
     9         C         -0.9764      1.6776      0.3380
    10         C         -2.3376      1.1976      0.2974
    11         H          2.8488     -1.5476      0.5222
    12         H          2.7886     -1.2322     -1.2202
    13         H         -1.6683     -1.9140      0.6115
    14         H         -1.7279     -1.5995     -1.1300
    15         H          0.7231     -2.4885     -0.4758
    16         H          3.5056      0.8476      0.0322
    17         H         -3.6418     -0.4596      0.0409
    18         H          1.5974      2.3752      0.3753
    19         H         -0.8127      2.7445      0.5260
    20         H         -3.1382      1.9274      0.4568

  H: (PM3): J. J. P. STEWART, J. COMP. CHEM. 10, 209 (1989).
  C: (PM3): J. J. P. STEWART, J. COMP. CHEM. 10, 209 (1989).

           Empirical Formula: C10 H10  =    20 atoms



      MOLECULAR POINT GROUP   :   C1  


      RHF CALCULATION, NO. OF DOUBLY OCCUPIED LEVELS = 25



          HEAT OF FORMATION =      47.442523 KCALS/MOLE


          CARTESIAN COORDINATE DERIVATIVES

   NUMBER  ATOM         X            Y            Z

     1       C     -0.008913     0.000816     0.002256
     2       C     -0.013047     0.002905     0.000230
     3       C      0.007518     0.006167    -0.003296
     4       C     -0.005451    -0.000298    -0.005696
     5       C     -0.014127    -0.007978     0.006175
     6       C     -0.001368     0.006185    -0.010259
     7       C     -0.000056    -0.003490    -0.002828
     8       C      0.000847    -0.004399     0.011496
     9       C      0.002760    -0.006606     0.018681
    10       C      0.010778     0.000080    -0.003907
    11       H      0.009704     0.005490     0.000180
    12       H      0.006637     0.000144    -0.000462
    13       H      0.002430     0.004762    -0.001237
    14       H      0.008832    -0.000144     0.001599
    15       H     -0.008120    -0.002663    -0.000412
    16       H     -0.011875    -0.003870    -0.001014
    17       H      0.000398    -0.008138    -0.004909
    18       H      0.001293     0.010723    -0.005517
    19       H      0.010213    -0.001133    -0.001086
    20       H      0.001547     0.001445     0.000004



          GRADIENT NORM =   0.04940

          MOLECULAR WEIGHT =  130.19



          ROTATIONAL CONSTANTS IN CM(-1)

          A =    0.09730960   B =    0.03914116   C =    0.02820882



           PRINCIPAL MOMENTS OF INERTIA IN UNITS OF 10**(-40)*GRAM-CM**2

          A =      287.6669   B =      715.1743   C =      992.3403


          ORIENTATION OF MOLECULE IN FORCE CALCULATION

    NO.       ATOM         X         Y         Z

     1          C      -1.5510   -1.1860    0.0002
     2          C       2.3079   -1.1860    0.0002
     3          C      -0.1344   -0.7067    0.0002
     4          C       0.1240    0.7318    0.0002
     5          C       0.8803   -1.5889    0.0003
     6          C       2.5241    0.2822   -0.0001
     7          C      -2.5769   -0.1142   -0.0007
     8          C       1.5159    1.1617    0.0000
     9          C      -0.8896    1.6274    0.0002
    10          C      -2.2656    1.1895   -0.0005
    11          H       2.8102   -1.6276    0.8862
    12          H       2.8101   -1.6280   -0.8856
    13          H      -1.7179   -1.8342    0.8860
    14          H      -1.7175   -1.8355   -0.8847
    15          H       0.6807   -2.6669    0.0004
    16          H       3.5664    0.6198   -0.0004
    17          H      -3.6210   -0.4463   -0.0015
    18          H       1.7056    2.2415   -0.0002
    19          H      -0.6929    2.7052    0.0004
    20          H      -3.0435    1.9601   -0.0010


    FIRST DERIVATIVES WILL BE USED IN THE CALCULATION OF SECOND DERIVATIVES

          ESTIMATED TIME TO COMPLETE CALCULATION =        1.88 SECONDS

    FOR POINT-GROUP C1   THERE ARE   1 UNIQUE SYMMETRY FUNCTIONS.

 STEP:   1 TIME =     0.02 SECS, INTEGRAL =      0.02 TIME LEFT: 172799.97
 STEP:   2 TIME =     0.02 SECS, INTEGRAL =      0.04 TIME LEFT: 172799.95
 STEP:   3 TIME =     0.02 SECS, INTEGRAL =      0.06 TIME LEFT: 172799.93
 STEP:   4 TIME =     0.02 SECS, INTEGRAL =      0.08 TIME LEFT: 172799.91
 STEP:   5 TIME =     0.02 SECS, INTEGRAL =      0.10 TIME LEFT: 172799.89
 STEP:   6 TIME =     0.02 SECS, INTEGRAL =      0.12 TIME LEFT: 172799.87
 STEP:   7 TIME =     0.02 SECS, INTEGRAL =      0.14 TIME LEFT: 172799.85
 STEP:   8 TIME =     0.02 SECS, INTEGRAL =      0.16 TIME LEFT: 172799.83
 STEP:   9 TIME =     0.02 SECS, INTEGRAL =      0.18 TIME LEFT: 172799.81
 STEP:  10 TIME =     0.02 SECS, INTEGRAL =      0.20 TIME LEFT: 172799.79
 STEP:  11 TIME =     0.02 SECS, INTEGRAL =      0.22 TIME LEFT: 172799.77
 STEP:  12 TIME =     0.02 SECS, INTEGRAL =      0.25 TIME LEFT: 172799.75
 STEP:  13 TIME =     0.02 SECS, INTEGRAL =      0.27 TIME LEFT: 172799.73
 STEP:  14 TIME =     0.02 SECS, INTEGRAL =      0.29 TIME LEFT: 172799.71
 STEP:  15 TIME =     0.02 SECS, INTEGRAL =      0.31 TIME LEFT: 172799.68
 STEP:  16 TIME =     0.02 SECS, INTEGRAL =      0.32 TIME LEFT: 172799.67
 STEP:  17 TIME =     0.02 SECS, INTEGRAL =      0.34 TIME LEFT: 172799.65
 STEP:  18 TIME =     0.02 SECS, INTEGRAL =      0.37 TIME LEFT: 172799.62
 STEP:  19 TIME =     0.02 SECS, INTEGRAL =      0.39 TIME LEFT: 172799.61
 STEP:  20 TIME =     0.02 SECS, INTEGRAL =      0.41 TIME LEFT: 172799.58
 STEP:  21 TIME =     0.02 SECS, INTEGRAL =      0.43 TIME LEFT: 172799.56
 STEP:  22 TIME =     0.02 SECS, INTEGRAL =      0.45 TIME LEFT: 172799.54
 STEP:  23 TIME =     0.02 SECS, INTEGRAL =      0.47 TIME LEFT: 172799.52
 STEP:  24 TIME =     0.02 SECS, INTEGRAL =      0.49 TIME LEFT: 172799.50
 STEP:  25 TIME =     0.02 SECS, INTEGRAL =      0.51 TIME LEFT: 172799.48
 STEP:  26 TIME =     0.02 SECS, INTEGRAL =      0.53 TIME LEFT: 172799.46
 STEP:  27 TIME =     0.02 SECS, INTEGRAL =      0.55 TIME LEFT: 172799.44
 STEP:  28 TIME =     0.02 SECS, INTEGRAL =      0.57 TIME LEFT: 172799.42
 STEP:  29 TIME =     0.02 SECS, INTEGRAL =      0.59 TIME LEFT: 172799.40
 STEP:  30 TIME =     0.02 SECS, INTEGRAL =      0.62 TIME LEFT: 172799.38
 STEP:  31 TIME =     0.02 SECS, INTEGRAL =      0.64 TIME LEFT: 172799.36
 STEP:  32 TIME =     0.02 SECS, INTEGRAL =      0.66 TIME LEFT: 172799.34
 STEP:  33 TIME =     0.02 SECS, INTEGRAL =      0.67 TIME LEFT: 172799.32
 STEP:  34 TIME =     0.02 SECS, INTEGRAL =      0.69 TIME LEFT: 172799.30
 STEP:  35 TIME =     0.02 SECS, INTEGRAL =      0.71 TIME LEFT: 172799.28
 STEP:  36 TIME =     0.02 SECS, INTEGRAL =      0.73 TIME LEFT: 172799.26
 STEP:  37 TIME =     0.02 SECS, INTEGRAL =      0.75 TIME LEFT: 172799.24
 STEP:  38 TIME =     0.02 SECS, INTEGRAL =      0.77 TIME LEFT: 172799.22
 STEP:  39 TIME =     0.02 SECS, INTEGRAL =      0.79 TIME LEFT: 172799.20
 STEP:  40 TIME =     0.02 SECS, INTEGRAL =      0.82 TIME LEFT: 172799.18
 STEP:  41 TIME =     0.02 SECS, INTEGRAL =      0.84 TIME LEFT: 172799.16
 STEP:  42 TIME =     0.02 SECS, INTEGRAL =      0.86 TIME LEFT: 172799.13
 STEP:  43 TIME =     0.02 SECS, INTEGRAL =      0.88 TIME LEFT: 172799.11
 STEP:  44 TIME =     0.02 SECS, INTEGRAL =      0.89 TIME LEFT: 172799.10
 STEP:  45 TIME =     0.02 SECS, INTEGRAL =      0.91 TIME LEFT: 172799.08
 STEP:  46 TIME =     0.02 SECS, INTEGRAL =      0.93 TIME LEFT: 172799.06
 STEP:  47 TIME =     0.02 SECS, INTEGRAL =      0.95 TIME LEFT: 172799.04
 STEP:  48 TIME =     0.02 SECS, INTEGRAL =      0.98 TIME LEFT: 172799.02
 STEP:  49 TIME =     0.02 SECS, INTEGRAL =      1.00 TIME LEFT: 172799.00
 STEP:  50 TIME =     0.02 SECS, INTEGRAL =      1.02 TIME LEFT: 172798.98
 STEP:  51 TIME =     0.02 SECS, INTEGRAL =      1.04 TIME LEFT: 172798.95
 STEP:  52 TIME =     0.02 SECS, INTEGRAL =      1.06 TIME LEFT: 172798.93
 STEP:  53 TIME =     0.02 SECS, INTEGRAL =      1.08 TIME LEFT: 172798.91
 STEP:  54 TIME =     0.02 SECS, INTEGRAL =      1.10 TIME LEFT: 172798.89
 STEP:  55 TIME =     0.02 SECS, INTEGRAL =      1.12 TIME LEFT: 172798.87
 STEP:  56 TIME =     0.02 SECS, INTEGRAL =      1.14 TIME LEFT: 172798.86
 STEP:  57 TIME =     0.02 SECS, INTEGRAL =      1.16 TIME LEFT: 172798.84
 STEP:  58 TIME =     0.02 SECS, INTEGRAL =      1.18 TIME LEFT: 172798.82
 STEP:  59 TIME =     0.02 SECS, INTEGRAL =      1.20 TIME LEFT: 172798.80
 STEP:  60 TIME =     0.02 SECS, INTEGRAL =      1.21 TIME LEFT: 172798.78

(To convert to Hartree/Bohr^2, multiply by (10^(-21) x N x a0^2)/(4.184 x 627.51) =  0.0642)


           FORCE MATRIX IN MILLIDYNES/ANGSTROM


                  C  1       C  2       C  3       C  4       C  5       C  6
 ------------------------------------------------------------------------------
     C    1  15.035766
     C    2   0.121744  15.126529
     C    3   4.682081   0.824991  18.751994
     C    4   0.592478   0.187702   5.237267  19.069617
     C    5   0.825825   5.067039   9.914668   1.095752  18.081645
     C    6   0.005873   5.055481   0.061146   1.105858   0.732924  18.106493
     C    7   5.046641   0.010213   0.692122   0.232326   0.060932   0.014691
     C    8   0.050141   0.856333   0.713211   5.430871   0.064832  10.361866
     C    9   0.138044   0.042132   1.050478   9.275662   0.164382   0.145048
     C   10   0.867861   0.014566   0.166769   1.217938   0.067048   0.048935
     H   11   0.015413   4.361044   0.035717   0.015972   0.416504   0.418784
     H   12   0.015410   4.361072   0.035715   0.015968   0.416485   0.418818
     H   13   4.360339   0.014044   0.417566   0.027246   0.039648   0.001697
     H   14   4.360550   0.014024   0.417577   0.027277   0.039699   0.001693
     H   15   0.074317   0.423053   0.456932   0.115911   4.804064   0.046991
     H   16   0.002371   0.423527   0.006282   0.124593   0.046939   4.832356
     H   17   0.422602   0.003790   0.048577   0.008158   0.009190   0.001825
     H   18   0.006566   0.125229   0.042962   0.442378   0.004219   0.442033
     H   19   0.003753   0.003061   0.109581   0.451496   0.009030   0.006474
     H   20   0.123078   0.000861   0.002471   0.048293   0.001101   0.002043


                  C  7       C  8       C  9       C 10       H 11       H 12
 ------------------------------------------------------------------------------
     C    7  17.984045
     C    8   0.040731  18.543880
     C    9   1.234626   1.092394  18.134290
     C   10  10.130823   0.169255   5.720465  18.320938
     H   11   0.001398   0.039320   0.006271   0.003084   4.950734
     H   12   0.001394   0.039336   0.006263   0.003078   0.567849   4.950757
     H   13   0.417330   0.005814   0.015627   0.041894   0.002300   0.002135
     H   14   0.417416   0.005816   0.015615   0.041931   0.002133   0.002296
     H   15   0.002303   0.006042   0.009627   0.008023   0.027907   0.027932
     H   16   0.001306   0.441282   0.008470   0.010677   0.027544   0.027553
     H   17   4.832078   0.011743   0.122454   0.444543   0.000976   0.000976
     H   18   0.001405   4.802476   0.042131   0.002924   0.016067   0.016063
     H   19   0.048196   0.074346   4.830350   0.433901   0.001093   0.001093
     H   20   0.443892   0.009351   0.434355   4.852742   0.000145   0.000144


                  H 13       H 14       H 15       H 16       H 17       H 18
 ------------------------------------------------------------------------------
     H   13   4.948080
     H   14   0.569210   4.948316
     H   15   0.013165   0.013201   5.189039
     H   16   0.000340   0.000341   0.006726   5.207494
     H   17   0.029613   0.029662   0.001802   0.001206   5.208756
     H   18   0.000733   0.000734   0.001115   0.068419   0.000495   5.176517
     H   19   0.000892   0.000890   0.008566   0.004608   0.007345   0.028203
     H   20   0.016298   0.016285   0.000313   0.000728   0.065870   0.000795


                  H 19       H 20
 ------------------------------
     H   19   5.204368
     H   20   0.031831   5.216657


          HEAT OF FORMATION =      47.442523 KCALS/MOLE

          ZERO POINT ENERGY     105.119 KCAL/MOL


           NORMAL COORDINATE ANALYSIS (Total motion = 1 Angstrom)


   Root No.       1         2         3         4         5         6         7         8

                 1 A       2 A       3 A       4 A       5 A       6 A       7 A       8 A   

                  42.1     153.6     203.5     285.9     377.8     413.5     433.1     483.3
  
           1   -0.0000   -0.0000    0.0000    0.0000    0.0314   -0.0000    0.0000    0.0298
           2    0.0000    0.0000   -0.0000   -0.0000    0.0003   -0.0000    0.0000    0.0459
           3    0.0545    0.0096   -0.0336   -0.0094   -0.0000    0.0005   -0.0007   -0.0000
           4   -0.0000   -0.0000   -0.0000   -0.0000   -0.0180    0.0000    0.0000    0.0623
           5   -0.0000    0.0000   -0.0000    0.0000   -0.0321   -0.0000   -0.0000   -0.0388
           6   -0.0483    0.0100   -0.0395    0.0101    0.0000   -0.0056    0.0025    0.0000
           7   -0.0000   -0.0000   -0.0000   -0.0000    0.0081   -0.0000    0.0000    0.0420
           8    0.0000   -0.0000    0.0000   -0.0000    0.0529   -0.0000   -0.0000   -0.0039
           9    0.0151    0.0171    0.0349    0.0274    0.0000    0.0587   -0.0129    0.0000
          10   -0.0000   -0.0000   -0.0000   -0.0000    0.0076   -0.0000   -0.0000   -0.0382
          11    0.0000   -0.0000    0.0000   -0.0000    0.0533   -0.0000   -0.0000    0.0044
          12    0.0167    0.0333    0.0129    0.0460    0.0000    0.0280   -0.0136    0.0000
          13   -0.0000   -0.0000   -0.0000   -0.0000   -0.0232    0.0000    0.0000    0.0495
          14   -0.0000   -0.0000    0.0000   -0.0000    0.0208   -0.0000   -0.0000   -0.0083
          15   -0.0192    0.0131    0.0707   -0.0234   -0.0000   -0.0216    0.0086    0.0000
          16   -0.0000   -0.0000   -0.0000   -0.0000    0.0000   -0.0000   -0.0000   -0.0128
          17    0.0000   -0.0000   -0.0000   -0.0000   -0.0342    0.0000   -0.0000   -0.0292
          18    0.0110   -0.0506   -0.0189   -0.0394   -0.0000    0.0264   -0.0243    0.0000
          19    0.0000    0.0000    0.0000   -0.0000    0.0057    0.0000   -0.0000   -0.0050
          20   -0.0000    0.0000    0.0000    0.0000   -0.0354    0.0000    0.0000    0.0251
          21   -0.0138   -0.0616   -0.0087    0.0220   -0.0000   -0.0276   -0.0309    0.0000
          22   -0.0000   -0.0000   -0.0000   -0.0000    0.0270   -0.0000    0.0000   -0.0282
          23    0.0000   -0.0000    0.0000    0.0000    0.0028   -0.0000   -0.0000   -0.0404
          24    0.0411   -0.0197    0.0148    0.0305    0.0000   -0.0359    0.0384   -0.0000
          25   -0.0000   -0.0000    0.0000    0.0000   -0.0231    0.0000   -0.0000   -0.0475
          26    0.0000   -0.0000    0.0000    0.0000    0.0216    0.0000   -0.0000    0.0061
          27   -0.0121    0.0626   -0.0066   -0.0240   -0.0000   -0.0216   -0.0370    0.0000
          28    0.0000    0.0000    0.0000    0.0000   -0.0136   -0.0000   -0.0001   -0.0605
          29   -0.0000   -0.0000    0.0000    0.0000   -0.0307    0.0000    0.0000    0.0379
          30   -0.0433   -0.0073   -0.0034   -0.0242    0.0000    0.0290    0.0484   -0.0001
          31    0.0300   -0.0097    0.0923   -0.0438   -0.0305    0.0014   -0.0104    0.0737
          32   -0.0410    0.0418   -0.0300    0.0498   -0.0465   -0.0394    0.0377   -0.0310
          33   -0.0859    0.0367   -0.1079    0.0609   -0.0001   -0.0268    0.0282   -0.0022
          34   -0.0300    0.0097   -0.0923    0.0438   -0.0305   -0.0014    0.0104    0.0736
          35    0.0410   -0.0418    0.0300   -0.0497   -0.0466    0.0394   -0.0377   -0.0310
          36   -0.0859    0.0367   -0.1079    0.0609    0.0001   -0.0268    0.0282    0.0022
          37    0.0055   -0.0192   -0.0339   -0.0104    0.0577   -0.0416   -0.0007    0.0242
          38    0.0654    0.0502   -0.0658   -0.0533   -0.0070   -0.0058    0.0700    0.0499
          39    0.1036    0.0431   -0.0890   -0.0512    0.0001   -0.0118    0.0522    0.0015
          40   -0.0056    0.0191    0.0339    0.0104    0.0578    0.0416    0.0006    0.0241
          41   -0.0653   -0.0501    0.0657    0.0532   -0.0070    0.0057   -0.0699    0.0500
          42    0.1037    0.0432   -0.0891   -0.0513   -0.0002   -0.0117    0.0523   -0.0016
          43   -0.0000    0.0000   -0.0000    0.0000   -0.0687    0.0000    0.0000    0.0334
          44   -0.0000   -0.0000    0.0000   -0.0000    0.0286   -0.0000   -0.0000   -0.0054
          45   -0.0270    0.0086    0.1346   -0.0849   -0.0001   -0.1144    0.0306   -0.0000
          46   -0.0000   -0.0000   -0.0000   -0.0000    0.0092   -0.0000   -0.0000   -0.0273
          47    0.0000   -0.0000    0.0000   -0.0000   -0.0612    0.0000    0.0000    0.0174
          48    0.0282   -0.1149   -0.0323   -0.1121   -0.0000    0.0584   -0.0524   -0.0000
          49    0.0000    0.0001   -0.0000   -0.0000    0.0138    0.0001    0.0000    0.0105
          50   -0.0000    0.0000    0.0000    0.0000   -0.0604    0.0000   -0.0000   -0.0244
          51   -0.0352   -0.1481   -0.0019    0.0640   -0.0000   -0.0706   -0.0582    0.0001
          52    0.0000   -0.0000    0.0000   -0.0000    0.0687   -0.0000    0.0000   -0.0107
          53    0.0000   -0.0000    0.0000    0.0000   -0.0050   -0.0000   -0.0000   -0.0432
          54    0.0836   -0.0510    0.0377    0.0409    0.0000   -0.1108    0.1148   -0.0001
          55   -0.0000   -0.0000    0.0000    0.0000   -0.0654    0.0000    0.0000   -0.0321
          56    0.0000   -0.0000    0.0000    0.0000    0.0287    0.0000   -0.0000    0.0036
          57   -0.0147    0.1046   -0.0207   -0.0701   -0.0000   -0.1278   -0.0980    0.0001
          58    0.0000    0.0000   -0.0000    0.0000   -0.0364   -0.0001   -0.0001   -0.0687
          59   -0.0000    0.0000    0.0000   -0.0000   -0.0534    0.0000    0.0000    0.0291
          60   -0.0912   -0.0372    0.0069   -0.0423    0.0001    0.0807    0.1576   -0.0002


   Root No.       9        10        11        12        13        14        15        16

                 9 A      10 A      11 A      12 A      13 A      14 A      15 A      16 A   

                 499.8     597.1     634.5     748.8     767.6     770.7     814.5     836.5
  
           1    0.0476   -0.0303   -0.0000   -0.0000    0.0000    0.0303   -0.0000    0.0355
           2   -0.0280   -0.0605   -0.0000   -0.0000    0.0000   -0.0099   -0.0000    0.0564
           3    0.0000    0.0000   -0.0215   -0.0158   -0.0129    0.0000    0.0205    0.0000
           4   -0.0321    0.0391    0.0000    0.0000   -0.0000   -0.0500    0.0000   -0.0193
           5   -0.0111   -0.0005    0.0000   -0.0000    0.0000    0.0393   -0.0000    0.0169
           6    0.0000   -0.0000    0.0140    0.0008   -0.0288    0.0000   -0.0239   -0.0000
           7    0.0197   -0.0460   -0.0000   -0.0000    0.0000   -0.0061   -0.0000   -0.0014
           8   -0.0117    0.0069    0.0000    0.0000   -0.0000   -0.0087   -0.0000    0.0260
           9   -0.0001    0.0000   -0.0471    0.0339   -0.0065    0.0000    0.0000    0.0000
          10   -0.0312   -0.0410   -0.0000   -0.0000   -0.0000   -0.0115    0.0000   -0.0075
          11    0.0026    0.0071    0.0000    0.0000   -0.0000   -0.0143    0.0000   -0.0312
          12   -0.0000   -0.0001    0.0588   -0.0160    0.0370   -0.0000    0.0033   -0.0000
          13   -0.0100    0.0119    0.0000    0.0000   -0.0000   -0.0262    0.0000   -0.0107
          14   -0.0433    0.0713    0.0000    0.0000   -0.0000   -0.0151   -0.0000    0.0347
          15    0.0000   -0.0000    0.0090    0.0038    0.0024   -0.0000   -0.0223   -0.0000
          16   -0.0811    0.0301    0.0000   -0.0000    0.0000    0.0720   -0.0000   -0.0028
          17   -0.0025   -0.0109   -0.0000   -0.0000    0.0000    0.0192   -0.0000    0.0020
          18    0.0000   -0.0000    0.0106   -0.0017   -0.0098    0.0000    0.0203    0.0000
          19    0.0910    0.0272   -0.0000   -0.0000    0.0000    0.0599    0.0000   -0.0114
          20    0.0047   -0.0041   -0.0000   -0.0000   -0.0000    0.0130    0.0000   -0.0116
          21    0.0000    0.0000    0.0028   -0.0214   -0.0036    0.0000   -0.0098   -0.0000
          22   -0.0566   -0.0190   -0.0000   -0.0000   -0.0000    0.0182    0.0000   -0.0406
          23    0.0196   -0.0659   -0.0000    0.0000   -0.0000   -0.0397    0.0000   -0.0536
          24    0.0000    0.0000    0.0004   -0.0006   -0.0251    0.0000    0.0181    0.0000
          25    0.0138    0.0036    0.0000    0.0000   -0.0000   -0.0288    0.0000    0.0212
          26    0.0518    0.0597    0.0000    0.0000    0.0000   -0.0153    0.0000   -0.0226
          27   -0.0000    0.0000   -0.0075   -0.0033    0.0098   -0.0000   -0.0119   -0.0000
          28    0.0372    0.0242    0.0000    0.0001   -0.0000   -0.0532   -0.0000    0.0335
          29    0.0197    0.0015   -0.0000   -0.0000    0.0000    0.0411    0.0000   -0.0260
          30    0.0000    0.0000   -0.0059   -0.0299   -0.0077   -0.0001   -0.0055    0.0000
          31   -0.0158    0.0243    0.0550    0.0037   -0.0633   -0.0809   -0.0787   -0.0393
          32    0.0090   -0.0205   -0.0512   -0.0016    0.0711    0.0198    0.0119    0.0046
          33    0.0007   -0.0013   -0.0454   -0.0021    0.0458    0.0062    0.0289    0.0039
          34   -0.0158    0.0244   -0.0550   -0.0037    0.0632   -0.0810    0.0788   -0.0392
          35    0.0090   -0.0206    0.0512    0.0016   -0.0711    0.0200   -0.0119    0.0046
          36   -0.0006    0.0014   -0.0454   -0.0021    0.0458   -0.0063    0.0289   -0.0039
          37    0.0404   -0.0370    0.0465   -0.0287    0.0086    0.0247   -0.0292    0.0809
          38   -0.0280   -0.0641    0.0785    0.0677    0.0365   -0.0107   -0.0499    0.0585
          39   -0.0005   -0.0034    0.0473    0.0305    0.0166   -0.0002   -0.0229    0.0087
          40    0.0403   -0.0369   -0.0466    0.0286   -0.0086    0.0247    0.0291    0.0810
          41   -0.0280   -0.0639   -0.0785   -0.0676   -0.0364   -0.0106    0.0498    0.0587
          42    0.0005    0.0034    0.0474    0.0306    0.0166    0.0002   -0.0230   -0.0088
          43   -0.0211    0.0189    0.0000    0.0000   -0.0000   -0.0012    0.0000   -0.0361
          44   -0.0412    0.0692    0.0000    0.0000   -0.0000   -0.0201    0.0000    0.0405
          45    0.0001    0.0000    0.0195   -0.0828    0.1159   -0.0001    0.2006    0.0001
          46   -0.0837    0.0135   -0.0000   -0.0000    0.0001    0.0833   -0.0000   -0.0208
          47    0.0047    0.0390    0.0000    0.0000    0.0000   -0.0152   -0.0000    0.0512
          48    0.0000    0.0001   -0.0936   -0.0001    0.2153   -0.0004   -0.0779   -0.0001
          49    0.0907    0.0126   -0.0001   -0.0002   -0.0000    0.0798   -0.0000   -0.0010
          50    0.0047    0.0397    0.0000    0.0000   -0.0000   -0.0499    0.0000   -0.0401
          51    0.0000   -0.0002    0.0819    0.2467    0.0739    0.0002   -0.0016   -0.0001
          52   -0.0491   -0.0199   -0.0000   -0.0000   -0.0000   -0.0156    0.0000   -0.0941
          53    0.0183   -0.0650   -0.0001    0.0000   -0.0000   -0.0343    0.0000   -0.0450
          54    0.0001    0.0002   -0.1432    0.0088    0.0690   -0.0002   -0.1454   -0.0001
          55    0.0350    0.0067    0.0000   -0.0000    0.0000   -0.0003   -0.0000    0.0478
          56    0.0477    0.0585    0.0001    0.0000    0.0000   -0.0208   -0.0000   -0.0285
          57   -0.0000    0.0000   -0.0672    0.1741   -0.0741    0.0003    0.0615    0.0000
          58    0.0016   -0.0046    0.0000   -0.0001   -0.0000   -0.0875   -0.0001    0.0633
          59   -0.0170   -0.0268   -0.0000   -0.0000   -0.0000    0.0064    0.0000    0.0018
          60    0.0000   -0.0001    0.0359    0.1922    0.0151    0.0002    0.0838    0.0000


   Root No.      17        18        19        20        21        22        23        24

                17 A      18 A      19 A      20 A      21 A      22 A      23 A      24 A   

                 882.2     899.2     914.1     953.4     994.1    1015.9    1019.6    1044.9
  
           1   -0.0047   -0.0000    0.0000    0.0000   -0.0000    0.0000    0.0051    0.0146
           2    0.0264    0.0001   -0.0000   -0.0000    0.0000   -0.0000   -0.0075   -0.0371
           3   -0.0001    0.0406   -0.0140   -0.0198    0.0174   -0.0216    0.0001    0.0000
           4   -0.0098   -0.0000   -0.0000   -0.0000    0.0000   -0.0001   -0.0258   -0.0007
           5    0.0214    0.0000   -0.0000    0.0000    0.0000    0.0001    0.0384   -0.0077
           6   -0.0001    0.0267   -0.0160    0.0242    0.0204    0.0232   -0.0001    0.0000
           7    0.0205    0.0000   -0.0000   -0.0000   -0.0000    0.0000    0.0036    0.0107
           8   -0.0191   -0.0000    0.0000    0.0000   -0.0000   -0.0000   -0.0064    0.0082
           9    0.0001   -0.0286   -0.0024    0.0197   -0.0072    0.0224   -0.0001    0.0001
          10   -0.0215   -0.0000    0.0000    0.0000    0.0000   -0.0000   -0.0003   -0.0039
          11    0.0249    0.0000   -0.0000   -0.0000    0.0000    0.0000    0.0030    0.0026
          12   -0.0001    0.0268    0.0203    0.0153   -0.0015   -0.0199    0.0001   -0.0000
          13   -0.0054   -0.0000   -0.0000    0.0000    0.0000    0.0001    0.0224   -0.0029
          14   -0.0746   -0.0001    0.0000    0.0000    0.0000    0.0000    0.0158   -0.0113
          15    0.0000   -0.0065    0.0202   -0.0341   -0.0144   -0.0269    0.0001   -0.0000
          16    0.0406    0.0000   -0.0000   -0.0000   -0.0000   -0.0001   -0.0289    0.0102
          17    0.0167    0.0000   -0.0000    0.0000   -0.0000   -0.0001   -0.0374    0.0117
          18    0.0000   -0.0173   -0.0086   -0.0007   -0.0308   -0.0301    0.0001   -0.0000
          19   -0.0419   -0.0001   -0.0000    0.0000    0.0000   -0.0001   -0.0159   -0.0426
          20   -0.0175   -0.0000    0.0000   -0.0000   -0.0000    0.0000    0.0015    0.0070
          21    0.0000   -0.0071    0.0235    0.0085   -0.0327    0.0317   -0.0001   -0.0001
          22   -0.0008   -0.0000   -0.0000   -0.0000    0.0000    0.0000    0.0068   -0.0039
          23   -0.0321   -0.0000   -0.0000   -0.0000   -0.0000   -0.0000   -0.0167    0.0003
          24    0.0001   -0.0182    0.0102   -0.0259    0.0255    0.0272   -0.0001    0.0000
          25    0.0025    0.0000    0.0000    0.0000    0.0000    0.0000    0.0028    0.0040
          26    0.0783    0.0001   -0.0000   -0.0000   -0.0000    0.0000    0.0039    0.0088
          27    0.0000   -0.0118   -0.0468   -0.0259   -0.0110    0.0201   -0.0001   -0.0000
          28    0.0238    0.0000   -0.0000   -0.0000   -0.0000   -0.0000   -0.0052   -0.0104
          29   -0.0330   -0.0000    0.0000    0.0000   -0.0000    0.0000    0.0050    0.0204
          30    0.0001   -0.0218    0.0099    0.0169    0.0327   -0.0273    0.0001    0.0000
          31    0.0098    0.0593   -0.0061    0.0045    0.0625    0.0487    0.0035   -0.0167
          32    0.0515   -0.0310    0.0509   -0.0779    0.0023   -0.0209    0.1006   -0.0286
          33    0.0026   -0.0243    0.0139   -0.0186   -0.0150   -0.0160    0.0141   -0.0017
          34    0.0101   -0.0593    0.0061   -0.0046   -0.0625   -0.0488    0.0039   -0.0165
          35    0.0514    0.0311   -0.0509    0.0778   -0.0022    0.0214    0.1004   -0.0284
          36   -0.0026   -0.0243    0.0140   -0.0187   -0.0150   -0.0161   -0.0140    0.0017
          37   -0.0066    0.0043    0.0349   -0.0219   -0.0534   -0.0043    0.0371    0.1524
          38    0.0334   -0.1023    0.0259    0.0515   -0.0271    0.0495   -0.0191   -0.0925
          39    0.0034   -0.0362    0.0124    0.0151   -0.0133    0.0149   -0.0025   -0.0131
          40   -0.0065   -0.0043   -0.0348    0.0219    0.0532    0.0046    0.0370    0.1515
          41    0.0329    0.1023   -0.0259   -0.0515    0.0272   -0.0496   -0.0188   -0.0923
          42   -0.0033   -0.0364    0.0124    0.0152   -0.0133    0.0149    0.0025    0.0133
          43    0.0423    0.0000   -0.0000    0.0000    0.0000    0.0005    0.1611   -0.0399
          44   -0.0847   -0.0001    0.0000    0.0000   -0.0000   -0.0000   -0.0089   -0.0057
          45    0.0001   -0.0009   -0.0793    0.1520    0.0247    0.0809   -0.0003    0.0001
          46    0.0377    0.0001    0.0000   -0.0000    0.0000    0.0000    0.0039    0.0015
          47    0.0293    0.0000    0.0000   -0.0000   -0.0000   -0.0004   -0.1369    0.0377
          48   -0.0003    0.0703    0.0995   -0.0417    0.1291    0.1043   -0.0004    0.0001
          49   -0.0470   -0.0000    0.0001    0.0000   -0.0001    0.0000   -0.0153   -0.0541
          50   -0.0054   -0.0000    0.0000   -0.0000   -0.0000    0.0000   -0.0004    0.0461
          51   -0.0000   -0.0532   -0.1349   -0.0131    0.1359   -0.1011    0.0003    0.0002
          52   -0.0051   -0.0000   -0.0000    0.0000    0.0000    0.0004    0.1375   -0.0364
          53   -0.0314   -0.0000   -0.0000    0.0000   -0.0000   -0.0001   -0.0427    0.0069
          54   -0.0003    0.0885   -0.0936    0.1359   -0.1066   -0.0961    0.0003   -0.0001
          55   -0.0637   -0.0001   -0.0000   -0.0000   -0.0000    0.0001    0.0341    0.0652
          56    0.0921    0.0001   -0.0000   -0.0000   -0.0000    0.0000   -0.0018   -0.0008
          57   -0.0000    0.0522    0.2122    0.1123    0.0264   -0.0610    0.0002    0.0000
          58   -0.0098   -0.0001    0.0000    0.0000    0.0000    0.0000    0.0188    0.0894
          59   -0.0666   -0.0001    0.0000   -0.0000   -0.0000    0.0001    0.0301    0.1248
          60   -0.0005    0.1699   -0.0120   -0.0777   -0.1323    0.0913   -0.0003   -0.0001


   Root No.      25        26        27        28        29        30        31        32

                25 A      26 A      27 A      28 A      29 A      30 A      31 A      32 A   

                1057.6    1072.4    1080.7    1102.9    1151.0    1157.9    1175.9    1216.2
  
           1    0.0000    0.0001    0.0033   -0.0040   -0.0004   -0.0009   -0.0071   -0.0004
           2   -0.0000   -0.0001    0.0064    0.0086   -0.0034    0.0012    0.0097    0.0188
           3   -0.0020    0.0050    0.0000   -0.0000   -0.0000    0.0000   -0.0000   -0.0000
           4    0.0000   -0.0000   -0.0146    0.0102   -0.0046   -0.0029    0.0042    0.0175
           5   -0.0000   -0.0000   -0.0073   -0.0070    0.0037    0.0030   -0.0106    0.0006
           6   -0.0029   -0.0054   -0.0000    0.0000    0.0000   -0.0000    0.0000   -0.0000
           7    0.0000    0.0000    0.0075   -0.0191    0.0035    0.0087   -0.0316   -0.0290
           8    0.0000    0.0000   -0.0209   -0.0091   -0.0002    0.0047   -0.0060   -0.0246
           9    0.0032   -0.0365    0.0000    0.0000    0.0000   -0.0000   -0.0000   -0.0000
          10    0.0000   -0.0000   -0.0112   -0.0024    0.0085    0.0033    0.0153   -0.0312
          11    0.0000   -0.0000   -0.0081   -0.0152    0.0147   -0.0052   -0.0041   -0.0174
          12    0.0029    0.0079   -0.0000   -0.0000    0.0000    0.0000   -0.0000    0.0000
          13   -0.0000    0.0000    0.0336   -0.0078   -0.0009    0.0025   -0.0173   -0.0080
          14   -0.0000   -0.0000    0.0190    0.0025   -0.0041   -0.0001    0.0007   -0.0008
          15   -0.0301    0.0180   -0.0000   -0.0000   -0.0000    0.0000   -0.0000    0.0000
          16    0.0000    0.0000    0.0055   -0.0021   -0.0058   -0.0032   -0.0030    0.0068
          17    0.0000    0.0000    0.0086    0.0044   -0.0001    0.0006   -0.0079    0.0204
          18    0.0387   -0.0005    0.0000   -0.0000    0.0000    0.0000    0.0000   -0.0000
          19   -0.0000   -0.0001   -0.0099   -0.0162    0.0021   -0.0011    0.0036    0.0119
          20    0.0000    0.0000   -0.0009   -0.0125   -0.0025    0.0037    0.0102    0.0003
          21    0.0067    0.0305   -0.0000   -0.0000   -0.0000    0.0000    0.0000    0.0000
          22   -0.0000   -0.0000   -0.0020    0.0069   -0.0010   -0.0002    0.0087   -0.0044
          23   -0.0000    0.0000    0.0202    0.0150   -0.0107   -0.0026    0.0041    0.0182
          24   -0.0138   -0.0033    0.0000    0.0000   -0.0000   -0.0000   -0.0000    0.0000
          25    0.0000    0.0000    0.0020    0.0304   -0.0013    0.0011    0.0094   -0.0145
          26    0.0000    0.0000    0.0162    0.0308   -0.0054   -0.0054   -0.0014   -0.0010
          27   -0.0010    0.0012    0.0000    0.0000   -0.0000    0.0000    0.0000   -0.0000
          28   -0.0000   -0.0000    0.0032   -0.0243   -0.0028   -0.0022    0.0022    0.0155
          29    0.0000    0.0001   -0.0035    0.0086    0.0001   -0.0033    0.0082   -0.0080
          30   -0.0021   -0.0081    0.0000   -0.0000   -0.0000   -0.0000    0.0000    0.0000
          31    0.2035   -0.0381   -0.1465    0.0258   -0.0643   -0.0264    0.0383    0.0132
          32    0.2396   -0.0262   -0.1558   -0.0027   -0.0494   -0.0140    0.0058   -0.0440
          33    0.0014    0.0031    0.0021   -0.0058    0.0053    0.0037   -0.0091   -0.0170
          34   -0.2033    0.0377   -0.1468    0.0258   -0.0644   -0.0265    0.0383    0.0132
          35   -0.2394    0.0257   -0.1561   -0.0026   -0.0495   -0.0140    0.0058   -0.0440
          36    0.0015    0.0031   -0.0020    0.0058   -0.0053   -0.0037    0.0091    0.0170
          37   -0.0495   -0.3236   -0.0056    0.0223   -0.0437    0.0493    0.1104    0.0921
          38    0.0156    0.0650    0.0140    0.0026    0.0037   -0.0068   -0.0167    0.0271
          39    0.0003   -0.0085    0.0028    0.0018   -0.0023    0.0017    0.0028    0.0205
          40    0.0498    0.3241   -0.0061    0.0221   -0.0438    0.0495    0.1106    0.0923
          41   -0.0158   -0.0654    0.0141    0.0026    0.0037   -0.0069   -0.0168    0.0270
          42    0.0003   -0.0082   -0.0029   -0.0018    0.0022   -0.0017   -0.0027   -0.0205
          43   -0.0002    0.0001    0.1570   -0.0222    0.0819   -0.0065    0.1548   -0.0657
          44    0.0000   -0.0000   -0.0056    0.0053   -0.0204    0.0014   -0.0320    0.0092
          45    0.0425   -0.0590    0.0000    0.0000    0.0000   -0.0000    0.0000   -0.0000
          46   -0.0000    0.0000    0.0355   -0.0026   -0.0898   -0.0292   -0.0293    0.0396
          47    0.0001    0.0000   -0.0879    0.0072    0.2525    0.0786    0.0708   -0.0723
          48   -0.0709   -0.0013   -0.0000    0.0000   -0.0000   -0.0000   -0.0000    0.0000
          49   -0.0000   -0.0001   -0.0082    0.0558    0.0197   -0.0739    0.0204    0.0085
          50    0.0000   -0.0001   -0.0083   -0.2512   -0.0594    0.2354   -0.0401    0.0181
          51   -0.0107   -0.0429    0.0000    0.0000    0.0000   -0.0000    0.0000    0.0000
          52   -0.0000   -0.0002   -0.0669    0.0390    0.1743    0.0769   -0.0625    0.2322
          53    0.0000    0.0000    0.0329    0.0106   -0.0420   -0.0164    0.0173   -0.0241
          54    0.0288    0.0078   -0.0000   -0.0000   -0.0000   -0.0000    0.0000   -0.0000
          55    0.0001    0.0003   -0.0040    0.2731    0.0042    0.1126   -0.1346   -0.0481
          56   -0.0000    0.0000    0.0182   -0.0119   -0.0067   -0.0273    0.0247    0.0038
          57    0.0076   -0.0095    0.0000    0.0001    0.0000    0.0000   -0.0000   -0.0000
          58    0.0001    0.0003   -0.0133   -0.1012    0.0584   -0.1855   -0.0593    0.0474
          59    0.0001    0.0004   -0.0203   -0.0702    0.0619   -0.1887   -0.0533    0.0226
          60    0.0035    0.0101   -0.0000   -0.0001    0.0000   -0.0001   -0.0000    0.0000


   Root No.      33        34        35        36        37        38        39        40

                33 A      34 A      35 A      36 A      37 A      38 A      39 A      40 A   

                1230.9    1321.8    1353.1    1367.4    1397.3    1412.9    1473.9    1561.8
  
           1    0.0045    0.0068    0.0197    0.0478    0.0444    0.0027    0.0655    0.0560
           2    0.0079   -0.0090   -0.0322    0.0297   -0.0214    0.0251   -0.0259    0.0052
           3   -0.0000    0.0000    0.0000   -0.0000    0.0000   -0.0000    0.0000    0.0000
           4    0.0036   -0.0035   -0.0242   -0.0272    0.0224    0.0587    0.0452   -0.0229
           5   -0.0150   -0.0116    0.0233   -0.0105   -0.0344    0.0532    0.0527   -0.0341
           6    0.0000    0.0000   -0.0000    0.0000    0.0000   -0.0000   -0.0000    0.0000
           7   -0.0155   -0.0126    0.0034   -0.0149   -0.0079   -0.0286   -0.0261   -0.0742
           8    0.0155   -0.0269    0.0009   -0.0239    0.0184   -0.0077   -0.0050   -0.1102
           9    0.0000   -0.0000   -0.0000    0.0000   -0.0000    0.0000   -0.0000   -0.0000
          10   -0.0140   -0.0071    0.0151   -0.0156    0.0058    0.0363   -0.0307    0.0844
          11    0.0138   -0.0096   -0.0067   -0.0282   -0.0170    0.0069    0.0049    0.1244
          12    0.0000    0.0000   -0.0000    0.0000   -0.0000   -0.0000    0.0000   -0.0000
          13   -0.0252    0.0119   -0.0032    0.0030   -0.0285   -0.0227   -0.0320    0.0322
          14   -0.0079    0.0119    0.0043    0.0202    0.0024   -0.0197   -0.0137    0.0147
          15   -0.0000   -0.0000   -0.0000   -0.0000    0.0000    0.0000    0.0000   -0.0000
          16    0.0113    0.0012   -0.0063    0.0060    0.0038   -0.0273   -0.0083   -0.0026
          17    0.0045   -0.0193    0.0034   -0.0085    0.0294   -0.0133   -0.0427    0.0413
          18   -0.0000    0.0000    0.0000   -0.0000   -0.0000    0.0000    0.0000   -0.0000
          19    0.0178    0.0039   -0.0128   -0.0074   -0.0203    0.0208   -0.0375   -0.0160
          20   -0.0157   -0.0128   -0.0043   -0.0106   -0.0000   -0.0315    0.0351    0.0209
          21    0.0000    0.0000   -0.0000   -0.0000   -0.0000    0.0000   -0.0000   -0.0000
          22    0.0013    0.0267   -0.0058    0.0211   -0.0246   -0.0011    0.0354   -0.0469
          23    0.0070    0.0131   -0.0086    0.0157    0.0006   -0.0140    0.0117   -0.0352
          24    0.0000   -0.0000    0.0000   -0.0000    0.0000   -0.0000   -0.0000    0.0000
          25   -0.0227   -0.0001    0.0239    0.0078    0.0295    0.0298   -0.0401   -0.0274
          26   -0.0057    0.0176    0.0078    0.0186    0.0011    0.0173   -0.0163   -0.0193
          27   -0.0000    0.0000    0.0000    0.0000    0.0000    0.0000   -0.0000   -0.0000
          28   -0.0013   -0.0159   -0.0191   -0.0131   -0.0117   -0.0491    0.0533    0.0150
          29   -0.0147   -0.0055    0.0078   -0.0052    0.0109   -0.0098    0.0139   -0.0010
          30   -0.0000   -0.0000   -0.0000   -0.0000   -0.0000   -0.0000    0.0000    0.0000
          31    0.0597   -0.0436    0.1173    0.0666   -0.0434   -0.0700   -0.0362    0.0177
          32   -0.0067    0.0724   -0.1064    0.0035    0.0617   -0.0624   -0.0425    0.0198
          33   -0.0230    0.0554   -0.1247   -0.0398    0.0734    0.0132   -0.0011    0.0034
          34    0.0597   -0.0436    0.1173    0.0666   -0.0434   -0.0700   -0.0362    0.0177
          35   -0.0067    0.0724   -0.1064    0.0036    0.0616   -0.0624   -0.0425    0.0198
          36    0.0230   -0.0554    0.1248    0.0398   -0.0734   -0.0132    0.0011   -0.0034
          37   -0.0138    0.0316   -0.0177   -0.0754   -0.0652   -0.0005   -0.0525   -0.0016
          38    0.0349    0.1106    0.1102   -0.1040    0.0306   -0.0310    0.0207    0.0033
          39    0.0137    0.0791    0.0831   -0.1038    0.0146   -0.0350    0.0104   -0.0085
          40   -0.0139    0.0316   -0.0177   -0.0755   -0.0652   -0.0006   -0.0525   -0.0015
          41    0.0349    0.1105    0.1101   -0.1038    0.0306   -0.0309    0.0207    0.0033
          42   -0.0137   -0.0793   -0.0833    0.1039   -0.0147    0.0350   -0.0104    0.0085
          43    0.1804   -0.0504   -0.0062   -0.0122    0.0792   -0.0370   -0.0171   -0.0755
          44   -0.0470    0.0241    0.0060    0.0247   -0.0179   -0.0185   -0.0176    0.0329
          45    0.0000   -0.0000   -0.0000   -0.0000    0.0000   -0.0000   -0.0000   -0.0000
          46    0.0189   -0.0311   -0.0048   -0.0182    0.0336   -0.0147   -0.0287    0.0254
          47   -0.0151    0.0794   -0.0055    0.0668   -0.0571   -0.0597    0.0198   -0.0491
          48   -0.0000   -0.0000    0.0000   -0.0000    0.0000    0.0000    0.0000    0.0000
          49   -0.0143   -0.0178   -0.0236   -0.0326   -0.0284   -0.0191   -0.0086   -0.0091
          50    0.0904    0.0558    0.0237    0.0692    0.0190    0.0956   -0.0574    0.0031
          51   -0.0000   -0.0000   -0.0000   -0.0000   -0.0000   -0.0000   -0.0000   -0.0000
          52   -0.0414   -0.0535    0.0150    0.0083    0.0789   -0.0423   -0.0619   -0.0272
          53    0.0161    0.0290   -0.0137    0.0193   -0.0183   -0.0086    0.0304   -0.0401
          54    0.0000    0.0000   -0.0000   -0.0000   -0.0000    0.0000    0.0000    0.0000
          55    0.1660    0.0062   -0.0476   -0.0308   -0.0647   -0.0061    0.0290    0.0972
          56   -0.0403    0.0183    0.0220    0.0273    0.0183    0.0270   -0.0318   -0.0419
          57    0.0000    0.0000   -0.0000   -0.0000   -0.0000   -0.0000    0.0000    0.0000
          58    0.0779    0.0356   -0.0201    0.0149   -0.0348    0.0284   -0.0310   -0.0143
          59    0.0635    0.0481    0.0104    0.0246   -0.0090    0.0728   -0.0752   -0.0327
          60    0.0000    0.0000   -0.0000    0.0000   -0.0000    0.0000   -0.0000   -0.0000


   Root No.      41        42        43        44        45        46        47        48

                41 A      42 A      43 A      44 A      45 A      46 A      47 A      48 A   

                1826.1    1846.9    1860.2    1887.0    2922.6    2924.1    3003.1    3003.8
  
           1    0.0083    0.0029    0.0138    0.0194    0.0000    0.0000    0.0083   -0.0016
           2   -0.0126   -0.0161    0.0002   -0.0109   -0.0000   -0.0000    0.0326   -0.0063
           3    0.0000    0.0000    0.0000    0.0000   -0.0593   -0.0018   -0.0000    0.0000
           4   -0.0004    0.0093   -0.0171   -0.0168    0.0000   -0.0000   -0.0050   -0.0245
           5    0.0072   -0.0095   -0.0238    0.0091    0.0000   -0.0000    0.0044    0.0216
           6   -0.0000    0.0000    0.0000   -0.0000    0.0017   -0.0592   -0.0000   -0.0000
           7    0.0030    0.0410   -0.0930   -0.0937    0.0000    0.0000    0.0008    0.0002
           8   -0.0148   -0.0185    0.0800    0.0861   -0.0000   -0.0000    0.0000   -0.0001
           9    0.0000    0.0000   -0.0000   -0.0000   -0.0000   -0.0003   -0.0000    0.0000
          10   -0.1265    0.0565   -0.0498    0.0575    0.0000   -0.0000   -0.0004   -0.0001
          11    0.0997   -0.0569    0.0037   -0.0498    0.0000    0.0000   -0.0001    0.0002
          12    0.0000    0.0000    0.0000   -0.0000   -0.0002    0.0001   -0.0000    0.0000
          13   -0.0005   -0.0452    0.1015    0.0947   -0.0000   -0.0000   -0.0003   -0.0011
          14   -0.0054    0.0285   -0.0596   -0.0580   -0.0000    0.0000   -0.0008   -0.0036
          15    0.0000   -0.0000    0.0000    0.0000   -0.0001   -0.0000    0.0000    0.0000
          16    0.0258   -0.0454   -0.0892    0.0499    0.0000   -0.0000    0.0006    0.0030
          17   -0.0284    0.0510    0.1097   -0.0579   -0.0000    0.0000    0.0003    0.0014
          18   -0.0000    0.0000    0.0000   -0.0000    0.0000   -0.0000   -0.0000   -0.0000
          19    0.0145    0.0059    0.0010    0.0044    0.0000   -0.0000   -0.0036    0.0007
          20    0.1264    0.1093   -0.0060    0.0577    0.0000    0.0000   -0.0006    0.0001
          21    0.0000    0.0000   -0.0000    0.0000   -0.0001    0.0000   -0.0000    0.0000
          22   -0.0063    0.0446    0.1299   -0.0746   -0.0000    0.0000    0.0001    0.0002
          23    0.0196   -0.0354   -0.0736    0.0430   -0.0000    0.0000    0.0000   -0.0000
          24   -0.0000   -0.0000   -0.0000    0.0000   -0.0000   -0.0003   -0.0000   -0.0000
          25    0.1494   -0.0596    0.0194   -0.0306    0.0000    0.0000    0.0002    0.0001
          26   -0.0644    0.0522   -0.0202    0.0288   -0.0000   -0.0000    0.0000    0.0001
          27    0.0000   -0.0000    0.0000   -0.0000    0.0001   -0.0000    0.0000    0.0000
          28   -0.0767   -0.0276    0.0019   -0.0176   -0.0000   -0.0000   -0.0002    0.0000
          29   -0.1221   -0.0987    0.0073   -0.0518   -0.0000   -0.0000   -0.0002    0.0000
          30   -0.0000   -0.0000    0.0000   -0.0000   -0.0003   -0.0000   -0.0000   -0.0000
          31    0.0013    0.0039   -0.0144   -0.0104   -0.0063    0.2093    0.0299    0.1469
          32    0.0028   -0.0060   -0.0190    0.0053    0.0055   -0.1842   -0.0263   -0.1293
          33   -0.0033    0.0020    0.0001    0.0001   -0.0107    0.3578    0.0613    0.3014
          34    0.0013    0.0039   -0.0144   -0.0104    0.0063   -0.2092    0.0298    0.1469
          35    0.0028   -0.0060   -0.0191    0.0053   -0.0055    0.1843   -0.0263   -0.1294
          36    0.0033   -0.0020   -0.0001   -0.0001   -0.0107    0.3577   -0.0613   -0.3014
          37    0.0152    0.0104   -0.0132   -0.0120   -0.0691   -0.0020   -0.0505    0.0097
          38   -0.0125   -0.0112    0.0066    0.0013   -0.2701   -0.0080   -0.1956    0.0375
          39   -0.0031    0.0014    0.0008    0.0033    0.3588    0.0107    0.3119   -0.0598
          40    0.0153    0.0104   -0.0133   -0.0120    0.0689    0.0020   -0.0504    0.0097
          41   -0.0126   -0.0112    0.0066    0.0013    0.2705    0.0080   -0.1962    0.0376
          42    0.0031   -0.0014   -0.0008   -0.0032    0.3582    0.0107   -0.3118    0.0598
          43   -0.0048    0.0269   -0.0317   -0.0424   -0.0000    0.0000    0.0027    0.0048
          44   -0.0077    0.0235   -0.0537   -0.0495    0.0000   -0.0000    0.0114    0.0409
          45   -0.0000   -0.0000    0.0000    0.0000    0.0000   -0.0016    0.0000   -0.0000
          46    0.0182   -0.0305   -0.0623    0.0321   -0.0000    0.0000   -0.0071   -0.0351
          47    0.0188   -0.0316   -0.0449    0.0351   -0.0000    0.0000   -0.0018   -0.0088
          48   -0.0000    0.0000    0.0000   -0.0000    0.0001   -0.0016    0.0000    0.0000
          49    0.0732    0.0626   -0.0013    0.0356   -0.0000    0.0000    0.0365   -0.0067
          50    0.0039   -0.0154    0.0020   -0.0050   -0.0000   -0.0000    0.0143   -0.0027
          51    0.0000    0.0000   -0.0000    0.0000   -0.0016   -0.0001    0.0000   -0.0000
          52   -0.0205   -0.0072   -0.0445    0.0420    0.0000   -0.0000   -0.0002   -0.0003
          53    0.0310   -0.0383   -0.0640    0.0341    0.0000    0.0000   -0.0013   -0.0038
          54    0.0000    0.0000    0.0000   -0.0000    0.0000   -0.0008    0.0000    0.0000
          55   -0.0236    0.0540   -0.0175    0.0281    0.0000   -0.0000   -0.0001   -0.0003
          56   -0.0531    0.0429   -0.0215    0.0244    0.0000   -0.0000   -0.0003   -0.0017
          57   -0.0000    0.0000   -0.0000    0.0000    0.0000   -0.0000   -0.0000   -0.0000
          58    0.0351    0.0762   -0.0091    0.0382    0.0000   -0.0000    0.0019   -0.0004
          59   -0.0362   -0.0162   -0.0035   -0.0069   -0.0000    0.0000   -0.0025    0.0006
          60    0.0000    0.0001   -0.0000    0.0000   -0.0007   -0.0000    0.0000   -0.0000


   Root No.      49        50        51        52        53        54

                49 A      50 A      51 A      52 A      53 A      54 A   

                3042.7    3049.9    3051.8    3056.9    3064.7    3072.4
  
           1   -0.0000   -0.0004    0.0004   -0.0004   -0.0000   -0.0004
           2    0.0001   -0.0013   -0.0005   -0.0015    0.0001   -0.0020
           3    0.0000   -0.0000    0.0000   -0.0000   -0.0000   -0.0000
           4    0.0008    0.0001    0.0029   -0.0003   -0.0023    0.0000
           5   -0.0005   -0.0001   -0.0026    0.0002    0.0020   -0.0000
           6   -0.0000    0.0000   -0.0000    0.0000    0.0000    0.0000
           7    0.0004    0.0003   -0.0038   -0.0001    0.0006    0.0004
           8    0.0002   -0.0003    0.0027    0.0003   -0.0001   -0.0004
           9    0.0000    0.0000   -0.0000    0.0000    0.0000    0.0000
          10    0.0002    0.0006   -0.0004   -0.0025    0.0010    0.0013
          11   -0.0000   -0.0006    0.0007    0.0019   -0.0005   -0.0006
          12   -0.0000    0.0000   -0.0000    0.0000    0.0000    0.0000
          13    0.0001   -0.0002   -0.0076    0.0002    0.0007   -0.0001
          14    0.0017   -0.0006   -0.0612    0.0006    0.0048    0.0001
          15   -0.0000    0.0000    0.0000   -0.0000   -0.0000   -0.0000
          16    0.0241    0.0009   -0.0038   -0.0032   -0.0417   -0.0002
          17    0.0092    0.0004   -0.0005   -0.0009   -0.0089    0.0000
          18   -0.0000   -0.0000    0.0000    0.0000    0.0000    0.0000
          19    0.0003   -0.0261    0.0004   -0.0246    0.0011   -0.0250
          20    0.0001   -0.0083    0.0002   -0.0093    0.0005   -0.0122
          21    0.0000   -0.0000    0.0000   -0.0000    0.0000   -0.0000
          22   -0.0069   -0.0003   -0.0004    0.0005   -0.0006   -0.0002
          23   -0.0434   -0.0012   -0.0050    0.0003   -0.0275   -0.0005
          24    0.0000    0.0000    0.0000   -0.0000    0.0000    0.0000
          25   -0.0007    0.0023    0.0000   -0.0060   -0.0001    0.0029
          26   -0.0029    0.0170   -0.0011   -0.0444    0.0022    0.0159
          27   -0.0000    0.0000   -0.0000   -0.0000    0.0000    0.0000
          28   -0.0006    0.0200   -0.0005    0.0013    0.0003   -0.0237
          29    0.0007   -0.0195    0.0004    0.0019   -0.0005    0.0279
          30   -0.0000    0.0000   -0.0000    0.0000    0.0000   -0.0000
          31   -0.0041   -0.0007   -0.0190    0.0014    0.0110   -0.0002
          32    0.0059    0.0006    0.0120   -0.0014   -0.0122    0.0001
          33   -0.0103   -0.0014   -0.0331    0.0029    0.0241   -0.0003
          34   -0.0041   -0.0007   -0.0190    0.0014    0.0110   -0.0002
          35    0.0059    0.0006    0.0120   -0.0014   -0.0122    0.0001
          36    0.0103    0.0014    0.0331   -0.0029   -0.0241    0.0003
          37   -0.0001    0.0007    0.0011    0.0009   -0.0002    0.0011
          38   -0.0003    0.0093    0.0011    0.0094   -0.0006    0.0099
          39    0.0005   -0.0137   -0.0023   -0.0139    0.0010   -0.0147
          40   -0.0001    0.0007    0.0011    0.0009   -0.0002    0.0011
          41   -0.0003    0.0094    0.0011    0.0094   -0.0006    0.0099
          42   -0.0005    0.0137    0.0023    0.0139   -0.0010    0.0147
          43   -0.0040    0.0014    0.1303   -0.0016   -0.0092   -0.0001
          44   -0.0215    0.0075    0.6946   -0.0079   -0.0497   -0.0001
          45    0.0000   -0.0000   -0.0000    0.0000    0.0000   -0.0000
          46   -0.2985   -0.0116    0.0449    0.0363    0.4488    0.0011
          47   -0.1017   -0.0039    0.0145    0.0120    0.1465    0.0003
          48    0.0001    0.0000   -0.0000   -0.0000   -0.0001   -0.0000
          49   -0.0035    0.3106   -0.0037    0.2924   -0.0134    0.2822
          50   -0.0010    0.0947   -0.0011    0.0913   -0.0042    0.0903
          51   -0.0000    0.0002   -0.0000    0.0002   -0.0000    0.0002
          52    0.0935    0.0021    0.0098   -0.0002    0.0490    0.0006
          53    0.5037    0.0143    0.0551   -0.0074    0.2846    0.0059
          54   -0.0001   -0.0000   -0.0000    0.0000   -0.0001   -0.0000
          55    0.0043   -0.0328    0.0017    0.0908   -0.0050   -0.0339
          56    0.0322   -0.1923    0.0108    0.5025   -0.0234   -0.1740
          57    0.0000   -0.0000    0.0000    0.0001   -0.0000   -0.0000
          58    0.0074   -0.2362    0.0050   -0.0054   -0.0040    0.2825
          59   -0.0076    0.2322   -0.0050   -0.0014    0.0043   -0.2796
          60    0.0000   -0.0001    0.0000   -0.0000   -0.0000    0.0002


           MASS-WEIGHTED COORDINATE ANALYSIS (NORMAL COORDINATES)


   Root No.       1         2         3         4         5         6         7         8

                 1 A       2 A       3 A       4 A       5 A       6 A       7 A       8 A   

                  42.1     153.6     203.5     285.9     377.8     413.5     433.1     483.3
  
           1   -0.0001   -0.0001    0.0000    0.0000    0.2357   -0.0000    0.0000    0.1778
           2    0.0001    0.0001   -0.0001   -0.0001    0.0020   -0.0000    0.0003    0.2731
           3    0.4316    0.0713   -0.2548   -0.0832   -0.0000    0.0039   -0.0060   -0.0001
           4   -0.0000   -0.0000   -0.0000   -0.0000   -0.1352    0.0000    0.0002    0.3708
           5   -0.0000    0.0001   -0.0000    0.0001   -0.2406   -0.0000   -0.0001   -0.2308
           6   -0.3824    0.0747   -0.3003    0.0895    0.0000   -0.0467    0.0219    0.0000
           7   -0.0000   -0.0000   -0.0000   -0.0000    0.0610   -0.0000    0.0002    0.2503
           8    0.0000   -0.0000    0.0000   -0.0000    0.3971   -0.0001   -0.0001   -0.0234
           9    0.1200    0.1277    0.2652    0.2424    0.0001    0.4924   -0.1109    0.0000
          10   -0.0000   -0.0000   -0.0000   -0.0000    0.0569   -0.0001   -0.0001   -0.2272
          11    0.0000   -0.0000    0.0000   -0.0000    0.3997   -0.0001   -0.0001    0.0263
          12    0.1326    0.2483    0.0979    0.4080    0.0001    0.2345   -0.1171    0.0002
          13   -0.0000   -0.0000   -0.0000   -0.0000   -0.1742    0.0001    0.0002    0.2951
          14   -0.0000   -0.0000    0.0001   -0.0000    0.1559   -0.0001   -0.0001   -0.0494
          15   -0.1524    0.0975    0.5372   -0.2075   -0.0001   -0.1812    0.0745    0.0000
          16   -0.0000   -0.0001   -0.0001   -0.0001    0.0004   -0.0000   -0.0000   -0.0762
          17    0.0000   -0.0000   -0.0000   -0.0000   -0.2567    0.0001   -0.0001   -0.1738
          18    0.0875   -0.3767   -0.1439   -0.3495   -0.0000    0.2214   -0.2100    0.0001
          19    0.0001    0.0003    0.0000   -0.0001    0.0428    0.0003   -0.0000   -0.0298
          20   -0.0001    0.0000    0.0000    0.0000   -0.2655    0.0001    0.0001    0.1494
          21   -0.1094   -0.4588   -0.0657    0.1945   -0.0001   -0.2313   -0.2671    0.0002
          22   -0.0000   -0.0001   -0.0000   -0.0000    0.2027   -0.0002    0.0000   -0.1678
          23    0.0000   -0.0000    0.0000    0.0000    0.0212   -0.0001   -0.0001   -0.2406
          24    0.3256   -0.1469    0.1124    0.2702    0.0000   -0.3006    0.3316   -0.0001
          25   -0.0000   -0.0001    0.0000    0.0001   -0.1731    0.0001   -0.0001   -0.2829
          26    0.0000   -0.0001    0.0001    0.0001    0.1620    0.0001   -0.0001    0.0362
          27   -0.0963    0.4663   -0.0503   -0.2123   -0.0000   -0.1812   -0.3193    0.0002
          28    0.0001    0.0001    0.0000    0.0001   -0.1017   -0.0001   -0.0005   -0.3603
          29   -0.0001   -0.0000    0.0000    0.0000   -0.2304    0.0001    0.0001    0.2256
          30   -0.3432   -0.0543   -0.0259   -0.2145    0.0002    0.2431    0.4174   -0.0005
          31    0.0689   -0.0209    0.2030   -0.1125   -0.0663    0.0034   -0.0259    0.1271
          32   -0.0941    0.0903   -0.0660    0.1277   -0.1012   -0.0956    0.0943   -0.0535
          33   -0.1970    0.0791   -0.2374    0.1563   -0.0001   -0.0650    0.0705   -0.0038
          34   -0.0689    0.0209   -0.2030    0.1125   -0.0663   -0.0034    0.0261    0.1270
          35    0.0940   -0.0902    0.0659   -0.1276   -0.1012    0.0956   -0.0943   -0.0534
          36   -0.1971    0.0792   -0.2374    0.1564    0.0002   -0.0651    0.0705    0.0037
          37    0.0127   -0.0414   -0.0747   -0.0267    0.1254   -0.1011   -0.0017    0.0418
          38    0.1500    0.1082   -0.1448   -0.1369   -0.0153   -0.0140    0.1751    0.0862
          39    0.2378    0.0930   -0.1957   -0.1315    0.0003   -0.0286    0.1304    0.0026
          40   -0.0128    0.0413    0.0747    0.0268    0.1256    0.1010    0.0016    0.0416
          41   -0.1498   -0.1081    0.1445    0.1367   -0.0152    0.0139   -0.1747    0.0863
          42    0.2380    0.0932   -0.1959   -0.1317   -0.0003   -0.0285    0.1307   -0.0027
          43   -0.0000    0.0000   -0.0000    0.0000   -0.1492    0.0000    0.0001    0.0577
          44   -0.0000   -0.0000    0.0000   -0.0000    0.0620   -0.0000   -0.0000   -0.0093
          45   -0.0619    0.0186    0.2960   -0.2180   -0.0001   -0.2778    0.0766   -0.0000
          46   -0.0000   -0.0001   -0.0000   -0.0001    0.0200   -0.0000   -0.0000   -0.0471
          47    0.0000   -0.0000    0.0000   -0.0000   -0.1330    0.0001    0.0000    0.0300
          48    0.0647   -0.2480   -0.0710   -0.2877   -0.0000    0.1419   -0.1310   -0.0000
          49    0.0001    0.0002   -0.0000   -0.0001    0.0299    0.0002    0.0001    0.0181
          50   -0.0001    0.0000    0.0000    0.0000   -0.1313    0.0000   -0.0000   -0.0421
          51   -0.0807   -0.3196   -0.0042    0.1643   -0.0001   -0.1714   -0.1456    0.0002
          52    0.0000   -0.0001    0.0000   -0.0000    0.1494   -0.0001    0.0000   -0.0185
          53    0.0000   -0.0000    0.0000    0.0000   -0.0108   -0.0000   -0.0000   -0.0746
          54    0.1919   -0.1101    0.0830    0.1049    0.0000   -0.2689    0.2871   -0.0002
          55   -0.0000   -0.0001    0.0000    0.0001   -0.1420    0.0001    0.0001   -0.0554
          56    0.0000   -0.0000    0.0000    0.0000    0.0624    0.0001   -0.0000    0.0061
          57   -0.0338    0.2258   -0.0456   -0.1800   -0.0001   -0.3103   -0.2450    0.0002
          58    0.0001    0.0001   -0.0000    0.0001   -0.0790   -0.0001   -0.0003   -0.1186
          59   -0.0000    0.0000    0.0000   -0.0000   -0.1161    0.0000    0.0000    0.0502
          60   -0.2094   -0.0803    0.0152   -0.1085    0.0001    0.1958    0.3941   -0.0003


   Root No.       9        10        11        12        13        14        15        16

                 9 A      10 A      11 A      12 A      13 A      14 A      15 A      16 A   

                 499.8     597.1     634.5     748.8     767.6     770.7     814.5     836.5
  
           1    0.2608   -0.1797   -0.0001   -0.0001    0.0003    0.1854   -0.0003    0.2522
           2   -0.1534   -0.3588   -0.0003   -0.0000    0.0001   -0.0606   -0.0001    0.4009
           3    0.0001    0.0003   -0.1869   -0.1270   -0.1187    0.0001    0.1961    0.0001
           4   -0.1761    0.2320    0.0001    0.0002   -0.0004   -0.3062    0.0002   -0.1374
           5   -0.0608   -0.0029    0.0000   -0.0001    0.0002    0.2405   -0.0003    0.1205
           6    0.0000   -0.0001    0.1220    0.0068   -0.2648    0.0002   -0.2283   -0.0001
           7    0.1078   -0.2725   -0.0002   -0.0000    0.0000   -0.0375   -0.0000   -0.0098
           8   -0.0643    0.0412    0.0000    0.0001   -0.0000   -0.0529   -0.0001    0.1847
           9   -0.0003    0.0001   -0.4094    0.2728   -0.0600    0.0000    0.0002    0.0001
          10   -0.1713   -0.2429   -0.0002   -0.0000   -0.0001   -0.0703    0.0001   -0.0535
          11    0.0143    0.0419    0.0000    0.0001   -0.0001   -0.0876    0.0001   -0.2216
          12   -0.0003   -0.0005    0.5112   -0.1286    0.3400   -0.0001    0.0312   -0.0002
          13   -0.0549    0.0706    0.0000    0.0001   -0.0002   -0.1601    0.0001   -0.0761
          14   -0.2375    0.4230    0.0004    0.0001   -0.0001   -0.0925   -0.0001    0.2469
          15    0.0000   -0.0001    0.0780    0.0304    0.0221   -0.0000   -0.2132   -0.0002
          16   -0.4447    0.1782    0.0000   -0.0003    0.0004    0.4406   -0.0002   -0.0201
          17   -0.0136   -0.0645   -0.0000   -0.0001    0.0001    0.1178   -0.0000    0.0142
          18    0.0000   -0.0001    0.0926   -0.0136   -0.0905    0.0001    0.1942    0.0002
          19    0.4987    0.1614   -0.0000   -0.0000    0.0002    0.3665    0.0000   -0.0813
          20    0.0255   -0.0246   -0.0001   -0.0001   -0.0000    0.0793    0.0000   -0.0825
          21    0.0002    0.0000    0.0241   -0.1721   -0.0328    0.0000   -0.0933   -0.0001
          22   -0.3102   -0.1129   -0.0002   -0.0002   -0.0000    0.1114    0.0001   -0.2885
          23    0.1072   -0.3910   -0.0003    0.0000   -0.0004   -0.2429    0.0004   -0.3811
          24    0.0001    0.0001    0.0035   -0.0046   -0.2313    0.0003    0.1733    0.0002
          25    0.0757    0.0213    0.0002    0.0002   -0.0001   -0.1760    0.0000    0.1506
          26    0.2842    0.3541    0.0004    0.0002    0.0000   -0.0934    0.0000   -0.1609
          27   -0.0001    0.0000   -0.0649   -0.0263    0.0902   -0.0002   -0.1140   -0.0001
          28    0.2039    0.1434    0.0004    0.0005   -0.0001   -0.3259   -0.0000    0.2383
          29    0.1080    0.0088   -0.0002   -0.0002    0.0001    0.2515    0.0000   -0.1846
          30    0.0001    0.0002   -0.0516   -0.2404   -0.0709   -0.0003   -0.0528    0.0002
          31   -0.0252    0.0418    0.1384    0.0087   -0.1686   -0.1434   -0.2182   -0.0809
          32    0.0143   -0.0351   -0.1290   -0.0037    0.1896    0.0351    0.0330    0.0095
          33    0.0010   -0.0022   -0.1142   -0.0050    0.1220    0.0109    0.0801    0.0081
          34   -0.0251    0.0420   -0.1384   -0.0085    0.1683   -0.1437    0.2184   -0.0807
          35    0.0143   -0.0354    0.1288    0.0037   -0.1894    0.0354   -0.0330    0.0096
          36   -0.0010    0.0024   -0.1143   -0.0050    0.1221   -0.0112    0.0801   -0.0081
          37    0.0641   -0.0636    0.1172   -0.0670    0.0230    0.0437   -0.0809    0.1667
          38   -0.0445   -0.1101    0.1978    0.1579    0.0972   -0.0189   -0.1382    0.1205
          39   -0.0008   -0.0058    0.1191    0.0710    0.0442   -0.0003   -0.0635    0.0179
          40    0.0640   -0.0634   -0.1173    0.0667   -0.0228    0.0437    0.0806    0.1669
[...]
 REDUCED MASS        0.8021         C  1 -- C  7          +9.0% ( 40.6%)      1.7%
 EFFECTIVE MASS      6.7562
 FORCE CONSTANT      0.8837

 VIBRATION         37   37A           ATOM PAIR      ENERGY CONTRIBUTION    RADIAL
 FREQUENCY          1397.33         C  1 -- C  7          +8.8% ( 43.0%)     77.9%
 TRANSITION DIPOLE   0.1903         C  2 -- C  6          +8.6% ( 42.4%)     82.6%
 TRAVEL (Ang.)       0.2464         C  1 -- C  3          +7.9% ( 40.8%)     31.4%
 REDUCED MASS        0.7948         C  1 -- H 14          +7.9% ( 40.8%)      0.5%
 EFFECTIVE MASS      7.7867
 FORCE CONSTANT      0.9144

 VIBRATION         38   38A           ATOM PAIR      ENERGY CONTRIBUTION    RADIAL
 FREQUENCY          1412.90         C  2 -- C  5         +13.1% ( 55.7%)     80.7%
 TRANSITION DIPOLE   0.1897         C  2 -- C  6         +12.2% ( 53.9%)     51.9%
 TRAVEL (Ang.)       0.1729         C  2 -- H 12         +11.0% ( 51.1%)      0.2%
 REDUCED MASS        1.5973         C  2 -- H 11         +11.0% ( 51.1%)      0.2%
 EFFECTIVE MASS      9.8458
 FORCE CONSTANT      1.8787

 VIBRATION         39   39A           ATOM PAIR      ENERGY CONTRIBUTION    RADIAL
 FREQUENCY          1473.91         C  1 -- C  7         +11.0% ( 51.9%)     92.8%
 TRANSITION DIPOLE   0.1735         C  2 -- C  6          +9.3% ( 47.7%)     87.3%
 TRAVEL (Ang.)       0.1848         C  9 -- C 10          +8.4% ( 45.2%)    100.0%
 REDUCED MASS        1.3391         C  2 -- C  5          +8.1% ( 44.3%)     82.3%
 EFFECTIVE MASS     10.8856
 FORCE CONSTANT      1.7140

 VIBRATION         40   40A           ATOM PAIR      ENERGY CONTRIBUTION    RADIAL
 FREQUENCY          1561.83         C  3 -- C  4         +28.7% ( 79.8%)     83.6%
 TRANSITION DIPOLE   0.0666         C  4 -- C  8         +16.8% ( 61.1%)     69.7%
 TRAVEL (Ang.)       0.1145         C  4 -- C  9         +12.7% ( 53.1%)      0.4%
 REDUCED MASS        3.2956         C  1 -- C  3         +12.4% ( 52.4%)     84.9%
 EFFECTIVE MASS     11.5571
 FORCE CONSTANT      4.7364

 VIBRATION         41   41A           ATOM PAIR      ENERGY CONTRIBUTION    RADIAL
 FREQUENCY          1826.12         C  4 -- C  9         +24.7% ( 74.6%)     96.5%
 TRANSITION DIPOLE   0.1952         C  7 -- C 10         +17.7% ( 63.1%)     98.6%
 TRAVEL (Ang.)       0.1133         C  9 -- C 10         +15.6% ( 59.4%)     99.7%
 REDUCED MASS        2.8740         C  3 -- C  4          +8.4% ( 43.4%)     27.0%
 EFFECTIVE MASS     11.9682
 FORCE CONSTANT      5.6468

 VIBRATION         42   42A           ATOM PAIR      ENERGY CONTRIBUTION    RADIAL
 FREQUENCY          1846.92         C  7 -- C 10         +21.2% ( 67.5%)     99.4%
 TRANSITION DIPOLE   0.3363         C  4 -- C  9         +11.7% ( 50.2%)     99.9%
 TRAVEL (Ang.)       0.1419         C  9 -- C 10          +9.3% ( 44.7%)      1.0%
 REDUCED MASS        1.8133         C  6 -- C  8          +7.6% ( 40.4%)     99.8%
 EFFECTIVE MASS     11.8146
 FORCE CONSTANT      3.6444

 VIBRATION         43   43A           ATOM PAIR      ENERGY CONTRIBUTION    RADIAL
 FREQUENCY          1860.17         C  6 -- C  8         +25.0% ( 74.4%)    100.0%
 TRANSITION DIPOLE   0.3146         C  3 -- C  5         +17.0% ( 61.4%)     99.1%
 TRAVEL (Ang.)       0.1165         C  4 -- C  8         +10.1% ( 47.2%)     57.9%
 REDUCED MASS        2.6697         C  8 -- H 18          +8.0% ( 42.1%)      3.7%
 EFFECTIVE MASS     11.9173
 FORCE CONSTANT      5.4428

 VIBRATION         44   44A           ATOM PAIR      ENERGY CONTRIBUTION    RADIAL
 FREQUENCY          1886.97         C  3 -- C  5         +22.2% ( 69.5%)     99.6%
 TRANSITION DIPOLE   0.8128         C  3 -- C  4         +11.8% ( 50.8%)     27.7%
 TRAVEL (Ang.)       0.1330         C  6 -- C  8         +10.4% ( 47.5%)     99.9%
 REDUCED MASS        2.0215         C  1 -- C  3          +8.4% ( 42.7%)     26.0%
 EFFECTIVE MASS     11.8789
 FORCE CONSTANT      4.2409

 VIBRATION         45   45A           ATOM PAIR      ENERGY CONTRIBUTION    RADIAL
 FREQUENCY          2922.56         C  1 -- H 13         +48.9% ( 72.6%)     96.5%
 TRANSITION DIPOLE   0.0456         C  1 -- H 14         +48.8% ( 72.5%)     96.5%
 TRAVEL (Ang.)       0.2114         C  1 -- C  3          +1.1% ( 10.8%)      0.0%
 REDUCED MASS        0.5165         C  1 -- C  7          +1.1% ( 10.8%)      0.0%
 EFFECTIVE MASS      1.5338
 FORCE CONSTANT      2.5992

 VIBRATION         46   46A           ATOM PAIR      ENERGY CONTRIBUTION    RADIAL
 FREQUENCY          2924.11         C  2 -- H 11         +48.9% ( 72.5%)     96.6%
 TRANSITION DIPOLE   0.0497         C  2 -- H 12         +48.9% ( 72.5%)     96.6%
 TRAVEL (Ang.)       0.2114         C  2 -- C  5          +1.1% ( 10.7%)      0.0%
 REDUCED MASS        0.5162         C  2 -- C  6          +1.1% ( 10.7%)      0.0%
 EFFECTIVE MASS      1.5328
 FORCE CONSTANT      2.6007

 VIBRATION         47   47A           ATOM PAIR      ENERGY CONTRIBUTION    RADIAL
 FREQUENCY          3003.10         C  1 -- H 14         +47.2% ( 67.7%)     97.8%
 TRANSITION DIPOLE   0.1126         C  1 -- H 13         +47.1% ( 67.7%)     97.8%
 TRAVEL (Ang.)       0.2249         C  2 -- H 12          +1.8% ( 13.3%)     97.8%
 REDUCED MASS        0.4438         C  2 -- H 11          +1.8% ( 13.3%)     97.8%
 EFFECTIVE MASS      1.2780
 FORCE CONSTANT      2.3582

 VIBRATION         48   48A           ATOM PAIR      ENERGY CONTRIBUTION    RADIAL
 FREQUENCY          3003.85         C  2 -- H 12         +46.9% ( 67.5%)     97.8%
 TRANSITION DIPOLE   0.1257         C  2 -- H 11         +46.8% ( 67.5%)     97.8%
 TRAVEL (Ang.)       0.2263         C  1 -- H 14          +1.8% ( 13.4%)     97.8%
 REDUCED MASS        0.4384         C  1 -- H 13          +1.8% ( 13.4%)     97.8%
 EFFECTIVE MASS      1.2818
 FORCE CONSTANT      2.3305

 VIBRATION         49   49A           ATOM PAIR      ENERGY CONTRIBUTION    RADIAL
 FREQUENCY          3042.71         C  8 -- H 18         +70.4% ( 85.2%)    100.0%
 TRANSITION DIPOLE   0.2734         C  6 -- H 16         +26.6% ( 52.4%)     99.9%
 TRAVEL (Ang.)       0.1999         C  6 -- C  8          +1.2% ( 11.0%)      3.4%
 REDUCED MASS        0.5546         C  4 -- C  8          +1.0% ( 10.2%)     19.8%
 EFFECTIVE MASS      1.4714
 FORCE CONSTANT      3.0253

 VIBRATION         50   50A           ATOM PAIR      ENERGY CONTRIBUTION    RADIAL
 FREQUENCY          3049.87         C 10 -- H 20         +42.1% ( 65.9%)    100.0%
 TRANSITION DIPOLE   0.1883         C  7 -- H 17         +40.4% ( 64.5%)    100.0%
 TRAVEL (Ang.)       0.2500         C  9 -- H 19         +14.7% ( 38.9%)    100.0%
 REDUCED MASS        0.3537         C  7 -- C 10          +1.0% (  9.9%)      0.0%
 EFFECTIVE MASS      1.4743
 FORCE CONSTANT      1.9387

 VIBRATION         51   51A           ATOM PAIR      ENERGY CONTRIBUTION    RADIAL
 FREQUENCY          3051.84         C  5 -- H 15         +95.5% ( 99.1%)    100.0%
 TRANSITION DIPOLE   0.3388         C  3 -- C  5          +1.5% ( 12.4%)     37.2%
 TRAVEL (Ang.)       0.1569         C  2 -- C  5          +1.4% ( 11.9%)     19.1%
 REDUCED MASS        0.8981         C  8 -- H 18          +0.6% (  7.9%)    100.0%
 EFFECTIVE MASS      1.5135
 FORCE CONSTANT      4.9282

 VIBRATION         52   52A           ATOM PAIR      ENERGY CONTRIBUTION    RADIAL
 FREQUENCY          3056.85         C  9 -- H 19         +70.9% ( 85.5%)    100.0%
 TRANSITION DIPOLE   0.3824         C  7 -- H 17         +25.5% ( 51.2%)    100.0%
 TRAVEL (Ang.)       0.1982         C  4 -- C  9          +1.1% ( 10.8%)     36.5%
 REDUCED MASS        0.5614         C  9 -- C 10          +1.1% ( 10.6%)     20.0%
 EFFECTIVE MASS      1.5130
 FORCE CONSTANT      3.0910

 VIBRATION         53   53A           ATOM PAIR      ENERGY CONTRIBUTION    RADIAL
 FREQUENCY          3064.72         C  6 -- H 16         +69.0% ( 84.3%)     99.9%
 TRANSITION DIPOLE   0.3247         C  8 -- H 18         +25.9% ( 51.6%)     99.8%
 TRAVEL (Ang.)       0.2013         C  6 -- C  8          +2.0% ( 14.2%)     91.7%
 REDUCED MASS        0.5430         C  2 -- C  6          +1.1% ( 10.6%)     16.5%
 EFFECTIVE MASS      1.5830
 FORCE CONSTANT      3.0051

 VIBRATION         54   54A           ATOM PAIR      ENERGY CONTRIBUTION    RADIAL
 FREQUENCY          3072.42         C 10 -- H 20         +54.8% ( 75.1%)    100.0%
 TRANSITION DIPOLE   0.4526         C  7 -- H 17         +30.5% ( 56.0%)     99.9%
 TRAVEL (Ang.)       0.2324         C  9 -- H 19         +10.9% ( 33.4%)    100.0%
 REDUCED MASS        0.4064         C  7 -- C 10          +1.8% ( 13.6%)     96.0%
 EFFECTIVE MASS      1.5930
 FORCE CONSTANT      2.2603

      SYMMETRY NUMBER FOR POINT-GROUP C1  =  1


          SYSTEM IS A GROUND STATE



 InChI=1S/C10H10/c1-2-6-10-8-4-3-7-9(10)5-1/h1-3,5,7-8H,4,6H2


          MOLECULE IS NOT LINEAR

          THERE ARE 54 GENUINE VIBRATIONS IN THIS SYSTEM
          THIS THERMODYNAMICS CALCULATION IS LIMITED TO
          MOLECULES WHICH HAVE NO INTERNAL ROTATIONS




                    CALCULATED THERMODYNAMIC PROPERTIES
                                          *
   TEMP. (K)   PARTITION FUNCTION   H.O.F.    ENTHALPY  HEAT CAPACITY ENTROPY
                                   KCAL/MOL   CAL/MOLE    CAL/K/MOL  CAL/K/MOL


 298.00  VIB.     0.6005D+02                  3236.9365    26.1069    19.0003
         ROT.     0.5097D+06                   888.2803     2.9808    29.0958
         INT.     0.3061D+08                  4125.2168    29.0877    48.0962
         TRA.     0.1436D+28                  1480.4672     4.9680    40.5022
         TOT.                       47.443    5605.6840    34.0557    88.5983

 200.00  VIB.     0.1129D+02                  1249.6725    14.6901    11.0652
         ROT.     0.2802D+06                   596.1613     2.9808    27.9072
         INT.     0.3164D+07                  1845.8338    17.6709    38.9724
         TRA.     0.7896D+27                   993.6021     4.9680    38.5210
         TOT.                       44.676    2839.4360    22.6389    77.4934

 210.00  VIB.     0.1323D+02                  1401.9483    15.7699    11.8079
         ROT.     0.3015D+06                   625.9693     2.9808    28.0526
         INT.     0.3989D+07                  2027.9177    18.7507    39.8605
         TRA.     0.8496D+27                  1043.2822     4.9680    38.7634
         TOT.                       44.908    3071.1999    23.7187    78.6239

 220.00  VIB.     0.1555D+02                  1565.1628    16.8774    12.5670
         ROT.     0.3233D+06                   655.7774     2.9808    28.1913
         INT.     0.5027D+07                  2220.9402    19.8582    40.7583
         TRA.     0.9110D+27                  1092.9623     4.9680    38.9945
         TOT.                       45.151    3313.9025    24.8262    79.7528

 230.00  VIB.     0.1832D+02                  1739.5789    18.0097    13.3421
         ROT.     0.3456D+06                   685.5855     2.9808    28.3238
         INT.     0.6332D+07                  2425.1644    20.9905    41.6659
         TRA.     0.9738D+27                  1142.6424     4.9680    39.2154
         TOT.                       45.405    3567.8068    25.9585    80.8813

 240.00  VIB.     0.2165D+02                  1925.4293    19.1637    14.1329
         ROT.     0.3684D+06                   715.3935     2.9808    28.4506
         INT.     0.7974D+07                  2640.8228    22.1445    42.5836
         TRA.     0.1038D+28                  1192.3226     4.9680    39.4268
         TOT.                       45.670    3833.1454    27.1125    82.0104

 250.00  VIB.     0.2565D+02                  2122.9133    20.3359    14.9389
         ROT.     0.3917D+06                   745.2016     2.9808    28.5723
         INT.     0.1004D+08                  2868.1149    23.3167    43.5112
         TRA.     0.1103D+28                  1242.0027     4.9680    39.6296
         TOT.                       45.947    4110.1176    28.2847    83.1409

 260.00  VIB.     0.3047D+02                  2332.1958    21.5228    15.7596
         ROT.     0.4154D+06                   775.0097     2.9808    28.6892
         INT.     0.1266D+08                  3107.2054    24.5036    44.4488
         TRA.     0.1170D+28                  1291.6828     4.9680    39.8245
         TOT.                       46.236    4398.8882    29.4716    84.2733

 270.00  VIB.     0.3629D+02                  2553.4064    22.7209    16.5943
         ROT.     0.4396D+06                   804.8177     2.9808    28.8017
         INT.     0.1595D+08                  3358.2242    25.7017    45.3960
         TRA.     0.1239D+28                  1341.3629     4.9680    40.0120
         TOT.                       46.536    4699.5870    30.6698    85.4080

 280.00  VIB.     0.4334D+02                  2786.6405    23.9269    17.4424
         ROT.     0.4642D+06                   834.6258     2.9808    28.9101
         INT.     0.2012D+08                  3621.2663    26.9077    46.3525
         TRA.     0.1308D+28                  1391.0430     4.9680    40.1926
         TOT.                       46.849    5012.3092    31.8757    86.5452

 290.00  VIB.     0.5190D+02                  3031.9594    25.1374    18.3031
         ROT.     0.4893D+06                   864.4339     2.9808    29.0147
         INT.     0.2540D+08                  3896.3932    28.1182    47.3179
         TRA.     0.1379D+28                  1440.7231     4.9680    40.3670
         TOT.                       47.174    5337.1163    33.0862    87.6848

 300.00  VIB.     0.6230D+02                  3289.3927    26.3493    19.1758
         ROT.     0.5148D+06                   894.2419     2.9808    29.1158
         INT.     0.3208D+08                  4183.6346    29.3301    48.2915
         TRA.     0.1451D+28                  1490.4032     4.9680    40.5354
         TOT.                       47.511    5674.0378    34.2981    88.8269

 310.00  VIB.     0.7497D+02                  3558.9400    27.5597    20.0595
         ROT.     0.5408D+06                   924.0500     2.9808    29.2135
         INT.     0.4055D+08                  4482.9900    30.5405    49.2730
         TRA.     0.1524D+28                  1540.0833     4.9680    40.6983
         TOT.                       47.860    6023.0733    35.5085    89.9713

 320.00  VIB.     0.9044D+02                  3840.5732    28.7660    20.9535
         ROT.     0.5672D+06                   953.8580     2.9808    29.3082
         INT.     0.5130D+08                  4794.4312    31.7468    50.2617
         TRA.     0.1598D+28                  1589.7634     4.9680    40.8560
         TOT.                       48.221    6384.1946    36.7148    91.1177

 330.00  VIB.     0.1094D+03                  4134.2387    29.9658    21.8571
         ROT.     0.5940D+06                   983.6661     2.9808    29.3999
         INT.     0.6495D+08                  5117.9048    32.9466    51.2570
         TRA.     0.1674D+28                  1639.4435     4.9680    41.0089
         TOT.                       48.594    6757.3483    37.9146    92.2659

 340.00  VIB.     0.1325D+03                  4439.8603    31.1569    22.7694
         ROT.     0.6212D+06                  1013.4742     2.9808    29.4889
         INT.     0.8232D+08                  5453.3345    34.1377    52.2582
         TRA.     0.1750D+28                  1689.1236     4.9680    41.1572
         TOT.                       48.979    7142.4581    39.1057    93.4155

 350.00  VIB.     0.1610D+03                  4757.3414    32.3374    23.6896
         ROT.     0.6488D+06                  1043.2822     2.9808    29.5753
         INT.     0.1044D+09                  5800.6236    35.3182    53.2649
         TRA.     0.1828D+28                  1738.8037     4.9680    41.3012
         TOT.                       49.376    7539.4274    40.2862    94.5661

 360.00  VIB.     0.1959D+03                  5086.5675    33.5056    24.6170
         ROT.     0.6768D+06                  1073.0903     2.9808    29.6592
         INT.     0.1326D+09                  6159.6578    36.4865    54.2762
         TRA.     0.1907D+28                  1788.4838     4.9680    41.4412
         TOT.                       49.785    7948.1417    41.4545    95.7174

 370.00  VIB.     0.2389D+03                  5427.4086    34.6602    25.5508
         ROT.     0.7052D+06                  1102.8984     2.9808    29.7409
         INT.     0.1685D+09                  6530.3070    37.6410    55.2917
         TRA.     0.1987D+28                  1838.1639     4.9680    41.5773
         TOT.                       50.205    8368.4709    42.6090    96.8690

 380.00  VIB.     0.2919D+03                  5779.7214    35.7998    26.4903
         ROT.     0.7340D+06                  1132.7064     2.9808    29.8204
         INT.     0.2143D+09                  6912.4278    38.7806    56.3107
         TRA.     0.2068D+28                  1887.8440     4.9680    41.7098
         TOT.                       50.637    8800.2719    43.7486    98.0205

 390.00  VIB.     0.3574D+03                  6143.3512    36.9234    27.4347
         ROT.     0.7631D+06                  1162.5145     2.9808    29.8978
         INT.     0.2728D+09                  7305.8657    39.9042    57.3326
         TRA.     0.2150D+28                  1937.5242     4.9680    41.8388
         TOT.                       51.080    9243.3899    44.8723    99.1714

 400.00  VIB.     0.4384D+03                  6518.1343    38.0303    28.3836
         ROT.     0.7927D+06                  1192.3226     2.9808    29.9733
         INT.     0.3475D+09                  7710.4568    41.0111    58.3569
         TRA.     0.2233D+28                  1987.2043     4.9680    41.9646
         TOT.                       51.535    9697.6611    45.9791   100.3215

   *: NOTE: HEATS OF FORMATION ARE RELATIVE TO THE
            ELEMENTS IN THEIR STANDARD STATE AT 298K
              (=  Standard Enthalpy of Formation).

            Hvib:  Zero-point energy is not included.
                   frequencies of less than zero cm-1 are not included.
            Hrot = (3/2)RT
            Htra = (3/2)RT + pV = (5/2)RT

            Heat capacity is Cp, not Cv

          For more information, see: HTTP://OpenMOPAC.net/Manual/thermochemistry.html


           FORCE CONSTANT IN CARTESIAN COORDINATES (Millidynes/A)

    ATOM   CHEMICAL       X               Y               Z
   NUMBER   SYMBOL  FORCE CONSTANT  FORCE CONSTANT  FORCE CONSTANT

      1       C        9.406380        8.925052        7.591554
      2       C        9.213465        9.289231        7.583535
      3       C       13.210159       12.583455        2.613973
      4       C       13.825215       12.544062        2.439450
      5       C       12.786539       12.043267        2.323963
      6       C       13.006475       11.781165        2.360778
      7       C       10.033031       14.588357        2.351219
      8       C       13.069766       12.451204        2.196918
      9       C       12.884605       12.310057        2.161063
     10       C       10.726717       14.644126        2.180906
     11       H        1.446115        1.268529        3.430157
     12       H        1.445973        1.269960        3.428953
     13       H        0.771051        1.952402        3.429295
     14       H        0.770878        1.958255        3.424149
     15       H        0.924704        4.971775        0.340261
     16       H        4.709092        1.197054        0.344974
     17       H        4.753130        1.156428        0.341612
     18       H        0.926619        4.965935        0.345506
     19       H        0.919954        4.996399        0.335047
     20       H        2.984940        2.925572        0.345475

 **********************
 *                    *
 * JOB ENDED NORMALLY *
 *                    *
 **********************



 TOTAL JOB TIME:             1.91 SECONDS

 == MOPAC DONE ==
