 *******************************************************************************
 **                                                                           **
 **                              MOPAC v23.1.2                                **
 **                                                                           **
 *******************************************************************************
 **          Digital Object Identifier (DOI): 10.5281/zenodo.6511958          **
 **    Visit the DOI location for information on how to cite this program.    **
 *******************************************************************************

                              PM3 CALCULATION RESULTS

 *******************************************************************************
 *  CALCULATION DONE: (MAX THREADS = 1)              Tue Jun  3 16:34:10 2025  *
 *  PM3        - The PM3 Hamiltonian to be used
 *  PRECISE    - TIGHTER CRITERIA TO BE USED
 *  NOSYM      - POINT-GROUP SYMMETRY SET TO C1
 *  THREADS=1  - MULTI-THREADING NOT USED
 *  T=         - A TIME OF 172800.0 SECONDS REQUESTED
 *  DUMP=N     - RESTART FILE WRITTEN EVERY 7200.0 SECONDS REQUESTED
 *******************************************************************************
pm3  precise nosym THREADS=1
 InChI=1S/C9H10/c1-2-5-9-7-3-6-8(9)4-1/h1-4,7,9H,5-6H2

   ATOM   CHEMICAL          X               Y               Z
  NUMBER   SYMBOL      (ANGSTROMS)     (ANGSTROMS)     (ANGSTROMS)

     1       C         -0.22440000  *  -0.76300000  *  -0.42040000  *
     2       C          1.07970000  *  -1.24670000  *   0.23690000  *
     3       C         -1.69030000  *   1.11990000  *   0.21420000  *
     4       C         -0.34850000  *   0.72030000  *  -0.28950000  *
     5       C         -1.46760000  *  -1.22650000  *   0.26170000  *
     6       C         -2.27600000  *  -0.21000000  *   0.56700000  *
     7       C          2.23610000  *  -0.39080000  *  -0.23460000  *
     8       C          0.71690000  *   1.52490000  *  -0.36980000  *
     9       C          2.06100000  *   0.91830000  *  -0.48300000  *
    10       H         -0.24510000  *  -1.05040000  *  -1.49450000  *
    11       H          1.00550000  *  -1.16170000  *   1.34340000  *
    12       H          1.26570000  *  -2.30990000  *  -0.02530000  *
    13       H         -2.28170000  *   1.62200000  *  -0.58000000  *
    14       H         -1.60610000  *   1.75300000  *   1.12330000  *
    15       H         -3.24890000  *  -0.34040000  *   1.02920000  *
    16       H         -1.72330000  *  -2.26770000  *   0.42920000  *
    17       H          3.22380000  *  -0.82630000  *  -0.31670000  *
    18       H          2.90960000  *   1.53920000  *  -0.73950000  *
    19       H          0.61380000  *   2.59590000  *  -0.25170000  *



          CARTESIAN COORDINATES 

    NO.       ATOM           X           Y           Z

     1         C         -0.2244     -0.7630     -0.4204
     2         C          1.0797     -1.2467      0.2369
     3         C         -1.6903      1.1199      0.2142
     4         C         -0.3485      0.7203     -0.2895
     5         C         -1.4676     -1.2265      0.2617
     6         C         -2.2760     -0.2100      0.5670
     7         C          2.2361     -0.3908     -0.2346
     8         C          0.7169      1.5249     -0.3698
     9         C          2.0610      0.9183     -0.4830
    10         H         -0.2451     -1.0504     -1.4945
    11         H          1.0055     -1.1617      1.3434
    12         H          1.2657     -2.3099     -0.0253
    13         H         -2.2817      1.6220     -0.5800
    14         H         -1.6061      1.7530      1.1233
    15         H         -3.2489     -0.3404      1.0292
    16         H         -1.7233     -2.2677      0.4292
    17         H          3.2238     -0.8263     -0.3167
    18         H          2.9096      1.5392     -0.7395
    19         H          0.6138      2.5959     -0.2517

  H: (PM3): J. J. P. STEWART, J. COMP. CHEM. 10, 209 (1989).
  C: (PM3): J. J. P. STEWART, J. COMP. CHEM. 10, 209 (1989).

           Empirical Formula: C9 H10  =    19 atoms



      MOLECULAR POINT GROUP   :   C1  


      RHF CALCULATION, NO. OF DOUBLY OCCUPIED LEVELS = 23


          Geometry optimization using EF

          DIAGONAL MATRIX USED AS START HESSIAN

 CYCLE:     1 TIME:   0.008 TIME LEFT:  2.00D  GRAD.:    69.835 HEAT:  43.67174
 CYCLE:     2 TIME:   0.008 TIME LEFT:  2.00D  GRAD.:   100.847 HEAT:  43.54617
 CYCLE:     3 TIME:   0.008 TIME LEFT:  2.00D  GRAD.:    91.415 HEAT:  42.79476
 CYCLE:     4 TIME:   0.008 TIME LEFT:  2.00D  GRAD.:    86.955 HEAT:  42.50840
 CYCLE:     5 TIME:   0.008 TIME LEFT:  2.00D  GRAD.:    53.280 HEAT:  41.35428
 CYCLE:     6 TIME:   0.012 TIME LEFT:  2.00D  GRAD.:    28.583 HEAT:  40.97677
 CYCLE:     7 TIME:   0.004 TIME LEFT:  2.00D  GRAD.:    22.687 HEAT:  40.84092
 CYCLE:     8 TIME:   0.008 TIME LEFT:  2.00D  GRAD.:    17.361 HEAT:  40.71680
 CYCLE:     9 TIME:   0.008 TIME LEFT:  2.00D  GRAD.:    20.953 HEAT:  40.68228
 CYCLE:    10 TIME:   0.004 TIME LEFT:  2.00D  GRAD.:    15.690 HEAT:  40.57426
 CYCLE:    11 TIME:   0.008 TIME LEFT:  2.00D  GRAD.:    20.195 HEAT:  40.53551
 CYCLE:    12 TIME:   0.008 TIME LEFT:  2.00D  GRAD.:    22.983 HEAT:  40.47091
 CYCLE:    13 TIME:   0.004 TIME LEFT:  2.00D  GRAD.:    22.268 HEAT:  40.43328
 CYCLE:    14 TIME:   0.008 TIME LEFT:  2.00D  GRAD.:    17.271 HEAT:  40.33194
 CYCLE:    15 TIME:   0.008 TIME LEFT:  2.00D  GRAD.:    10.687 HEAT:  40.26781
 CYCLE:    16 TIME:   0.008 TIME LEFT:  2.00D  GRAD.:     9.551 HEAT:  40.23373
 CYCLE:    17 TIME:   0.004 TIME LEFT:  2.00D  GRAD.:    13.127 HEAT:  40.21716
 CYCLE:    18 TIME:   0.004 TIME LEFT:  2.00D  GRAD.:     8.979 HEAT:  40.15649
 CYCLE:    19 TIME:   0.008 TIME LEFT:  2.00D  GRAD.:    10.548 HEAT:  40.12091
 CYCLE:    20 TIME:   0.008 TIME LEFT:  2.00D  GRAD.:     9.436 HEAT:  40.07738
 CYCLE:    21 TIME:   0.004 TIME LEFT:  2.00D  GRAD.:     9.331 HEAT:  40.05059
 CYCLE:    22 TIME:   0.008 TIME LEFT:  2.00D  GRAD.:     4.610 HEAT:  40.02295
 CYCLE:    23 TIME:   0.004 TIME LEFT:  2.00D  GRAD.:     4.939 HEAT:  40.01230
 CYCLE:    24 TIME:   0.008 TIME LEFT:  2.00D  GRAD.:     3.437 HEAT:  39.99913
 CYCLE:    25 TIME:   0.008 TIME LEFT:  2.00D  GRAD.:     2.738 HEAT:  39.98536
 CYCLE:    26 TIME:   0.004 TIME LEFT:  2.00D  GRAD.:     4.305 HEAT:  39.97600
 CYCLE:    27 TIME:   0.008 TIME LEFT:  2.00D  GRAD.:     3.257 HEAT:  39.96032
 CYCLE:    28 TIME:   0.004 TIME LEFT:  2.00D  GRAD.:     3.506 HEAT:  39.94709
 CYCLE:    29 TIME:   0.008 TIME LEFT:  2.00D  GRAD.:     2.722 HEAT:  39.93495
 CYCLE:    30 TIME:   0.004 TIME LEFT:  2.00D  GRAD.:     2.279 HEAT:  39.92907
 CYCLE:    31 TIME:   0.008 TIME LEFT:  2.00D  GRAD.:     1.575 HEAT:  39.92270
 CYCLE:    32 TIME:   0.008 TIME LEFT:  2.00D  GRAD.:     2.303 HEAT:  39.91828
 CYCLE:    33 TIME:   0.004 TIME LEFT:  2.00D  GRAD.:     1.628 HEAT:  39.91402
 CYCLE:    34 TIME:   0.008 TIME LEFT:  2.00D  GRAD.:     1.243 HEAT:  39.91051
 CYCLE:    35 TIME:   0.004 TIME LEFT:  2.00D  GRAD.:     1.014 HEAT:  39.90702
 CYCLE:    36 TIME:   0.008 TIME LEFT:  2.00D  GRAD.:     0.892 HEAT:  39.90570
 CYCLE:    37 TIME:   0.004 TIME LEFT:  2.00D  GRAD.:     0.909 HEAT:  39.90365
 CYCLE:    38 TIME:   0.008 TIME LEFT:  2.00D  GRAD.:     0.935 HEAT:  39.90159
 CYCLE:    39 TIME:   0.008 TIME LEFT:  2.00D  GRAD.:     0.892 HEAT:  39.89955
 CYCLE:    40 TIME:   0.004 TIME LEFT:  2.00D  GRAD.:     0.658 HEAT:  39.89793
 CYCLE:    41 TIME:   0.004 TIME LEFT:  2.00D  GRAD.:     0.599 HEAT:  39.89694
 CYCLE:    42 TIME:   0.008 TIME LEFT:  2.00D  GRAD.:     0.621 HEAT:  39.89607
 CYCLE:    43 TIME:   0.012 TIME LEFT:  2.00D  GRAD.:     0.566 HEAT:  39.89519
 CYCLE:    44 TIME:   0.008 TIME LEFT:  2.00D  GRAD.:     0.433 HEAT:  39.89456
 CYCLE:    45 TIME:   0.004 TIME LEFT:  2.00D  GRAD.:     0.310 HEAT:  39.89423
 CYCLE:    46 TIME:   0.008 TIME LEFT:  2.00D  GRAD.:     0.221 HEAT:  39.89408
 CYCLE:    47 TIME:   0.008 TIME LEFT:  2.00D  GRAD.:     0.148 HEAT:  39.89400
 CYCLE:    48 TIME:   0.004 TIME LEFT:  2.00D  GRAD.:     0.096 HEAT:  39.89396
 CYCLE:    49 TIME:   0.004 TIME LEFT:  2.00D  GRAD.:     0.100 HEAT:  39.89395
 CYCLE:    50 TIME:   0.008 TIME LEFT:  2.00D  GRAD.:     0.071 HEAT:  39.89393
 CYCLE:    51 TIME:   0.004 TIME LEFT:  2.00D  GRAD.:     0.055 HEAT:  39.89392
 CYCLE:    52 TIME:   0.008 TIME LEFT:  2.00D  GRAD.:     0.057 HEAT:  39.89391
 CYCLE:    53 TIME:   0.004 TIME LEFT:  2.00D  GRAD.:     0.048 HEAT:  39.89390

     GRADIENT =  0.04755 IS LESS THAN CUTOFF =  0.05000



 -------------------------------------------------------------------------------
 pm3  precise nosym THREADS=1
 InChI=1S/C9H10/c1-2-5-9-7-3-6-8(9)4-1/h1-4,7,9H,5-6H2



     GEOMETRY OPTIMISED USING EIGENVECTOR FOLLOWING (EF).     
     SCF FIELD WAS ACHIEVED                                   


                              PM3 CALCULATION
                                                       MOPAC v23.1.2 MacOS
                                                       Tue Jun  3 16:34:10 2025




          FINAL HEAT OF FORMATION =         39.89390 KCAL/MOL =     166.91609 KJ/MOL


          COSMO AREA              =        158.97 SQUARE ANGSTROMS
          COSMO VOLUME            =        157.93 CUBIC ANGSTROMS

          GRADIENT NORM           =          0.04755          =       0.01091 PER ATOM
          IONIZATION POTENTIAL    =          8.801701 EV
          HOMO LUMO ENERGIES (EV) =         -8.802  0.260
          NO. OF FILLED LEVELS    =         23
          MOLECULAR WEIGHT        =        118.1780         POINT GROUP:  C1  

          MOLECULAR DIMENSIONS (Angstroms)

            Atom       Atom       Distance
            H    18    H    15     6.70537
            H    12    H    14     4.88541
            H    11    H    10     3.03676


          SCF CALCULATIONS        =         59

          WALL-CLOCK TIME         =      0.359 SECONDS
          COMPUTATION TIME        =      0.216 SECONDS




   ATOM   CHEMICAL          X               Y               Z
  NUMBER   SYMBOL      (ANGSTROMS)     (ANGSTROMS)     (ANGSTROMS)

     1       C         -0.22203798  *  -0.74788816  *  -0.37289807  *
     2       C          1.09596732  *  -1.27118676  *   0.17836018  *
     3       C         -1.72527383  *   1.10669455  *   0.15816553  *
     4       C         -0.32272921  *   0.75333628  *  -0.22936393  *
     5       C         -1.46994398  *  -1.23404142  *   0.31240285  *
     6       C         -2.30514735  *  -0.21793892  *   0.57273686  *
     7       C          2.22824641  *  -0.38877291  *  -0.23295938  *
     8       C          0.75444344  *   1.54132157  *  -0.32398082  *
     9       C          2.05965009  *   0.91787791  *  -0.48546141  *
    10       H         -0.29256203  *  -1.00818573  *  -1.45838684  *
    11       H          1.07310712  *  -1.32626204  *   1.28547457  *
    12       H          1.26687739  *  -2.30693037  *  -0.17262941  *
    13       H         -2.28894167  *   1.54636855  *  -0.68618141  *
    14       H         -1.75718073  *   1.84483021  *   0.98031844  *
    15       H         -3.29136618  *  -0.28462377  *   1.02998893  *
    16       H         -1.63017571  *  -2.29005992  *   0.52417279  *
    17       H          3.21683425  *  -0.85468659  *  -0.29618157  *
    18       H          2.89586856  *   1.55859614  *  -0.78180742  *
    19       H          0.69917752  *   2.62976911  *  -0.23359593  *

                             CARTESIAN COORDINATES

   1    C       -0.222037979    -0.747888164    -0.372898069
   2    C        1.095967316    -1.271186761     0.178360182
   3    C       -1.725273831     1.106694554     0.158165527
   4    C       -0.322729211     0.753336278    -0.229363926
   5    C       -1.469943977    -1.234041423     0.312402851
   6    C       -2.305147355    -0.217938917     0.572736856
   7    C        2.228246412    -0.388772909    -0.232959376
   8    C        0.754443439     1.541321569    -0.323980817
   9    C        2.059650093     0.917877913    -0.485461408
  10    H       -0.292562029    -1.008185731    -1.458386842
  11    H        1.073107121    -1.326262044     1.285474567
  12    H        1.266877385    -2.306930371    -0.172629410
  13    H       -2.288941670     1.546368548    -0.686181405
  14    H       -1.757180727     1.844830209     0.980318442
  15    H       -3.291366175    -0.284623771     1.029988927
  16    H       -1.630175708    -2.290059921     0.524172795
  17    H        3.216834249    -0.854686591    -0.296181573
  18    H        2.895868557     1.558596138    -0.781807418
  19    H        0.699177516     2.629769108    -0.233595931


           Empirical Formula: C9 H10  =    19 atoms



      MOLECULAR POINT GROUP   :   C1  


                  EIGENVALUES  
 -41.55296 -34.94203 -31.01946 -27.22268 -25.84284 -22.03237 -19.98539 -19.19914
 -17.60003 -17.01155 -15.87163 -15.32912 -14.61515 -14.41653 -14.20543 -13.64712
 -13.22299 -12.56215 -12.19660 -11.76216 -11.21413  -9.92616  -8.80170   0.26030
   1.00344   2.01769   3.21229   3.26178   3.36134   3.61540   3.72413   3.79533
   3.84042   4.00338   4.11070   4.26824   4.43372   4.52670   4.68704   4.78237
   5.01826   5.39929   5.58184   5.84304   6.06528   6.23867


              NET ATOMIC CHARGES AND DIPOLE CONTRIBUTIONS

  ATOM NO.   TYPE          CHARGE      No. of ELECS.   s-Pop       p-Pop       
    1          C          -0.014268        4.0143     1.15817     2.85610
    2          C          -0.048803        4.0488     1.14487     2.90394
    3          C          -0.016429        4.0164     1.13776     2.87867
    4          C          -0.119815        4.1198     1.20979     2.91002
    5          C          -0.147762        4.1478     1.20332     2.94444
    6          C          -0.152359        4.1524     1.20445     2.94791
    7          C          -0.140646        4.1406     1.19799     2.94266
    8          C          -0.110331        4.1103     1.17326     2.93707
    9          C          -0.107755        4.1078     1.17937     2.92839
   10          H           0.078023        0.9220     0.92198
   11          H           0.061973        0.9380     0.93803
   12          H           0.054775        0.9452     0.94523
   13          H           0.065897        0.9341     0.93410
   14          H           0.063752        0.9362     0.93625
   15          H           0.111964        0.8880     0.88804
   16          H           0.114374        0.8856     0.88563
   17          H           0.098773        0.9012     0.90123
   18          H           0.101148        0.8989     0.89885
   19          H           0.107489        0.8925     0.89251
 DIPOLE           X         Y         Z       TOTAL
 POINT-CHG.    -0.252    -0.192     0.117     0.338
 HYBRID         0.004     0.008    -0.006     0.011
 SUM           -0.248    -0.184     0.111     0.328


          ATOMIC ORBITAL ELECTRON POPULATIONS

     Atom    s        px        py        pz   
    1  C   1.15817   0.93367   0.92782   0.99461
    2  C   1.14487   0.92746   0.97195   1.00453
    3  C   1.13776   0.92547   0.95582   0.99738
    4  C   1.20979   0.95794   0.95995   0.99213
    5  C   1.20332   0.96389   0.98047   1.00008
    6  C   1.20445   0.98771   0.95450   1.00569
    7  C   1.19799   0.98152   0.95851   1.00263
    8  C   1.17326   0.92893   0.97776   1.03038
    9  C   1.17937   0.96299   0.95372   1.01167
   10  H   0.92198
   11  H   0.93803
   12  H   0.94523
   13  H   0.93410
   14  H   0.93625
   15  H   0.88804
   16  H   0.88563
   17  H   0.90123
   18  H   0.89885
   19  H   0.89251
 *******************************************************************************
 **                                                                           **
 **                              MOPAC v23.1.2                                **
 **                                                                           **
 *******************************************************************************
 **          Digital Object Identifier (DOI): 10.5281/zenodo.6511958          **
 **    Visit the DOI location for information on how to cite this program.    **
 *******************************************************************************

                              PM3 CALCULATION RESULTS

 *******************************************************************************
 *  CALCULATION DONE: (MAX THREADS = 1)              Tue Jun  3 16:34:10 2025  *
 *  PM3        - The PM3 Hamiltonian to be used
 *  OLDGEO     - PREVIOUS GEOMETRY TO BE USED
 *  PRECISE    - TIGHTER CRITERIA TO BE USED
 *  NOSYM      - POINT-GROUP SYMMETRY SET TO C1
 *  THREADS=1  - MULTI-THREADING NOT USED
 *  T=         - A TIME OF 172800.0 SECONDS REQUESTED
 *  DUMP=N     - RESTART FILE WRITTEN EVERY 7200.0 SECONDS REQUESTED
 *  THERMO     - THERMODYNAMIC QUANTITIES TO BE CALCULATED
 *******************************************************************************
oldgeo thermo nosym precise THREADS=1  pm3
 InChI=1S/C9H10/c1-2-5-9-7-3-6-8(9)4-1/h1-4,7,9H,5-6H2

   ATOM   CHEMICAL          X               Y               Z
  NUMBER   SYMBOL      (ANGSTROMS)     (ANGSTROMS)     (ANGSTROMS)

     1       C         -0.22203798  *  -0.74788816  *  -0.37289807  *
     2       C          1.09596732  *  -1.27118676  *   0.17836018  *
     3       C         -1.72527383  *   1.10669455  *   0.15816553  *
     4       C         -0.32272921  *   0.75333628  *  -0.22936393  *
     5       C         -1.46994398  *  -1.23404142  *   0.31240285  *
     6       C         -2.30514735  *  -0.21793892  *   0.57273686  *
     7       C          2.22824641  *  -0.38877291  *  -0.23295938  *
     8       C          0.75444344  *   1.54132157  *  -0.32398082  *
     9       C          2.05965009  *   0.91787791  *  -0.48546141  *
    10       H         -0.29256203  *  -1.00818573  *  -1.45838684  *
    11       H          1.07310712  *  -1.32626204  *   1.28547457  *
    12       H          1.26687739  *  -2.30693037  *  -0.17262941  *
    13       H         -2.28894167  *   1.54636855  *  -0.68618141  *
    14       H         -1.75718073  *   1.84483021  *   0.98031844  *
    15       H         -3.29136618  *  -0.28462377  *   1.02998893  *
    16       H         -1.63017571  *  -2.29005992  *   0.52417279  *
    17       H          3.21683425  *  -0.85468659  *  -0.29618157  *
    18       H          2.89586856  *   1.55859614  *  -0.78180742  *
    19       H          0.69917752  *   2.62976911  *  -0.23359593  *



          CARTESIAN COORDINATES 

    NO.       ATOM           X           Y           Z

     1         C         -0.2220     -0.7479     -0.3729
     2         C          1.0960     -1.2712      0.1784
     3         C         -1.7253      1.1067      0.1582
     4         C         -0.3227      0.7533     -0.2294
     5         C         -1.4699     -1.2340      0.3124
     6         C         -2.3051     -0.2179      0.5727
     7         C          2.2282     -0.3888     -0.2330
     8         C          0.7544      1.5413     -0.3240
     9         C          2.0597      0.9179     -0.4855
    10         H         -0.2926     -1.0082     -1.4584
    11         H          1.0731     -1.3263      1.2855
    12         H          1.2669     -2.3069     -0.1726
    13         H         -2.2889      1.5464     -0.6862
    14         H         -1.7572      1.8448      0.9803
    15         H         -3.2914     -0.2846      1.0300
    16         H         -1.6302     -2.2901      0.5242
    17         H          3.2168     -0.8547     -0.2962
    18         H          2.8959      1.5586     -0.7818
    19         H          0.6992      2.6298     -0.2336

  H: (PM3): J. J. P. STEWART, J. COMP. CHEM. 10, 209 (1989).
  C: (PM3): J. J. P. STEWART, J. COMP. CHEM. 10, 209 (1989).

           Empirical Formula: C9 H10  =    19 atoms



      MOLECULAR POINT GROUP   :   C1  


      RHF CALCULATION, NO. OF DOUBLY OCCUPIED LEVELS = 23



          HEAT OF FORMATION =      39.893903 KCALS/MOLE


          CARTESIAN COORDINATE DERIVATIVES

   NUMBER  ATOM         X            Y            Z

     1       C     -0.003192     0.000021     0.001360
     2       C     -0.016406     0.004245     0.009629
     3       C      0.009384     0.002689    -0.005906
     4       C      0.007952    -0.002442    -0.006414
     5       C     -0.003114    -0.002002    -0.000730
     6       C      0.012656     0.002832    -0.004211
     7       C     -0.008176    -0.005890     0.008873
     8       C      0.005463    -0.001709    -0.002004
     9       C      0.004794    -0.003073    -0.001606
    10       H      0.007676     0.003202    -0.011019
    11       H     -0.003760     0.002306    -0.004689
    12       H     -0.016237     0.008801     0.003734
    13       H      0.003965    -0.010299     0.006755
    14       H     -0.007176    -0.000317     0.002469
    15       H      0.010476    -0.007118     0.003360
    16       H      0.002437     0.002621    -0.001073
    17       H     -0.011303     0.004833     0.001971
    18       H     -0.001683     0.003067    -0.005090
    19       H      0.006244    -0.001770     0.004590



          GRADIENT NORM =   0.04836

          MOLECULAR WEIGHT =  118.18



          ROTATIONAL CONSTANTS IN CM(-1)

          A =    0.11434926   B =    0.05226271   C =    0.03749896



           PRINCIPAL MOMENTS OF INERTIA IN UNITS OF 10**(-40)*GRAM-CM**2

          A =      244.8005   B =      535.6162   C =      746.4940


          ORIENTATION OF MOLECULE IN FORCE CALCULATION

    NO.       ATOM         X         Y         Z

     1          C      -0.0480   -0.8062    0.3682
     2          C       1.4734   -0.8062    0.3682
     3          C      -1.7957    0.9046    0.3682
     4          C      -0.5996    0.3908   -0.3717
     5          C      -0.7135   -0.7038    1.7135
     6          C      -1.6922    0.2126    1.6998
     7          C       2.0018   -0.4325   -0.9776
     8          C       0.0282    0.9105   -1.4328
     9          C       1.3148    0.3520   -1.8215
    10          H      -0.4129   -1.7361   -0.1350
    11          H       1.8737   -0.0932    1.1170
    12          H       1.8506   -1.8028    0.6676
    13          H      -2.7411    0.6486   -0.1462
    14          H      -1.7793    2.0048    0.4743
    15          H      -2.3579    0.4687    2.5228
    16          H      -0.4124   -1.3344    2.5486
    17          H       2.9955   -0.8107   -1.2380
    18          H       1.7115    0.6250   -2.8042
    19          H      -0.3612    1.7692   -1.9868


    FIRST DERIVATIVES WILL BE USED IN THE CALCULATION OF SECOND DERIVATIVES

          ESTIMATED TIME TO COMPLETE CALCULATION =        0.89 SECONDS

    FOR POINT-GROUP C1   THERE ARE   1 UNIQUE SYMMETRY FUNCTIONS.

 STEP:   1 TIME =     0.02 SECS, INTEGRAL =      0.02 TIME LEFT: 172799.98
 STEP:   2 TIME =     0.02 SECS, INTEGRAL =      0.04 TIME LEFT: 172799.96
 STEP:   3 TIME =     0.02 SECS, INTEGRAL =      0.05 TIME LEFT: 172799.94
 STEP:   4 TIME =     0.02 SECS, INTEGRAL =      0.07 TIME LEFT: 172799.93
 STEP:   5 TIME =     0.02 SECS, INTEGRAL =      0.09 TIME LEFT: 172799.91
 STEP:   6 TIME =     0.02 SECS, INTEGRAL =      0.11 TIME LEFT: 172799.89
 STEP:   7 TIME =     0.02 SECS, INTEGRAL =      0.12 TIME LEFT: 172799.88
 STEP:   8 TIME =     0.02 SECS, INTEGRAL =      0.14 TIME LEFT: 172799.86
 STEP:   9 TIME =     0.02 SECS, INTEGRAL =      0.16 TIME LEFT: 172799.84
 STEP:  10 TIME =     0.02 SECS, INTEGRAL =      0.17 TIME LEFT: 172799.82
 STEP:  11 TIME =     0.02 SECS, INTEGRAL =      0.19 TIME LEFT: 172799.81
 STEP:  12 TIME =     0.02 SECS, INTEGRAL =      0.21 TIME LEFT: 172799.79
 STEP:  13 TIME =     0.02 SECS, INTEGRAL =      0.23 TIME LEFT: 172799.77
 STEP:  14 TIME =     0.02 SECS, INTEGRAL =      0.24 TIME LEFT: 172799.75
 STEP:  15 TIME =     0.02 SECS, INTEGRAL =      0.26 TIME LEFT: 172799.74
 STEP:  16 TIME =     0.02 SECS, INTEGRAL =      0.27 TIME LEFT: 172799.72
 STEP:  17 TIME =     0.02 SECS, INTEGRAL =      0.29 TIME LEFT: 172799.70
 STEP:  18 TIME =     0.02 SECS, INTEGRAL =      0.31 TIME LEFT: 172799.69
 STEP:  19 TIME =     0.02 SECS, INTEGRAL =      0.32 TIME LEFT: 172799.67
 STEP:  20 TIME =     0.02 SECS, INTEGRAL =      0.34 TIME LEFT: 172799.65
 STEP:  21 TIME =     0.02 SECS, INTEGRAL =      0.36 TIME LEFT: 172799.63
 STEP:  22 TIME =     0.02 SECS, INTEGRAL =      0.38 TIME LEFT: 172799.61
 STEP:  23 TIME =     0.02 SECS, INTEGRAL =      0.40 TIME LEFT: 172799.59
 STEP:  24 TIME =     0.02 SECS, INTEGRAL =      0.42 TIME LEFT: 172799.58
 STEP:  25 TIME =     0.02 SECS, INTEGRAL =      0.43 TIME LEFT: 172799.56
 STEP:  26 TIME =     0.02 SECS, INTEGRAL =      0.45 TIME LEFT: 172799.55
 STEP:  27 TIME =     0.02 SECS, INTEGRAL =      0.46 TIME LEFT: 172799.53
 STEP:  28 TIME =     0.02 SECS, INTEGRAL =      0.48 TIME LEFT: 172799.51
 STEP:  29 TIME =     0.02 SECS, INTEGRAL =      0.50 TIME LEFT: 172799.50
 STEP:  30 TIME =     0.02 SECS, INTEGRAL =      0.52 TIME LEFT: 172799.48
 STEP:  31 TIME =     0.02 SECS, INTEGRAL =      0.54 TIME LEFT: 172799.46
 STEP:  32 TIME =     0.02 SECS, INTEGRAL =      0.55 TIME LEFT: 172799.44
 STEP:  33 TIME =     0.02 SECS, INTEGRAL =      0.57 TIME LEFT: 172799.43
 STEP:  34 TIME =     0.02 SECS, INTEGRAL =      0.59 TIME LEFT: 172799.41
 STEP:  35 TIME =     0.02 SECS, INTEGRAL =      0.60 TIME LEFT: 172799.39
 STEP:  36 TIME =     0.02 SECS, INTEGRAL =      0.62 TIME LEFT: 172799.38
 STEP:  37 TIME =     0.02 SECS, INTEGRAL =      0.63 TIME LEFT: 172799.36
 STEP:  38 TIME =     0.02 SECS, INTEGRAL =      0.65 TIME LEFT: 172799.34
 STEP:  39 TIME =     0.02 SECS, INTEGRAL =      0.67 TIME LEFT: 172799.32
 STEP:  40 TIME =     0.02 SECS, INTEGRAL =      0.69 TIME LEFT: 172799.30
 STEP:  41 TIME =     0.02 SECS, INTEGRAL =      0.71 TIME LEFT: 172799.29
 STEP:  42 TIME =     0.02 SECS, INTEGRAL =      0.72 TIME LEFT: 172799.27
 STEP:  43 TIME =     0.02 SECS, INTEGRAL =      0.74 TIME LEFT: 172799.25
 STEP:  44 TIME =     0.02 SECS, INTEGRAL =      0.76 TIME LEFT: 172799.24
 STEP:  45 TIME =     0.02 SECS, INTEGRAL =      0.77 TIME LEFT: 172799.22
 STEP:  46 TIME =     0.02 SECS, INTEGRAL =      0.79 TIME LEFT: 172799.21
 STEP:  47 TIME =     0.02 SECS, INTEGRAL =      0.81 TIME LEFT: 172799.19
 STEP:  48 TIME =     0.02 SECS, INTEGRAL =      0.83 TIME LEFT: 172799.17
 STEP:  49 TIME =     0.02 SECS, INTEGRAL =      0.84 TIME LEFT: 172799.15
 STEP:  50 TIME =     0.02 SECS, INTEGRAL =      0.86 TIME LEFT: 172799.13
 STEP:  51 TIME =     0.02 SECS, INTEGRAL =      0.88 TIME LEFT: 172799.11
 STEP:  52 TIME =     0.02 SECS, INTEGRAL =      0.90 TIME LEFT: 172799.09
 STEP:  53 TIME =     0.02 SECS, INTEGRAL =      0.92 TIME LEFT: 172799.07
 STEP:  54 TIME =     0.02 SECS, INTEGRAL =      0.94 TIME LEFT: 172799.06
 STEP:  55 TIME =     0.02 SECS, INTEGRAL =      0.95 TIME LEFT: 172799.04
 STEP:  56 TIME =     0.02 SECS, INTEGRAL =      0.97 TIME LEFT: 172799.03
 STEP:  57 TIME =     0.02 SECS, INTEGRAL =      0.98 TIME LEFT: 172799.01

(To convert to Hartree/Bohr^2, multiply by (10^(-21) x N x a0^2)/(4.184 x 627.51) =  0.0642)


           FORCE MATRIX IN MILLIDYNES/ANGSTROM


                  C  1       C  2       C  3       C  4       C  5       C  6
 ------------------------------------------------------------------------------
     C    1  15.098678
     C    2   4.107758  14.643345
     C    3   0.745422   0.045600  14.908559
     C    4   4.145011   0.643434   4.584433  19.057940
     C    5   4.406497   0.556675   1.158135   1.024212  18.224985
     C    6   1.185475   0.044638   4.448356   1.068415  10.427226  18.210331
     C    7   0.705613   4.768541   0.015476   0.156475   0.051246   0.008940
     C    8   0.770974   0.114848   0.639576  10.227090   0.053387   0.049256
     C    9   0.121767   0.832106   0.135821   1.190868   0.008644   0.011447
     H   10   4.162565   0.433284   0.021597   0.402918   0.398547   0.035827
     H   11   0.452407   4.421064   0.004429   0.016551   0.018284   0.002965
     H   12   0.440333   4.489318   0.007324   0.048906   0.010391   0.001279
     H   13   0.024901   0.003813   4.474560   0.428154   0.035614   0.429552
     H   14   0.038631   0.003575   4.517023   0.441375   0.040432   0.433039
     H   15   0.118199   0.014814   0.408859   0.045438   0.447925   5.035671
     H   16   0.412032   0.007646   0.117870   0.043189   5.041593   0.448280
     H   17   0.044229   0.426156   0.008916   0.016181   0.008183   0.002270
     H   18   0.005350   0.121077   0.009112   0.047882   0.001084   0.001395
     H   19   0.114431   0.009984   0.066308   0.461313   0.010623   0.003481


                  C  7       C  8       C  9       H 10       H 11       H 12
 ------------------------------------------------------------------------------
     C    7  17.812766
     C    8   1.110155  18.374492
     C    9  10.169067   5.479127  18.203802
     H   10   0.013427   0.027904   0.017257   4.621001
     H   11   0.410405   0.019509   0.033298   0.045334   5.021781
     H   12   0.441241   0.010290   0.048253   0.035156   0.568957   5.083461
     H   13   0.002062   0.023371   0.016862   0.001850   0.000443   0.000304
     H   14   0.001831   0.017482   0.012267   0.001663   0.000724   0.001126
     H   15   0.002613   0.006380   0.001640   0.015452   0.000804   0.000414
     H   16   0.001838   0.006624   0.001581   0.010192   0.002996   0.002920
     H   17   4.857805   0.123064   0.443732   0.004089   0.014633   0.034733
     H   18   0.445053   0.431556   4.867891   0.000769   0.016848   0.012324
     H   19   0.046452   4.889446   0.434625   0.014697   0.000785   0.001331


                  H 13       H 14       H 15       H 16       H 17       H 18
 ------------------------------------------------------------------------------
     H   13   5.078157
     H   14   0.555932   5.116100
     H   15   0.010195   0.014858   5.428638
     H   16   0.016533   0.015158   0.049207   5.435508
     H   17   0.001153   0.000892   0.000658   0.000644   5.231294
     H   18   0.001055   0.000895   0.000389   0.000292   0.065790   5.236416
     H   19   0.009460   0.008388   0.000824   0.001582   0.008204   0.027558


                  H 19
 ------------------
     H   19   5.262714


          HEAT OF FORMATION =      39.893903 KCALS/MOLE

          ZERO POINT ENERGY     101.490 KCAL/MOL


           NORMAL COORDINATE ANALYSIS (Total motion = 1 Angstrom)


   Root No.       1         2         3         4         5         6         7         8

                 1 A       2 A       3 A       4 A       5 A       6 A       7 A       8 A   

                 126.4     186.9     261.9     362.0     420.2     445.0     499.2     535.0
  
           1    0.0086   -0.0151   -0.0187   -0.0033   -0.0103    0.0083    0.0360   -0.0282
           2    0.0084   -0.0206   -0.0268    0.0339    0.0078    0.0164   -0.0009   -0.0150
           3   -0.0016   -0.0144   -0.0257   -0.0252   -0.0180    0.0128   -0.0048    0.0119
           4    0.0087   -0.0142   -0.0184   -0.0071   -0.0169    0.0044    0.0300   -0.0517
           5    0.0482   -0.0108    0.0335   -0.0082    0.0058    0.0015   -0.0247    0.0031
           6    0.0197    0.0029    0.0139    0.0102    0.0026    0.0030    0.0516    0.0128
           7    0.0243    0.0243   -0.0058   -0.0263   -0.0042    0.0010    0.0169    0.0469
           8    0.0289    0.0250   -0.0145   -0.0103    0.0074   -0.0055    0.0063   -0.0258
           9    0.0216    0.0138   -0.0052    0.0133    0.0148    0.0022   -0.0271   -0.0099
          10    0.0084   -0.0144   -0.0152   -0.0021   -0.0274    0.0143    0.0055    0.0565
          11    0.0144   -0.0219   -0.0175    0.0519   -0.0038    0.0168   -0.0062    0.0166
          12    0.0074   -0.0158   -0.0176    0.0018   -0.0249    0.0085   -0.0104   -0.0004
          13   -0.0215   -0.0071    0.0025    0.0174    0.0425   -0.0211    0.0222    0.0164
          14   -0.0345   -0.0170   -0.0172   -0.0075    0.0236   -0.0212   -0.0023   -0.0045
          15   -0.0149   -0.0107   -0.0164   -0.0186    0.0010    0.0008   -0.0247    0.0365
          16   -0.0134    0.0273    0.0433    0.0161   -0.0065    0.0091    0.0245    0.0038
          17   -0.0259    0.0195    0.0259   -0.0101   -0.0313    0.0113   -0.0000   -0.0226
          18   -0.0041    0.0104    0.0125    0.0143   -0.0023    0.0120   -0.0365   -0.0000
          19   -0.0026    0.0154   -0.0091    0.0114   -0.0034   -0.0149   -0.0512   -0.0499
          20   -0.0056    0.0474   -0.0130    0.0007   -0.0275   -0.0302   -0.0078    0.0214
          21   -0.0011    0.0319    0.0055    0.0253    0.0049   -0.0154    0.0295    0.0169
          22   -0.0012   -0.0267    0.0142    0.0016   -0.0030   -0.0165   -0.0399    0.0118
          23   -0.0077   -0.0377    0.0191    0.0036   -0.0069   -0.0204    0.0367    0.0186
          24   -0.0096   -0.0311    0.0174   -0.0207   -0.0145   -0.0304   -0.0092   -0.0322
          25   -0.0134    0.0028    0.0048   -0.0026    0.0211    0.0226   -0.0482    0.0017
          26   -0.0324    0.0077    0.0013   -0.0349    0.0134    0.0375    0.0074    0.0109
          27   -0.0180    0.0051    0.0075    0.0032    0.0230    0.0154    0.0366   -0.0369
          28    0.0407   -0.0100    0.0104   -0.0168   -0.0188    0.0093    0.0593   -0.0710
          29    0.0099   -0.0212   -0.0342    0.0595   -0.0003    0.0298   -0.0005   -0.0006
          30   -0.0277   -0.0157   -0.0288   -0.0642    0.0035   -0.0152   -0.0237    0.0178
          31   -0.0188   -0.0295   -0.0746    0.0027   -0.0335    0.0210    0.0531   -0.0812
          32    0.1003   -0.0445    0.1023   -0.0455    0.0427    0.0344   -0.0571    0.0134
          33   -0.0155    0.0434   -0.0205    0.0400   -0.0219   -0.0365    0.0689    0.0204
          34    0.0342   -0.0143    0.0199   -0.0479   -0.0200    0.0036    0.0179   -0.0255
          35    0.0751   -0.0233    0.0715   -0.0311    0.0216    0.0138   -0.0400    0.0128
          36    0.0754   -0.0375    0.0889   -0.0122    0.0572    0.0427    0.0201    0.0111
          37    0.0167   -0.0026   -0.0142   -0.0103   -0.0299    0.0113    0.0115    0.0787
          38    0.0912    0.0728   -0.0617   -0.0879    0.0974   -0.0611    0.0329   -0.0606
          39    0.0051    0.0403    0.0327    0.0205    0.0210    0.0090   -0.0297   -0.0519
          40    0.0705    0.0811   -0.0333   -0.1109    0.0687   -0.0472    0.0445    0.0036
          41    0.0240    0.0243   -0.0103   -0.0099    0.0018   -0.0030    0.0066   -0.0271
          42    0.0682    0.0160   -0.0498    0.0074    0.0768   -0.0264   -0.0247    0.0006
          43   -0.0320    0.0517    0.0974    0.0385   -0.0252    0.0196    0.0257   -0.0264
          44   -0.0533    0.0405    0.0748   -0.0180   -0.0737    0.0282   -0.0007   -0.0124
          45   -0.0105    0.0236    0.0410    0.0346   -0.0043    0.0152   -0.0359   -0.0281
          46   -0.0487   -0.0214    0.0050    0.0431    0.1115   -0.0632    0.0141    0.0548
          47   -0.0698   -0.0366   -0.0258   -0.0215    0.0687   -0.0660    0.0023    0.0307
          48   -0.0317   -0.0203   -0.0237   -0.0384    0.0103   -0.0179   -0.0182    0.0489
          49   -0.0095    0.0518   -0.0247    0.0236   -0.0147   -0.0340   -0.0813   -0.0412
          50   -0.0221    0.1152   -0.0505    0.0198   -0.0568   -0.0677   -0.0416    0.0170
          51   -0.0022    0.0715    0.0025    0.0434    0.0052   -0.0338   -0.0374    0.0562
          52   -0.0314    0.0260    0.0006   -0.0025    0.0567    0.0754   -0.0385    0.0354
          53   -0.0714    0.0282   -0.0108   -0.0743    0.0514    0.1118   -0.0309   -0.0141
          54   -0.0360    0.0200    0.0027   -0.0080    0.0477    0.0569    0.0299   -0.0297
          55    0.0041   -0.0431    0.0437    0.0190    0.0032   -0.0805   -0.0564   -0.0140
          56   -0.0099   -0.0560    0.0545   -0.0177   -0.0168   -0.0941    0.0276    0.0087
          57   -0.0166   -0.0481    0.0515   -0.0655   -0.0346   -0.0997   -0.0101   -0.0291


   Root No.       9        10        11        12        13        14        15        16

                 9 A      10 A      11 A      12 A      13 A      14 A      15 A      16 A   

                 642.7     741.4     765.2     777.3     799.3     860.6     878.2     927.4
  
           1   -0.0057    0.0021   -0.0100    0.0023   -0.0117   -0.0023    0.0076   -0.0022
           2   -0.0371    0.0071    0.0067    0.0214    0.0112    0.0314    0.0102   -0.0051
           3   -0.0200    0.0042    0.0141    0.0243    0.0059   -0.0144   -0.0065    0.0026
           4   -0.0048   -0.0048   -0.0223   -0.0055   -0.0041   -0.0203   -0.0082    0.0012
           5   -0.0079   -0.0072    0.0179    0.0067   -0.0048    0.0369   -0.0073    0.0129
           6   -0.0119   -0.0072   -0.0103    0.0009   -0.0302   -0.0060    0.0023    0.0016
           7   -0.0054    0.0102   -0.0100   -0.0209    0.0210    0.0352   -0.0153    0.0127
           8    0.0210    0.0096    0.0213    0.0045   -0.0250   -0.0183   -0.0325    0.0180
           9   -0.0086   -0.0015   -0.0208   -0.0221   -0.0143   -0.0063   -0.0094    0.0075
          10    0.0258   -0.0065   -0.0129   -0.0108    0.0018    0.0078    0.0090   -0.0117
          11    0.0222   -0.0014    0.0010    0.0089    0.0067   -0.0186   -0.0081   -0.0089
          12    0.0548   -0.0066    0.0128    0.0035   -0.0180    0.0131    0.0087   -0.0131
          13    0.0126    0.0160    0.0264    0.0020   -0.0104   -0.0019    0.0111   -0.0181
          14    0.0094    0.0067   -0.0163   -0.0343   -0.0142    0.0065    0.0228   -0.0221
          15   -0.0186    0.0076    0.0202    0.0187    0.0315   -0.0169   -0.0151   -0.0015
          16   -0.0008    0.0152    0.0366    0.0184   -0.0000   -0.0080    0.0002    0.0057
          17    0.0003    0.0054   -0.0044   -0.0170   -0.0048    0.0017    0.0108    0.0037
          18   -0.0255   -0.0043   -0.0312   -0.0284    0.0010    0.0098    0.0118   -0.0004
          19    0.0108   -0.0034    0.0101   -0.0152    0.0469    0.0065   -0.0201   -0.0073
          20   -0.0033   -0.0126    0.0115   -0.0108   -0.0098   -0.0095   -0.0052   -0.0143
          21   -0.0028   -0.0011    0.0031   -0.0057   -0.0045   -0.0036   -0.0006   -0.0072
          22   -0.0148   -0.0074    0.0050    0.0071   -0.0193   -0.0098    0.0245    0.0168
          23   -0.0195    0.0029   -0.0151   -0.0057    0.0413   -0.0218    0.0142    0.0241
          24    0.0215   -0.0021    0.0219    0.0076   -0.0125    0.0184    0.0308    0.0163
          25   -0.0155   -0.0144    0.0094   -0.0041   -0.0207   -0.0134    0.0010   -0.0012
          26   -0.0052   -0.0143    0.0109   -0.0115   -0.0097   -0.0092   -0.0001   -0.0034
          27    0.0166    0.0057    0.0083   -0.0140    0.0502    0.0158   -0.0145   -0.0003
          28   -0.0258   -0.0145   -0.0371    0.0139   -0.0561    0.0159   -0.0081    0.0533
          29   -0.0116   -0.0026    0.0121    0.0301    0.0238    0.0501    0.0226   -0.0218
          30   -0.0494    0.0334    0.0224   -0.0015    0.0158   -0.0666   -0.0206   -0.0071
          31   -0.0731   -0.0072   -0.0160    0.0494   -0.0301    0.0426   -0.0093    0.0513
          32    0.0712    0.0387   -0.0284   -0.0034    0.0517   -0.0469    0.0160   -0.0212
          33   -0.0477   -0.0474    0.0288   -0.0189   -0.0688    0.0370   -0.0180    0.0056
          34    0.0491    0.0024   -0.0504   -0.0335   -0.0019   -0.1263   -0.0110   -0.0216
          35    0.0372    0.0124   -0.0080   -0.0062    0.0183   -0.0219    0.0012   -0.0081
          36    0.0615    0.0452   -0.0587   -0.0046    0.0350   -0.0639    0.0327   -0.0352
          37    0.0323    0.0138   -0.0195   -0.0343    0.0144    0.0650   -0.0536   -0.0084
          38   -0.0081   -0.0561    0.0123    0.0820    0.0264   -0.0357    0.0894   -0.0613
          39   -0.0652    0.0206   -0.0007   -0.0332   -0.0246   -0.0512    0.0080    0.0815
          40   -0.0515   -0.0399   -0.0209    0.0266    0.0759    0.0566    0.1217   -0.0314
          41    0.0211    0.0133    0.0233    0.0006   -0.0269   -0.0154   -0.0346    0.0248
          42   -0.0033   -0.0469   -0.0353    0.0362    0.0089   -0.0537    0.0132   -0.0726
          43    0.0245   -0.0970   -0.0299    0.1237    0.0178   -0.0151   -0.0045   -0.0606
          44    0.0096   -0.1102   -0.0713    0.1071    0.0863    0.0194   -0.0110   -0.0577
          45   -0.0084   -0.0595   -0.0651    0.0177   -0.0127   -0.0026    0.0144   -0.0347
          46    0.0632   -0.0807   -0.0527    0.0374   -0.0131    0.0621   -0.0621    0.0984
          47    0.0831   -0.0945   -0.0825    0.0222   -0.0086    0.0028   -0.0903    0.1166
          48    0.0184   -0.0338   -0.0009    0.0491    0.0366   -0.0439   -0.0745    0.0613
          49    0.0368    0.0580   -0.0472    0.0438    0.0547    0.0026    0.0307    0.0378
          50    0.0565    0.1107   -0.1119    0.0969    0.0253   -0.0260    0.0856    0.0698
          51    0.0118    0.0548   -0.0350    0.0634   -0.0257    0.0086    0.0635    0.0419
          52   -0.0178    0.0392   -0.0658    0.0536   -0.0728   -0.0120   -0.0133   -0.0007
          53    0.0448    0.0775   -0.0746    0.0931   -0.0792    0.0715   -0.0138   -0.0053
          54    0.0298    0.0527   -0.0451    0.0382    0.0102    0.0398   -0.0238   -0.0006
          55   -0.0650    0.0426   -0.0456    0.0394   -0.0305   -0.0165   -0.1074   -0.0674
          56   -0.0651    0.0564   -0.0685    0.0264   -0.0092    0.0120   -0.1216   -0.0931
          57   -0.0129    0.0452   -0.0248    0.0342   -0.0836    0.0779   -0.0853   -0.1061


   Root No.      17        18        19        20        21        22        23        24

                17 A      18 A      19 A      20 A      21 A      22 A      23 A      24 A   

                 952.1     969.2    1005.2    1025.5    1038.3    1048.1    1049.9    1071.8
  
           1   -0.0055    0.0043   -0.0013    0.0049    0.0171   -0.0039   -0.0044    0.0018
           2   -0.0281   -0.0021    0.0205    0.0041    0.0017   -0.0026   -0.0018    0.0169
           3   -0.0056    0.0071    0.0057    0.0155   -0.0011    0.0032   -0.0069    0.0031
           4    0.0026   -0.0100    0.0048   -0.0075   -0.0139    0.0048    0.0122    0.0023
           5    0.0300    0.0116   -0.0227    0.0019    0.0014    0.0118    0.0059    0.0003
           6   -0.0015   -0.0105    0.0067   -0.0228   -0.0215    0.0195   -0.0161    0.0013
           7   -0.0073    0.0110    0.0138   -0.0144    0.0106   -0.0056    0.0055    0.0120
           8   -0.0077    0.0181    0.0175   -0.0053   -0.0079    0.0062    0.0094   -0.0177
           9    0.0023    0.0097   -0.0016   -0.0139    0.0200   -0.0073   -0.0062    0.0101
          10    0.0054   -0.0024   -0.0120    0.0160    0.0119    0.0125   -0.0137   -0.0038
          11    0.0106   -0.0088   -0.0106    0.0078    0.0016    0.0084   -0.0003    0.0039
          12   -0.0007   -0.0062   -0.0114    0.0119    0.0101    0.0062   -0.0018   -0.0008
          13    0.0060    0.0113    0.0027   -0.0124    0.0065    0.0037    0.0082   -0.0093
          14    0.0106    0.0146   -0.0016   -0.0131    0.0135    0.0010    0.0035   -0.0048
          15    0.0057   -0.0155   -0.0026   -0.0244   -0.0072    0.0003    0.0187   -0.0217
          16    0.0005   -0.0176   -0.0149    0.0078   -0.0136   -0.0099   -0.0133    0.0108
          17    0.0024   -0.0193   -0.0189    0.0096   -0.0147   -0.0123   -0.0104    0.0110
          18   -0.0018   -0.0071    0.0002    0.0146   -0.0341    0.0016    0.0123   -0.0168
          19    0.0110   -0.0108    0.0110   -0.0063   -0.0055    0.0074   -0.0315   -0.0130
          20   -0.0005   -0.0127    0.0247    0.0106    0.0080   -0.0278   -0.0003   -0.0024
          21   -0.0004    0.0013    0.0062    0.0166    0.0147   -0.0239    0.0120   -0.0007
          22    0.0041    0.0010    0.0145   -0.0039   -0.0050   -0.0095    0.0138    0.0115
          23    0.0228    0.0046    0.0061   -0.0007   -0.0014    0.0001   -0.0147   -0.0189
          24   -0.0012    0.0017    0.0171   -0.0076   -0.0005   -0.0128    0.0074    0.0089
          25   -0.0183    0.0059   -0.0136   -0.0043   -0.0009    0.0072   -0.0024   -0.0036
          26   -0.0327    0.0092   -0.0176   -0.0074   -0.0062    0.0112    0.0020    0.0048
          27    0.0000    0.0128   -0.0175    0.0103    0.0034    0.0033    0.0189    0.0103
          28    0.0196    0.0285   -0.0780   -0.0215    0.0201   -0.0648   -0.0114   -0.0859
          29   -0.0663   -0.0816    0.0238   -0.0481    0.0152   -0.0021    0.0606   -0.0049
          30    0.0495    0.1349    0.0550    0.1298   -0.0299    0.0483   -0.1154    0.1079
          31   -0.0204    0.0449   -0.0494    0.0342    0.0044   -0.1140    0.0016   -0.0506
          32   -0.0523   -0.0037    0.0230    0.0299    0.0228   -0.0471    0.0190    0.0023
          33    0.0862   -0.0261   -0.0053   -0.0718   -0.0519    0.1395   -0.0237    0.0287
          34    0.0249   -0.0311    0.0199    0.0274   -0.0125    0.0385    0.1530    0.0627
          35    0.0008   -0.0043    0.0048    0.0100    0.0025    0.0055    0.0290    0.0132
          36   -0.1221   -0.0341    0.0746   -0.0432   -0.0213   -0.0428   -0.1223   -0.0359
          37   -0.0064    0.0638    0.0191   -0.0372   -0.0960   -0.0548    0.0240   -0.0066
          38    0.0225   -0.0484   -0.0426    0.0469   -0.0542    0.0091   -0.0060   -0.0286
          39   -0.0130   -0.0571    0.0157    0.0045    0.2387    0.0812   -0.0341    0.0514
          40   -0.0050   -0.0798   -0.0088    0.0702    0.0395    0.0559    0.0161   -0.0217
          41   -0.0127    0.0160    0.0251    0.0004   -0.0019    0.0173    0.0164   -0.0292
          42    0.0612    0.0271   -0.0919   -0.0775   -0.0547   -0.1294   -0.0829    0.1277
          43    0.0025    0.1052    0.0559    0.0030    0.0364    0.0426   -0.0023   -0.0618
          44    0.0073    0.0474    0.0357   -0.0996    0.0894   -0.0134    0.0425    0.0787
          45   -0.0011    0.0707    0.0397    0.0435   -0.0259    0.0439    0.0054   -0.0969
          46   -0.0729   -0.0325    0.0501    0.0947   -0.1000    0.0205    0.0101    0.0598
          47   -0.0260   -0.0540   -0.0357    0.0213    0.0375   -0.0240   -0.0478    0.0083
          48    0.0065   -0.0513   -0.0447   -0.0361    0.0470   -0.0238   -0.0198   -0.0383
          49   -0.0189    0.0248   -0.0406   -0.0274   -0.0204    0.0504   -0.0243   -0.0069
          50   -0.0580    0.0405   -0.0551   -0.0446   -0.0541    0.0692    0.0435    0.0440
          51   -0.0334    0.0595   -0.0720    0.0153    0.0474   -0.0027   -0.0230   -0.0407
          52    0.0922   -0.0174    0.0134    0.0579    0.0486   -0.0535    0.0398   -0.0534
          53    0.1281   -0.0723    0.1028   -0.0302   -0.0246   -0.0008   -0.0555    0.0170
          54    0.0893   -0.0185    0.0261    0.0303    0.0195   -0.0253    0.0213   -0.0062
          55    0.0013   -0.0191   -0.0394    0.0369   -0.0055   -0.0003    0.0991    0.0600
          56   -0.0323   -0.0209   -0.0493    0.0244    0.0152    0.0329   -0.0216   -0.0176
          57   -0.0855   -0.0234   -0.0302    0.0028    0.0264    0.0299   -0.0616   -0.0214


   Root No.      25        26        27        28        29        30        31        32

                25 A      26 A      27 A      28 A      29 A      30 A      31 A      32 A   

                1088.4    1093.5    1107.0    1153.2    1181.0    1196.1    1254.5    1287.2
  
           1   -0.0160   -0.0111    0.0297   -0.0015   -0.0058    0.0261    0.0352    0.0096
           2   -0.0194   -0.0108    0.0161   -0.0110   -0.0051   -0.0157   -0.0035   -0.0134
           3   -0.0081   -0.0089    0.0078    0.0001    0.0253    0.0199   -0.0182    0.0434
           4    0.0010    0.0105   -0.0297    0.0090   -0.0149    0.0030    0.0019   -0.0401
           5    0.0034    0.0008   -0.0221   -0.0014    0.0004    0.0072    0.0101   -0.0019
           6    0.0135    0.0018   -0.0168    0.0058   -0.0005   -0.0060   -0.0174    0.0225
           7   -0.0014   -0.0078   -0.0008    0.0027   -0.0009   -0.0071   -0.0194   -0.0196
           8   -0.0020    0.0085    0.0013   -0.0016    0.0093    0.0078    0.0171   -0.0031
           9   -0.0042   -0.0037   -0.0017   -0.0001   -0.0147    0.0055   -0.0024    0.0407
          10    0.0065    0.0010   -0.0069   -0.0062    0.0266    0.0064    0.0255   -0.0031
          11    0.0150    0.0059    0.0073    0.0073   -0.0183   -0.0291   -0.0160   -0.0066
          12    0.0079    0.0070    0.0027   -0.0044   -0.0121    0.0093   -0.0132   -0.0017
          13    0.0069    0.0053   -0.0007    0.0012   -0.0069   -0.0017    0.0058    0.0144
          14    0.0052   -0.0033   -0.0036    0.0008    0.0103    0.0010   -0.0127    0.0016
          15    0.0066    0.0174    0.0057   -0.0018    0.0069   -0.0051    0.0017   -0.0336
          16   -0.0060   -0.0073   -0.0019   -0.0015   -0.0065   -0.0037   -0.0028    0.0070
          17   -0.0061   -0.0024    0.0009   -0.0011    0.0075    0.0063   -0.0099   -0.0029
          18    0.0019    0.0062    0.0087    0.0029   -0.0080   -0.0037    0.0328   -0.0064
          19   -0.0007    0.0065    0.0019    0.0039    0.0049    0.0035   -0.0155    0.0170
          20    0.0087   -0.0034    0.0030   -0.0031   -0.0011    0.0043   -0.0019   -0.0067
          21   -0.0038    0.0017   -0.0026    0.0041    0.0049   -0.0167    0.0183    0.0042
          22    0.0094   -0.0130   -0.0008   -0.0076    0.0104   -0.0167    0.0211   -0.0097
          23   -0.0116    0.0109   -0.0020    0.0047    0.0030    0.0131   -0.0026    0.0187
          24   -0.0041   -0.0037    0.0016   -0.0028   -0.0117    0.0040   -0.0146   -0.0113
          25   -0.0080    0.0094   -0.0028    0.0025   -0.0053   -0.0085   -0.0039    0.0192
          26    0.0071   -0.0029    0.0021    0.0015   -0.0062    0.0082   -0.0063   -0.0090
          27    0.0058   -0.0106   -0.0007   -0.0075    0.0114   -0.0049    0.0138   -0.0090
          28    0.0438    0.0328    0.2695   -0.0762    0.0470   -0.0981   -0.0669   -0.0116
          29   -0.0587   -0.0413   -0.0732    0.0242    0.0382    0.0712    0.0120    0.0439
          30    0.0204    0.0163   -0.0008   -0.0096   -0.0947   -0.0538    0.0247   -0.0502
          31    0.1152    0.0502   -0.1846    0.0829    0.0111   -0.0519   -0.0412    0.0399
          32   -0.0066   -0.0057   -0.0023    0.0054    0.0157   -0.0110    0.0197    0.0348
          33   -0.0393   -0.0135    0.0486   -0.0396   -0.0307    0.0414   -0.0053   -0.0595
          34   -0.1056    0.0119    0.0192    0.0886    0.0286   -0.1039   -0.0813    0.0372
          35   -0.0212   -0.0012    0.0035    0.0119    0.0052   -0.0157   -0.0164   -0.0005
          36    0.0685   -0.0022    0.0123   -0.0441   -0.0441    0.0528   -0.0100   -0.0804
          37   -0.0315   -0.0284    0.0103    0.0089   -0.0569   -0.0049   -0.0376    0.0427
          38    0.0067    0.0178    0.0087   -0.0025    0.0048    0.0111    0.0901    0.0117
          39    0.0469    0.0269   -0.0262   -0.0110    0.0897   -0.0025   -0.0152   -0.0824
          40    0.0346   -0.0177    0.0113    0.0132   -0.0804   -0.0421   -0.0965    0.0366
          41    0.0025    0.0113    0.0043   -0.0003   -0.0008    0.0078    0.0264    0.0090
          42   -0.0526   -0.0132   -0.0282   -0.0168    0.1055    0.0197   -0.0336   -0.0881
          43   -0.0124   -0.0958   -0.0310   -0.0058    0.0472   -0.0085   -0.0610   -0.0399
          44    0.0334    0.1496    0.0409    0.0071   -0.0684    0.0136    0.0741    0.0655
          45   -0.0153   -0.1109   -0.0264   -0.0031    0.0588   -0.0093   -0.0367   -0.0661
          46    0.0134    0.1417    0.0401   -0.0009    0.0877    0.0568   -0.0420   -0.0102
          47   -0.0375   -0.1122   -0.0158   -0.0025   -0.0601   -0.0286    0.0283    0.0152
          48   -0.0273   -0.1120   -0.0172   -0.0035   -0.0794   -0.0478    0.0515   -0.0155
          49   -0.0117    0.0107   -0.0028    0.0187   -0.0021    0.0124   -0.0190    0.0083
          50    0.0407   -0.0312   -0.0409   -0.1478    0.0152   -0.0366    0.0219    0.0453
          51   -0.0850    0.0506    0.0463    0.2634   -0.0438    0.0745   -0.0204   -0.1076
          52   -0.0808    0.0754   -0.0628   -0.2014   -0.0720    0.0862   -0.0825   -0.0316
          53    0.0436   -0.0414    0.0404    0.1447    0.0462   -0.0556    0.0488    0.0312
          54   -0.0147    0.0055   -0.0146   -0.0504   -0.0004    0.0150   -0.0010   -0.0206
          55    0.1343   -0.1054    0.0740    0.0414   -0.0280    0.1382   -0.0414   -0.0090
          56   -0.0068    0.0154   -0.0016    0.0060    0.0070    0.0052    0.0011    0.0211
          57   -0.0856    0.0678   -0.0514   -0.0388    0.0214   -0.1186    0.0360   -0.0127


   Root No.      33        34        35        36        37        38        39        40

                33 A      34 A      35 A      36 A      37 A      38 A      39 A      40 A   

                1345.8    1368.5    1381.8    1394.9    1411.7    1444.6    1810.8    1835.9
  
           1    0.0172   -0.0204   -0.0112   -0.0103    0.0461    0.0750   -0.0135    0.0026
           2   -0.0161    0.0376   -0.0126   -0.0234   -0.0146   -0.0259    0.0106   -0.0017
           3   -0.0053   -0.0415    0.0355    0.0365   -0.0161   -0.0279    0.0048    0.0020
           4    0.0264   -0.0066   -0.0060    0.0290   -0.0295   -0.0610   -0.0008    0.0028
           5    0.0081   -0.0027    0.0112    0.0023    0.0112   -0.0071   -0.0004    0.0126
           6   -0.0219   -0.0009   -0.0407   -0.0106   -0.0243    0.0456    0.0024   -0.0278
           7   -0.0225   -0.0114   -0.0146    0.0428    0.0259    0.0022    0.0135    0.0020
           8   -0.0008   -0.0196    0.0032   -0.0405   -0.0093   -0.0073   -0.0132   -0.0007
           9    0.0346    0.0615    0.0131    0.0152   -0.0187    0.0094    0.0029   -0.0021
          10   -0.0069    0.0377    0.0043   -0.0328   -0.0282   -0.0184   -0.0147   -0.0167
          11    0.0101   -0.0395    0.0091    0.0392    0.0125    0.0346   -0.0079   -0.0052
          12   -0.0066    0.0061   -0.0167   -0.0099    0.0143   -0.0230    0.0186    0.0196
          13   -0.0154   -0.0131    0.0079   -0.0025   -0.0106   -0.0163    0.1571   -0.0174
          14    0.0012   -0.0010    0.0014    0.0100    0.0001   -0.0001   -0.1383    0.0153
          15    0.0276    0.0293   -0.0194   -0.0133    0.0156    0.0307   -0.0185    0.0004
          16   -0.0028    0.0063    0.0029   -0.0007   -0.0087   -0.0088   -0.1486    0.0159
          17    0.0188    0.0154   -0.0040    0.0052    0.0086    0.0129    0.1485   -0.0152
          18   -0.0344   -0.0449    0.0028   -0.0124   -0.0000   -0.0087   -0.0227    0.0015
          19   -0.0170    0.0011   -0.0062   -0.0075   -0.0054    0.0188    0.0081    0.0893
          20   -0.0034   -0.0003    0.0072    0.0028   -0.0120    0.0141   -0.0096   -0.1259
          21    0.0216   -0.0012   -0.0060    0.0012    0.0304   -0.0458    0.0109    0.1590
          22    0.0105   -0.0021    0.0314    0.0122   -0.0344    0.0414    0.0189    0.0418
          23    0.0013    0.0038   -0.0097   -0.0090    0.0135   -0.0261    0.0056   -0.0120
          24   -0.0107   -0.0021   -0.0143   -0.0002    0.0123   -0.0041   -0.0208   -0.0177
          25    0.0107   -0.0043   -0.0208   -0.0019    0.0423   -0.0464   -0.0150   -0.1414
          26   -0.0074    0.0013    0.0015    0.0004   -0.0149    0.0175    0.0117    0.1340
          27    0.0028    0.0017    0.0194    0.0037   -0.0181    0.0177   -0.0073   -0.1118
          28   -0.0217    0.0252    0.0064    0.0117   -0.0528   -0.0695    0.0019   -0.0018
          29    0.0009   -0.0224    0.0208    0.0080    0.0093    0.0036   -0.0106    0.0025
          30   -0.0073    0.0368   -0.0396   -0.0348    0.0114    0.0224    0.0201   -0.0040
          31   -0.0659    0.0550    0.0741   -0.0654    0.0786    0.0720    0.0007    0.0042
          32    0.0323   -0.0543   -0.1773    0.0366   -0.1057    0.0064    0.0025   -0.0034
          33   -0.0006    0.0242    0.1230    0.0005    0.0472   -0.0393    0.0007   -0.0036
          34   -0.1006    0.0936    0.0782   -0.0841    0.0597    0.0404    0.0064    0.0195
          35   -0.0321    0.0424    0.0953   -0.0360    0.0664    0.0050    0.0001    0.0114
          36   -0.0094    0.0426    0.1969   -0.0100    0.0884   -0.0389   -0.0050   -0.0416
          37    0.0568   -0.0077    0.0179   -0.0278   -0.0146    0.0064   -0.0071    0.0009
          38   -0.1045    0.1502   -0.0323    0.1995    0.0380    0.0108   -0.0086    0.0001
          39   -0.0451   -0.0531   -0.0229   -0.0082    0.0240   -0.0107    0.0276   -0.0015
          40    0.1347   -0.1139    0.0490   -0.1623   -0.0494    0.0051   -0.0056    0.0000
          41   -0.0059    0.0094    0.0020   -0.0102   -0.0069   -0.0027   -0.0126   -0.0010
          42   -0.0072   -0.1173   -0.0125   -0.1090    0.0089   -0.0189    0.0408   -0.0018
          43    0.0356    0.0399   -0.0179    0.0189    0.0173    0.0180   -0.0648    0.0082
          44   -0.0417   -0.0382    0.0256   -0.0223   -0.0268   -0.0264    0.0001   -0.0005
          45    0.0154   -0.0031   -0.0233    0.0096    0.0329    0.0276    0.1416   -0.0154
          46    0.0709    0.0269   -0.0074    0.0176    0.0273    0.0457    0.0052   -0.0001
          47   -0.0490   -0.0223    0.0077   -0.0060   -0.0166   -0.0327   -0.0652    0.0079
          48   -0.0400   -0.0025   -0.0093   -0.0342   -0.0096   -0.0134    0.1410   -0.0178
          49   -0.0191    0.0012   -0.0058   -0.0058   -0.0136    0.0232    0.0095    0.1034
          50    0.0186   -0.0071   -0.0127   -0.0052    0.0501   -0.0308   -0.0037   -0.0249
          51   -0.0119    0.0087    0.0310    0.0207   -0.0885    0.0384   -0.0038   -0.0766
          52   -0.0541   -0.0031   -0.0053   -0.0009   -0.0332    0.0593    0.0018    0.0792
          53    0.0371    0.0011   -0.0114   -0.0025    0.0378   -0.0603    0.0019    0.0003
          54   -0.0106    0.0023    0.0252    0.0040   -0.0369    0.0416   -0.0064   -0.0965
          55   -0.0384    0.0358   -0.0419   -0.0385    0.0093   -0.0409   -0.0068    0.0380
          56    0.0035   -0.0013   -0.0058   -0.0068    0.0131   -0.0231    0.0107   -0.0076
          57    0.0258   -0.0353    0.0447    0.0392   -0.0227    0.0642   -0.0029   -0.0181


   Root No.      41        42        43        44        45        46        47        48

                41 A      42 A      43 A      44 A      45 A      46 A      47 A      48 A   

                1911.0    2861.2    2952.9    2972.3    3033.1    3045.7    3057.5    3073.0
  
           1    0.0006   -0.0218   -0.0011   -0.0002    0.0006   -0.0004    0.0002    0.0001
           2    0.0159   -0.0567   -0.0029   -0.0001   -0.0002    0.0003    0.0001   -0.0001
           3   -0.0175   -0.0306   -0.0015   -0.0001   -0.0000    0.0001   -0.0002   -0.0000
           4   -0.0013   -0.0006   -0.0034    0.0000    0.0231   -0.0001   -0.0017   -0.0013
           5   -0.0045    0.0048   -0.0548   -0.0001   -0.0148    0.0001    0.0017    0.0013
           6    0.0075    0.0012   -0.0177   -0.0000    0.0296   -0.0001   -0.0016   -0.0015
           7    0.0267   -0.0000    0.0001   -0.0350    0.0001    0.0271    0.0001    0.0000
           8   -0.0057    0.0002    0.0001   -0.0445   -0.0001   -0.0304   -0.0001    0.0000
           9   -0.0228    0.0000    0.0000   -0.0221    0.0000    0.0113    0.0001   -0.0002
          10   -0.1228    0.0002   -0.0003   -0.0003   -0.0003    0.0005   -0.0000   -0.0010
          11   -0.0850   -0.0010    0.0001   -0.0001    0.0001   -0.0002    0.0001   -0.0009
          12    0.2016    0.0008   -0.0001    0.0002    0.0000   -0.0003   -0.0001    0.0019
          13   -0.0186    0.0007   -0.0001   -0.0001    0.0001   -0.0001   -0.0000    0.0000
          14    0.0203   -0.0004   -0.0000   -0.0002   -0.0000   -0.0000   -0.0000   -0.0000
          15   -0.0040   -0.0008    0.0000   -0.0001   -0.0000    0.0003    0.0000    0.0000
          16    0.0206   -0.0006   -0.0000   -0.0003   -0.0000   -0.0005    0.0000   -0.0000
          17   -0.0165    0.0002   -0.0000    0.0001    0.0000   -0.0002    0.0000    0.0000
          18   -0.0041   -0.0001    0.0000    0.0000   -0.0000    0.0015    0.0000    0.0000
          19   -0.0106    0.0000   -0.0011    0.0000   -0.0053    0.0002   -0.0311   -0.0236
          20    0.0202   -0.0002    0.0007    0.0000    0.0018   -0.0001    0.0119    0.0103
          21   -0.0272    0.0001   -0.0003    0.0000    0.0017   -0.0001    0.0080    0.0036
          22    0.1164    0.0003   -0.0001    0.0002    0.0001   -0.0002    0.0020   -0.0088
          23    0.0618   -0.0000    0.0000   -0.0001   -0.0000    0.0001   -0.0049    0.0228
          24   -0.1621   -0.0005    0.0001   -0.0002   -0.0001    0.0001    0.0034   -0.0160
          25    0.0015   -0.0001    0.0002   -0.0001   -0.0000    0.0000    0.0121   -0.0058
          26   -0.0166    0.0002   -0.0003   -0.0000    0.0001   -0.0000    0.0077   -0.0072
          27    0.0286    0.0001   -0.0001   -0.0000   -0.0002    0.0001   -0.0287    0.0209
          28   -0.0105    0.2715    0.0175    0.0004    0.0014   -0.0002   -0.0003    0.0001
          29    0.0014    0.6947    0.0325    0.0012    0.0016   -0.0004   -0.0004    0.0003
          30    0.0075    0.3741    0.0178    0.0009    0.0015   -0.0003   -0.0003    0.0003
          31   -0.0009   -0.0109    0.1795    0.0004   -0.1286    0.0005    0.0057    0.0043
          32    0.0034   -0.0268    0.3132    0.0006   -0.2739    0.0011    0.0146    0.0108
          33   -0.0004   -0.0284    0.3314    0.0006   -0.2490    0.0010    0.0128    0.0094
          34    0.0100    0.0080   -0.1371   -0.0003   -0.1523    0.0006    0.0111    0.0080
          35   -0.0013   -0.0332    0.3443    0.0008    0.4495   -0.0018   -0.0366   -0.0260
          36    0.0024    0.0101   -0.1125   -0.0002   -0.1079    0.0004    0.0114    0.0080
          37    0.0047   -0.0020   -0.0009    0.4288   -0.0015   -0.3557   -0.0015    0.0009
          38   -0.0066   -0.0008   -0.0002    0.1096   -0.0005   -0.1259   -0.0005    0.0002
          39    0.0091   -0.0007   -0.0005    0.2331   -0.0008   -0.1962   -0.0008    0.0005
          40   -0.0147    0.0001    0.0000   -0.0029    0.0001    0.0323    0.0001    0.0001
          41   -0.0090   -0.0004   -0.0008    0.4265    0.0020    0.4880    0.0019   -0.0001
          42    0.0195   -0.0001   -0.0001    0.0358    0.0002    0.0597    0.0003   -0.0002
          43    0.0179   -0.0028   -0.0002    0.0012   -0.0001    0.0095   -0.0000    0.0005
          44   -0.0058    0.0003    0.0000   -0.0020    0.0000   -0.0044    0.0000   -0.0002
          45   -0.0239    0.0022    0.0001   -0.0022    0.0002   -0.0098    0.0001   -0.0007
          46   -0.0045   -0.0001   -0.0001   -0.0006    0.0005   -0.0033   -0.0001   -0.0002
          47    0.0154   -0.0024   -0.0001   -0.0005   -0.0004    0.0064    0.0002    0.0003
          48   -0.0264    0.0007   -0.0003   -0.0003    0.0004   -0.0082   -0.0002   -0.0004
          49   -0.0139   -0.0008    0.0122    0.0001    0.0595   -0.0025    0.3682    0.2623
          50   -0.0026    0.0003   -0.0070    0.0000   -0.0230    0.0009   -0.1384   -0.0999
          51    0.0203   -0.0000   -0.0022    0.0000   -0.0132    0.0006   -0.1003   -0.0687
          52   -0.0523   -0.0002   -0.0005    0.0001   -0.0001    0.0005   -0.1400    0.0875
          53    0.0188   -0.0000   -0.0005    0.0000    0.0007    0.0003   -0.0933    0.0632
          54    0.0197    0.0004   -0.0002   -0.0001   -0.0007   -0.0012    0.3420   -0.2232
          55   -0.0841   -0.0011   -0.0003   -0.0002    0.0000    0.0012   -0.0242    0.1185
          56    0.1071    0.0006    0.0006    0.0015   -0.0000   -0.0023    0.0562   -0.2615
          57   -0.0268   -0.0016   -0.0004   -0.0007   -0.0000    0.0009   -0.0377    0.1698


   Root No.      49        50        51

                49 A      50 A      51 A   

                3082.3    3120.9    3139.6
  
           1    0.0002   -0.0002   -0.0006
           2    0.0003    0.0001    0.0007
           3   -0.0003    0.0003    0.0004
           4   -0.0009    0.0000    0.0001
           5    0.0011   -0.0000   -0.0000
           6   -0.0011    0.0001   -0.0001
           7   -0.0000    0.0000    0.0011
           8   -0.0000   -0.0002   -0.0015
           9    0.0002   -0.0002    0.0006
          10    0.0019   -0.0002   -0.0004
          11    0.0009    0.0001   -0.0004
          12   -0.0025    0.0001    0.0013
          13   -0.0000    0.0096   -0.0159
          14   -0.0000   -0.0205    0.0278
          15    0.0000    0.0276   -0.0311
          16   -0.0000    0.0254    0.0264
          17   -0.0000   -0.0099   -0.0127
          18   -0.0000   -0.0311   -0.0268
          19   -0.0172   -0.0000   -0.0000
          20    0.0079    0.0000    0.0000
          21    0.0019   -0.0000    0.0000
          22    0.0113   -0.0000    0.0001
          23   -0.0273    0.0001    0.0002
          24    0.0189   -0.0001   -0.0002
          25   -0.0079   -0.0000    0.0000
          26   -0.0078   -0.0000   -0.0000
          27    0.0242    0.0000    0.0000
          28   -0.0002   -0.0002   -0.0009
          29   -0.0004   -0.0008   -0.0013
          30   -0.0005    0.0005   -0.0015
          31    0.0028   -0.0002    0.0002
          32    0.0072   -0.0003    0.0005
          33    0.0062   -0.0001    0.0003
          34    0.0056   -0.0001    0.0003
          35   -0.0182    0.0000   -0.0004
          36    0.0057    0.0001   -0.0000
          37   -0.0017   -0.0005   -0.0075
          38   -0.0004   -0.0004   -0.0028
          39   -0.0009   -0.0015   -0.0049
          40   -0.0001    0.0006    0.0010
          41    0.0008    0.0047    0.0137
          42    0.0003   -0.0012    0.0003
          43   -0.0004   -0.2958   -0.2518
          44    0.0002    0.1122    0.0967
          45    0.0005    0.3691    0.3115
          46    0.0000   -0.1161    0.1300
          47   -0.0001    0.2459   -0.2721
          48    0.0002   -0.3291    0.3615
          49    0.1804   -0.0001    0.0004
          50   -0.0691    0.0000   -0.0001
          51   -0.0470    0.0000   -0.0001
          52    0.1057    0.0001    0.0000
          53    0.0706    0.0001    0.0000
          54   -0.2592   -0.0001   -0.0001
          55   -0.1416    0.0002    0.0004
          56    0.3073   -0.0004   -0.0008
          57   -0.1974    0.0003    0.0005


           MASS-WEIGHTED COORDINATE ANALYSIS (NORMAL COORDINATES)


   Root No.       1         2         3         4         5         6         7         8

                 1 A       2 A       3 A       4 A       5 A       6 A       7 A       8 A   

                 126.4     186.9     261.9     362.0     420.2     445.0     499.2     535.0
  
           1    0.0702   -0.1163   -0.1539   -0.0277   -0.0881    0.0705    0.2346   -0.1879
           2    0.0682   -0.1589   -0.2198    0.2855    0.0667    0.1389   -0.0057   -0.1003
           3   -0.0131   -0.1106   -0.2112   -0.2122   -0.1546    0.1085   -0.0312    0.0795
           4    0.0704   -0.1092   -0.1511   -0.0597   -0.1451    0.0369    0.1956   -0.3450
           5    0.3923   -0.0827    0.2746   -0.0688    0.0501    0.0131   -0.1608    0.0206
           6    0.1600    0.0227    0.1142    0.0861    0.0227    0.0250    0.3362    0.0855
           7    0.1978    0.1873   -0.0479   -0.2212   -0.0363    0.0086    0.1103    0.3127
           8    0.2349    0.1925   -0.1187   -0.0871    0.0631   -0.0463    0.0409   -0.1723
           9    0.1760    0.1064   -0.0424    0.1120    0.1266    0.0190   -0.1765   -0.0661
          10    0.0684   -0.1105   -0.1250   -0.0178   -0.2346    0.1208    0.0360    0.3768
          11    0.1170   -0.1684   -0.1433    0.4368   -0.0328    0.1421   -0.0403    0.1106
          12    0.0599   -0.1218   -0.1448    0.0151   -0.2133    0.0721   -0.0675   -0.0027
          13   -0.1753   -0.0545    0.0201    0.1464    0.3637   -0.1788    0.1446    0.1093
          14   -0.2807   -0.1308   -0.1411   -0.0631    0.2025   -0.1796   -0.0150   -0.0298
          15   -0.1213   -0.0823   -0.1345   -0.1565    0.0085    0.0067   -0.1607    0.2434
          16   -0.1090    0.2103    0.3551    0.1359   -0.0558    0.0771    0.1597    0.0255
          17   -0.2107    0.1499    0.2124   -0.0854   -0.2684    0.0953   -0.0001   -0.1505
          18   -0.0332    0.0797    0.1029    0.1204   -0.0201    0.1012   -0.2380   -0.0002
          19   -0.0215    0.1181   -0.0748    0.0964   -0.0291   -0.1265   -0.3334   -0.3332
          20   -0.0454    0.3649   -0.1068    0.0057   -0.2352   -0.2555   -0.0509    0.1426
          21   -0.0092    0.2457    0.0449    0.2131    0.0418   -0.1301    0.1921    0.1129
          22   -0.0099   -0.2050    0.1170    0.0131   -0.0261   -0.1395   -0.2603    0.0787
          23   -0.0624   -0.2897    0.1570    0.0299   -0.0588   -0.1726    0.2389    0.1242
          24   -0.0783   -0.2390    0.1432   -0.1747   -0.1245   -0.2577   -0.0599   -0.2150
          25   -0.1087    0.0218    0.0396   -0.0220    0.1809    0.1912   -0.3143    0.0117
          26   -0.2637    0.0589    0.0103   -0.2935    0.1152    0.3173    0.0483    0.0730
          27   -0.1466    0.0390    0.0612    0.0267    0.1971    0.1303    0.2387   -0.2465
          28    0.0960   -0.0223    0.0246   -0.0409   -0.0467    0.0228    0.1119   -0.1373
          29    0.0233   -0.0473   -0.0812    0.1450   -0.0008    0.0731   -0.0009   -0.0011
          30   -0.0652   -0.0349   -0.0686   -0.1565    0.0088   -0.0372   -0.0448    0.0345
          31   -0.0442   -0.0658   -0.1773    0.0067   -0.0832    0.0514    0.1002   -0.1569
          32    0.2365   -0.0992    0.2431   -0.1109    0.1059    0.0844   -0.1077    0.0259
          33   -0.0366    0.0967   -0.0487    0.0976   -0.0543   -0.0896    0.1300    0.0394
          34    0.0806   -0.0318    0.0473   -0.1168   -0.0497    0.0087    0.0338   -0.0492
          35    0.1769   -0.0520    0.1699   -0.0758    0.0535    0.0339   -0.0755    0.0248
          36    0.1778   -0.0837    0.2114   -0.0298    0.1419    0.1048    0.0379    0.0214
          37    0.0394   -0.0057   -0.0338   -0.0252   -0.0743    0.0276    0.0217    0.1520
          38    0.2149    0.1623   -0.1468   -0.2143    0.2418   -0.1498    0.0621   -0.1170
          39    0.0119    0.0898    0.0778    0.0500    0.0522    0.0221   -0.0560   -0.1004
          40    0.1662    0.1808   -0.0793   -0.2706    0.1705   -0.1158    0.0841    0.0069
          41    0.0566    0.0542   -0.0246   -0.0242    0.0043   -0.0074    0.0125   -0.0524
          42    0.1607    0.0358   -0.1184    0.0181    0.1907   -0.0647   -0.0466    0.0012
          43   -0.0754    0.1152    0.2317    0.0940   -0.0624    0.0482    0.0484   -0.0509
          44   -0.1256    0.0903    0.1779   -0.0440   -0.1829    0.0692   -0.0013   -0.0239
          45   -0.0247    0.0525    0.0975    0.0844   -0.0107    0.0373   -0.0678   -0.0543
          46   -0.1148   -0.0476    0.0120    0.1051    0.2768   -0.1551    0.0266    0.1058
          47   -0.1645   -0.0816   -0.0614   -0.0525    0.1706   -0.1619    0.0043    0.0593
          48   -0.0747   -0.0452   -0.0564   -0.0936    0.0256   -0.0438   -0.0343    0.0945
          49   -0.0224    0.1155   -0.0586    0.0576   -0.0366   -0.0834   -0.1534   -0.0796
          50   -0.0521    0.2568   -0.1200    0.0483   -0.1409   -0.1659   -0.0786    0.0328
          51   -0.0052    0.1595    0.0059    0.1060    0.0129   -0.0828   -0.0706    0.1086
          52   -0.0741    0.0579    0.0014   -0.0060    0.1408    0.1849   -0.0727    0.0684
          53   -0.1682    0.0628   -0.0256   -0.1812    0.1276    0.2742   -0.0584   -0.0273
          54   -0.0848    0.0445    0.0065   -0.0195    0.1184    0.1396    0.0564   -0.0574
          55    0.0097   -0.0960    0.1039    0.0464    0.0080   -0.1975   -0.1064   -0.0270
          56   -0.0234   -0.1247    0.1295   -0.0432   -0.0418   -0.2309    0.0521    0.0168
          57   -0.0390   -0.1072    0.1225   -0.1597   -0.0858   -0.2446   -0.0190   -0.0563


   Root No.       9        10        11        12        13        14        15        16

                 9 A      10 A      11 A      12 A      13 A      14 A      15 A      16 A   

                 642.7     741.4     765.2     777.3     799.3     860.6     878.2     927.4
  
           1   -0.0471    0.0218   -0.0867    0.0199   -0.0910   -0.0200    0.0652   -0.0203
           2   -0.3047    0.0721    0.0586    0.1895    0.0875    0.2757    0.0882   -0.0480
           3   -0.1644    0.0433    0.1229    0.2152    0.0459   -0.1263   -0.0561    0.0244
           4   -0.0392   -0.0495   -0.1941   -0.0490   -0.0322   -0.1782   -0.0710    0.0111
           5   -0.0646   -0.0733    0.1554    0.0591   -0.0371    0.3240   -0.0634    0.1215
           6   -0.0982   -0.0731   -0.0896    0.0076   -0.2356   -0.0528    0.0200    0.0147
           7   -0.0446    0.1046   -0.0866   -0.1850    0.1640    0.3092   -0.1318    0.1192
           8    0.1728    0.0983    0.1850    0.0402   -0.1947   -0.1609   -0.2807    0.1690
           9   -0.0709   -0.0156   -0.1812   -0.1956   -0.1114   -0.0556   -0.0813    0.0704
          10    0.2124   -0.0664   -0.1118   -0.0957    0.0144    0.0682    0.0780   -0.1102
          11    0.1821   -0.0141    0.0086    0.0787    0.0523   -0.1629   -0.0702   -0.0841
          12    0.4504   -0.0672    0.1114    0.0312   -0.1399    0.1154    0.0755   -0.1229
          13    0.1034    0.1635    0.2295    0.0177   -0.0807   -0.0170    0.0961   -0.1707
          14    0.0774    0.0686   -0.1418   -0.3037   -0.1110    0.0571    0.1968   -0.2078
          15   -0.1526    0.0774    0.1758    0.1659    0.2457   -0.1486   -0.1303   -0.0140
          16   -0.0063    0.1556    0.3179    0.1631   -0.0002   -0.0706    0.0020    0.0533
          17    0.0024    0.0547   -0.0387   -0.1503   -0.0374    0.0151    0.0930    0.0349
          18   -0.2099   -0.0440   -0.2715   -0.2514    0.0079    0.0862    0.1022   -0.0037
          19    0.0891   -0.0352    0.0877   -0.1349    0.3651    0.0569   -0.1736   -0.0687
          20   -0.0274   -0.1291    0.0996   -0.0953   -0.0765   -0.0836   -0.0453   -0.1345
          21   -0.0228   -0.0117    0.0265   -0.0506   -0.0354   -0.0312   -0.0051   -0.0678
          22   -0.1218   -0.0759    0.0434    0.0627   -0.1507   -0.0858    0.2113    0.1579
          23   -0.1600    0.0301   -0.1313   -0.0501    0.3219   -0.1913    0.1230    0.2265
          24    0.1770   -0.0219    0.1900    0.0670   -0.0975    0.1616    0.2660    0.1537
          25   -0.1271   -0.1471    0.0815   -0.0364   -0.1615   -0.1179    0.0086   -0.0117
          26   -0.0427   -0.1464    0.0947   -0.1015   -0.0756   -0.0806   -0.0005   -0.0322
          27    0.1364    0.0578    0.0722   -0.1235    0.3915    0.1386   -0.1253   -0.0028
          28   -0.0613   -0.0428   -0.0935    0.0356   -0.1265    0.0404   -0.0203    0.1455
          29   -0.0276   -0.0076    0.0305    0.0772    0.0538    0.1274    0.0567   -0.0593
          30   -0.1176    0.0987    0.0563   -0.0038    0.0356   -0.1693   -0.0515   -0.0195
          31   -0.1739   -0.0214   -0.0403    0.1265   -0.0680    0.1084   -0.0233    0.1398
          32    0.1695    0.1145   -0.0715   -0.0086    0.1168   -0.1193    0.0402   -0.0577
          33   -0.1137   -0.1403    0.0725   -0.0486   -0.1553    0.0940   -0.0451    0.0152
          34    0.1170    0.0071   -0.1269   -0.0859   -0.0042   -0.3212   -0.0275   -0.0590
          35    0.0885    0.0367   -0.0202   -0.0159    0.0413   -0.0556    0.0029   -0.0220
          36    0.1463    0.1338   -0.1478   -0.0118    0.0789   -0.1624    0.0819   -0.0959
          37    0.0769    0.0410   -0.0491   -0.0880    0.0325    0.1652   -0.1343   -0.0228
          38   -0.0192   -0.1659    0.0309    0.2102    0.0597   -0.0908    0.2238   -0.1671
          39   -0.1552    0.0608   -0.0019   -0.0852   -0.0554   -0.1303    0.0200    0.2223
          40   -0.1226   -0.1181   -0.0526    0.0682    0.1713    0.1440    0.3045   -0.0856
          41    0.0502    0.0394    0.0586    0.0016   -0.0608   -0.0391   -0.0865    0.0676
          42   -0.0080   -0.1386   -0.0889    0.0927    0.0202   -0.1366    0.0330   -0.1979
          43    0.0583   -0.2869   -0.0754    0.3171    0.0402   -0.0383   -0.0112   -0.1653
          44    0.0228   -0.3259   -0.1795    0.2745    0.1948    0.0494   -0.0276   -0.1575
          45   -0.0200   -0.1759   -0.1640    0.0453   -0.0286   -0.0066    0.0362   -0.0948
          46    0.1505   -0.2388   -0.1327    0.0959   -0.0296    0.1579   -0.1555    0.2684
          47    0.1979   -0.2796   -0.2079    0.0570   -0.0195    0.0070   -0.2260    0.3181
          48    0.0439   -0.0999   -0.0023    0.1258    0.0826   -0.1117   -0.1864    0.1671
          49    0.0876    0.1716   -0.1189    0.1124    0.1236    0.0067    0.0769    0.1029
          50    0.1346    0.3275   -0.2819    0.2484    0.0572   -0.0661    0.2142    0.1902
          51    0.0282    0.1621   -0.0882    0.1626   -0.0580    0.0220    0.1588    0.1142
          52   -0.0424    0.1158   -0.1657    0.1374   -0.1643   -0.0304   -0.0334   -0.0020
          53    0.1066    0.2291   -0.1878    0.2388   -0.1787    0.1818   -0.0346   -0.0145
          54    0.0710    0.1559   -0.1136    0.0980    0.0230    0.1013   -0.0597   -0.0016
          55   -0.1548    0.1260   -0.1149    0.1011   -0.0690   -0.0420   -0.2688   -0.1837
          56   -0.1549    0.1668   -0.1725    0.0676   -0.0207    0.0305   -0.3045   -0.2540
          57   -0.0308    0.1338   -0.0624    0.0876   -0.1888    0.1981   -0.2134   -0.2893


   Root No.      17        18        19        20        21        22        23        24

                17 A      18 A      19 A      20 A      21 A      22 A      23 A      24 A   

                 952.1     969.2    1005.2    1025.5    1038.3    1048.1    1049.9    1071.8
  
           1   -0.0506    0.0426   -0.0130    0.0487    0.1478   -0.0372   -0.0412    0.0184
           2   -0.2580   -0.0205    0.2012    0.0406    0.0143   -0.0248   -0.0172    0.1688
           3   -0.0513    0.0706    0.0555    0.1536   -0.0098    0.0307   -0.0646    0.0309
           4    0.0240   -0.0996    0.0467   -0.0743   -0.1201    0.0463    0.1135    0.0234
           5    0.2759    0.1154   -0.2232    0.0191    0.0118    0.1137    0.0552    0.0025
           6   -0.0139   -0.1038    0.0663   -0.2264   -0.1858    0.1872   -0.1505    0.0128
           7   -0.0668    0.1094    0.1352   -0.1425    0.0918   -0.0540    0.0511    0.1198
           8   -0.0711    0.1797    0.1722   -0.0528   -0.0680    0.0593    0.0874   -0.1773
           9    0.0216    0.0958   -0.0160   -0.1380    0.1724   -0.0701   -0.0578    0.1006
          10    0.0497   -0.0243   -0.1181    0.1589    0.1022    0.1201   -0.1276   -0.0381
          11    0.0975   -0.0873   -0.1040    0.0778    0.0141    0.0810   -0.0026    0.0386
          12   -0.0068   -0.0616   -0.1120    0.1178    0.0872    0.0594   -0.0168   -0.0076
          13    0.0550    0.1119    0.0265   -0.1229    0.0564    0.0359    0.0761   -0.0929
          14    0.0977    0.1446   -0.0162   -0.1302    0.1164    0.0100    0.0326   -0.0482
          15    0.0519   -0.1542   -0.0260   -0.2417   -0.0621    0.0026    0.1744   -0.2169
          16    0.0046   -0.1742   -0.1469    0.0771   -0.1175   -0.0955   -0.1242    0.1085
          17    0.0221   -0.1915   -0.1859    0.0955   -0.1267   -0.1178   -0.0964    0.1106
          18   -0.0162   -0.0704    0.0019    0.1451   -0.2938    0.0152    0.1142   -0.1683
          19    0.1010   -0.1074    0.1076   -0.0622   -0.0477    0.0708   -0.2931   -0.1299
[...]
 FORCE CONSTANT      0.6685

 VIBRATION         34   34A           ATOM PAIR      ENERGY CONTRIBUTION    RADIAL
 FREQUENCY          1368.45         C  3 -- C  6         +14.6% ( 54.2%)     92.5%
 TRANSITION DIPOLE   0.0254         C  1 -- C  4         +13.5% ( 52.2%)     96.2%
 TRAVEL (Ang.)       0.1958         C  3 -- C  4         +12.0% ( 49.2%)     91.8%
 REDUCED MASS        1.2855         C  3 -- H 14         +10.5% ( 46.1%)      1.6%
 EFFECTIVE MASS      8.3812         C  3 -- H 13         +10.3% ( 45.6%)      1.8%
 FORCE CONSTANT      1.4184

 VIBRATION         35   35A           ATOM PAIR      ENERGY CONTRIBUTION    RADIAL
 FREQUENCY          1381.79         C  2 -- H 12         +16.9% ( 51.0%)      4.3%
 TRANSITION DIPOLE   0.1440         C  2 -- H 11         +16.5% ( 50.4%)      4.3%
 TRAVEL (Ang.)       0.3129         C  8 -- C  9          +9.4% ( 38.0%)     88.6%
 REDUCED MASS        0.4985         C  1 -- C  2          +9.3% ( 37.9%)      0.4%
 EFFECTIVE MASS      5.2577
 FORCE CONSTANT      0.5607

 VIBRATION         36   36A           ATOM PAIR      ENERGY CONTRIBUTION    RADIAL
 FREQUENCY          1394.87         C  3 -- C  4         +16.4% ( 54.6%)     44.6%
 TRANSITION DIPOLE   0.0968         C  3 -- H 13         +15.0% ( 52.2%)      6.6%
 TRAVEL (Ang.)       0.2226         C  3 -- H 14         +14.2% ( 50.7%)      8.5%
 REDUCED MASS        0.9754         C  1 -- C  4         +11.0% ( 44.7%)     98.5%
 EFFECTIVE MASS      6.8944
 FORCE CONSTANT      1.1181

 VIBRATION         37   37A           ATOM PAIR      ENERGY CONTRIBUTION    RADIAL
 FREQUENCY          1411.74         C  8 -- C  9         +12.1% ( 50.9%)     99.0%
 TRANSITION DIPOLE   0.1054         C  1 -- C  2          +9.6% ( 45.3%)     88.6%
 TRAVEL (Ang.)       0.2326         C  1 -- C  4          +8.7% ( 43.1%)     15.8%
 REDUCED MASS        0.8831         C  1 -- C  5          +6.7% ( 37.9%)     66.7%
 EFFECTIVE MASS      8.5780
 FORCE CONSTANT      1.0370

 VIBRATION         38   38A           ATOM PAIR      ENERGY CONTRIBUTION    RADIAL
 FREQUENCY          1444.62         C  1 -- C  2         +15.4% ( 61.5%)     76.3%
 TRANSITION DIPOLE   0.1520         C  2 -- C  7         +10.7% ( 51.2%)     88.6%
 TRAVEL (Ang.)       0.1646         C  1 -- C  4         +10.3% ( 50.2%)     51.1%
 REDUCED MASS        1.7222         C  1 -- C  5          +9.8% ( 48.9%)     71.9%
 EFFECTIVE MASS     10.6374
 FORCE CONSTANT      2.1176

 VIBRATION         39   39A           ATOM PAIR      ENERGY CONTRIBUTION    RADIAL
 FREQUENCY          1810.84         C  5 -- C  6         +44.8% ( 99.2%)    100.0%
 TRANSITION DIPOLE   0.0892         C  3 -- C  6         +13.6% ( 54.8%)     22.1%
 TRAVEL (Ang.)       0.0851         C  1 -- C  5         +13.5% ( 54.5%)     21.9%
 REDUCED MASS        5.1417         C  6 -- H 15         +12.7% ( 52.8%)     10.2%
 EFFECTIVE MASS     11.8897         C  5 -- H 16         +12.5% ( 52.5%)     10.6%
 FORCE CONSTANT      9.9339

 VIBRATION         40   40A           ATOM PAIR      ENERGY CONTRIBUTION    RADIAL
 FREQUENCY          1835.92         C  7 -- C  9         +43.0% ( 96.9%)    100.0%
 TRANSITION DIPOLE   0.2492         C  8 -- C  9         +14.6% ( 56.5%)     58.3%
 TRAVEL (Ang.)       0.0844         C  2 -- C  7         +13.7% ( 54.7%)     48.3%
 REDUCED MASS        5.1514         C  9 -- H 18         +12.9% ( 53.1%)      4.7%
 EFFECTIVE MASS     11.8783         C  7 -- H 17         +12.6% ( 52.5%)      5.3%
 FORCE CONSTANT     10.2301

 VIBRATION         41   41A           ATOM PAIR      ENERGY CONTRIBUTION    RADIAL
 FREQUENCY          1911.04         C  4 -- C  8         +42.2% ( 96.3%)     99.3%
 TRANSITION DIPOLE   0.3547         C  3 -- C  4         +17.2% ( 61.5%)     52.2%
 TRAVEL (Ang.)       0.0810         C  1 -- C  4         +16.7% ( 60.6%)     27.5%
 REDUCED MASS        5.3762         C  8 -- C  9         +10.4% ( 47.8%)     26.9%
 EFFECTIVE MASS     11.9003
 FORCE CONSTANT     11.5681

 VIBRATION         42   42A           ATOM PAIR      ENERGY CONTRIBUTION    RADIAL
 FREQUENCY          2861.19         C  1 -- H 10         +96.6% ( 99.8%)    100.0%
 TRANSITION DIPOLE   0.0957         C  1 -- C  2          +1.0% ( 10.1%)      8.6%
 TRAVEL (Ang.)       0.1599         C  1 -- C  4          +1.0% ( 10.0%)      9.4%
 REDUCED MASS        0.9220         C  1 -- C  5          +1.0% ( 10.0%)      9.2%
 EFFECTIVE MASS      1.4328
 FORCE CONSTANT      4.4471

 VIBRATION         43   43A           ATOM PAIR      ENERGY CONTRIBUTION    RADIAL
 FREQUENCY          2952.92         C  2 -- H 11         +59.0% ( 79.6%)     97.5%
 TRANSITION DIPOLE   0.0531         C  2 -- H 12         +38.4% ( 64.2%)     95.2%
 TRAVEL (Ang.)       0.2067         C  2 -- C  7          +1.1% ( 11.0%)      0.0%
 REDUCED MASS        0.5346         C  1 -- C  2          +1.1% ( 10.9%)      0.2%
 EFFECTIVE MASS      1.5359
 FORCE CONSTANT      2.7464

 VIBRATION         44   44A           ATOM PAIR      ENERGY CONTRIBUTION    RADIAL
 FREQUENCY          2972.30         C  3 -- H 13         +55.9% ( 77.5%)     97.4%
 TRANSITION DIPOLE   0.0639         C  3 -- H 14         +42.0% ( 67.1%)     95.9%
 TRAVEL (Ang.)       0.2074         C  3 -- C  6          +1.1% ( 10.8%)      0.1%
 REDUCED MASS        0.5272         C  3 -- C  4          +1.1% ( 10.8%)      0.1%
 EFFECTIVE MASS      1.5340
 FORCE CONSTANT      2.7444

 VIBRATION         45   45A           ATOM PAIR      ENERGY CONTRIBUTION    RADIAL
 FREQUENCY          3033.12         C  2 -- H 12         +59.8% ( 76.3%)     98.7%
 TRANSITION DIPOLE   0.0811         C  2 -- H 11         +37.7% ( 60.6%)     95.9%
 TRAVEL (Ang.)       0.2122         C  7 -- H 17          +1.2% ( 10.7%)    100.0%
 REDUCED MASS        0.4939         C  2 -- C  7          +0.7% (  8.0%)     19.9%
 EFFECTIVE MASS      1.2833
 FORCE CONSTANT      2.6771

 VIBRATION         46   46A           ATOM PAIR      ENERGY CONTRIBUTION    RADIAL
 FREQUENCY          3045.67         C  3 -- H 14         +56.8% ( 74.5%)     98.3%
 TRANSITION DIPOLE   0.1362         C  3 -- H 13         +41.6% ( 63.7%)     96.3%
 TRAVEL (Ang.)       0.2119         C  3 -- C  4          +0.7% (  8.4%)     38.0%
 REDUCED MASS        0.4933         C  3 -- C  6          +0.7% (  8.4%)     34.0%
 EFFECTIVE MASS      1.2871
 FORCE CONSTANT      2.6958

 VIBRATION         47   47A           ATOM PAIR      ENERGY CONTRIBUTION    RADIAL
 FREQUENCY          3057.54         C  7 -- H 17         +50.6% ( 72.2%)    100.0%
 TRANSITION DIPOLE   0.2672         C  9 -- H 18         +44.7% ( 67.9%)    100.0%
 TRAVEL (Ang.)       0.2223         C  8 -- H 19          +1.6% ( 12.9%)     99.9%
 REDUCED MASS        0.4463         C  7 -- C  9          +1.1% ( 10.6%)      0.1%
 EFFECTIVE MASS      1.4639
 FORCE CONSTANT      2.4580

 VIBRATION         48   48A           ATOM PAIR      ENERGY CONTRIBUTION    RADIAL
 FREQUENCY          3073.04         C  8 -- H 19         +41.8% ( 65.7%)    100.0%
 TRANSITION DIPOLE   0.2909         C  7 -- H 17         +31.3% ( 56.8%)     99.9%
 TRAVEL (Ang.)       0.2599         C  9 -- H 18         +23.2% ( 48.9%)     99.8%
 REDUCED MASS        0.3248         C  7 -- C  9          +1.1% ( 10.8%)     99.1%
 EFFECTIVE MASS      1.5497
 FORCE CONSTANT      1.8071

 VIBRATION         49   49A           ATOM PAIR      ENERGY CONTRIBUTION    RADIAL
 FREQUENCY          3082.27         C  8 -- H 19         +53.5% ( 74.2%)    100.0%
 TRANSITION DIPOLE   0.4025         C  9 -- H 18         +29.0% ( 54.7%)    100.0%
 TRAVEL (Ang.)       0.2374         C  7 -- H 17         +13.8% ( 37.7%)     99.8%
 REDUCED MASS        0.3881         C  8 -- C  9          +1.4% ( 11.8%)     86.2%
 EFFECTIVE MASS      1.5767
 FORCE CONSTANT      2.1725

 VIBRATION         50   50A           ATOM PAIR      ENERGY CONTRIBUTION    RADIAL
 FREQUENCY          3120.88         C  6 -- H 15         +55.0% ( 75.3%)    100.0%
 TRANSITION DIPOLE   0.3786         C  5 -- H 16         +42.4% ( 66.1%)    100.0%
 TRAVEL (Ang.)       0.2138         C  5 -- C  6          +1.1% ( 10.8%)      0.4%
 REDUCED MASS        0.4728         C  3 -- C  6          +0.8% (  9.3%)     26.3%
 EFFECTIVE MASS      1.4652
 FORCE CONSTANT      2.7132

 VIBRATION         51   51A           ATOM PAIR      ENERGY CONTRIBUTION    RADIAL
 FREQUENCY          3139.58         C  5 -- H 16         +54.1% ( 74.9%)     99.9%
 TRANSITION DIPOLE   0.3673         C  6 -- H 15         +41.5% ( 65.6%)     99.9%
 TRAVEL (Ang.)       0.2127         C  5 -- C  6          +2.5% ( 16.0%)     99.6%
 REDUCED MASS        0.4749         C  1 -- C  5          +1.0% ( 10.4%)     19.6%
 EFFECTIVE MASS      1.6498
 FORCE CONSTANT      2.7577

      SYMMETRY NUMBER FOR POINT-GROUP C1  =  1


          SYSTEM IS A GROUND STATE



 InChI=1S/C9H10/c1-2-5-9-7-3-6-8(9)4-1/h1-4,7,9H,5-6H2


          MOLECULE IS NOT LINEAR

          THERE ARE 51 GENUINE VIBRATIONS IN THIS SYSTEM
          THIS THERMODYNAMICS CALCULATION IS LIMITED TO
          MOLECULES WHICH HAVE NO INTERNAL ROTATIONS




                    CALCULATED THERMODYNAMIC PROPERTIES
                                          *
   TEMP. (K)   PARTITION FUNCTION   H.O.F.    ENTHALPY  HEAT CAPACITY ENTROPY
                                   KCAL/MOL   CAL/MOLE    CAL/K/MOL  CAL/K/MOL


 298.00  VIB.     0.1278D+02                  2636.9106    23.0014    13.9116
         ROT.     0.3529D+06                   888.2803     2.9808    28.3654
         INT.     0.4510D+07                  3525.1909    25.9823    42.2770
         TRA.     0.1242D+28                  1480.4672     4.9680    40.2136
         TOT.                       39.894    5005.6581    30.9503    82.4907

 200.00  VIB.     0.3451D+01                   927.4463    12.1960     7.0988
         ROT.     0.1940D+06                   596.1613     2.9808    27.1767
         INT.     0.6697D+06                  1523.6075    15.1768    34.2755
         TRA.     0.6829D+27                   993.6021     4.9680    38.2325
         TOT.                       37.405    2517.2097    20.1448    72.5080

 210.00  VIB.     0.3885D+01                  1054.3642    13.1932     7.7178
         ROT.     0.2088D+06                   625.9693     2.9808    27.3222
         INT.     0.8112D+06                  1680.3336    16.1740    35.0400
         TRA.     0.7347D+27                  1043.2822     4.9680    38.4749
         TOT.                       37.612    2723.6158    21.1421    73.5149

 220.00  VIB.     0.4390D+01                  1191.4193    14.2230     8.3552
         ROT.     0.2239D+06                   655.7774     2.9808    27.4608
         INT.     0.9828D+06                  1847.1967    17.2038    35.8161
         TRA.     0.7878D+27                  1092.9623     4.9680    38.7060
         TOT.                       37.828    2940.1591    22.1718    74.5221

 230.00  VIB.     0.4978D+01                  1338.9230    15.2824     9.0107
         ROT.     0.2393D+06                   685.5855     2.9808    27.5933
         INT.     0.1191D+07                  2024.5084    18.2632    36.6041
         TRA.     0.8422D+27                  1142.6424     4.9680    38.9268
         TOT.                       38.055    3167.1509    23.2313    75.5309

 240.00  VIB.     0.5663D+01                  1497.1564    16.3684     9.6840
         ROT.     0.2551D+06                   715.3935     2.9808    27.7202
         INT.     0.1445D+07                  2212.5500    19.3492    37.4042
         TRA.     0.8977D+27                  1192.3226     4.9680    39.1383
         TOT.                       38.293    3404.8725    24.3172    76.5425

 250.00  VIB.     0.6466D+01                  1666.3672    17.4773    10.3746
         ROT.     0.2712D+06                   745.2016     2.9808    27.8419
         INT.     0.1753D+07                  2411.5688    20.4581    38.2165
         TRA.     0.9544D+27                  1242.0027     4.9680    39.3411
         TOT.                       38.542    3653.5714    25.4261    77.5576

 260.00  VIB.     0.7406D+01                  1846.7661    18.6054    11.0820
         ROT.     0.2876D+06                   775.0097     2.9808    27.9588
         INT.     0.2130D+07                  2621.7758    21.5862    39.0408
         TRA.     0.1012D+28                  1291.6828     4.9680    39.5359
         TOT.                       38.802    3913.4586    26.5542    78.5767

 270.00  VIB.     0.8512D+01                  2038.5265    19.7489    11.8056
         ROT.     0.3044D+06                   804.8177     2.9808    28.0713
         INT.     0.2591D+07                  2843.3443    22.7298    39.8769
         TRA.     0.1071D+28                  1341.3629     4.9680    39.7234
         TOT.                       39.073    4184.7071    27.6978    79.6003

 280.00  VIB.     0.9813D+01                  2241.7839    20.9042    12.5447
         ROT.     0.3214D+06                   834.6258     2.9808    28.1797
         INT.     0.3154D+07                  3076.4097    23.8850    40.7243
         TRA.     0.1131D+28                  1391.0430     4.9680    39.9041
         TOT.                       39.356    4467.4527    28.8530    80.6284

 290.00  VIB.     0.1135D+02                  2456.6366    22.0674    13.2985
         ROT.     0.3388D+06                   864.4339     2.9808    28.2843
         INT.     0.3845D+07                  3321.0704    25.0482    41.5828
         TRA.     0.1192D+28                  1440.7231     4.9680    40.0784
         TOT.                       39.650    4761.7935    30.0162    81.6612

 300.00  VIB.     0.1317D+02                  2683.1472    23.2352    14.0663
         ROT.     0.3565D+06                   894.2419     2.9808    28.3853
         INT.     0.4694D+07                  3577.3892    26.2160    42.4516
         TRA.     0.1255D+28                  1490.4032     4.9680    40.2469
         TOT.                       39.956    5067.7924    31.1840    82.6985

 310.00  VIB.     0.1532D+02                  2921.3450    24.4043    14.8472
         ROT.     0.3745D+06                   924.0500     2.9808    28.4831
         INT.     0.5737D+07                  3845.3950    27.3851    43.3303
         TRA.     0.1318D+28                  1540.0833     4.9680    40.4098
         TOT.                       40.274    5385.4783    32.3531    83.7401

 320.00  VIB.     0.1788D+02                  3171.2277    25.5717    15.6405
         ROT.     0.3927D+06                   953.8580     2.9808    28.5777
         INT.     0.7022D+07                  4125.0858    28.5525    44.2182
         TRA.     0.1382D+28                  1589.7634     4.9680    40.5675
         TOT.                       40.603    5714.8492    33.5205    84.7857

 330.00  VIB.     0.2092D+02                  3432.7643    26.7347    16.4452
         ROT.     0.4113D+06                   983.6661     2.9808    28.6694
         INT.     0.8605D+07                  4416.4304    29.7155    45.1146
         TRA.     0.1447D+28                  1639.4435     4.9680    40.7204
         TOT.                       40.944    6055.8739    34.6835    85.8350

 340.00  VIB.     0.2455D+02                  3705.8978    27.8907    17.2605
         ROT.     0.4301D+06                  1013.4742     2.9808    28.7584
         INT.     0.1056D+08                  4719.3719    30.8715    46.0189
         TRA.     0.1514D+28                  1689.1236     4.9680    40.8687
         TOT.                       41.297    6408.4956    35.8395    86.8876

 350.00  VIB.     0.2889D+02                  3990.5478    29.0376    18.0855
         ROT.     0.4492D+06                  1043.2822     2.9808    28.8448
         INT.     0.1298D+08                  5033.8301    32.0184    46.9303
         TRA.     0.1581D+28                  1738.8037     4.9680    41.0127
         TOT.                       41.661    6772.6338    36.9864    87.9430

 360.00  VIB.     0.3408D+02                  4286.6136    30.1735    18.9195
         ROT.     0.4686D+06                  1073.0903     2.9808    28.9288
         INT.     0.1597D+08                  5359.7039    33.1543    47.8483
         TRA.     0.1649D+28                  1788.4838     4.9680    41.1526
         TOT.                       42.036    7148.1878    38.1224    89.0009

 370.00  VIB.     0.4030D+02                  4593.9763    31.2968    19.7615
         ROT.     0.4883D+06                  1102.8984     2.9808    29.0105
         INT.     0.1968D+08                  5696.8747    34.2776    48.7720
         TRA.     0.1718D+28                  1838.1639     4.9680    41.2888
         TOT.                       42.423    7535.0386    39.2456    90.0608

 380.00  VIB.     0.4777D+02                  4912.5016    32.4058    20.6109
         ROT.     0.5082D+06                  1132.7064     2.9808    29.0900
         INT.     0.2428D+08                  6045.2080    35.3867    49.7009
         TRA.     0.1788D+28                  1887.8440     4.9680    41.4213
         TOT.                       42.821    7933.0521    40.3547    91.1222

 390.00  VIB.     0.5675D+02                  5242.0422    33.4996    21.4669
         ROT.     0.5284D+06                  1162.5145     2.9808    29.1674
         INT.     0.2999D+08                  6404.5567    36.4804    50.6343
         TRA.     0.1860D+28                  1937.5242     4.9680    41.5503
         TOT.                       43.230    8342.0808    41.4484    92.1846

 400.00  VIB.     0.6757D+02                  5582.4397    34.5771    22.3286
         ROT.     0.5488D+06                  1192.3226     2.9808    29.2429
         INT.     0.3709D+08                  6774.7623    37.5579    51.5715
         TRA.     0.1932D+28                  1987.2043     4.9680    41.6761
         TOT.                       43.650    8761.9665    42.5259    93.2476

   *: NOTE: HEATS OF FORMATION ARE RELATIVE TO THE
            ELEMENTS IN THEIR STANDARD STATE AT 298K
              (=  Standard Enthalpy of Formation).

            Hvib:  Zero-point energy is not included.
                   frequencies of less than zero cm-1 are not included.
            Hrot = (3/2)RT
            Htra = (3/2)RT + pV = (5/2)RT

            Heat capacity is Cp, not Cv

          For more information, see: HTTP://OpenMOPAC.net/Manual/thermochemistry.html


           FORCE CONSTANT IN CARTESIAN COORDINATES (Millidynes/A)

    ATOM   CHEMICAL       X               Y               Z
   NUMBER   SYMBOL  FORCE CONSTANT  FORCE CONSTANT  FORCE CONSTANT

      1       C        9.173147        8.353930        8.472998
      2       C        8.316125        8.330530        8.678305
      3       C        8.726821        8.945068        8.002372
      4       C        8.923434        7.219109       12.010254
      5       C        8.969102        9.017929        9.245431
      6       C        9.916825        8.156145        9.119822
      7       C       10.048335        6.626712       10.068330
      8       C        9.335786        7.891003       10.376381
      9       C        9.715110        6.699892       11.004486
     10       H        1.094039        3.331627        1.396007
     11       H        1.205627        2.525653        2.520016
     12       H        1.183459        4.252397        0.931128
     13       H        3.781910        0.915444        1.568250
     14       H        0.662041        4.979264        0.697261
     15       H        2.287445        0.786984        3.350621
     16       H        0.894128        2.086480        3.439258
     17       H        4.312133        1.004280        0.950066
     18       H        1.251620        0.768169        4.250949
     19       H        1.206987        3.330552        1.730009

 **********************
 *                    *
 * JOB ENDED NORMALLY *
 *                    *
 **********************



 TOTAL JOB TIME:             1.82 SECONDS

 == MOPAC DONE ==
