 *******************************************************************************
 **                                                                           **
 **                              MOPAC v23.1.2                                **
 **                                                                           **
 *******************************************************************************
 **          Digital Object Identifier (DOI): 10.5281/zenodo.6511958          **
 **    Visit the DOI location for information on how to cite this program.    **
 *******************************************************************************

                              PM3 CALCULATION RESULTS

 *******************************************************************************
 *  CALCULATION DONE: (MAX THREADS = 1)              Tue Jun  3 16:28:27 2025  *
 *  PM3        - The PM3 Hamiltonian to be used
 *  PRECISE    - TIGHTER CRITERIA TO BE USED
 *  NOSYM      - POINT-GROUP SYMMETRY SET TO C1
 *  THREADS=1  - MULTI-THREADING NOT USED
 *  T=         - A TIME OF 172800.0 SECONDS REQUESTED
 *  DUMP=N     - RESTART FILE WRITTEN EVERY 7200.0 SECONDS REQUESTED
 *******************************************************************************
pm3  precise nosym THREADS=1
 InChI=1S/C7H10/c1-7-5-3-2-4-6-7/h2-3,5H,4,6H2,1H3

   ATOM   CHEMICAL          X               Y               Z
  NUMBER   SYMBOL      (ANGSTROMS)     (ANGSTROMS)     (ANGSTROMS)

     1       C          0.00450000  *  -1.12110000  *   0.31370000  *
     2       C         -1.47120000  *  -0.93680000  *  -0.07750000  *
     3       C          2.29450000  *  -0.07970000  *  -0.39510000  *
     4       C          0.83590000  *   0.08110000  *  -0.08110000  *
     5       C         -1.96580000  *   0.43580000  *   0.29290000  *
     6       C          0.28880000  *   1.30750000  *  -0.05790000  *
     7       C         -1.14380000  *   1.48840000  *   0.24410000  *
     8       H          0.07610000  *  -1.25250000  *   1.41510000  *
     9       H          0.39580000  *  -2.04160000  *  -0.17030000  *
    10       H         -1.57780000  *  -1.06640000  *  -1.17620000  *
    11       H         -2.09290000  *  -1.70730000  *   0.42630000  *
    12       H          2.60600000  *  -1.14210000  *  -0.31280000  *
    13       H          2.90230000  *   0.51910000  *   0.31600000  *
    14       H          2.49520000  *   0.26860000  *  -1.43030000  *
    15       H         -3.01360000  *   0.58170000  *   0.52310000  *
    16       H          0.89420000  *   2.18260000  *  -0.26130000  *
    17       H         -1.52820000  *   2.48280000  *   0.43110000  *



          CARTESIAN COORDINATES 

    NO.       ATOM           X           Y           Z

     1         C          0.0045     -1.1211      0.3137
     2         C         -1.4712     -0.9368     -0.0775
     3         C          2.2945     -0.0797     -0.3951
     4         C          0.8359      0.0811     -0.0811
     5         C         -1.9658      0.4358      0.2929
     6         C          0.2888      1.3075     -0.0579
     7         C         -1.1438      1.4884      0.2441
     8         H          0.0761     -1.2525      1.4151
     9         H          0.3958     -2.0416     -0.1703
    10         H         -1.5778     -1.0664     -1.1762
    11         H         -2.0929     -1.7073      0.4263
    12         H          2.6060     -1.1421     -0.3128
    13         H          2.9023      0.5191      0.3160
    14         H          2.4952      0.2686     -1.4303
    15         H         -3.0136      0.5817      0.5231
    16         H          0.8942      2.1826     -0.2613
    17         H         -1.5282      2.4828      0.4311

  H: (PM3): J. J. P. STEWART, J. COMP. CHEM. 10, 209 (1989).
  C: (PM3): J. J. P. STEWART, J. COMP. CHEM. 10, 209 (1989).

           Empirical Formula: C7 H10  =    17 atoms



      MOLECULAR POINT GROUP   :   C1  


      RHF CALCULATION, NO. OF DOUBLY OCCUPIED LEVELS = 19


          Geometry optimization using EF

          DIAGONAL MATRIX USED AS START HESSIAN

 CYCLE:     1 TIME:   0.004 TIME LEFT:  2.00D  GRAD.:    59.792 HEAT:  13.43109
 CYCLE:     2 TIME:   0.008 TIME LEFT:  2.00D  GRAD.:    77.178 HEAT:  13.21253
 CYCLE:     3 TIME:   0.008 TIME LEFT:  2.00D  GRAD.:    33.614 HEAT:  12.03198
 CYCLE:     4 TIME:   0.008 TIME LEFT:  2.00D  GRAD.:    37.828 HEAT:  11.98378
 CYCLE:     5 TIME:   0.008 TIME LEFT:  2.00D  GRAD.:    25.139 HEAT:  11.78921
 CYCLE:     6 TIME:   0.008 TIME LEFT:  2.00D  GRAD.:    20.125 HEAT:  11.65823
 CYCLE:     7 TIME:   0.004 TIME LEFT:  2.00D  GRAD.:    16.728 HEAT:  11.57672
 CYCLE:     8 TIME:   0.004 TIME LEFT:  2.00D  GRAD.:    21.419 HEAT:  11.53243
 CYCLE:     9 TIME:   0.008 TIME LEFT:  2.00D  GRAD.:    16.171 HEAT:  11.45322
 CYCLE:    10 TIME:   0.004 TIME LEFT:  2.00D  GRAD.:    13.807 HEAT:  11.39724
 CYCLE:    11 TIME:   0.004 TIME LEFT:  2.00D  GRAD.:    10.773 HEAT:  11.35094
 CYCLE:    12 TIME:   0.008 TIME LEFT:  2.00D  GRAD.:     8.884 HEAT:  11.31213
 CYCLE:    13 TIME:   0.008 TIME LEFT:  2.00D  GRAD.:    12.511 HEAT:  11.29998
 CYCLE:    14 TIME:   0.004 TIME LEFT:  2.00D  GRAD.:    10.443 HEAT:  11.26489
 CYCLE:    15 TIME:   0.008 TIME LEFT:  2.00D  GRAD.:     8.803 HEAT:  11.24610
 CYCLE:    16 TIME:   0.004 TIME LEFT:  2.00D  GRAD.:     4.578 HEAT:  11.21925
 CYCLE:    17 TIME:   0.004 TIME LEFT:  2.00D  GRAD.:     4.279 HEAT:  11.20264
 CYCLE:    18 TIME:   0.004 TIME LEFT:  2.00D  GRAD.:     4.251 HEAT:  11.17960
 CYCLE:    19 TIME:   0.008 TIME LEFT:  2.00D  GRAD.:     3.757 HEAT:  11.15859
 CYCLE:    20 TIME:   0.004 TIME LEFT:  2.00D  GRAD.:     7.024 HEAT:  11.15267
 CYCLE:    21 TIME:   0.004 TIME LEFT:  2.00D  GRAD.:     2.966 HEAT:  11.13126
 CYCLE:    22 TIME:   0.008 TIME LEFT:  2.00D  GRAD.:     3.598 HEAT:  11.11582
 CYCLE:    23 TIME:   0.004 TIME LEFT:  2.00D  GRAD.:     6.114 HEAT:  11.10153
 CYCLE:    24 TIME:   0.004 TIME LEFT:  2.00D  GRAD.:     4.220 HEAT:  11.08846
 CYCLE:    25 TIME:   0.004 TIME LEFT:  2.00D  GRAD.:     3.684 HEAT:  11.07534
 CYCLE:    26 TIME:   0.008 TIME LEFT:  2.00D  GRAD.:     3.053 HEAT:  11.06474
 CYCLE:    27 TIME:   0.004 TIME LEFT:  2.00D  GRAD.:     3.248 HEAT:  11.05123
 CYCLE:    28 TIME:   0.008 TIME LEFT:  2.00D  GRAD.:     3.525 HEAT:  11.04023
 CYCLE:    29 TIME:   0.004 TIME LEFT:  2.00D  GRAD.:     3.108 HEAT:  11.03043
 CYCLE:    30 TIME:   0.004 TIME LEFT:  2.00D  GRAD.:     3.221 HEAT:  11.01866
 CYCLE:    31 TIME:   0.008 TIME LEFT:  2.00D  GRAD.:     3.238 HEAT:  11.00003
 CYCLE:    32 TIME:   0.004 TIME LEFT:  2.00D  GRAD.:     2.978 HEAT:  10.98062
 CYCLE:    33 TIME:   0.008 TIME LEFT:  2.00D  GRAD.:     2.310 HEAT:  10.97059
 CYCLE:    34 TIME:   0.004 TIME LEFT:  2.00D  GRAD.:     2.147 HEAT:  10.96152
 CYCLE:    35 TIME:   0.004 TIME LEFT:  2.00D  GRAD.:     2.255 HEAT:  10.95269
 CYCLE:    36 TIME:   0.008 TIME LEFT:  2.00D  GRAD.:     1.982 HEAT:  10.94437
 CYCLE:    37 TIME:   0.004 TIME LEFT:  2.00D  GRAD.:     1.375 HEAT:  10.93861
 CYCLE:    38 TIME:   0.008 TIME LEFT:  2.00D  GRAD.:     1.235 HEAT:  10.93587
 CYCLE:    39 TIME:   0.004 TIME LEFT:  2.00D  GRAD.:     0.842 HEAT:  10.93403
 CYCLE:    40 TIME:   0.004 TIME LEFT:  2.00D  GRAD.:     0.898 HEAT:  10.93187
 CYCLE:    41 TIME:   0.008 TIME LEFT:  2.00D  GRAD.:     1.406 HEAT:  10.92845
 CYCLE:    42 TIME:   0.004 TIME LEFT:  2.00D  GRAD.:     1.938 HEAT:  10.92302
 CYCLE:    43 TIME:   0.004 TIME LEFT:  2.00D  GRAD.:     2.872 HEAT:  10.91249
 CYCLE:    44 TIME:   0.008 TIME LEFT:  2.00D  GRAD.:     2.965 HEAT:  10.90362
 CYCLE:    45 TIME:   0.004 TIME LEFT:  2.00D  GRAD.:     1.973 HEAT:  10.88944
 CYCLE:    46 TIME:   0.004 TIME LEFT:  2.00D  GRAD.:     2.854 HEAT:  10.87642
 CYCLE:    47 TIME:   0.008 TIME LEFT:  2.00D  GRAD.:     3.403 HEAT:  10.87030
 CYCLE:    48 TIME:   0.012 TIME LEFT:  2.00D  GRAD.:     2.285 HEAT:  10.85806
 CYCLE:    49 TIME:   0.012 TIME LEFT:  2.00D  GRAD.:     2.893 HEAT:  10.83907
 CYCLE:    50 TIME:   0.027 TIME LEFT:  2.00D  GRAD.:     3.026 HEAT:  10.82848
 CYCLE:    51 TIME:   0.016 TIME LEFT:  2.00D  GRAD.:     5.163 HEAT:  10.79994
 CYCLE:    52 TIME:   0.027 TIME LEFT:  2.00D  GRAD.:     5.689 HEAT:  10.79488
 CYCLE:    53 TIME:   0.012 TIME LEFT:  2.00D  GRAD.:     3.401 HEAT:  10.75220
 CYCLE:    54 TIME:   0.008 TIME LEFT:  2.00D  GRAD.:     6.564 HEAT:  10.71882
 CYCLE:    55 TIME:   0.008 TIME LEFT:  2.00D  GRAD.:     4.518 HEAT:  10.69210
 CYCLE:    56 TIME:   0.008 TIME LEFT:  2.00D  GRAD.:     5.946 HEAT:  10.65830
 CYCLE:    57 TIME:   0.004 TIME LEFT:  2.00D  GRAD.:     3.406 HEAT:  10.62573
 CYCLE:    58 TIME:   0.008 TIME LEFT:  2.00D  GRAD.:     4.077 HEAT:  10.61104
 CYCLE:    59 TIME:   0.008 TIME LEFT:  2.00D  GRAD.:     4.430 HEAT:  10.58819
 CYCLE:    60 TIME:   0.008 TIME LEFT:  2.00D  GRAD.:     4.207 HEAT:  10.57569
 CYCLE:    61 TIME:   0.008 TIME LEFT:  2.00D  GRAD.:     2.407 HEAT:  10.56603
 CYCLE:    62 TIME:   0.004 TIME LEFT:  2.00D  GRAD.:     2.471 HEAT:  10.55730
 CYCLE:    63 TIME:   0.008 TIME LEFT:  2.00D  GRAD.:     2.289 HEAT:  10.54909
 CYCLE:    64 TIME:   0.004 TIME LEFT:  2.00D  GRAD.:     2.718 HEAT:  10.54013
 CYCLE:    65 TIME:   0.008 TIME LEFT:  2.00D  GRAD.:     4.404 HEAT:  10.52159
 CYCLE:    66 TIME:   0.008 TIME LEFT:  2.00D  GRAD.:     3.997 HEAT:  10.50624
 CYCLE:    67 TIME:   0.004 TIME LEFT:  2.00D  GRAD.:     5.878 HEAT:  10.49434
 CYCLE:    68 TIME:   0.012 TIME LEFT:  2.00D  GRAD.:     2.610 HEAT:  10.47608
 CYCLE:    69 TIME:   0.004 TIME LEFT:  2.00D  GRAD.:     1.815 HEAT:  10.46747
 CYCLE:    70 TIME:   0.008 TIME LEFT:  2.00D  GRAD.:     3.523 HEAT:  10.45613
 CYCLE:    71 TIME:   0.012 TIME LEFT:  2.00D  GRAD.:     1.424 HEAT:  10.44945
 CYCLE:    72 TIME:   0.004 TIME LEFT:  2.00D  GRAD.:     1.307 HEAT:  10.44507
 CYCLE:    73 TIME:   0.008 TIME LEFT:  2.00D  GRAD.:     1.983 HEAT:  10.44162
 CYCLE:    74 TIME:   0.008 TIME LEFT:  2.00D  GRAD.:     1.091 HEAT:  10.43965
 CYCLE:    75 TIME:   0.008 TIME LEFT:  2.00D  GRAD.:     0.934 HEAT:  10.43754
 CYCLE:    76 TIME:   0.008 TIME LEFT:  2.00D  GRAD.:     0.845 HEAT:  10.43632
 CYCLE:    77 TIME:   0.008 TIME LEFT:  2.00D  GRAD.:     0.497 HEAT:  10.43583
 CYCLE:    78 TIME:   0.004 TIME LEFT:  2.00D  GRAD.:     0.249 HEAT:  10.43557
 CYCLE:    79 TIME:   0.008 TIME LEFT:  2.00D  GRAD.:     0.294 HEAT:  10.43538
 CYCLE:    80 TIME:   0.004 TIME LEFT:  2.00D  GRAD.:     0.199 HEAT:  10.43529
 CYCLE:    81 TIME:   0.008 TIME LEFT:  2.00D  GRAD.:     0.102 HEAT:  10.43523
 CYCLE:    82 TIME:   0.004 TIME LEFT:  2.00D  GRAD.:     0.076 HEAT:  10.43521
 CYCLE:    83 TIME:   0.008 TIME LEFT:  2.00D  GRAD.:     0.129 HEAT:  10.43521
 CYCLE:    84 TIME:   0.008 TIME LEFT:  2.00D  GRAD.:     0.048 HEAT:  10.43519

     GRADIENT =  0.04775 IS LESS THAN CUTOFF =  0.05000



 -------------------------------------------------------------------------------
 pm3  precise nosym THREADS=1
 InChI=1S/C7H10/c1-7-5-3-2-4-6-7/h2-3,5H,4,6H2,1H3



     GEOMETRY OPTIMISED USING EIGENVECTOR FOLLOWING (EF).     
     SCF FIELD WAS ACHIEVED                                   


                              PM3 CALCULATION
                                                       MOPAC v23.1.2 MacOS
                                                       Tue Jun  3 16:28:28 2025




          FINAL HEAT OF FORMATION =         10.43519 KCAL/MOL =      43.66084 KJ/MOL


          COSMO AREA              =        143.08 SQUARE ANGSTROMS
          COSMO VOLUME            =        136.01 CUBIC ANGSTROMS

          GRADIENT NORM           =          0.04775          =       0.01158 PER ATOM
          IONIZATION POTENTIAL    =          8.754350 EV
          HOMO LUMO ENERGIES (EV) =         -8.754  0.280
          NO. OF FILLED LEVELS    =         19
          MOLECULAR WEIGHT        =         94.1560         POINT GROUP:  C1  

          MOLECULAR DIMENSIONS (Angstroms)

            Atom       Atom       Distance
            H    15    H    13     5.92946
            H    17    H     9     4.59870
            H     8    H    10     2.64244


          SCF CALCULATIONS        =         92

          WALL-CLOCK TIME         =      0.605 SECONDS
          COMPUTATION TIME        =      0.320 SECONDS




   ATOM   CHEMICAL          X               Y               Z
  NUMBER   SYMBOL      (ANGSTROMS)     (ANGSTROMS)     (ANGSTROMS)

     1       C          0.01610268  *  -1.12175565  *   0.16425291  *
     2       C         -1.47419191  *  -0.92277394  *  -0.08034201  *
     3       C          2.27361850  *  -0.09764449  *  -0.34483763  *
     4       C          0.83141491  *   0.10885842  *  -0.06434135  *
     5       C         -1.95738257  *   0.44003137  *   0.26470285  *
     6       C          0.28346191  *   1.33341241  *   0.02049336  *
     7       C         -1.13050480  *   1.49290118  *   0.30044340  *
     8       H          0.19477750  *  -1.44792412  *   1.20964232  *
     9       H          0.39074443  *  -1.94661694  *  -0.47391750  *
    10       H         -1.71954360  *  -1.10378929  *  -1.14715140  *
    11       H         -2.04638794  *  -1.68053084  *   0.48986945  *
    12       H          2.73765381  *  -0.71526744  *   0.43620611  *
    13       H          2.83045170  *   0.84704837  *  -0.39799774  *
    14       H          2.40980885  *  -0.61844678  *  -1.30276026  *
    15       H         -3.02945769  *   0.55028541  *   0.45751813  *
    16       H          0.88174927  *   2.24068161  *  -0.11660824  *
    17       H         -1.49138013  *   2.49982868  *   0.53246810  *

                             CARTESIAN COORDINATES

   1    C        0.016102682    -1.121755646     0.164252910
   2    C       -1.474191910    -0.922773945    -0.080342011
   3    C        2.273618495    -0.097644489    -0.344837632
   4    C        0.831414907     0.108858416    -0.064341346
   5    C       -1.957382569     0.440031367     0.264702851
   6    C        0.283461914     1.333412407     0.020493364
   7    C       -1.130504799     1.492901178     0.300443395
   8    H        0.194777503    -1.447924122     1.209642316
   9    H        0.390744431    -1.946616935    -0.473917501
  10    H       -1.719543600    -1.103789292    -1.147151396
  11    H       -2.046387936    -1.680530843     0.489869450
  12    H        2.737653809    -0.715267443     0.436206112
  13    H        2.830451705     0.847048373    -0.397997737
  14    H        2.409808854    -0.618446785    -1.302760258
  15    H       -3.029457693     0.550285413     0.457518134
  16    H        0.881749269     2.240681615    -0.116608244
  17    H       -1.491380132     2.499828682     0.532468095


           Empirical Formula: C7 H10  =    17 atoms



      MOLECULAR POINT GROUP   :   C1  


                  EIGENVALUES  
 -40.11946 -32.62835 -30.20318 -25.80694 -22.47645 -20.19172 -17.40100 -16.39905
 -15.99506 -15.22790 -14.33589 -14.11228 -13.83719 -13.17170 -12.59275 -12.13422
 -11.77936 -11.18868  -8.75435   0.27988   2.08735   3.29621   3.44887   3.55817
   3.80162   3.83073   4.03739   4.09080   4.28804   4.31378   4.46046   4.58189
   4.79709   4.84112   5.15622   5.54619   6.06200   6.28871


              NET ATOMIC CHARGES AND DIPOLE CONTRIBUTIONS

  ATOM NO.   TYPE          CHARGE      No. of ELECS.   s-Pop       p-Pop       
    1          C          -0.051835        4.0518     1.14610     2.90574
    2          C          -0.056743        4.0567     1.14556     2.91118
    3          C          -0.066528        4.0665     1.12462     2.94191
    4          C          -0.111441        4.1114     1.19892     2.91253
    5          C          -0.141291        4.1413     1.19614     2.94516
    6          C          -0.119749        4.1197     1.17768     2.94207
    7          C          -0.107897        4.1079     1.17783     2.93007
    8          H           0.054869        0.9451     0.94513
    9          H           0.054545        0.9455     0.94546
   10          H           0.054777        0.9452     0.94522
   11          H           0.052958        0.9470     0.94704
   12          H           0.044515        0.9555     0.95549
   13          H           0.043390        0.9566     0.95661
   14          H           0.045956        0.9540     0.95404
   15          H           0.098649        0.9014     0.90135
   16          H           0.105082        0.8949     0.89492
   17          H           0.100744        0.8993     0.89926
 DIPOLE           X         Y         Z       TOTAL
 POINT-CHG.     0.153    -0.457    -0.066     0.486
 HYBRID         0.007    -0.019    -0.002     0.021
 SUM            0.160    -0.476    -0.068     0.507


          ATOMIC ORBITAL ELECTRON POPULATIONS

     Atom    s        px        py        pz   
    1  C   1.14610   0.94205   0.95300   1.01069
    2  C   1.14556   0.95151   0.95276   1.00690
    3  C   1.12462   0.92861   1.01072   1.00258
    4  C   1.19892   0.95932   0.95830   0.99491
    5  C   1.19614   0.98459   0.95523   1.00533
    6  C   1.17768   0.95376   0.96086   1.02744
    7  C   1.17783   0.94369   0.97511   1.01127
    8  H   0.94513
    9  H   0.94546
   10  H   0.94522
   11  H   0.94704
   12  H   0.95549
   13  H   0.95661
   14  H   0.95404
   15  H   0.90135
   16  H   0.89492
   17  H   0.89926
 *******************************************************************************
 **                                                                           **
 **                              MOPAC v23.1.2                                **
 **                                                                           **
 *******************************************************************************
 **          Digital Object Identifier (DOI): 10.5281/zenodo.6511958          **
 **    Visit the DOI location for information on how to cite this program.    **
 *******************************************************************************

                              PM3 CALCULATION RESULTS

 *******************************************************************************
 *  CALCULATION DONE: (MAX THREADS = 1)              Tue Jun  3 16:28:28 2025  *
 *  PM3        - The PM3 Hamiltonian to be used
 *  OLDGEO     - PREVIOUS GEOMETRY TO BE USED
 *  PRECISE    - TIGHTER CRITERIA TO BE USED
 *  NOSYM      - POINT-GROUP SYMMETRY SET TO C1
 *  THREADS=1  - MULTI-THREADING NOT USED
 *  T=         - A TIME OF 172800.0 SECONDS REQUESTED
 *  DUMP=N     - RESTART FILE WRITTEN EVERY 7200.0 SECONDS REQUESTED
 *  THERMO     - THERMODYNAMIC QUANTITIES TO BE CALCULATED
 *******************************************************************************
oldgeo thermo nosym precise THREADS=1  pm3
 InChI=1S/C7H10/c1-7-5-3-2-4-6-7/h2-3,5H,4,6H2,1H3

   ATOM   CHEMICAL          X               Y               Z
  NUMBER   SYMBOL      (ANGSTROMS)     (ANGSTROMS)     (ANGSTROMS)

     1       C          0.01610268  *  -1.12175565  *   0.16425291  *
     2       C         -1.47419191  *  -0.92277394  *  -0.08034201  *
     3       C          2.27361850  *  -0.09764449  *  -0.34483763  *
     4       C          0.83141491  *   0.10885842  *  -0.06434135  *
     5       C         -1.95738257  *   0.44003137  *   0.26470285  *
     6       C          0.28346191  *   1.33341241  *   0.02049336  *
     7       C         -1.13050480  *   1.49290118  *   0.30044340  *
     8       H          0.19477750  *  -1.44792412  *   1.20964232  *
     9       H          0.39074443  *  -1.94661694  *  -0.47391750  *
    10       H         -1.71954360  *  -1.10378929  *  -1.14715140  *
    11       H         -2.04638794  *  -1.68053084  *   0.48986945  *
    12       H          2.73765381  *  -0.71526744  *   0.43620611  *
    13       H          2.83045170  *   0.84704837  *  -0.39799774  *
    14       H          2.40980885  *  -0.61844678  *  -1.30276026  *
    15       H         -3.02945769  *   0.55028541  *   0.45751813  *
    16       H          0.88174927  *   2.24068161  *  -0.11660824  *
    17       H         -1.49138013  *   2.49982868  *   0.53246810  *



          CARTESIAN COORDINATES 

    NO.       ATOM           X           Y           Z

     1         C          0.0161     -1.1218      0.1643
     2         C         -1.4742     -0.9228     -0.0803
     3         C          2.2736     -0.0976     -0.3448
     4         C          0.8314      0.1089     -0.0643
     5         C         -1.9574      0.4400      0.2647
     6         C          0.2835      1.3334      0.0205
     7         C         -1.1305      1.4929      0.3004
     8         H          0.1948     -1.4479      1.2096
     9         H          0.3907     -1.9466     -0.4739
    10         H         -1.7195     -1.1038     -1.1472
    11         H         -2.0464     -1.6805      0.4899
    12         H          2.7377     -0.7153      0.4362
    13         H          2.8305      0.8470     -0.3980
    14         H          2.4098     -0.6184     -1.3028
    15         H         -3.0295      0.5503      0.4575
    16         H          0.8817      2.2407     -0.1166
    17         H         -1.4914      2.4998      0.5325

  H: (PM3): J. J. P. STEWART, J. COMP. CHEM. 10, 209 (1989).
  C: (PM3): J. J. P. STEWART, J. COMP. CHEM. 10, 209 (1989).

           Empirical Formula: C7 H10  =    17 atoms



      MOLECULAR POINT GROUP   :   C1  


      RHF CALCULATION, NO. OF DOUBLY OCCUPIED LEVELS = 19



          HEAT OF FORMATION =      10.435190 KCALS/MOLE


          CARTESIAN COORDINATE DERIVATIVES

   NUMBER  ATOM         X            Y            Z

     1       C     -0.000230     0.004406     0.005122
     2       C      0.003784    -0.001620     0.000978
     3       C     -0.004267     0.006989     0.002176
     4       C     -0.007217     0.002106    -0.002434
     5       C     -0.006221    -0.001895    -0.000143
     6       C     -0.010890     0.000523     0.000596
     7       C     -0.014547    -0.000763     0.000101
     8       H      0.025939    -0.003880    -0.005956
     9       H     -0.000926     0.004589    -0.002580
    10       H      0.013780    -0.010304    -0.001542
    11       H     -0.006047    -0.006851     0.006579
    12       H      0.006028    -0.002627    -0.001606
    13       H     -0.010141     0.007042    -0.002395
    14       H     -0.002531     0.000094     0.002368
    15       H      0.003481    -0.004213     0.000996
    16       H      0.013517     0.001433    -0.004233
    17       H     -0.003512     0.004970     0.001973



          GRADIENT NORM =   0.04732

          MOLECULAR WEIGHT =   94.16



          ROTATIONAL CONSTANTS IN CM(-1)

          A =    0.16335855   B =    0.08082727   C =    0.05642578



           PRINCIPAL MOMENTS OF INERTIA IN UNITS OF 10**(-40)*GRAM-CM**2

          A =      171.3577   B =      346.3280   C =      496.0986


          ORIENTATION OF MOLECULE IN FORCE CALCULATION

    NO.       ATOM         X         Y         Z

     1          C      -0.3348   -1.0830    0.5954
     2          C       1.1885   -1.0830    0.5954
     3          C      -2.3279    0.4765    0.5954
     4          C      -0.9350    0.2130    0.1577
     5          C       1.7838   -0.2392   -0.4739
     6          C      -0.2526    1.0684   -0.6230
     7          C       1.1066    0.7721   -1.0327
     8          H      -0.7201   -1.8722   -0.0827
     9          H      -0.7066   -1.3492    1.6049
    10          H       1.5762   -0.7133    1.5671
    11          H       1.5577   -2.1231    0.5035
    12          H      -2.9880   -0.3560    0.3159
    13          H      -2.7407    1.3927    0.1533
    14          H      -2.3754    0.5837    1.6880
    15          H       2.8161   -0.4624   -0.7624
    16          H      -0.6974    2.0066   -0.9721
    17          H       1.5540    1.4069   -1.8039


    FIRST DERIVATIVES WILL BE USED IN THE CALCULATION OF SECOND DERIVATIVES

          ESTIMATED TIME TO COMPLETE CALCULATION =        0.80 SECONDS

    FOR POINT-GROUP C1   THERE ARE   1 UNIQUE SYMMETRY FUNCTIONS.

 STEP:   1 TIME =     0.02 SECS, INTEGRAL =      0.02 TIME LEFT: 172799.98
 STEP:   2 TIME =     0.02 SECS, INTEGRAL =      0.04 TIME LEFT: 172799.96
 STEP:   3 TIME =     0.02 SECS, INTEGRAL =      0.05 TIME LEFT: 172799.95
 STEP:   4 TIME =     0.01 SECS, INTEGRAL =      0.06 TIME LEFT: 172799.93
 STEP:   5 TIME =     0.01 SECS, INTEGRAL =      0.07 TIME LEFT: 172799.92
 STEP:   6 TIME =     0.02 SECS, INTEGRAL =      0.09 TIME LEFT: 172799.91
 STEP:   7 TIME =     0.01 SECS, INTEGRAL =      0.10 TIME LEFT: 172799.89
 STEP:   8 TIME =     0.01 SECS, INTEGRAL =      0.11 TIME LEFT: 172799.88
 STEP:   9 TIME =     0.02 SECS, INTEGRAL =      0.13 TIME LEFT: 172799.87
 STEP:  10 TIME =     0.01 SECS, INTEGRAL =      0.14 TIME LEFT: 172799.86
 STEP:  11 TIME =     0.01 SECS, INTEGRAL =      0.15 TIME LEFT: 172799.84
 STEP:  12 TIME =     0.01 SECS, INTEGRAL =      0.16 TIME LEFT: 172799.83
 STEP:  13 TIME =     0.01 SECS, INTEGRAL =      0.18 TIME LEFT: 172799.82
 STEP:  14 TIME =     0.01 SECS, INTEGRAL =      0.19 TIME LEFT: 172799.81
 STEP:  15 TIME =     0.01 SECS, INTEGRAL =      0.20 TIME LEFT: 172799.80
 STEP:  16 TIME =     0.01 SECS, INTEGRAL =      0.21 TIME LEFT: 172799.79
 STEP:  17 TIME =     0.02 SECS, INTEGRAL =      0.23 TIME LEFT: 172799.77
 STEP:  18 TIME =     0.02 SECS, INTEGRAL =      0.24 TIME LEFT: 172799.75
 STEP:  19 TIME =     0.01 SECS, INTEGRAL =      0.25 TIME LEFT: 172799.74
 STEP:  20 TIME =     0.01 SECS, INTEGRAL =      0.27 TIME LEFT: 172799.73
 STEP:  21 TIME =     0.01 SECS, INTEGRAL =      0.28 TIME LEFT: 172799.72
 STEP:  22 TIME =     0.01 SECS, INTEGRAL =      0.29 TIME LEFT: 172799.71
 STEP:  23 TIME =     0.02 SECS, INTEGRAL =      0.30 TIME LEFT: 172799.69
 STEP:  24 TIME =     0.01 SECS, INTEGRAL =      0.32 TIME LEFT: 172799.68
 STEP:  25 TIME =     0.01 SECS, INTEGRAL =      0.33 TIME LEFT: 172799.67
 STEP:  26 TIME =     0.02 SECS, INTEGRAL =      0.34 TIME LEFT: 172799.65
 STEP:  27 TIME =     0.01 SECS, INTEGRAL =      0.36 TIME LEFT: 172799.64
 STEP:  28 TIME =     0.01 SECS, INTEGRAL =      0.37 TIME LEFT: 172799.63
 STEP:  29 TIME =     0.01 SECS, INTEGRAL =      0.38 TIME LEFT: 172799.62
 STEP:  30 TIME =     0.01 SECS, INTEGRAL =      0.39 TIME LEFT: 172799.61
 STEP:  31 TIME =     0.01 SECS, INTEGRAL =      0.40 TIME LEFT: 172799.59
 STEP:  32 TIME =     0.01 SECS, INTEGRAL =      0.41 TIME LEFT: 172799.58
 STEP:  33 TIME =     0.01 SECS, INTEGRAL =      0.43 TIME LEFT: 172799.57
 STEP:  34 TIME =     0.01 SECS, INTEGRAL =      0.44 TIME LEFT: 172799.56
 STEP:  35 TIME =     0.02 SECS, INTEGRAL =      0.45 TIME LEFT: 172799.54
 STEP:  36 TIME =     0.01 SECS, INTEGRAL =      0.46 TIME LEFT: 172799.53
 STEP:  37 TIME =     0.01 SECS, INTEGRAL =      0.48 TIME LEFT: 172799.52
 STEP:  38 TIME =     0.01 SECS, INTEGRAL =      0.49 TIME LEFT: 172799.51
 STEP:  39 TIME =     0.01 SECS, INTEGRAL =      0.50 TIME LEFT: 172799.50
 STEP:  40 TIME =     0.01 SECS, INTEGRAL =      0.51 TIME LEFT: 172799.48
 STEP:  41 TIME =     0.02 SECS, INTEGRAL =      0.53 TIME LEFT: 172799.47
 STEP:  42 TIME =     0.01 SECS, INTEGRAL =      0.54 TIME LEFT: 172799.46
 STEP:  43 TIME =     0.01 SECS, INTEGRAL =      0.55 TIME LEFT: 172799.45
 STEP:  44 TIME =     0.01 SECS, INTEGRAL =      0.56 TIME LEFT: 172799.43
 STEP:  45 TIME =     0.01 SECS, INTEGRAL =      0.57 TIME LEFT: 172799.42
 STEP:  46 TIME =     0.01 SECS, INTEGRAL =      0.59 TIME LEFT: 172799.41
 STEP:  47 TIME =     0.01 SECS, INTEGRAL =      0.60 TIME LEFT: 172799.40
 STEP:  48 TIME =     0.01 SECS, INTEGRAL =      0.61 TIME LEFT: 172799.39
 STEP:  49 TIME =     0.01 SECS, INTEGRAL =      0.62 TIME LEFT: 172799.38
 STEP:  50 TIME =     0.02 SECS, INTEGRAL =      0.64 TIME LEFT: 172799.36
 STEP:  51 TIME =     0.01 SECS, INTEGRAL =      0.65 TIME LEFT: 172799.35

(To convert to Hartree/Bohr^2, multiply by (10^(-21) x N x a0^2)/(4.184 x 627.51) =  0.0642)


           FORCE MATRIX IN MILLIDYNES/ANGSTROM


                  C  1       C  2       C  3       C  4       C  5       C  6
 ------------------------------------------------------------------------------
     C    1  14.635315
     C    2   4.110512  14.672698
     C    3   0.607977   0.047307  14.729755
     C    4   4.714697   0.639561   5.072288  18.298233
     C    5   0.656986   4.982360   0.019172   0.159724  18.002976
     C    6   0.825154   0.118054   0.827167   9.926620   1.148670  18.404278
     C    7   0.106310   0.869664   0.142385   1.138392  10.271745   5.641635
     H    8   4.397489   0.441537   0.016445   0.412102   0.011221   0.030546
     H    9   4.449966   0.431182   0.045275   0.449417   0.048152   0.045101
     H   10   0.442006   4.394952   0.004588   0.011153   0.405660   0.017580
     H   11   0.429989   4.468111   0.008677   0.048262   0.436353   0.009394
     H   12   0.025179   0.002109   4.699663   0.452731   0.002401   0.034683
     H   13   0.044950   0.008138   4.737353   0.472567   0.001466   0.047226
     H   14   0.019401   0.002591   4.691020   0.443861   0.002183   0.031510
     H   15   0.043614   0.427142   0.010575   0.011148   4.853311   0.124378
     H   16   0.111175   0.005613   0.073598   0.458211   0.046834   4.834246
     H   17   0.005394   0.122353   0.009438   0.047611   0.445731   0.432647


                  C  7       H  8       H  9       H 10       H 11       H 12
 ------------------------------------------------------------------------------
     C    7  18.387448
     H    8   0.017126   4.985553
     H    9   0.009918   0.572830   5.050113
     H   10   0.033825   0.045106   0.034102   4.987359
     H   11   0.047309   0.034247   0.020717   0.574932   5.061117
     H   12   0.018629   0.005821   0.004817   0.000296   0.000788   5.417774
     H   13   0.002248   0.001274   0.002218   0.000368   0.001502   0.561078
     H   14   0.019869   0.001760   0.019783   0.000684   0.000182   0.574171
     H   15   0.445049   0.004510   0.007569   0.017075   0.035458   0.001188
     H   16   0.433003   0.015844   0.012336   0.000794   0.000775   0.008176
     H   17   4.863213   0.000732   0.000930   0.017364   0.013266   0.001521


                  H 13       H 14       H 15       H 16       H 17
 ------------------------------------------------------------------
     H   13   5.456797
     H   14   0.562989   5.409912
     H   15   0.000335   0.001522   5.229900
     H   16   0.029629   0.009233   0.007534   5.209307
     H   17   0.000596   0.001005   0.065873   0.031157   5.229989


          HEAT OF FORMATION =      10.435190 KCALS/MOLE

          ZERO POINT ENERGY      93.268 KCAL/MOL


           NORMAL COORDINATE ANALYSIS (Total motion = 1 Angstrom)


   Root No.       1         2         3         4         5         6         7         8

                 1 A       2 A       3 A       4 A       5 A       6 A       7 A       8 A   

                 107.4     114.3     184.5     363.1     396.0     474.2     511.8     541.2
  
           1   -0.0052    0.0053    0.0051    0.0130    0.0087    0.0159    0.0057    0.0463
           2   -0.0082    0.0227    0.0037   -0.0390    0.0086    0.0130    0.0359    0.0220
           3   -0.0181    0.0516    0.0015    0.0068   -0.0127   -0.0107   -0.0197   -0.0169
           4   -0.0053    0.0061    0.0045    0.0210    0.0116    0.0152    0.0226    0.0494
           5   -0.0052   -0.0311    0.0219    0.0053   -0.0135   -0.0065    0.0203   -0.0355
           6   -0.0034   -0.0326    0.0153   -0.0068   -0.0026    0.0005   -0.0242    0.0349
           7    0.0055   -0.0142   -0.0145   -0.0053   -0.0147   -0.0181   -0.0717    0.0025
           8    0.0043   -0.0102   -0.0219    0.0610    0.0016    0.0079    0.0064    0.0103
           9    0.0114   -0.0314   -0.0305   -0.0314   -0.0108    0.0018    0.0277   -0.0071
          10   -0.0021    0.0024    0.0062   -0.0081    0.0077    0.0021   -0.0710   -0.0142
          11   -0.0035    0.0057    0.0101   -0.0435    0.0269    0.0271   -0.0010   -0.0041
          12   -0.0077    0.0086    0.0168    0.0164    0.0418    0.0444   -0.0264   -0.0490
          13    0.0023   -0.0008   -0.0148    0.0045    0.0147    0.0029    0.0761   -0.0256
          14    0.0054   -0.0007   -0.0356    0.0144    0.0204   -0.0244   -0.0130   -0.0200
          15    0.0091   -0.0106   -0.0420   -0.0109    0.0267   -0.0182   -0.0129    0.0143
          16   -0.0003   -0.0005    0.0210   -0.0119    0.0004   -0.0201    0.0130   -0.0328
          17    0.0003    0.0032    0.0306   -0.0288    0.0065   -0.0214   -0.0243    0.0438
          18   -0.0019    0.0041    0.0517    0.0294    0.0143   -0.0291    0.0223   -0.0073
          19    0.0038    0.0041   -0.0024   -0.0167   -0.0229    0.0066    0.0240   -0.0377
          20    0.0056    0.0158   -0.0055    0.0077   -0.0378    0.0081   -0.0346   -0.0141
          21    0.0075    0.0144   -0.0031    0.0051   -0.0327    0.0335    0.0166    0.0333
          22    0.0027   -0.0586    0.0195    0.0312    0.0150    0.0339    0.0104    0.0831
          23    0.0003   -0.0104    0.0098   -0.0477    0.0552    0.0797   -0.0011    0.0069
          24   -0.0326    0.1262   -0.0136    0.0074   -0.0718   -0.1011    0.0223   -0.0202
          25   -0.0165    0.0550   -0.0026    0.0259   -0.0080   -0.0056    0.0437    0.0098
          26   -0.0208    0.0988   -0.0116   -0.0493   -0.0545   -0.0856    0.0669    0.0414
          27   -0.0257    0.0904   -0.0056    0.0079   -0.0366   -0.0467    0.0025   -0.0263
          28   -0.0152    0.0711   -0.0087    0.0137    0.0211    0.0191    0.0216    0.0821
          29   -0.0133   -0.1009    0.1014    0.0247   -0.0938    0.0267    0.0227   -0.0875
          30    0.0036   -0.0319   -0.0096   -0.0112    0.0227   -0.0133   -0.0247    0.0403
          31   -0.0023   -0.0381    0.0212    0.0508   -0.0106    0.0062   -0.0103    0.0213
          32   -0.0036   -0.0405    0.0214    0.0155   -0.0157   -0.0128    0.0070   -0.0436
          33   -0.0095   -0.1082    0.0950   -0.0000   -0.0799    0.0391   -0.0035   -0.0064
          34    0.0394    0.0115    0.0256   -0.0663    0.0252    0.0091   -0.1013   -0.0358
          35   -0.1036   -0.0353   -0.0574    0.1093   -0.0215   -0.0059    0.0196    0.0324
          36    0.2539   -0.0175   -0.0203   -0.0265   -0.0385   -0.0230    0.0595    0.0219
          37   -0.0816   -0.0254   -0.0351    0.0829   -0.0190   -0.0178   -0.0794    0.0085
          38   -0.1262   -0.0356   -0.0543    0.0809   -0.0169   -0.0028    0.0164    0.0262
          39   -0.1776   -0.0737   -0.0783   -0.0779   -0.0457   -0.0215    0.0568    0.0187
          40    0.0735   -0.0428   -0.0528   -0.0346   -0.0779   -0.0677   -0.0186    0.0599
          41    0.2596    0.0276    0.0167    0.1078    0.0118    0.0115   -0.0009    0.0094
          42   -0.0105   -0.0364   -0.0361   -0.0380   -0.0155   -0.0014    0.0318   -0.0040
          43    0.0064   -0.0006   -0.0461    0.0046    0.0323   -0.0055    0.0801   -0.0497
          44    0.0119    0.0061   -0.0936    0.0311    0.0611   -0.0302   -0.0035   -0.0241
          45    0.0188   -0.0165   -0.1074   -0.0225    0.0577   -0.0431   -0.0044   -0.0703
          46    0.0002   -0.0121    0.0381   -0.0235    0.0152   -0.0622    0.0773   -0.0098
          47    0.0014   -0.0094    0.0525   -0.0244    0.0152   -0.0851    0.0157    0.0613
          48    0.0008   -0.0155    0.0892    0.0532    0.0193   -0.1470    0.0477    0.0120
          49    0.0091    0.0115   -0.0213   -0.0430   -0.0577    0.0370   -0.0076   -0.0262
          50    0.0115    0.0360   -0.0245    0.0263   -0.0930    0.0604   -0.0196   -0.0510
          51    0.0155    0.0351   -0.0296    0.0053   -0.0985    0.0937    0.0098    0.0089


   Root No.       9        10        11        12        13        14        15        16

                 9 A      10 A      11 A      12 A      13 A      14 A      15 A      16 A   

                 729.8     781.7     841.5     887.3     940.6     954.2     978.7     995.7
  
           1    0.0044   -0.0094   -0.0112   -0.0026   -0.0141    0.0220   -0.0032   -0.0019
           2   -0.0029   -0.0097    0.0304   -0.0002   -0.0085    0.0403    0.0069    0.0218
           3   -0.0137   -0.0193    0.0188   -0.0144    0.0411   -0.0153    0.0004   -0.0173
           4    0.0031   -0.0061   -0.0225   -0.0026    0.0081   -0.0125    0.0068    0.0074
           5   -0.0167    0.0013    0.0393    0.0156   -0.0248   -0.0143   -0.0155   -0.0182
           6   -0.0179   -0.0201   -0.0092    0.0047   -0.0130   -0.0109    0.0016    0.0146
           7    0.0100    0.0150    0.0421    0.0143   -0.0036    0.0051   -0.0053    0.0150
           8    0.0025   -0.0006   -0.0127    0.0073    0.0079   -0.0232   -0.0094    0.0257
           9   -0.0015   -0.0043   -0.0208    0.0138   -0.0093    0.0046   -0.0225   -0.0085
          10    0.0082    0.0082    0.0027    0.0036   -0.0019    0.0018    0.0037   -0.0102
          11    0.0113    0.0050   -0.0164    0.0012    0.0063   -0.0131    0.0078   -0.0068
          12    0.0058    0.0059   -0.0062    0.0075   -0.0063    0.0082    0.0131   -0.0038
          13    0.0042    0.0319    0.0279    0.0139    0.0147   -0.0192    0.0119   -0.0055
          14   -0.0134    0.0093   -0.0129    0.0064    0.0064    0.0018    0.0225    0.0036
          15   -0.0032    0.0142   -0.0167    0.0084   -0.0019    0.0111    0.0182   -0.0078
          16   -0.0160   -0.0130   -0.0157   -0.0208   -0.0122   -0.0006    0.0031    0.0125
          17    0.0162    0.0149   -0.0031   -0.0224   -0.0010   -0.0264   -0.0067   -0.0361
          18   -0.0050    0.0054    0.0147   -0.0333   -0.0282   -0.0025    0.0035    0.0211
          19   -0.0252   -0.0095   -0.0285   -0.0052    0.0069    0.0102   -0.0125   -0.0025
          20   -0.0265   -0.0055   -0.0298   -0.0064    0.0150    0.0191   -0.0160    0.0134
          21    0.0054    0.0391    0.0276    0.0109    0.0171    0.0034   -0.0260   -0.0028
          22   -0.0470   -0.0831    0.0266   -0.0093   -0.0073   -0.0358   -0.0910   -0.0178
          23   -0.0304   -0.0374    0.0852   -0.0306    0.0655    0.0847    0.0615    0.0201
          24    0.0509    0.0576   -0.0711    0.0259   -0.0516   -0.0335   -0.0117   -0.0048
          25    0.0469    0.0483   -0.0515    0.0057   -0.0408    0.0447    0.0271   -0.0339
          26    0.0632    0.0588   -0.0569    0.0457   -0.1215    0.0498   -0.0082    0.0832
          27    0.0212    0.0224   -0.0205    0.0016    0.0003   -0.0052    0.0082   -0.0132
          28   -0.0461   -0.0786    0.0414   -0.0138    0.0156   -0.0220   -0.0715   -0.0096
          29    0.1137    0.0429   -0.0240   -0.0403    0.0693    0.0485   -0.0000   -0.0159
          30   -0.0442   -0.0060   -0.0133    0.0293   -0.0509   -0.0288    0.0282    0.0213
          31    0.0502    0.0283   -0.1191   -0.0180    0.0329   -0.0485    0.0423   -0.0300
          32   -0.0085    0.0116    0.0099    0.0141   -0.0220   -0.0340   -0.0047   -0.0361
          33    0.1117    0.0258   -0.0676   -0.0435    0.0708    0.0764    0.0355    0.0654
          34    0.0354    0.0195    0.0139    0.0915    0.0198   -0.0860   -0.0744    0.1430
          35   -0.0114   -0.0024    0.0043   -0.0319   -0.0171    0.0479    0.0229   -0.0674
          36   -0.0215   -0.0082    0.0015   -0.0591    0.0085    0.0137    0.0519   -0.0383
          37    0.0038    0.0172    0.0672    0.0103   -0.0652    0.1282   -0.0073   -0.1143
          38   -0.0065   -0.0001    0.0032   -0.0211   -0.0005    0.0089    0.0179   -0.0136
          39   -0.0148   -0.0053   -0.0097   -0.0419    0.0343   -0.0497    0.0378    0.0394
          40   -0.0211    0.0156    0.1058   -0.1097    0.0525   -0.0223    0.1350    0.0406
          41    0.0016   -0.0006   -0.0087    0.0079   -0.0240    0.0372   -0.0147   -0.0452
          42   -0.0034   -0.0044   -0.0185    0.0061   -0.0032   -0.0030   -0.0139   -0.0010
          43    0.0706   -0.0183    0.0479   -0.0383    0.0137   -0.0156   -0.0455    0.0027
          44    0.1302   -0.0677    0.0292   -0.0883    0.0273   -0.0139   -0.0600    0.0526
          45    0.1237   -0.1044    0.0243   -0.1047   -0.0234    0.0395   -0.1214   -0.0110
          46    0.0161   -0.0603   -0.0207    0.0671    0.0489    0.0059    0.0035   -0.0555
          47    0.0472   -0.0539   -0.0058    0.0927    0.0776    0.0065    0.0014   -0.0677
          48    0.0374   -0.1199    0.0150    0.1644    0.1035    0.0801    0.0256    0.0276
          49    0.0256   -0.0925   -0.0518    0.0089   -0.0455   -0.0287    0.0283   -0.1027
          50    0.0511   -0.1248    0.0271    0.0319   -0.0695   -0.0466    0.1075    0.0505
          51    0.0988   -0.1068    0.0623    0.0509   -0.0837   -0.0727    0.0987   -0.0308


   Root No.      17        18        19        20        21        22        23        24

                17 A      18 A      19 A      20 A      21 A      22 A      23 A      24 A   

                1007.0    1039.9    1075.3    1088.5    1111.1    1124.9    1158.0    1224.3
  
           1    0.0274    0.0072   -0.0087   -0.0227    0.0212    0.0154    0.0057   -0.0006
           2    0.0001    0.0093    0.0117   -0.0040    0.0203   -0.0105    0.0062   -0.0023
           3   -0.0106    0.0169    0.0085   -0.0155    0.0202    0.0015    0.0018   -0.0001
           4   -0.0156   -0.0085    0.0128    0.0082   -0.0231   -0.0155   -0.0089    0.0190
           5    0.0238   -0.0128    0.0057    0.0014   -0.0165   -0.0019    0.0034   -0.0016
           6   -0.0221   -0.0250   -0.0024   -0.0036   -0.0284    0.0090   -0.0035   -0.0023
           7   -0.0024    0.0091    0.0103    0.0009   -0.0001   -0.0015   -0.0021    0.0081
           8    0.0165    0.0099   -0.0016   -0.0111   -0.0018   -0.0009    0.0032    0.0021
           9   -0.0199    0.0173    0.0105   -0.0075   -0.0030    0.0024   -0.0014   -0.0049
          10   -0.0036   -0.0130   -0.0140    0.0034    0.0007   -0.0059    0.0023   -0.0213
          11    0.0043   -0.0165   -0.0055    0.0158    0.0066    0.0077   -0.0084   -0.0095
          12    0.0118   -0.0271   -0.0184    0.0183    0.0062   -0.0042    0.0050    0.0145
          13   -0.0325    0.0014   -0.0254   -0.0160   -0.0009   -0.0011   -0.0014    0.0049
          14   -0.0078    0.0217   -0.0052    0.0111    0.0014    0.0056    0.0048    0.0156
          15    0.0221    0.0319   -0.0005    0.0154    0.0007   -0.0056   -0.0051   -0.0185
          16    0.0018    0.0082    0.0204    0.0163    0.0030    0.0129    0.0024   -0.0251
          17   -0.0167    0.0105   -0.0155   -0.0215   -0.0079   -0.0006   -0.0029   -0.0045
          18   -0.0003    0.0189    0.0072   -0.0019    0.0005   -0.0056    0.0030    0.0147
          19   -0.0002   -0.0084   -0.0074   -0.0103   -0.0039   -0.0088   -0.0009   -0.0085
          20   -0.0062   -0.0149   -0.0065   -0.0058   -0.0029    0.0042   -0.0013    0.0160
          21    0.0129   -0.0170    0.0151    0.0123    0.0044    0.0031    0.0023   -0.0069
          22    0.0246    0.0513   -0.1059    0.0582    0.2477    0.0285    0.0562   -0.0339
          23   -0.0136    0.0309    0.1001   -0.0741   -0.0766   -0.0372   -0.0266    0.0156
          24    0.0077   -0.0354   -0.0369    0.0203    0.0047    0.0229    0.0097   -0.0018
          25    0.1501    0.0036    0.0157   -0.1138   -0.1256    0.1411    0.0213   -0.0621
          26   -0.0435   -0.0520   -0.0289    0.0901    0.0526   -0.0929   -0.0134    0.0396
          27    0.0222   -0.0023    0.0054   -0.0254   -0.0253    0.0277    0.0036   -0.0108
          28    0.0215    0.0567   -0.0609    0.1812   -0.2009   -0.0405   -0.0912   -0.0283
          29    0.0369    0.0887    0.0003    0.0737   -0.0047   -0.0403   -0.0320   -0.0400
          30   -0.0413   -0.0891    0.0290   -0.1023    0.0378    0.0351    0.0425    0.0329
          31    0.0110   -0.0351    0.1691   -0.0086    0.1128   -0.1328   -0.1163   -0.0297
          32    0.0371   -0.0291    0.0716   -0.0033    0.0315   -0.0504   -0.0383   -0.0263
          33   -0.0688    0.0583   -0.0900   -0.0029   -0.0261    0.0672    0.0509    0.0571
          34    0.0435    0.0775    0.0372   -0.0358   -0.0073    0.0004    0.0037    0.0558
          35   -0.0299   -0.0250   -0.0117    0.0099    0.0015   -0.0016   -0.0026   -0.0266
          36    0.0110   -0.0464   -0.0251    0.0213    0.0067    0.0005    0.0018   -0.0228
          37   -0.1030    0.0013    0.0372    0.0302    0.0042    0.0135   -0.0187    0.0280
          38    0.0043   -0.0158   -0.0096    0.0066    0.0041   -0.0009    0.0002    0.0036
          39    0.0553   -0.0292   -0.0300    0.0041    0.0061   -0.0099    0.0081   -0.0126
          40    0.1064   -0.0979   -0.0471    0.0514    0.0204   -0.0068    0.0038    0.0614
          41   -0.0397    0.0063    0.0047   -0.0026   -0.0013   -0.0010   -0.0038   -0.0117
          42   -0.0090    0.0111    0.0059   -0.0052   -0.0016    0.0016   -0.0002   -0.0034
          43   -0.0329   -0.0432   -0.0168   -0.0319   -0.0074   -0.0026   -0.0062    0.0113
          44   -0.0611   -0.0813    0.0985    0.0682   -0.0284    0.0516    0.2159   -0.1065
          45    0.0632   -0.0470   -0.0463   -0.0804    0.0025   -0.0369   -0.1789    0.0930
          46    0.0248   -0.0185    0.1073    0.1201    0.0445    0.1880   -0.0390    0.1475
          47    0.0041   -0.0319   -0.0013    0.0101    0.0059    0.0454   -0.0157    0.0386
          48    0.0308   -0.0604   -0.0615   -0.0456   -0.0143   -0.1074    0.0260   -0.0891
          49    0.0528    0.0511    0.0079   -0.0096   -0.0507   -0.1360    0.2213    0.1298
          50   -0.0609    0.0228   -0.0245   -0.0116    0.0258    0.0830   -0.1458   -0.0743
          51    0.0015    0.0493    0.0099    0.0086    0.0013   -0.0082    0.0122   -0.0021


   Root No.      25        26        27        28        29        30        31        32

                25 A      26 A      27 A      28 A      29 A      30 A      31 A      32 A   

                1242.5    1345.8    1361.0    1386.1    1394.9    1400.0    1404.4    1444.3
  
           1    0.0394   -0.0215   -0.0222   -0.0018    0.0001   -0.0398   -0.0099   -0.0115
           2   -0.0198    0.0160    0.0024    0.0191   -0.0053   -0.0246    0.0225   -0.0013
           3    0.0074   -0.0007   -0.0016   -0.0083    0.0024    0.0102   -0.0086    0.0030
           4   -0.0084    0.0407   -0.0232    0.0027    0.0029    0.0481   -0.0031    0.0353
           5    0.0131    0.0167   -0.0028   -0.0203    0.0038   -0.0029   -0.0172    0.0309
           6   -0.0072   -0.0269    0.0025    0.0241   -0.0044    0.0017    0.0196   -0.0403
           7   -0.0177    0.0119    0.0166    0.0230   -0.0156    0.0020    0.0211    0.0369
           8    0.0121   -0.0026    0.0034    0.0129   -0.0208   -0.0040   -0.0196   -0.0048
           9    0.0001   -0.0038   -0.0102   -0.0211   -0.0291    0.0026    0.0017   -0.0121
          10    0.0427    0.0122    0.0115   -0.0072   -0.0031   -0.0010    0.0070   -0.0237
          11   -0.0273    0.0104   -0.0109   -0.0066    0.0029    0.0103   -0.0094   -0.0139
          12   -0.0052   -0.0103    0.0017    0.0064   -0.0017   -0.0036    0.0020    0.0189
          13   -0.0037   -0.0177    0.0101    0.0077   -0.0023   -0.0086    0.0083   -0.0231
          14    0.0031    0.0087    0.0064   -0.0010   -0.0011    0.0022    0.0052   -0.0366
          15    0.0003   -0.0006   -0.0099   -0.0036    0.0021    0.0006   -0.0091    0.0430
          16    0.0073    0.0304   -0.0042   -0.0170    0.0024    0.0123   -0.0079   -0.0504
          17    0.0040   -0.0135   -0.0017   -0.0001    0.0005   -0.0017   -0.0047    0.0175
          18   -0.0053   -0.0056    0.0028    0.0075   -0.0016   -0.0048    0.0062    0.0112
          19   -0.0124   -0.0267   -0.0080    0.0066    0.0008   -0.0080   -0.0053    0.0638
          20   -0.0057   -0.0036    0.0035    0.0066   -0.0014    0.0002    0.0063   -0.0094
          21    0.0100    0.0164    0.0009   -0.0085    0.0006    0.0042   -0.0025   -0.0224
          22   -0.0978   -0.0141    0.0801   -0.0103    0.0009    0.1153    0.0073   -0.0012
          23    0.0909   -0.0641    0.0420   -0.0394    0.0092    0.0630   -0.0342    0.0081
          24   -0.0423    0.0762   -0.0902    0.0560   -0.0133   -0.1513    0.0410   -0.0116
          25   -0.1257   -0.0323    0.1048   -0.0014    0.0045    0.1107    0.0245   -0.0368
          26    0.1034   -0.1068    0.0769   -0.0593    0.0086    0.1385   -0.0558    0.0235
          27   -0.0219   -0.0299    0.0542   -0.0227    0.0061    0.0908   -0.0127   -0.0009
          28   -0.0364   -0.0382    0.0812   -0.0394   -0.0020   -0.1192   -0.0082   -0.0270
          29    0.0290   -0.0687   -0.0985    0.1263   -0.0122    0.1152    0.0667   -0.0566
          30   -0.0052    0.0422    0.0082   -0.0279    0.0047    0.0084   -0.0170    0.0235
          31   -0.0821   -0.0350    0.1044   -0.0325   -0.0052   -0.1282    0.0047   -0.0282
          32   -0.0078   -0.0247    0.0245   -0.0078   -0.0016   -0.0429   -0.0008   -0.0048
          33   -0.0244    0.0888    0.0909   -0.1297    0.0132   -0.1077   -0.0693    0.0624
          34   -0.0537   -0.0617   -0.0523   -0.0264    0.1453   -0.0121   -0.0560   -0.0399
          35    0.0192    0.0260    0.0176   -0.0322   -0.1637    0.0120    0.0865    0.0434
          36    0.0446    0.0603    0.0807    0.1882    0.1040   -0.0128   -0.1258    0.0036
          37   -0.1272   -0.0395   -0.0629    0.0096    0.1493    0.0008   -0.1456   -0.0831
          38   -0.0033   -0.0101   -0.0078    0.0124    0.2069   -0.0083   -0.0233   -0.0229
          39    0.0638    0.0223    0.0368    0.0087    0.2902   -0.0080    0.1045    0.0443
          40   -0.0775   -0.0859   -0.0916   -0.1196   -0.0981    0.0022   -0.0196   -0.0459
          41   -0.0050   -0.0174   -0.0359   -0.1407    0.2062    0.0086    0.1833    0.0241
          42    0.0046   -0.0006   -0.0030    0.0005   -0.0340    0.0005   -0.0195   -0.0133
          43   -0.0055   -0.0163    0.0105    0.0093   -0.0025   -0.0067    0.0100   -0.0264
          44   -0.0026   -0.0618   -0.0106    0.0009    0.0021   -0.0303   -0.0142    0.0742
          45    0.0033    0.0646    0.0022   -0.0046   -0.0001    0.0328    0.0079   -0.0525
          46    0.0635   -0.0303    0.0298    0.0273   -0.0097   -0.0174    0.0379    0.0301
          47    0.0183   -0.0309    0.0063    0.0114   -0.0018   -0.0096    0.0057    0.0406
          48   -0.0349    0.0322   -0.0170   -0.0193    0.0067    0.0122   -0.0201   -0.0399
          49   -0.0197    0.0018    0.0262    0.0167   -0.0055   -0.0054    0.0250   -0.0674
          50   -0.0006   -0.0248   -0.0187    0.0015    0.0028   -0.0016   -0.0126    0.0784
          51    0.0114    0.0200    0.0023   -0.0091    0.0007    0.0054   -0.0015   -0.0311


   Root No.      33        34        35        36        37        38        39        40

                33 A      34 A      35 A      36 A      37 A      38 A      39 A      40 A   

                1479.4    1847.1    1872.8    2934.4    2947.3    3021.0    3027.9    3054.4
  
           1   -0.0609   -0.0019    0.0008    0.0017   -0.0012    0.0149   -0.0082    0.0006
           2    0.0634   -0.0016   -0.0203    0.0115   -0.0096    0.0194   -0.0112    0.0009
           3   -0.0180    0.0003    0.0115    0.0306   -0.0268   -0.0100    0.0066   -0.0006
           4    0.0251   -0.0044    0.0028   -0.0019   -0.0018    0.0092    0.0140   -0.0009
           5    0.0010   -0.0201    0.0113   -0.0214   -0.0247   -0.0097   -0.0168    0.0012
           6   -0.0066    0.0203   -0.0098   -0.0188   -0.0211    0.0089    0.0136   -0.0005
           7   -0.0711   -0.0086   -0.0258    0.0001   -0.0001   -0.0001    0.0001    0.0001
           8    0.0217    0.0006   -0.0018    0.0000   -0.0000   -0.0002    0.0001   -0.0009
           9    0.0167    0.0031    0.0113    0.0001   -0.0001   -0.0001    0.0001    0.0008
          10    0.0889    0.0414    0.1120   -0.0002   -0.0000   -0.0002   -0.0002    0.0009
          11   -0.0836    0.0363    0.1267    0.0003   -0.0001    0.0005   -0.0002    0.0010
          12    0.0098   -0.0372   -0.1190   -0.0001   -0.0000   -0.0002    0.0002   -0.0010
          13   -0.0046   -0.0819    0.0228   -0.0003   -0.0005   -0.0016   -0.0036   -0.0189
          14   -0.0122    0.1624   -0.0554    0.0004    0.0002    0.0001    0.0007    0.0038
          15    0.0121   -0.1044    0.0371   -0.0001   -0.0001    0.0006    0.0011    0.0055
          16   -0.0195   -0.0715   -0.1127   -0.0001    0.0000   -0.0004    0.0004    0.0093
          17    0.0189   -0.0180   -0.1024    0.0000   -0.0000    0.0004   -0.0004   -0.0222
          18   -0.0030    0.0392    0.1074    0.0002   -0.0001   -0.0001    0.0000    0.0089
          19    0.0095    0.1433   -0.0174    0.0001    0.0001   -0.0000    0.0000    0.0107
          20   -0.0008   -0.1511    0.0488   -0.0002   -0.0001   -0.0000    0.0002    0.0158
          21   -0.0047    0.0626   -0.0327   -0.0001   -0.0001    0.0000   -0.0002   -0.0190
          22    0.0584    0.0055    0.0089   -0.0955    0.0852   -0.0810    0.0465   -0.0027
          23   -0.0396   -0.0047   -0.0057   -0.1992    0.1680   -0.1753    0.0989   -0.0055
          24    0.0268    0.0028   -0.0030   -0.1705    0.1430   -0.1743    0.0994   -0.0057
          25    0.0661    0.0224    0.0187    0.0741   -0.0691   -0.0946    0.0600   -0.0036
          26   -0.0635   -0.0179   -0.0379    0.0567   -0.0516   -0.0597    0.0358   -0.0022
          27   -0.0023    0.0041    0.0092   -0.1963    0.1782    0.2935   -0.1773    0.0107
          28   -0.0140   -0.0058   -0.0004    0.0850    0.0996   -0.0487   -0.0763    0.0031
          29    0.0094   -0.0005   -0.0042    0.0830    0.0913   -0.0625   -0.0982    0.0050
          30    0.0047    0.0066   -0.0010    0.2184    0.2419   -0.1341   -0.2077    0.0107
          31    0.0187   -0.0198   -0.0075   -0.0627   -0.0764   -0.0558   -0.0979    0.0059
          32    0.0011   -0.0233    0.0064    0.1724    0.2043    0.1786    0.2977   -0.0215
          33   -0.0066    0.0295   -0.0053    0.0110    0.0129    0.0262    0.0442   -0.0018
          34    0.0865   -0.0057   -0.0249   -0.0004    0.0003    0.0012   -0.0007    0.0014
          35   -0.0768    0.0010    0.0048   -0.0003    0.0003    0.0021   -0.0013    0.0017
          36   -0.0250    0.0047    0.0103   -0.0000    0.0000    0.0006   -0.0003    0.0012
          37    0.0425    0.0129    0.0402    0.0004   -0.0004   -0.0010    0.0005   -0.0047
          38    0.0345    0.0056    0.0122   -0.0007    0.0007    0.0021   -0.0011    0.0090
          39   -0.0326   -0.0082   -0.0237    0.0003   -0.0004   -0.0011    0.0006   -0.0040
          40    0.0948   -0.0057   -0.0192    0.0003   -0.0002   -0.0003    0.0002    0.0001
          41   -0.0346   -0.0004    0.0036   -0.0003    0.0002    0.0003   -0.0002   -0.0009
          42    0.0204    0.0009    0.0058   -0.0005    0.0002    0.0020   -0.0014   -0.0054
          43   -0.0043   -0.1064    0.0317    0.0046    0.0044    0.0149    0.0421    0.2257
          44    0.0026   -0.0065    0.0137   -0.0019   -0.0024   -0.0040   -0.0100   -0.0466
          45   -0.0007    0.0627   -0.0290   -0.0014   -0.0014   -0.0031   -0.0105   -0.0653
          46    0.0675   -0.0211    0.0947   -0.0002   -0.0000    0.0041   -0.0030   -0.1165
          47    0.0415   -0.0145   -0.0775    0.0010   -0.0005   -0.0088    0.0065    0.2501
          48   -0.0553    0.0156    0.0013    0.0000   -0.0001    0.0035   -0.0025   -0.0939
          49   -0.0279   -0.0728    0.0666   -0.0000   -0.0004    0.0008   -0.0005   -0.1300
          50    0.0263   -0.0402    0.0030   -0.0000   -0.0004    0.0015    0.0000   -0.1841
          51   -0.0053    0.0740   -0.0349   -0.0004   -0.0001   -0.0016    0.0003    0.2237


   Root No.      41        42        43        44        45

                41 A      42 A      43 A      44 A      45 A   

                3060.2    3066.7    3076.0    3077.4    3167.0
  
           1    0.0000   -0.0002   -0.0003    0.0005   -0.0001
           2    0.0003   -0.0002    0.0001    0.0005    0.0000
           3   -0.0001    0.0001    0.0001   -0.0005    0.0001
           4    0.0011    0.0000   -0.0003   -0.0012   -0.0000
           5   -0.0015   -0.0000    0.0004    0.0017    0.0000
           6    0.0008    0.0000   -0.0002   -0.0010   -0.0000
           7    0.0002   -0.0188   -0.0007    0.0000    0.0234
           8   -0.0016   -0.0238   -0.0381    0.0071   -0.0056
           9    0.0017   -0.0457    0.0200   -0.0038   -0.0062
          10    0.0016    0.0001   -0.0002    0.0009    0.0004
          11    0.0016    0.0000   -0.0003    0.0005   -0.0000
          12   -0.0016   -0.0002    0.0003   -0.0007   -0.0002
          13    0.0250    0.0004   -0.0059   -0.0242   -0.0000
          14   -0.0060   -0.0001    0.0019    0.0079    0.0000
          15   -0.0065   -0.0001    0.0011    0.0045   -0.0000
          16    0.0126    0.0002    0.0007    0.0044   -0.0003
          17   -0.0301   -0.0009   -0.0002   -0.0096    0.0002
          18    0.0120    0.0002   -0.0002    0.0037    0.0000
          19   -0.0056    0.0000   -0.0022   -0.0096    0.0001
          20   -0.0053    0.0001   -0.0042   -0.0187   -0.0000
          21    0.0073   -0.0002    0.0047    0.0210   -0.0000
          22   -0.0006    0.0003   -0.0001   -0.0012    0.0003
          23   -0.0013    0.0014    0.0004   -0.0027    0.0004
          24   -0.0014    0.0014    0.0003   -0.0028    0.0004
          25   -0.0009    0.0016   -0.0001   -0.0020    0.0009
          26   -0.0006    0.0002    0.0009   -0.0015    0.0001
          27    0.0024   -0.0039   -0.0017    0.0065   -0.0017
          28   -0.0040   -0.0000    0.0010    0.0039    0.0000
          29   -0.0063   -0.0001    0.0015    0.0061    0.0000
          30   -0.0135   -0.0002    0.0031    0.0126    0.0001
          31   -0.0070   -0.0003    0.0017    0.0069   -0.0000
          32    0.0260    0.0007   -0.0061   -0.0247   -0.0000
          33    0.0021    0.0001   -0.0005   -0.0021    0.0000
          34    0.0024    0.2332    0.1478   -0.0278   -0.1749
          35    0.0025    0.3095    0.1777   -0.0334   -0.2476
          36    0.0020    0.0877    0.0786   -0.0148   -0.0882
          37   -0.0085    0.0100   -0.1402    0.0260   -0.1124
          38    0.0174   -0.0579    0.3109   -0.0585    0.2869
          39   -0.0078   -0.0004   -0.1534    0.0289   -0.1460
          40    0.0002   -0.0177    0.0021   -0.0005    0.0053
          41   -0.0020    0.0338   -0.0361    0.0070    0.0277
          42   -0.0127    0.4610   -0.1634    0.0324    0.3088
          43   -0.2940   -0.0049    0.0644    0.2615    0.0002
          44    0.0620    0.0011   -0.0140   -0.0569   -0.0000
          45    0.0838    0.0014   -0.0180   -0.0730   -0.0001
          46   -0.1605   -0.0041   -0.0007   -0.0512    0.0022
          47    0.3382    0.0090    0.0028    0.1042   -0.0035
          48   -0.1255   -0.0028   -0.0012   -0.0379    0.0011
          49    0.0562   -0.0005    0.0295    0.1310   -0.0001
          50    0.0724   -0.0009    0.0422    0.1861   -0.0000
          51   -0.0906    0.0010   -0.0511   -0.2261    0.0001


           MASS-WEIGHTED COORDINATE ANALYSIS (NORMAL COORDINATES)


   Root No.       1         2         3         4         5         6         7         8

                 1 A       2 A       3 A       4 A       5 A       6 A       7 A       8 A   

                 107.4     114.3     184.5     363.1     396.0     474.2     511.8     541.2
  
           1   -0.0380    0.0440    0.0397    0.0979    0.0730    0.1299    0.0338    0.3126
           2   -0.0605    0.1875    0.0288   -0.2945    0.0724    0.1061    0.2125    0.1484
           3   -0.1336    0.4261    0.0117    0.0515   -0.1065   -0.0871   -0.1169   -0.1139
           4   -0.0393    0.0501    0.0350    0.1582    0.0974    0.1245    0.1338    0.3336
           5   -0.0386   -0.2568    0.1700    0.0399   -0.1139   -0.0531    0.1202   -0.2398
           6   -0.0248   -0.2692    0.1185   -0.0514   -0.0218    0.0044   -0.1432    0.2352
           7    0.0408   -0.1174   -0.1123   -0.0397   -0.1234   -0.1482   -0.4246    0.0171
           8    0.0314   -0.0843   -0.1697    0.4603    0.0137    0.0649    0.0381    0.0697
           9    0.0838   -0.2592   -0.2365   -0.2370   -0.0910    0.0144    0.1642   -0.0480
          10   -0.0156    0.0194    0.0485   -0.0609    0.0647    0.0170   -0.4208   -0.0961
          11   -0.0258    0.0468    0.0786   -0.3286    0.2262    0.2211   -0.0062   -0.0277
          12   -0.0565    0.0707    0.1307    0.1240    0.3519    0.3624   -0.1561   -0.3307
          13    0.0169   -0.0065   -0.1147    0.0339    0.1234    0.0233    0.4509   -0.1725
          14    0.0396   -0.0054   -0.2765    0.1089    0.1719   -0.1997   -0.0769   -0.1348
          15    0.0668   -0.0876   -0.3257   -0.0825    0.2245   -0.1491   -0.0765    0.0965
          16   -0.0021   -0.0037    0.1627   -0.0900    0.0033   -0.1640    0.0770   -0.2214
          17    0.0021    0.0262    0.2373   -0.2175    0.0550   -0.1748   -0.1441    0.2958
          18   -0.0140    0.0338    0.4011    0.2217    0.1205   -0.2376    0.1318   -0.0495
          19    0.0277    0.0340   -0.0186   -0.1259   -0.1928    0.0542    0.1420   -0.2544
          20    0.0413    0.1302   -0.0429    0.0580   -0.3180    0.0658   -0.2048   -0.0954
          21    0.0556    0.1187   -0.0240    0.0386   -0.2753    0.2739    0.0983    0.2246
          22    0.0057   -0.1403    0.0440    0.0682    0.0365    0.0802    0.0178    0.1624
          23    0.0007   -0.0248    0.0220   -0.1043    0.1345    0.1886   -0.0019    0.0135
          24   -0.0695    0.3020   -0.0305    0.0162   -0.1749   -0.2394    0.0383   -0.0395
          25   -0.0353    0.1315   -0.0060    0.0566   -0.0194   -0.0131    0.0750    0.0192
          26   -0.0444    0.2364   -0.0260   -0.1077   -0.1328   -0.2027    0.1148    0.0809
          27   -0.0549    0.2163   -0.0125    0.0172   -0.0892   -0.1105    0.0043   -0.0514
          28   -0.0325    0.1700   -0.0195    0.0300    0.0513    0.0451    0.0371    0.1606
          29   -0.0284   -0.2414    0.2281    0.0539   -0.2285    0.0632    0.0390   -0.1711
          30    0.0077   -0.0763   -0.0215   -0.0245    0.0554   -0.0314   -0.0424    0.0789
          31   -0.0049   -0.0912    0.0478    0.1111   -0.0259    0.0147   -0.0177    0.0416
          32   -0.0077   -0.0969    0.0481    0.0340   -0.0383   -0.0302    0.0120   -0.0852
          33   -0.0202   -0.2589    0.2136   -0.0001   -0.1946    0.0925   -0.0060   -0.0124
          34    0.0841    0.0274    0.0577   -0.1449    0.0614    0.0216   -0.1738   -0.0699
          35   -0.2214   -0.0845   -0.1290    0.2390   -0.0524   -0.0141    0.0336    0.0634
          36    0.5423   -0.0420   -0.0457   -0.0579   -0.0938   -0.0545    0.1021    0.0428
          37   -0.1743   -0.0608   -0.0789    0.1814   -0.0462   -0.0422   -0.1363    0.0166
          38   -0.2696   -0.0853   -0.1220    0.1769   -0.0411   -0.0066    0.0281    0.0512
          39   -0.3792   -0.1764   -0.1760   -0.1703   -0.1112   -0.0510    0.0974    0.0367
          40    0.1569   -0.1023   -0.1187   -0.0756   -0.1899   -0.1603   -0.0319    0.1171
          41    0.5543    0.0660    0.0376    0.2357    0.0287    0.0272   -0.0015    0.0184
          42   -0.0224   -0.0871   -0.0813   -0.0831   -0.0377   -0.0034    0.0545   -0.0078
          43    0.0138   -0.0015   -0.1036    0.0101    0.0787   -0.0129    0.1375   -0.0971
          44    0.0255    0.0145   -0.2105    0.0680    0.1487   -0.0714   -0.0060   -0.0471
          45    0.0402   -0.0395   -0.2416   -0.0492    0.1405   -0.1020   -0.0076   -0.1374
          46    0.0003   -0.0290    0.0857   -0.0514    0.0369   -0.1473    0.1327   -0.0191
          47    0.0030   -0.0226    0.1180   -0.0533    0.0370   -0.2014    0.0270    0.1199
          48    0.0016   -0.0370    0.2005    0.1162    0.0470   -0.3480    0.0819    0.0235
          49    0.0195    0.0275   -0.0479   -0.0941   -0.1405    0.0876   -0.0131   -0.0512
          50    0.0245    0.0861   -0.0552    0.0575   -0.2267    0.1429   -0.0336   -0.0997
          51    0.0331    0.0840   -0.0665    0.0117   -0.2399    0.2217    0.0168    0.0174


   Root No.       9        10        11        12        13        14        15        16

                 9 A      10 A      11 A      12 A      13 A      14 A      15 A      16 A   

                 729.8     781.7     841.5     887.3     940.6     954.2     978.7     995.7
  
           1    0.0406   -0.0817   -0.0880   -0.0236   -0.1307    0.2041   -0.0302   -0.0171
           2   -0.0264   -0.0841    0.2391   -0.0014   -0.0786    0.3741    0.0652    0.1988
           3   -0.1261   -0.1679    0.1477   -0.1316    0.3805   -0.1420    0.0040   -0.1582
           4    0.0282   -0.0534   -0.1770   -0.0240    0.0753   -0.1165    0.0637    0.0679
           5   -0.1536    0.0112    0.3089    0.1429   -0.2297   -0.1324   -0.1461   -0.1668
           6   -0.1647   -0.1745   -0.0721    0.0430   -0.1206   -0.1014    0.0151    0.1332
           7    0.0922    0.1306    0.3316    0.1306   -0.0335    0.0473   -0.0501    0.1373
           8    0.0233   -0.0056   -0.1001    0.0668    0.0734   -0.2157   -0.0885    0.2348
           9   -0.0138   -0.0376   -0.1636    0.1266   -0.0857    0.0429   -0.2117   -0.0779
          10    0.0757    0.0712    0.0214    0.0327   -0.0180    0.0169    0.0349   -0.0930
          11    0.1039    0.0431   -0.1294    0.0109    0.0580   -0.1219    0.0738   -0.0622
          12    0.0531    0.0512   -0.0487    0.0683   -0.0579    0.0759    0.1236   -0.0348
          13    0.0386    0.2779    0.2199    0.1270    0.1362   -0.1782    0.1117   -0.0501
          14   -0.1235    0.0808   -0.1014    0.0588    0.0592    0.0164    0.2120    0.0331
          15   -0.0299    0.1235   -0.1318    0.0769   -0.0174    0.1030    0.1711   -0.0717
          16   -0.1472   -0.1131   -0.1233   -0.1904   -0.1126   -0.0057    0.0296    0.1145
          17    0.1498    0.1297   -0.0244   -0.2046   -0.0094   -0.2456   -0.0635   -0.3298
          18   -0.0463    0.0469    0.1160   -0.3047   -0.2606   -0.0235    0.0334    0.1927
          19   -0.2321   -0.0828   -0.2239   -0.0480    0.0642    0.0947   -0.1173   -0.0232
          20   -0.2443   -0.0482   -0.2347   -0.0581    0.1388    0.1778   -0.1505    0.1224
          21    0.0494    0.3403    0.2168    0.0993    0.1582    0.0320   -0.2450   -0.0252
          22   -0.1257   -0.2094    0.0607   -0.0248   -0.0196   -0.0963   -0.2482   -0.0472
          23   -0.0813   -0.0943    0.1941   -0.0812    0.1756    0.2280    0.1678    0.0533
          24    0.1359    0.1451   -0.1620    0.0686   -0.1382   -0.0900   -0.0321   -0.0127
          25    0.1253    0.1217   -0.1175    0.0152   -0.1092    0.1202    0.0741   -0.0897
          26    0.1687    0.1483   -0.1297    0.1211   -0.3256    0.1341   -0.0224    0.2202
          27    0.0565    0.0566   -0.0468    0.0043    0.0007   -0.0141    0.0223   -0.0350
          28   -0.1231   -0.1980    0.0943   -0.0365    0.0417   -0.0593   -0.1952   -0.0254
          29    0.3037    0.1081   -0.0547   -0.1067    0.1857    0.1305   -0.0001   -0.0420
          30   -0.1182   -0.0151   -0.0303    0.0776   -0.1365   -0.0774    0.0768    0.0563
          31    0.1342    0.0714   -0.2715   -0.0477    0.0882   -0.1305    0.1155   -0.0795
          32   -0.0228    0.0292    0.0226    0.0373   -0.0590   -0.0915   -0.0129   -0.0956
          33    0.2983    0.0650   -0.1540   -0.1153    0.1898    0.2057    0.0968    0.1733
          34    0.0945    0.0491    0.0317    0.2424    0.0530   -0.2313   -0.2031    0.3786
          35   -0.0303   -0.0062    0.0097   -0.0844   -0.0459    0.1289    0.0626   -0.1785
          36   -0.0574   -0.0206    0.0034   -0.1567    0.0229    0.0367    0.1415   -0.1015
          37    0.0102    0.0433    0.1532    0.0274   -0.1747    0.3448   -0.0200   -0.3028
          38   -0.0174   -0.0003    0.0074   -0.0559   -0.0014    0.0238    0.0488   -0.0360
          39   -0.0395   -0.0135   -0.0220   -0.1111    0.0919   -0.1338    0.1032    0.1042
          40   -0.0562    0.0394    0.2412   -0.2906    0.1408   -0.0599    0.3685    0.1076
          41    0.0041   -0.0016   -0.0198    0.0208   -0.0642    0.1001   -0.0401   -0.1197
          42   -0.0092   -0.0111   -0.0421    0.0161   -0.0085   -0.0080   -0.0380   -0.0026
          43    0.1885   -0.0460    0.1091   -0.1016    0.0366   -0.0420   -0.1241    0.0072
          44    0.3479   -0.1707    0.0666   -0.2339    0.0733   -0.0374   -0.1637    0.1392
          45    0.3303   -0.2631    0.0555   -0.2773   -0.0627    0.1063   -0.3313   -0.0292
          46    0.0429   -0.1519   -0.0472    0.1777    0.1309    0.0158    0.0097   -0.1469
          47    0.1261   -0.1359   -0.0132    0.2457    0.2079    0.0176    0.0037   -0.1793
          48    0.0998   -0.3023    0.0342    0.4357    0.2773    0.2156    0.0699    0.0732
          49    0.0683   -0.2331   -0.1180    0.0236   -0.1218   -0.0771    0.0772   -0.2721
          50    0.1365   -0.3145    0.0618    0.0844   -0.1863   -0.1253    0.2932    0.1338
          51    0.2639   -0.2692    0.1420    0.1348   -0.2244   -0.1956    0.2692   -0.0814


   Root No.      17        18        19        20        21        22        23        24

                17 A      18 A      19 A      20 A      21 A      22 A      23 A      24 A   

                1007.0    1039.9    1075.3    1088.5    1111.1    1124.9    1158.0    1224.3
  
           1    0.2505    0.0667   -0.0802   -0.2004    0.1697    0.1358    0.0452   -0.0059
           2    0.0008    0.0860    0.1080   -0.0351    0.1624   -0.0923    0.0495   -0.0221
           3   -0.0969    0.1567    0.0782   -0.1368    0.1617    0.0128    0.0139   -0.0007
           4   -0.1422   -0.0787    0.1178    0.0726   -0.1851   -0.1367   -0.0706    0.1791
           5    0.2179   -0.1184    0.0526    0.0128   -0.1322   -0.0163    0.0271   -0.0148
           6   -0.2017   -0.2311   -0.0217   -0.0321   -0.2269    0.0788   -0.0277   -0.0220
           7   -0.0217    0.0846    0.0946    0.0079   -0.0012   -0.0130   -0.0164    0.0761
           8    0.1505    0.0917   -0.0143   -0.0981   -0.0147   -0.0077    0.0257    0.0197
           9   -0.1823    0.1598    0.0964   -0.0661   -0.0242    0.0211   -0.0109   -0.0458
          10   -0.0331   -0.1203   -0.1289    0.0303    0.0052   -0.0520    0.0179   -0.2006
          11    0.0392   -0.1523   -0.0508    0.1394    0.0524    0.0680   -0.0668   -0.0893
          12    0.1078   -0.2509   -0.1694    0.1613    0.0496   -0.0369    0.0398    0.1368
          13   -0.2971    0.0133   -0.2341   -0.1412   -0.0068   -0.0095   -0.0109    0.0463
          14   -0.0711    0.2007   -0.0477    0.0975    0.0115    0.0494    0.0384    0.1463
          15    0.2020    0.2956   -0.0042    0.1359    0.0056   -0.0489   -0.0408   -0.1736
          16    0.0165    0.0759    0.1875    0.1436    0.0240    0.1138    0.0188   -0.2357
          17   -0.1528    0.0975   -0.1423   -0.1892   -0.0630   -0.0056   -0.0226   -0.0421
          18   -0.0023    0.1753    0.0667   -0.0171    0.0041   -0.0489    0.0236    0.1381
          19   -0.0018   -0.0779   -0.0678   -0.0912   -0.0312   -0.0774   -0.0072   -0.0799
          20   -0.0570   -0.1381   -0.0594   -0.0508   -0.0234    0.0373   -0.0099    0.1505
          21    0.1176   -0.1571    0.1391    0.1084    0.0356    0.0274    0.0183   -0.0646
          22    0.0651    0.1376   -0.2825    0.1486    0.5735    0.0727    0.1290   -0.0924
          23   -0.0360    0.0828    0.2671   -0.1892   -0.1773   -0.0948   -0.0610    0.0426
          24    0.0203   -0.0949   -0.0984    0.0518    0.0108    0.0584    0.0223   -0.0050
          25    0.3972    0.0096    0.0419   -0.2906   -0.2909    0.3598    0.0490   -0.1693
          26   -0.1151   -0.1393   -0.0771    0.2300    0.1218   -0.2368   -0.0308    0.1079
          27    0.0586   -0.0061    0.0143   -0.0648   -0.0585    0.0706    0.0083   -0.0295
          28    0.0568    0.1521   -0.1625    0.4628   -0.4652   -0.1031   -0.2094   -0.0771
          29    0.0977    0.2378    0.0007    0.1883   -0.0109   -0.1028   -0.0735   -0.1089
          30   -0.1092   -0.2389    0.0773   -0.2613    0.0875    0.0895    0.0976    0.0896
          31    0.0290   -0.0940    0.4512   -0.0220    0.2613   -0.3387   -0.2669   -0.0810
          32    0.0981   -0.0780    0.1909   -0.0084    0.0730   -0.1286   -0.0880   -0.0718
          33   -0.1819    0.1565   -0.2400   -0.0073   -0.0605    0.1714    0.1167    0.1554
          34    0.1151    0.2079    0.0993   -0.0915   -0.0169    0.0011    0.0085    0.1519
          35   -0.0790   -0.0671   -0.0312    0.0252    0.0034   -0.0041   -0.0060   -0.0723
          36    0.0291   -0.1244   -0.0670    0.0543    0.0156    0.0012    0.0040   -0.0621
          37   -0.2725    0.0036    0.0993    0.0771    0.0098    0.0345   -0.0428    0.0762
          38    0.0114   -0.0425   -0.0256    0.0169    0.0095   -0.0022    0.0006    0.0098
          39    0.1464   -0.0782   -0.0801    0.0105    0.0140   -0.0254    0.0186   -0.0344
          40    0.2816   -0.2625   -0.1257    0.1311    0.0473   -0.0174    0.0087    0.1672
          41   -0.1050    0.0169    0.0126   -0.0068   -0.0031   -0.0027   -0.0088   -0.0318
          42   -0.0238    0.0297    0.0158   -0.0132   -0.0037    0.0041   -0.0004   -0.0092
          43   -0.0870   -0.1158   -0.0448   -0.0815   -0.0172   -0.0066   -0.0141    0.0309
          44   -0.1618   -0.2179    0.2628    0.1742   -0.0657    0.1316    0.4956   -0.2902
          45    0.1673   -0.1260   -0.1235   -0.2054    0.0057   -0.0942   -0.4107    0.2532
          46    0.0655   -0.0496    0.2863    0.3067    0.1029    0.4793   -0.0896    0.4019
          47    0.0108   -0.0855   -0.0035    0.0257    0.0136    0.1158   -0.0360    0.1050
          48    0.0816   -0.1620   -0.1641   -0.1163   -0.0332   -0.2738    0.0597   -0.2426
          49    0.1397    0.1372    0.0209   -0.0246   -0.1173   -0.3467    0.5080    0.3535
          50   -0.1613    0.0611   -0.0654   -0.0296    0.0597    0.2117   -0.3346   -0.2023
          51    0.0040    0.1323    0.0265    0.0220    0.0031   -0.0208    0.0280   -0.0057


   Root No.      25        26        27        28        29        30        31        32

                25 A      26 A      27 A      28 A      29 A      30 A      31 A      32 A   

                1242.5    1345.8    1361.0    1386.1    1394.9    1400.0    1404.4    1444.3
  
           1    0.3374   -0.1926   -0.2182   -0.0154    0.0006   -0.3061   -0.0901   -0.0768
           2   -0.1692    0.1434    0.0240    0.1662   -0.0346   -0.1893    0.2037   -0.0084
           3    0.0635   -0.0066   -0.0158   -0.0720    0.0156    0.0788   -0.0779    0.0203
           4   -0.0722    0.3657   -0.2275    0.0234    0.0186    0.3702   -0.0285    0.2363
           5    0.1123    0.1498   -0.0272   -0.1766    0.0245   -0.0221   -0.1561    0.2066
           6   -0.0617   -0.2418    0.0242    0.2093   -0.0287    0.0131    0.1777   -0.2699
           7   -0.1513    0.1070    0.1633    0.2004   -0.1014    0.0154    0.1909    0.2470
           8    0.1039   -0.0230    0.0336    0.1125   -0.1355   -0.0311   -0.1774   -0.0318
           9    0.0006   -0.0345   -0.1001   -0.1831   -0.1892    0.0197    0.0156   -0.0808
          10    0.3659    0.1095    0.1128   -0.0630   -0.0199   -0.0073    0.0631   -0.1589
          11   -0.2334    0.0937   -0.1068   -0.0572    0.0185    0.0789   -0.0848   -0.0929
          12   -0.0449   -0.0923    0.0170    0.0555   -0.0112   -0.0276    0.0184    0.1266
          13   -0.0318   -0.1587    0.0990    0.0670   -0.0151   -0.0665    0.0749   -0.1544
          14    0.0269    0.0780    0.0626   -0.0083   -0.0069    0.0173    0.0467   -0.2449
          15    0.0029   -0.0051   -0.0974   -0.0309    0.0136    0.0043   -0.0820    0.2876
          16    0.0622    0.2733   -0.0409   -0.1482    0.0155    0.0948   -0.0713   -0.3375
          17    0.0345   -0.1207   -0.0168   -0.0011    0.0032   -0.0134   -0.0425    0.1175
          18   -0.0458   -0.0504    0.0272    0.0656   -0.0104   -0.0372    0.0563    0.0751
          19   -0.1062   -0.2395   -0.0780    0.0575    0.0053   -0.0617   -0.0479    0.4274
          20   -0.0485   -0.0324    0.0341    0.0570   -0.0091    0.0019    0.0574   -0.0630
          21    0.0860    0.1476    0.0089   -0.0736    0.0039    0.0326   -0.0226   -0.1501
          22   -0.2427   -0.0366    0.2277   -0.0260    0.0017    0.2570    0.0191   -0.0023
          23    0.2255   -0.1666    0.1195   -0.0993    0.0174    0.1404   -0.0897    0.0156
          24   -0.1049    0.1982   -0.2563    0.1410   -0.0251   -0.3372    0.1077   -0.0225
          25   -0.3119   -0.0841    0.2979   -0.0035    0.0084    0.2466    0.0644   -0.0714
          26    0.2564   -0.2776    0.2187   -0.1494    0.0161    0.3086   -0.1464    0.0456
          27   -0.0544   -0.0778    0.1541   -0.0573    0.0116    0.2023   -0.0333   -0.0018
          28   -0.0904   -0.0994    0.2308   -0.0993   -0.0037   -0.2655   -0.0216   -0.0524
          29    0.0719   -0.1786   -0.2799    0.3181   -0.0229    0.2566    0.1749   -0.1097
          30   -0.0128    0.1096    0.0233   -0.0702    0.0089    0.0187   -0.0446    0.0456
          31   -0.2037   -0.0911    0.2968   -0.0820   -0.0099   -0.2856    0.0124   -0.0546
          32   -0.0193   -0.0642    0.0696   -0.0198   -0.0031   -0.0955   -0.0020   -0.0094
          33   -0.0604    0.2310    0.2584   -0.3267    0.0249   -0.2399   -0.1817    0.1210
          34   -0.1333   -0.1604   -0.1486   -0.0664    0.2736   -0.0269   -0.1468   -0.0774
          35    0.0477    0.0675    0.0501   -0.0812   -0.3083    0.0267    0.2270    0.0841
          36    0.1106    0.1568    0.2295    0.4741    0.1958   -0.0286   -0.3300    0.0070
          37   -0.3156   -0.1026   -0.1789    0.0241    0.2812    0.0017   -0.3820   -0.1612
          38   -0.0081   -0.0264   -0.0223    0.0313    0.3897   -0.0185   -0.0612   -0.0445
          39    0.1582    0.0579    0.1046    0.0220    0.5466   -0.0178    0.2743    0.0860
          40   -0.1922   -0.2234   -0.2603   -0.3014   -0.1848    0.0048   -0.0514   -0.0890
          41   -0.0124   -0.0452   -0.1022   -0.3545    0.3883    0.0192    0.4809    0.0468
          42    0.0115   -0.0016   -0.0086    0.0012   -0.0640    0.0012   -0.0513   -0.0259
          43   -0.0135   -0.0425    0.0299    0.0235   -0.0047   -0.0150    0.0261   -0.0512
          44   -0.0065   -0.1607   -0.0300    0.0024    0.0039   -0.0676   -0.0373    0.1438
          45    0.0083    0.1680    0.0063   -0.0116   -0.0001    0.0730    0.0206   -0.1018
          46    0.1574   -0.0787    0.0847    0.0689   -0.0182   -0.0389    0.0995    0.0583
          47    0.0455   -0.0802    0.0178    0.0287   -0.0035   -0.0213    0.0150    0.0788
          48   -0.0866    0.0836   -0.0485   -0.0485    0.0126    0.0271   -0.0528   -0.0774
          49   -0.0489    0.0047    0.0744    0.0422   -0.0103   -0.0120    0.0656   -0.1307
          50   -0.0014   -0.0646   -0.0533    0.0039    0.0052   -0.0036   -0.0331    0.1521
          51    0.0284    0.0521    0.0066   -0.0229    0.0013    0.0121   -0.0039   -0.0603


   Root No.      33        34        35        36        37        38        39        40

                33 A      34 A      35 A      36 A      37 A      38 A      39 A      40 A   

                1479.4    1847.1    1872.8    2934.4    2947.3    3021.0    3027.9    3054.4
  
           1   -0.3242   -0.0057    0.0028    0.0122   -0.0085    0.1056   -0.0590    0.0043
           2    0.3376   -0.0049   -0.0677    0.0807   -0.0676    0.1373   -0.0806    0.0059
[...]
 REDUCED MASS        0.1946         C  1 -- H  8         +11.5% ( 35.3%)      2.2%
 EFFECTIVE MASS      2.7279
 FORCE CONSTANT      0.2123

 VIBRATION         28   28A           ATOM PAIR      ENERGY CONTRIBUTION    RADIAL
 FREQUENCY          1386.09         C  3 -- H 12         +17.9% ( 46.4%)      3.6%
 TRANSITION DIPOLE   0.0254         C  3 -- H 14         +16.7% ( 44.8%)      5.0%
 TRAVEL (Ang.)       0.3934         C  2 -- H 10         +11.2% ( 36.7%)      4.5%
 REDUCED MASS        0.3143         C  2 -- H 11         +10.9% ( 36.1%)      5.9%
 EFFECTIVE MASS      3.5432
 FORCE CONSTANT      0.3558

 VIBRATION         29   29A           ATOM PAIR      ENERGY CONTRIBUTION    RADIAL
 FREQUENCY          1394.86         C  3 -- H 13         +52.5% ( 63.0%)      0.0%
 TRANSITION DIPOLE   0.0735         C  3 -- H 12         +20.9% ( 39.7%)     11.6%
 TRAVEL (Ang.)       0.3423         C  3 -- H 14         +19.6% ( 38.5%)     10.8%
 REDUCED MASS        0.4126         C  3 -- C  4          +4.9% ( 19.3%)      0.0%
 EFFECTIVE MASS      1.6028
 FORCE CONSTANT      0.4730

 VIBRATION         30   30A           ATOM PAIR      ENERGY CONTRIBUTION    RADIAL
 FREQUENCY          1399.95         C  1 -- H  8         +17.3% ( 47.9%)      5.2%
 TRANSITION DIPOLE   0.0589         C  1 -- C  2         +17.1% ( 47.6%)     93.4%
 TRAVEL (Ang.)       0.2902         C  1 -- H  9         +16.8% ( 47.2%)      6.5%
 REDUCED MASS        0.5718         C  2 -- H 11         +15.0% ( 44.7%)      3.3%
 EFFECTIVE MASS      4.0838         C  2 -- H 10         +14.3% ( 43.6%)      3.2%
 FORCE CONSTANT      0.6603

 VIBRATION         31   31A           ATOM PAIR      ENERGY CONTRIBUTION    RADIAL
 FREQUENCY          1404.43         C  3 -- H 14         +18.2% ( 45.5%)      0.0%
 TRANSITION DIPOLE   0.0653         C  3 -- H 13         +17.2% ( 44.2%)     10.6%
 TRAVEL (Ang.)       0.4128         C  3 -- H 12         +14.8% ( 41.1%)      0.1%
 REDUCED MASS        0.2818         C  1 -- C  2          +6.9% ( 28.0%)      1.9%
 EFFECTIVE MASS      3.1681
 FORCE CONSTANT      0.3275

 VIBRATION         32   32A           ATOM PAIR      ENERGY CONTRIBUTION    RADIAL
 FREQUENCY          1444.27         C  6 -- C  7         +16.9% ( 61.7%)    100.0%
 TRANSITION DIPOLE   0.1172         C  2 -- C  5         +14.8% ( 57.7%)     99.2%
 TRAVEL (Ang.)       0.1754         C  5 -- C  7         +11.2% ( 50.1%)      0.1%
 REDUCED MASS        1.5169         C  7 -- H 17          +8.3% ( 43.1%)      7.6%
 EFFECTIVE MASS      9.8390
 FORCE CONSTANT      1.8642

 VIBRATION         33   33A           ATOM PAIR      ENERGY CONTRIBUTION    RADIAL
 FREQUENCY          1479.42         C  1 -- C  4         +24.4% ( 74.7%)     85.6%
 TRANSITION DIPOLE   0.0725         C  3 -- C  4         +21.8% ( 70.5%)     79.5%
 TRAVEL (Ang.)       0.1205         C  4 -- C  6         +13.3% ( 55.1%)      1.4%
 REDUCED MASS        3.1382         C  1 -- C  2          +7.0% ( 39.9%)     64.8%
 EFFECTIVE MASS     10.4437
 FORCE CONSTANT      4.0468

 VIBRATION         34   34A           ATOM PAIR      ENERGY CONTRIBUTION    RADIAL
 FREQUENCY          1847.10         C  5 -- C  7         +39.5% ( 93.2%)     99.9%
 TRANSITION DIPOLE   0.2764         C  6 -- C  7         +15.6% ( 58.6%)     76.5%
 TRAVEL (Ang.)       0.0900         C  2 -- C  5         +12.4% ( 52.1%)     48.0%
 REDUCED MASS        4.5118         C  7 -- H 17         +12.2% ( 51.8%)      3.8%
 EFFECTIVE MASS     11.8975         C  5 -- H 15         +11.4% ( 50.0%)      5.4%
 FORCE CONSTANT      9.0695

 VIBRATION         35   35A           ATOM PAIR      ENERGY CONTRIBUTION    RADIAL
 FREQUENCY          1872.85         C  4 -- C  6         +39.5% ( 92.3%)     99.3%
 TRANSITION DIPOLE   0.6427         C  3 -- C  4         +14.3% ( 55.5%)     40.1%
 TRAVEL (Ang.)       0.0890         C  1 -- C  4         +14.0% ( 55.0%)     28.8%
 REDUCED MASS        4.5427         C  6 -- C  7         +11.9% ( 50.7%)     18.6%
 EFFECTIVE MASS     11.8016         C  6 -- H 16         +10.6% ( 47.7%)      5.6%
 FORCE CONSTANT      9.3880

 VIBRATION         36   36A           ATOM PAIR      ENERGY CONTRIBUTION    RADIAL
 FREQUENCY          2934.37         C  1 -- H  8         +33.9% ( 60.6%)     97.4%
 TRANSITION DIPOLE   0.0139         C  2 -- H 10         +26.8% ( 53.9%)     97.5%
 TRAVEL (Ang.)       0.2875         C  1 -- H  9         +21.5% ( 48.2%)     94.9%
 REDUCED MASS        0.2780         C  2 -- H 11         +15.4% ( 40.9%)     94.5%
 EFFECTIVE MASS      1.5466
 FORCE CONSTANT      1.4105

 VIBRATION         37   37A           ATOM PAIR      ENERGY CONTRIBUTION    RADIAL
 FREQUENCY          2947.33         C  2 -- H 10         +33.7% ( 60.0%)     97.5%
 TRANSITION DIPOLE   0.0369         C  1 -- H  8         +24.6% ( 51.3%)     97.3%
 TRAVEL (Ang.)       0.2895         C  2 -- H 11         +21.8% ( 48.4%)     95.2%
 REDUCED MASS        0.2729         C  1 -- H  9         +17.8% ( 43.7%)     95.6%
 EFFECTIVE MASS      1.5271
 FORCE CONSTANT      1.3967

 VIBRATION         38   38A           ATOM PAIR      ENERGY CONTRIBUTION    RADIAL
 FREQUENCY          3021.03         C  1 -- H  9         +43.3% ( 64.9%)     98.7%
 TRANSITION DIPOLE   0.0410         C  1 -- H  8         +29.0% ( 53.1%)     96.3%
 TRAVEL (Ang.)       0.2709         C  2 -- H 11         +15.8% ( 39.1%)     98.7%
 REDUCED MASS        0.3042         C  2 -- H 10         +10.4% ( 31.8%)     96.2%
 EFFECTIVE MASS      1.2825
 FORCE CONSTANT      1.6360

 VIBRATION         39   39A           ATOM PAIR      ENERGY CONTRIBUTION    RADIAL
 FREQUENCY          3027.88         C  2 -- H 11         +45.7% ( 66.6%)     98.9%
 TRANSITION DIPOLE   0.0823         C  2 -- H 10         +25.9% ( 50.1%)     95.6%
 TRAVEL (Ang.)       0.2692         C  1 -- H  9         +16.5% ( 40.0%)     98.9%
 REDUCED MASS        0.3072         C  1 -- H  8          +9.6% ( 30.6%)     95.9%
 EFFECTIVE MASS      1.2809
 FORCE CONSTANT      1.6596

 VIBRATION         40   40A           ATOM PAIR      ENERGY CONTRIBUTION    RADIAL
 FREQUENCY          3054.43         C  7 -- H 17         +40.2% ( 64.4%)    100.0%
 TRANSITION DIPOLE   0.0992         C  6 -- H 16         +33.9% ( 59.2%)    100.0%
 TRAVEL (Ang.)       0.2616         C  5 -- H 15         +22.8% ( 48.5%)    100.0%
 REDUCED MASS        0.3226         C  6 -- C  7          +1.1% ( 10.5%)      0.1%
 EFFECTIVE MASS      1.4896
 FORCE CONSTANT      1.7735

 VIBRATION         41   41A           ATOM PAIR      ENERGY CONTRIBUTION    RADIAL
 FREQUENCY          3060.22         C  6 -- H 16         +55.9% ( 75.8%)    100.0%
 TRANSITION DIPOLE   0.4033         C  5 -- H 15         +34.8% ( 59.9%)    100.0%
 TRAVEL (Ang.)       0.2262         C  7 -- H 17          +5.9% ( 24.6%)     99.7%
 REDUCED MASS        0.4307         C  6 -- C  7          +1.0% (  9.9%)     44.7%
 EFFECTIVE MASS      1.5011
 FORCE CONSTANT      2.3766

 VIBRATION         42   42A           ATOM PAIR      ENERGY CONTRIBUTION    RADIAL
 FREQUENCY          3066.68         C  3 -- H 14         +55.8% ( 77.1%)     97.9%
 TRANSITION DIPOLE   0.0300         C  3 -- H 12         +41.5% ( 66.5%)     95.8%
 TRAVEL (Ang.)       0.2071         C  3 -- H 13          +1.6% ( 13.1%)     16.5%
 REDUCED MASS        0.5125         C  3 -- C  4          +1.0% ( 10.2%)      0.0%
 EFFECTIVE MASS      1.5015
 FORCE CONSTANT      2.8395

 VIBRATION         43   43A           ATOM PAIR      ENERGY CONTRIBUTION    RADIAL
 FREQUENCY          3075.97         C  3 -- H 13         +58.1% ( 78.6%)     98.7%
 TRANSITION DIPOLE   0.1005         C  3 -- H 12         +24.8% ( 51.4%)     90.4%
 TRAVEL (Ang.)       0.2228         C  3 -- H 14         +12.0% ( 35.7%)     78.1%
 REDUCED MASS        0.4417         C  7 -- H 17          +2.1% ( 14.9%)     99.9%
 EFFECTIVE MASS      1.5163
 FORCE CONSTANT      2.4621

 VIBRATION         44   44A           ATOM PAIR      ENERGY CONTRIBUTION    RADIAL
 FREQUENCY          3077.41         C  7 -- H 17         +48.6% ( 70.8%)     99.9%
 TRANSITION DIPOLE   0.3510         C  5 -- H 15         +36.3% ( 61.2%)     99.9%
 TRAVEL (Ang.)       0.2412         C  6 -- H 16          +7.0% ( 26.9%)    100.0%
 REDUCED MASS        0.3767         C  3 -- H 13          +2.5% ( 15.9%)     98.7%
 EFFECTIVE MASS      1.5945
 FORCE CONSTANT      2.1019

 VIBRATION         45   45A           ATOM PAIR      ENERGY CONTRIBUTION    RADIAL
 FREQUENCY          3167.05         C  3 -- H 13         +37.5% ( 59.0%)     97.6%
 TRANSITION DIPOLE   0.0601         C  3 -- H 12         +31.7% ( 54.2%)     96.8%
 TRAVEL (Ang.)       0.2543         C  3 -- H 14         +30.5% ( 53.2%)     96.6%
 REDUCED MASS        0.3293         C  3 -- C  4          +0.3% (  5.4%)     99.5%
 EFFECTIVE MASS      1.1390
 FORCE CONSTANT      1.9459

      SYMMETRY NUMBER FOR POINT-GROUP C1  =  1


          SYSTEM IS A GROUND STATE



 InChI=1S/C7H10/c1-7-5-3-2-4-6-7/h2-3,5H,4,6H2,1H3


          MOLECULE IS NOT LINEAR

          THERE ARE 45 GENUINE VIBRATIONS IN THIS SYSTEM
          THIS THERMODYNAMICS CALCULATION IS LIMITED TO
          MOLECULES WHICH HAVE NO INTERNAL ROTATIONS




                    CALCULATED THERMODYNAMIC PROPERTIES
                                          *
   TEMP. (K)   PARTITION FUNCTION   H.O.F.    ENTHALPY  HEAT CAPACITY ENTROPY
                                   KCAL/MOL   CAL/MOLE    CAL/K/MOL  CAL/K/MOL


 298.00  VIB.     0.2190D+02                  2559.5598    19.9814    14.7230
         ROT.     0.1936D+06                   888.2803     2.9808    27.1717
         INT.     0.4240D+07                  3447.8402    22.9622    41.8948
         TRA.     0.8833D+27                  1480.4672     4.9680    39.5363
         TOT.                       10.435    4928.3073    27.9302    81.4310

 200.00  VIB.     0.5708D+01                  1029.2562    11.5346     8.6078
         ROT.     0.1064D+06                   596.1613     2.9808    25.9831
         INT.     0.6075D+06                  1625.4175    14.5154    34.5909
         TRA.     0.4856D+27                   993.6021     4.9680    37.5551
         TOT.                        8.126    2619.0196    19.4835    72.1460

 210.00  VIB.     0.6502D+01                  1148.4358    12.3056     9.1891
         ROT.     0.1145D+06                   625.9693     2.9808    26.1285
         INT.     0.7446D+06                  1774.4051    15.2864    35.3176
         TRA.     0.5225D+27                  1043.2822     4.9680    37.7975
         TOT.                        8.325    2817.6873    20.2544    73.1152

 220.00  VIB.     0.7419D+01                  1275.4539    13.1022     9.7799
         ROT.     0.1228D+06                   655.7774     2.9808    26.2672
         INT.     0.9109D+06                  1931.2313    16.0830    36.0470
         TRA.     0.5603D+27                  1092.9623     4.9680    38.0286
         TOT.                        8.531    3024.1936    21.0510    74.0757

 230.00  VIB.     0.8477D+01                  1410.5605    13.9231    10.3803
         ROT.     0.1312D+06                   685.5855     2.9808    26.3997
         INT.     0.1113D+07                  2096.1459    16.9039    36.7800
         TRA.     0.5989D+27                  1142.6424     4.9680    38.2495
         TOT.                        8.746    3238.7884    21.8719    75.0295

 240.00  VIB.     0.9702D+01                  1553.9901    14.7665    10.9906
         ROT.     0.1399D+06                   715.3935     2.9808    26.5265
         INT.     0.1357D+07                  2269.3836    17.7473    37.5172
         TRA.     0.6384D+27                  1192.3226     4.9680    38.4609
         TOT.                        8.969    3461.7062    22.7153    75.9781

 250.00  VIB.     0.1112D+02                  1705.9580    15.6303    11.6109
         ROT.     0.1487D+06                   745.2016     2.9808    26.6482
         INT.     0.1654D+07                  2451.1596    18.6111    38.2591
         TRA.     0.6787D+27                  1242.0027     4.9680    38.6637
         TOT.                        9.200    3693.1622    23.5791    76.9228

 260.00  VIB.     0.1277D+02                  1866.6565    16.5122    12.2410
         ROT.     0.1577D+06                   775.0097     2.9808    26.7651
         INT.     0.2014D+07                  2641.6661    19.4930    39.0061
         TRA.     0.7198D+27                  1291.6828     4.9680    38.8586
         TOT.                        9.440    3933.3489    24.4610    77.8647

 270.00  VIB.     0.1469D+02                  2036.2530    17.4095    12.8810
         ROT.     0.1669D+06                   804.8177     2.9808    26.8776
         INT.     0.2451D+07                  2841.0708    20.3903    39.7586
         TRA.     0.7618D+27                  1341.3629     4.9680    39.0461
         TOT.                        9.689    4182.4336    25.3583    78.8047

 280.00  VIB.     0.1691D+02                  2214.8888    18.3196    13.5305
         ROT.     0.1763D+06                   834.6258     2.9808    26.9860
         INT.     0.2982D+07                  3049.5146    21.3004    40.5166
         TRA.     0.8045D+27                  1391.0430     4.9680    39.2267
         TOT.                        9.947    4440.5576    26.2684    79.7433

 290.00  VIB.     0.1951D+02                  2402.6781    19.2397    14.1894
         ROT.     0.1858D+06                   864.4339     2.9808    27.0906
         INT.     0.3626D+07                  3267.1120    22.2206    41.2800
         TRA.     0.8479D+27                  1440.7231     4.9680    39.4011
         TOT.                       10.215    4707.8350    27.1886    80.6811

 300.00  VIB.     0.2255D+02                  2599.7086    20.1674    14.8573
         ROT.     0.1955D+06                   894.2419     2.9808    27.1917
         INT.     0.4409D+07                  3493.9505    23.1482    42.0490
         TRA.     0.8922D+27                  1490.4032     4.9680    39.5695
         TOT.                       10.491    4984.3537    28.1162    81.6185

 310.00  VIB.     0.2610D+02                  2806.0418    21.0999    15.5338
         ROT.     0.2054D+06                   924.0500     2.9808    27.2894
         INT.     0.5360D+07                  3730.0918    24.0807    42.8232
         TRA.     0.9372D+27                  1540.0833     4.9680    39.7324
         TOT.                       10.777    5270.1751    29.0487    82.5556

 320.00  VIB.     0.3025D+02                  3021.7145    22.0349    16.2184
         ROT.     0.2154D+06                   953.8580     2.9808    27.3841
         INT.     0.6516D+07                  3975.5726    25.0157    43.6025
         TRA.     0.9829D+27                  1589.7634     4.9680    39.8901
         TOT.                       11.072    5565.3360    29.9837    83.4926

 330.00  VIB.     0.3512D+02                  3246.7401    22.9701    16.9108
         ROT.     0.2256D+06                   983.6661     2.9808    27.4758
         INT.     0.7922D+07                  4230.4062    25.9509    44.3866
         TRA.     0.1029D+28                  1639.4435     4.9680    40.0430
         TOT.                       11.377    5869.8498    30.9189    84.4296

 340.00  VIB.     0.4084D+02                  3481.1101    23.9034    17.6104
         ROT.     0.2359D+06                  1013.4742     2.9808    27.5648
         INT.     0.9634D+07                  4494.5843    26.8842    45.1752
         TRA.     0.1076D+28                  1689.1236     4.9680    40.1913
         TOT.                       11.691    6183.7079    31.8522    85.3665

 350.00  VIB.     0.4756D+02                  3724.7959    24.8330    18.3167
         ROT.     0.2464D+06                  1043.2822     2.9808    27.6512
         INT.     0.1172D+08                  4768.0782    27.8138    45.9679
         TRA.     0.1124D+28                  1738.8037     4.9680    40.3353
         TOT.                       12.014    6506.8819    32.7818    86.3032

 360.00  VIB.     0.5546D+02                  3977.7512    25.7570    19.0292
         ROT.     0.2570D+06                  1073.0903     2.9808    27.7352
         INT.     0.1425D+08                  5050.8415    28.7378    46.7644
         TRA.     0.1173D+28                  1788.4838     4.9680    40.4753
         TOT.                       12.346    6839.3253    33.7058    87.2397

 370.00  VIB.     0.6477D+02                  4239.9130    26.6741    19.7475
         ROT.     0.2678D+06                  1102.8984     2.9808    27.8168
         INT.     0.1734D+08                  5342.8114    29.6549    47.5643
         TRA.     0.1222D+28                  1838.1639     4.9680    40.6114
         TOT.                       12.688    7180.9753    34.6229    88.1757

 380.00  VIB.     0.7574D+02                  4511.2045    27.5827    20.4709
         ROT.     0.2787D+06                  1132.7064     2.9808    27.8963
         INT.     0.2111D+08                  5643.9109    30.5635    48.3672
         TRA.     0.1272D+28                  1887.8440     4.9680    40.7439
         TOT.                       13.039    7531.7549    35.5316    89.1111

 390.00  VIB.     0.8870D+02                  4791.5360    28.4819    21.1990
         ROT.     0.2898D+06                  1162.5145     2.9808    27.9737
         INT.     0.2570D+08                  5954.0505    31.4627    49.1728
         TRA.     0.1322D+28                  1937.5242     4.9680    40.8729
         TOT.                       13.398    7891.5746    36.4307    90.0457

 400.00  VIB.     0.1040D+03                  5080.8072    29.3705    21.9314
         ROT.     0.3010D+06                  1192.3226     2.9808    28.0492
         INT.     0.3131D+08                  6273.1297    32.3513    49.9806
         TRA.     0.1374D+28                  1987.2043     4.9680    40.9987
         TOT.                       13.767    8260.3340    37.3193    90.9793

   *: NOTE: HEATS OF FORMATION ARE RELATIVE TO THE
            ELEMENTS IN THEIR STANDARD STATE AT 298K
              (=  Standard Enthalpy of Formation).

            Hvib:  Zero-point energy is not included.
                   frequencies of less than zero cm-1 are not included.
            Hrot = (3/2)RT
            Htra = (3/2)RT + pV = (5/2)RT

            Heat capacity is Cp, not Cv

          For more information, see: HTTP://OpenMOPAC.net/Manual/thermochemistry.html


           FORCE CONSTANT IN CARTESIAN COORDINATES (Millidynes/A)

    ATOM   CHEMICAL       X               Y               Z
   NUMBER   SYMBOL  FORCE CONSTANT  FORCE CONSTANT  FORCE CONSTANT

      1       C        8.455682        8.555651        8.300612
      2       C        8.328466        8.737564        8.295979
      3       C        8.915234        8.436320        8.123970
      4       C       10.795746       10.144892        6.828483
      5       C       10.490661        9.711494        6.782845
      6       C       10.759911       10.441197        6.495462
      7       C       10.518270        9.975264        7.134483
      8       H        1.170049        2.716148        2.341504
      9       H        1.180253        0.874406        4.305061
     10       H        1.176991        1.181854        3.867450
     11       H        1.171296        4.477560        0.699425
     12       H        2.263850        3.421827        0.971248
     13       H        1.336390        3.958468        1.477754
     14       H        0.665590        0.700251        5.283936
     15       H        4.623941        0.780328        0.863828
     16       H        1.437188        3.884220        0.935827
     17       H        1.447259        2.079220        2.737724

 **********************
 *                    *
 * JOB ENDED NORMALLY *
 *                    *
 **********************



 TOTAL JOB TIME:             1.99 SECONDS

 == MOPAC DONE ==
