 *******************************************************************************
 **                                                                           **
 **                              MOPAC v23.1.2                                **
 **                                                                           **
 *******************************************************************************
 **          Digital Object Identifier (DOI): 10.5281/zenodo.6511958          **
 **    Visit the DOI location for information on how to cite this program.    **
 *******************************************************************************

                              PM3 CALCULATION RESULTS

 *******************************************************************************
 *  CALCULATION DONE: (MAX THREADS = 1)              Tue Jun  3 16:36:24 2025  *
 *  PM3        - The PM3 Hamiltonian to be used
 *  PRECISE    - TIGHTER CRITERIA TO BE USED
 *  NOSYM      - POINT-GROUP SYMMETRY SET TO C1
 *  THREADS=1  - MULTI-THREADING NOT USED
 *  T=         - A TIME OF 172800.0 SECONDS REQUESTED
 *  DUMP=N     - RESTART FILE WRITTEN EVERY 7200.0 SECONDS REQUESTED
 *******************************************************************************
pm3  precise nosym THREADS=1
 InChI=1S/C6H10/c1-2-6-4-3-5-6/h6H,2,4-5H2,1H3/lp3

   ATOM   CHEMICAL          X               Y               Z
  NUMBER   SYMBOL      (ANGSTROMS)     (ANGSTROMS)     (ANGSTROMS)

     1       C         -0.54780000  *  -0.12490000  *   0.30170000  *
     2       C          0.89760000  *   0.39960000  *   0.35910000  *
     3       C         -1.05620000  *  -0.41360000  *  -1.10820000  *
     4       C         -1.59540000  *   0.97450000  *   0.44300000  *
     5       C          1.90530000  *  -0.72490000  *   0.13640000  *
     6       C         -2.10420000  *   0.67570000  *  -0.95710000  *
     7       H         -0.73410000  *  -0.96810000  *   1.00450000  *
     8       H          1.05910000  *   1.19410000  *  -0.40270000  *
     9       H          1.07890000  *   0.84390000  *   1.36170000  *
    10       H         -1.51920000  *  -1.41970000  *  -1.19750000  *
    11       H         -0.33380000  *  -0.17360000  *  -1.91830000  *
    12       H         -2.35940000  *   0.74110000  *   1.21530000  *
    13       H         -1.17750000  *   2.00230000  *   0.51550000  *
    14       H          2.93630000  *  -0.31880000  *   0.20660000  *
    15       H          1.78060000  *  -1.51270000  *   0.90960000  *
    16       H          1.77000000  *  -1.17490000  *  -0.86980000  *



          CARTESIAN COORDINATES 

    NO.       ATOM           X           Y           Z

     1         C         -0.5478     -0.1249      0.3017
     2         C          0.8976      0.3996      0.3591
     3         C         -1.0562     -0.4136     -1.1082
     4         C         -1.5954      0.9745      0.4430
     5         C          1.9053     -0.7249      0.1364
     6         C         -2.1042      0.6757     -0.9571
     7         H         -0.7341     -0.9681      1.0045
     8         H          1.0591      1.1941     -0.4027
     9         H          1.0789      0.8439      1.3617
    10         H         -1.5192     -1.4197     -1.1975
    11         H         -0.3338     -0.1736     -1.9183
    12         H         -2.3594      0.7411      1.2153
    13         H         -1.1775      2.0023      0.5155
    14         H          2.9363     -0.3188      0.2066
    15         H          1.7806     -1.5127      0.9096
    16         H          1.7700     -1.1749     -0.8698

  H: (PM3): J. J. P. STEWART, J. COMP. CHEM. 10, 209 (1989).
  C: (PM3): J. J. P. STEWART, J. COMP. CHEM. 10, 209 (1989).

           Empirical Formula: C6 H10  =    16 atoms



      MOLECULAR POINT GROUP   :   C1  


      RHF CALCULATION, NO. OF DOUBLY OCCUPIED LEVELS = 17


          Geometry optimization using EF

          DIAGONAL MATRIX USED AS START HESSIAN

 CYCLE:     1 TIME:   0.004 TIME LEFT:  2.00D  GRAD.:    69.401 HEAT:  83.51725
 CYCLE:     2 TIME:   0.008 TIME LEFT:  2.00D  GRAD.:    68.970 HEAT:  82.43925
 CYCLE:     3 TIME:   0.008 TIME LEFT:  2.00D  GRAD.:    34.561 HEAT:  81.02463
 CYCLE:     4 TIME:   0.004 TIME LEFT:  2.00D  GRAD.:    24.347 HEAT:  80.59834
 CYCLE:     5 TIME:   0.008 TIME LEFT:  2.00D  GRAD.:    32.636 HEAT:  80.38752
 CYCLE:     6 TIME:   0.004 TIME LEFT:  2.00D  GRAD.:    25.548 HEAT:  80.08928
 CYCLE:     7 TIME:   0.008 TIME LEFT:  2.00D  GRAD.:    17.066 HEAT:  79.93889
 CYCLE:     8 TIME:   0.008 TIME LEFT:  2.00D  GRAD.:     7.768 HEAT:  79.85290
 CYCLE:     9 TIME:   0.004 TIME LEFT:  2.00D  GRAD.:     6.822 HEAT:  79.82731
 CYCLE:    10 TIME:   0.004 TIME LEFT:  2.00D  GRAD.:     7.835 HEAT:  79.80298
 CYCLE:    11 TIME:   0.004 TIME LEFT:  2.00D  GRAD.:     6.317 HEAT:  79.77190
 CYCLE:    12 TIME:   0.004 TIME LEFT:  2.00D  GRAD.:     8.474 HEAT:  79.77035
 CYCLE:    13 TIME:   0.008 TIME LEFT:  2.00D  GRAD.:     8.887 HEAT:  79.76844
 CYCLE:    14 TIME:   0.004 TIME LEFT:  2.00D  GRAD.:     7.891 HEAT:  79.76184
 CYCLE:    15 TIME:   0.004 TIME LEFT:  2.00D  GRAD.:     7.380 HEAT:  79.75910
 CYCLE:    16 TIME:   0.008 TIME LEFT:  2.00D  GRAD.:     3.295 HEAT:  79.74347
 CYCLE:    17 TIME:   0.004 TIME LEFT:  2.00D  GRAD.:     2.426 HEAT:  79.74078
 CYCLE:    18 TIME:   0.008 TIME LEFT:  2.00D  GRAD.:     1.296 HEAT:  79.73848
 CYCLE:    19 TIME:   0.004 TIME LEFT:  2.00D  GRAD.:     2.068 HEAT:  79.73724
 CYCLE:    20 TIME:   0.004 TIME LEFT:  2.00D  GRAD.:     1.417 HEAT:  79.73441
 CYCLE:    21 TIME:   0.004 TIME LEFT:  2.00D  GRAD.:     1.692 HEAT:  79.73051
 CYCLE:    22 TIME:   0.004 TIME LEFT:  2.00D  GRAD.:     2.073 HEAT:  79.73020
 CYCLE:    23 TIME:   0.004 TIME LEFT:  2.00D  GRAD.:     0.681 HEAT:  79.72855
 CYCLE:    24 TIME:   0.004 TIME LEFT:  2.00D  GRAD.:     0.654 HEAT:  79.72805
 CYCLE:    25 TIME:   0.008 TIME LEFT:  2.00D  GRAD.:     0.911 HEAT:  79.72740
 CYCLE:    26 TIME:   0.004 TIME LEFT:  2.00D  GRAD.:     0.497 HEAT:  79.72696
 CYCLE:    27 TIME:   0.004 TIME LEFT:  2.00D  GRAD.:     0.424 HEAT:  79.72666
 CYCLE:    28 TIME:   0.004 TIME LEFT:  2.00D  GRAD.:     0.534 HEAT:  79.72639
 CYCLE:    29 TIME:   0.004 TIME LEFT:  2.00D  GRAD.:     0.673 HEAT:  79.72570
 CYCLE:    30 TIME:   0.004 TIME LEFT:  2.00D  GRAD.:     0.583 HEAT:  79.72519
 CYCLE:    31 TIME:   0.008 TIME LEFT:  2.00D  GRAD.:     0.450 HEAT:  79.72472
 CYCLE:    32 TIME:   0.004 TIME LEFT:  2.00D  GRAD.:     0.390 HEAT:  79.72440
 CYCLE:    33 TIME:   0.008 TIME LEFT:  2.00D  GRAD.:     0.311 HEAT:  79.72421
 CYCLE:    34 TIME:   0.004 TIME LEFT:  2.00D  GRAD.:     0.197 HEAT:  79.72409
 CYCLE:    35 TIME:   0.004 TIME LEFT:  2.00D  GRAD.:     0.167 HEAT:  79.72401
 CYCLE:    36 TIME:   0.004 TIME LEFT:  2.00D  GRAD.:     0.144 HEAT:  79.72396
 CYCLE:    37 TIME:   0.004 TIME LEFT:  2.00D  GRAD.:     0.087 HEAT:  79.72394
 CYCLE:    38 TIME:   0.008 TIME LEFT:  2.00D  GRAD.:     0.066 HEAT:  79.72393
 CYCLE:    39 TIME:   0.004 TIME LEFT:  2.00D  GRAD.:     0.077 HEAT:  79.72392
 CYCLE:    40 TIME:   0.004 TIME LEFT:  2.00D  GRAD.:     0.100 HEAT:  79.72390
 CYCLE:    41 TIME:   0.004 TIME LEFT:  2.00D  GRAD.:     0.097 HEAT:  79.72389
 CYCLE:    42 TIME:   0.008 TIME LEFT:  2.00D  GRAD.:     0.083 HEAT:  79.72385
 CYCLE:    43 TIME:   0.004 TIME LEFT:  2.00D  GRAD.:     0.159 HEAT:  79.72383
 CYCLE:    44 TIME:   0.004 TIME LEFT:  2.00D  GRAD.:     0.092 HEAT:  79.72381
 CYCLE:    45 TIME:   0.004 TIME LEFT:  2.00D  GRAD.:     0.070 HEAT:  79.72380
 CYCLE:    46 TIME:   0.004 TIME LEFT:  2.00D  GRAD.:     0.052 HEAT:  79.72380
 CYCLE:    47 TIME:   0.004 TIME LEFT:  2.00D  GRAD.:     0.028 HEAT:  79.72379

     GRADIENT =  0.02803 IS LESS THAN CUTOFF =  0.05000



 -------------------------------------------------------------------------------
 pm3  precise nosym THREADS=1
 InChI=1S/C6H10/c1-2-6-4-3-5-6/h6H,2,4-5H2,1H3/lp3



     GEOMETRY OPTIMISED USING EIGENVECTOR FOLLOWING (EF).     
     SCF FIELD WAS ACHIEVED                                   


                              PM3 CALCULATION
                                                       MOPAC v23.1.2 MacOS
                                                       Tue Jun  3 16:36:24 2025




          FINAL HEAT OF FORMATION =         79.72379 KCAL/MOL =     333.56434 KJ/MOL


          COSMO AREA              =        136.91 SQUARE ANGSTROMS
          COSMO VOLUME            =        129.76 CUBIC ANGSTROMS

          GRADIENT NORM           =          0.02803          =       0.00701 PER ATOM
          IONIZATION POTENTIAL    =          9.150289 EV
          HOMO LUMO ENERGIES (EV) =         -9.150 -0.506
          NO. OF FILLED LEVELS    =         17
          MOLECULAR WEIGHT        =         82.1450         POINT GROUP:  C1  

          MOLECULAR DIMENSIONS (Angstroms)

            Atom       Atom       Distance
            H    14    H    12     5.51964
            H    10    H     9     4.06052
            H    15    H     8     2.83155


          SCF CALCULATIONS        =         55

          WALL-CLOCK TIME         =      0.254 SECONDS
          COMPUTATION TIME        =      0.132 SECONDS




   ATOM   CHEMICAL          X               Y               Z
  NUMBER   SYMBOL      (ANGSTROMS)     (ANGSTROMS)     (ANGSTROMS)

     1       C         -0.51719559  *  -0.11969327  *   0.30918987  *
     2       C          0.90624931  *   0.38461650  *   0.37658556  *
     3       C         -1.07390233  *  -0.40005070  *  -1.11545885  *
     4       C         -1.61092045  *   0.97887707  *   0.42412760  *
     5       C          1.90587357  *  -0.72564492  *   0.14266175  *
     6       C         -2.12201411  *   0.65577772  *  -0.94633069  *
     7       H         -0.65708990  *  -0.96516592  *   1.01392202  *
     8       H          1.06066204  *   1.19545601  *  -0.36371821  *
     9       H          1.07647331  *   0.84972894  *   1.36772687  *
    10       H         -1.48406669  *  -1.40896027  *  -1.28057436  *
    11       H         -0.37637531  *  -0.19862136  *  -1.94602781  *
    12       H         -2.35652989  *   0.83190226  *   1.22146220  *
    13       H         -1.23901290  *   2.01271188  *   0.51937072  *
    14       H          2.93591869  *  -0.35063882  *   0.19288808  *
    15       H          1.80947532  *  -1.52386429  *   0.89059230  *
    16       H          1.77014177  *  -1.18573665  *  -0.84554439  *

                             CARTESIAN COORDINATES

   1    C       -0.517195590    -0.119693272     0.309189867
   2    C        0.906249309     0.384616503     0.376585560
   3    C       -1.073902330    -0.400050704    -1.115458848
   4    C       -1.610920450     0.978877066     0.424127596
   5    C        1.905873567    -0.725644921     0.142661746
   6    C       -2.122014106     0.655777722    -0.946330685
   7    H       -0.657089901    -0.965165919     1.013922019
   8    H        1.060662044     1.195456013    -0.363718210
   9    H        1.076473315     0.849728937     1.367726872
  10    H       -1.484066693    -1.408960273    -1.280574355
  11    H       -0.376375307    -0.198621363    -1.946027810
  12    H       -2.356529895     0.831902265     1.221462196
  13    H       -1.239012895     2.012711877     0.519370720
  14    H        2.935918686    -0.350638816     0.192888076
  15    H        1.809475321    -1.523864289     0.890592298
  16    H        1.770141767    -1.185736653    -0.845544388


           Empirical Formula: C6 H10  =    16 atoms



      MOLECULAR POINT GROUP   :   C1  


                  EIGENVALUES  
 -40.47531 -32.91183 -25.99624 -24.18511 -20.71146 -17.89580 -16.82086 -15.70391
 -15.29882 -14.00229 -13.51495 -13.25716 -13.12964 -12.37250 -12.12010 -11.70252
  -9.15029  -0.50576   2.90580   3.03472   3.45365   3.57358   3.59680   3.76493
   3.94515   3.99838   4.04731   4.11280   4.36248   4.42756   4.62722   4.74573
   4.95086   5.16662


              NET ATOMIC CHARGES AND DIPOLE CONTRIBUTIONS

  ATOM NO.   TYPE          CHARGE      No. of ELECS.   s-Pop       p-Pop       
    1          C          -0.100737        4.1007     1.19968     2.90105
    2          C          -0.090125        4.0901     1.15621     2.93392
    3          C          -0.270922        4.2709     1.19960     3.07132
    4          C          -0.270807        4.2708     1.19974     3.07106
    5          C          -0.109190        4.1092     1.13770     2.97149
    6          C           0.111622        3.8884     1.72851     2.15986
    7          H           0.076172        0.9238     0.92383
    8          H           0.051706        0.9483     0.94829
    9          H           0.052776        0.9472     0.94722
   10          H           0.105784        0.8942     0.89422
   11          H           0.110509        0.8895     0.88949
   12          H           0.105717        0.8943     0.89428
   13          H           0.108768        0.8912     0.89123
   14          H           0.039950        0.9601     0.96005
   15          H           0.039470        0.9605     0.96053
   16          H           0.039308        0.9607     0.96069
 DIPOLE           X         Y         Z       TOTAL
 POINT-CHG.    -0.048     0.103    -0.113     0.160
 HYBRID         1.605    -0.763     1.231     2.162
 SUM            1.558    -0.660     1.118     2.028


          ATOMIC ORBITAL ELECTRON POPULATIONS

     Atom    s        px        py        pz   
    1  C   1.19968   0.95082   0.98186   0.96838
    2  C   1.15621   0.93926   0.97709   1.01757
    3  C   1.19960   1.04658   1.05019   0.97456
    4  C   1.19974   1.00551   1.00069   1.06487
    5  C   1.13770   0.98151   0.97968   1.01030
    6  C   1.72851   0.75504   0.56371   0.84112
    7  H   0.92383
    8  H   0.94829
    9  H   0.94722
   10  H   0.89422
   11  H   0.88949
   12  H   0.89428
   13  H   0.89123
   14  H   0.96005
   15  H   0.96053
   16  H   0.96069
 *******************************************************************************
 **                                                                           **
 **                              MOPAC v23.1.2                                **
 **                                                                           **
 *******************************************************************************
 **          Digital Object Identifier (DOI): 10.5281/zenodo.6511958          **
 **    Visit the DOI location for information on how to cite this program.    **
 *******************************************************************************

                              PM3 CALCULATION RESULTS

 *******************************************************************************
 *  CALCULATION DONE: (MAX THREADS = 1)              Tue Jun  3 16:36:24 2025  *
 *  PM3        - The PM3 Hamiltonian to be used
 *  OLDGEO     - PREVIOUS GEOMETRY TO BE USED
 *  PRECISE    - TIGHTER CRITERIA TO BE USED
 *  NOSYM      - POINT-GROUP SYMMETRY SET TO C1
 *  THREADS=1  - MULTI-THREADING NOT USED
 *  T=         - A TIME OF 172800.0 SECONDS REQUESTED
 *  DUMP=N     - RESTART FILE WRITTEN EVERY 7200.0 SECONDS REQUESTED
 *  THERMO     - THERMODYNAMIC QUANTITIES TO BE CALCULATED
 *******************************************************************************
oldgeo thermo nosym precise THREADS=1  pm3
 InChI=1S/C6H10/c1-2-6-4-3-5-6/h6H,2,4-5H2,1H3/lp3

   ATOM   CHEMICAL          X               Y               Z
  NUMBER   SYMBOL      (ANGSTROMS)     (ANGSTROMS)     (ANGSTROMS)

     1       C         -0.51719559  *  -0.11969327  *   0.30918987  *
     2       C          0.90624931  *   0.38461650  *   0.37658556  *
     3       C         -1.07390233  *  -0.40005070  *  -1.11545885  *
     4       C         -1.61092045  *   0.97887707  *   0.42412760  *
     5       C          1.90587357  *  -0.72564492  *   0.14266175  *
     6       C         -2.12201411  *   0.65577772  *  -0.94633069  *
     7       H         -0.65708990  *  -0.96516592  *   1.01392202  *
     8       H          1.06066204  *   1.19545601  *  -0.36371821  *
     9       H          1.07647331  *   0.84972894  *   1.36772687  *
    10       H         -1.48406669  *  -1.40896027  *  -1.28057436  *
    11       H         -0.37637531  *  -0.19862136  *  -1.94602781  *
    12       H         -2.35652989  *   0.83190226  *   1.22146220  *
    13       H         -1.23901290  *   2.01271188  *   0.51937072  *
    14       H          2.93591869  *  -0.35063882  *   0.19288808  *
    15       H          1.80947532  *  -1.52386429  *   0.89059230  *
    16       H          1.77014177  *  -1.18573665  *  -0.84554439  *



          CARTESIAN COORDINATES 

    NO.       ATOM           X           Y           Z

     1         C         -0.5172     -0.1197      0.3092
     2         C          0.9062      0.3846      0.3766
     3         C         -1.0739     -0.4001     -1.1155
     4         C         -1.6109      0.9789      0.4241
     5         C          1.9059     -0.7256      0.1427
     6         C         -2.1220      0.6558     -0.9463
     7         H         -0.6571     -0.9652      1.0139
     8         H          1.0607      1.1955     -0.3637
     9         H          1.0765      0.8497      1.3677
    10         H         -1.4841     -1.4090     -1.2806
    11         H         -0.3764     -0.1986     -1.9460
    12         H         -2.3565      0.8319      1.2215
    13         H         -1.2390      2.0127      0.5194
    14         H          2.9359     -0.3506      0.1929
    15         H          1.8095     -1.5239      0.8906
    16         H          1.7701     -1.1857     -0.8455

  H: (PM3): J. J. P. STEWART, J. COMP. CHEM. 10, 209 (1989).
  C: (PM3): J. J. P. STEWART, J. COMP. CHEM. 10, 209 (1989).

           Empirical Formula: C6 H10  =    16 atoms



      MOLECULAR POINT GROUP   :   C1  


      RHF CALCULATION, NO. OF DOUBLY OCCUPIED LEVELS = 17



          HEAT OF FORMATION =      79.723790 KCALS/MOLE


          CARTESIAN COORDINATE DERIVATIVES

   NUMBER  ATOM         X            Y            Z

     1       C      0.003429    -0.000598    -0.002251
     2       C      0.004881     0.001067     0.003007
     3       C      0.001914     0.000748     0.000311
     4       C      0.008557     0.002973     0.005576
     5       C     -0.002083     0.003046     0.003790
     6       C     -0.005062    -0.002004    -0.005544
     7       H      0.003232    -0.000769     0.003071
     8       H      0.000464    -0.002939     0.008105
     9       H      0.001664    -0.000299     0.000103
    10       H      0.000897    -0.000919    -0.004593
    11       H      0.001424    -0.002103    -0.005530
    12       H     -0.002236     0.001582    -0.001681
    13       H     -0.003068    -0.001960    -0.001955
    14       H     -0.000143    -0.003305    -0.007570
    15       H     -0.011964     0.001830    -0.002189
    16       H     -0.001908     0.003650     0.007350



          GRADIENT NORM =   0.02707

          MOLECULAR WEIGHT =   82.15



          ROTATIONAL CONSTANTS IN CM(-1)

          A =    0.27042848   B =    0.08134037   C =    0.06979761



           PRINCIPAL MOMENTS OF INERTIA IN UNITS OF 10**(-40)*GRAM-CM**2

          A =      103.5126   B =      344.1434   C =      401.0560


          ORIENTATION OF MOLECULE IN FORCE CALCULATION

    NO.       ATOM         X         Y         Z

     1          C      -0.2265   -0.4195   -0.1742
     2          C       1.2851   -0.4195   -0.1742
     3          C      -0.9078    0.9784   -0.1742
     4          C      -0.8848   -0.6422    1.2163
     5          C       1.8456   -0.0834   -1.5379
     6          C      -1.5350    0.7060    1.1579
     7          H      -0.6089   -1.0988   -0.9637
     8          H       1.6680    0.2975    0.5799
     9          H       1.6448   -1.4154    0.1521
    10          H      -1.6380    1.1565   -0.9795
    11          H      -0.2208    1.8415   -0.1689
    12          H      -1.6004   -1.4772    1.2800
    13          H      -0.1854   -0.7539    2.0616
    14          H       2.9429   -0.0852   -1.5284
    15          H       1.5219   -0.8049   -2.2997
    16          H       1.5202    0.9116   -1.8710


    FIRST DERIVATIVES WILL BE USED IN THE CALCULATION OF SECOND DERIVATIVES

          ESTIMATED TIME TO COMPLETE CALCULATION =        0.75 SECONDS

    FOR POINT-GROUP C1   THERE ARE   1 UNIQUE SYMMETRY FUNCTIONS.

 STEP:   1 TIME =     0.01 SECS, INTEGRAL =      0.01 TIME LEFT: 172799.99
 STEP:   2 TIME =     0.01 SECS, INTEGRAL =      0.02 TIME LEFT: 172799.98
 STEP:   3 TIME =     0.01 SECS, INTEGRAL =      0.04 TIME LEFT: 172799.96
 STEP:   4 TIME =     0.01 SECS, INTEGRAL =      0.05 TIME LEFT: 172799.95
 STEP:   5 TIME =     0.01 SECS, INTEGRAL =      0.06 TIME LEFT: 172799.94
 STEP:   6 TIME =     0.01 SECS, INTEGRAL =      0.07 TIME LEFT: 172799.93
 STEP:   7 TIME =     0.01 SECS, INTEGRAL =      0.08 TIME LEFT: 172799.92
 STEP:   8 TIME =     0.01 SECS, INTEGRAL =      0.09 TIME LEFT: 172799.91
 STEP:   9 TIME =     0.01 SECS, INTEGRAL =      0.11 TIME LEFT: 172799.89
 STEP:  10 TIME =     0.01 SECS, INTEGRAL =      0.12 TIME LEFT: 172799.88
 STEP:  11 TIME =     0.01 SECS, INTEGRAL =      0.13 TIME LEFT: 172799.87
 STEP:  12 TIME =     0.01 SECS, INTEGRAL =      0.14 TIME LEFT: 172799.86
 STEP:  13 TIME =     0.01 SECS, INTEGRAL =      0.15 TIME LEFT: 172799.85
 STEP:  14 TIME =     0.01 SECS, INTEGRAL =      0.16 TIME LEFT: 172799.84
 STEP:  15 TIME =     0.01 SECS, INTEGRAL =      0.18 TIME LEFT: 172799.82
 STEP:  16 TIME =     0.01 SECS, INTEGRAL =      0.19 TIME LEFT: 172799.81
 STEP:  17 TIME =     0.01 SECS, INTEGRAL =      0.20 TIME LEFT: 172799.80
 STEP:  18 TIME =     0.01 SECS, INTEGRAL =      0.21 TIME LEFT: 172799.79
 STEP:  19 TIME =     0.01 SECS, INTEGRAL =      0.22 TIME LEFT: 172799.78
 STEP:  20 TIME =     0.01 SECS, INTEGRAL =      0.23 TIME LEFT: 172799.77
 STEP:  21 TIME =     0.01 SECS, INTEGRAL =      0.24 TIME LEFT: 172799.76
 STEP:  22 TIME =     0.01 SECS, INTEGRAL =      0.25 TIME LEFT: 172799.75
 STEP:  23 TIME =     0.01 SECS, INTEGRAL =      0.27 TIME LEFT: 172799.73
 STEP:  24 TIME =     0.01 SECS, INTEGRAL =      0.28 TIME LEFT: 172799.72
 STEP:  25 TIME =     0.01 SECS, INTEGRAL =      0.29 TIME LEFT: 172799.71
 STEP:  26 TIME =     0.01 SECS, INTEGRAL =      0.30 TIME LEFT: 172799.70
 STEP:  27 TIME =     0.01 SECS, INTEGRAL =      0.31 TIME LEFT: 172799.69
 STEP:  28 TIME =     0.01 SECS, INTEGRAL =      0.32 TIME LEFT: 172799.68
 STEP:  29 TIME =     0.01 SECS, INTEGRAL =      0.33 TIME LEFT: 172799.67
 STEP:  30 TIME =     0.01 SECS, INTEGRAL =      0.34 TIME LEFT: 172799.66
 STEP:  31 TIME =     0.01 SECS, INTEGRAL =      0.35 TIME LEFT: 172799.65
 STEP:  32 TIME =     0.01 SECS, INTEGRAL =      0.36 TIME LEFT: 172799.64
 STEP:  33 TIME =     0.01 SECS, INTEGRAL =      0.38 TIME LEFT: 172799.62
 STEP:  34 TIME =     0.01 SECS, INTEGRAL =      0.39 TIME LEFT: 172799.61
 STEP:  35 TIME =     0.01 SECS, INTEGRAL =      0.40 TIME LEFT: 172799.60
 STEP:  36 TIME =     0.02 SECS, INTEGRAL =      0.41 TIME LEFT: 172799.59
 STEP:  37 TIME =     0.01 SECS, INTEGRAL =      0.43 TIME LEFT: 172799.57
 STEP:  38 TIME =     0.01 SECS, INTEGRAL =      0.44 TIME LEFT: 172799.56
 STEP:  39 TIME =     0.01 SECS, INTEGRAL =      0.45 TIME LEFT: 172799.55
 STEP:  40 TIME =     0.01 SECS, INTEGRAL =      0.46 TIME LEFT: 172799.54
 STEP:  41 TIME =     0.01 SECS, INTEGRAL =      0.47 TIME LEFT: 172799.53
 STEP:  42 TIME =     0.02 SECS, INTEGRAL =      0.49 TIME LEFT: 172799.51
 STEP:  43 TIME =     0.01 SECS, INTEGRAL =      0.50 TIME LEFT: 172799.50
 STEP:  44 TIME =     0.01 SECS, INTEGRAL =      0.51 TIME LEFT: 172799.49
 STEP:  45 TIME =     0.01 SECS, INTEGRAL =      0.52 TIME LEFT: 172799.48
 STEP:  46 TIME =     0.01 SECS, INTEGRAL =      0.54 TIME LEFT: 172799.46
 STEP:  47 TIME =     0.01 SECS, INTEGRAL =      0.55 TIME LEFT: 172799.45
 STEP:  48 TIME =     0.01 SECS, INTEGRAL =      0.56 TIME LEFT: 172799.44

(To convert to Hartree/Bohr^2, multiply by (10^(-21) x N x a0^2)/(4.184 x 627.51) =  0.0642)


           FORCE MATRIX IN MILLIDYNES/ANGSTROM


                  C  1       C  2       C  3       C  4       C  5       C  6
 ------------------------------------------------------------------------------
     C    1  14.420926
     C    2   4.395084  14.521386
     C    3   3.231398   0.528737  14.016491
     C    4   3.254902   0.532332   2.115517  14.028918
     C    5   0.666748   4.468036   0.028193   0.051902  14.374232
     C    6   2.044108   0.057354   4.558637   4.543683   0.006824   8.943460
     H    7   4.460184   0.429978   0.422531   0.420660   0.030317   0.043869
     H    8   0.450544   4.435766   0.019146   0.018496   0.437423   0.007746
     H    9   0.432156   4.462908   0.048143   0.013094   0.439901   0.007742
     H   10   0.430630   0.032455   4.653514   0.049450   0.002416   0.339555
     H   11   0.444698   0.022203   4.598293   0.047731   0.008154   0.335819
     H   12   0.432039   0.031880   0.049561   4.655657   0.006003   0.339563
     H   13   0.444166   0.025333   0.048569   4.610302   0.003612   0.335008
     H   14   0.052689   0.451299   0.003729   0.009333   4.758543   0.001890
     H   15   0.024309   0.464218   0.002067   0.001438   4.727690   0.001046
     H   16   0.020583   0.463030   0.005809   0.002663   4.714559   0.003084


                  H  7       H  8       H  9       H 10       H 11       H 12
 ------------------------------------------------------------------------------
     H    7   4.957553
     H    8   0.043510   5.050624
     H    9   0.025961   0.570505   5.068412
     H   10   0.025738   0.001743   0.005685   5.281930
     H   11   0.029512   0.020142   0.003585   0.564161   5.235230
     H   12   0.025383   0.001268   0.002169   0.013298   0.006314   5.283060
     H   13   0.029785   0.015888   0.007628   0.006373   0.012776   0.563150
     H   14   0.001948   0.030494   0.028928   0.000606   0.001015   0.001157
     H   15   0.021343   0.048286   0.024327   0.000346   0.000875   0.000288
     H   16   0.001922   0.024496   0.049095   0.000738   0.010546   0.000475


                  H 13       H 14       H 15       H 16
 ------------------------------------------------------
     H   13   5.244007
     H   14   0.000821   5.491898
     H   15   0.000595   0.573266   5.468885
     H   16   0.000544   0.571728   0.575830   5.452121


          HEAT OF FORMATION =      79.723790 KCALS/MOLE

          ZERO POINT ENERGY      88.013 KCAL/MOL


           NORMAL COORDINATE ANALYSIS (Total motion = 1 Angstrom)


   Root No.       1         2         3         4         5         6         7         8

                 1 A       2 A       3 A       4 A       5 A       6 A       7 A       8 A   

                  87.3     170.0     187.6     260.5     421.6     435.4     676.5     762.1
  
           1   -0.0058   -0.0130   -0.0158   -0.0181    0.0288   -0.0205   -0.0010    0.0017
           2   -0.0294   -0.0127   -0.0017    0.0176    0.0208   -0.0345   -0.0060   -0.0296
           3    0.0070   -0.0124   -0.0196   -0.0160    0.0304    0.0146    0.0002   -0.0324
           4   -0.0059   -0.0122   -0.0146   -0.0181    0.0351   -0.0164    0.0020    0.0382
           5   -0.0425   -0.0009    0.0215   -0.0286   -0.0184    0.0240   -0.0009   -0.0218
           6   -0.0043    0.0039    0.0036   -0.0253   -0.0158   -0.0392   -0.0012    0.0093
           7    0.0084   -0.0015   -0.0342   -0.0334   -0.0295    0.0206    0.0371   -0.0321
           8   -0.0225   -0.0067   -0.0110    0.0113   -0.0048   -0.0185    0.0121   -0.0153
           9   -0.0272   -0.0094   -0.0132    0.0066    0.0051    0.0138    0.0220    0.0169
          10    0.0022   -0.0095    0.0044    0.0343   -0.0332   -0.0321   -0.0409   -0.0188
          11    0.0166   -0.0076   -0.0085    0.0177    0.0039    0.0002   -0.0164    0.0246
          12    0.0184   -0.0099   -0.0105    0.0112    0.0049    0.0302   -0.0153   -0.0270
          13   -0.0130   -0.0004    0.0237    0.0441    0.0225    0.0427    0.0026    0.0110
          14    0.0537    0.0095   -0.0072   -0.0064   -0.0008    0.0113    0.0022   -0.0019
          15    0.0165    0.0118    0.0137    0.0081   -0.0242   -0.0257   -0.0045   -0.0032
          16    0.0181    0.0473    0.0452   -0.0218   -0.0130   -0.0089   -0.0012   -0.0076
          17    0.0230    0.0210    0.0125   -0.0107    0.0136    0.0107    0.0031    0.0244
          18   -0.0137    0.0190    0.0294    0.0085    0.0161    0.0033    0.0009    0.0286
          19   -0.0173   -0.0050   -0.0007   -0.0447    0.0385   -0.0352   -0.0020    0.0277
          20   -0.0468   -0.0121   -0.0091    0.0230    0.0155   -0.0496    0.0254   -0.0292
          21    0.0276   -0.0154   -0.0196   -0.0074    0.0271    0.0367   -0.0260   -0.0420
          22    0.0055   -0.0312   -0.0385   -0.0023    0.0856   -0.0484   -0.0101   -0.0086
          23   -0.0998    0.0041    0.0427   -0.0709   -0.0620    0.0618    0.0175    0.0401
          24    0.0445    0.0092   -0.0040    0.0074   -0.0027   -0.0569   -0.0120   -0.0243
          25   -0.0115   -0.0022   -0.0133   -0.0640    0.0058    0.0271    0.0217    0.0965
          26   -0.0687    0.0042    0.0322   -0.0555   -0.0458    0.0499    0.0109    0.0207
          27   -0.0787    0.0080    0.0360   -0.0539   -0.0654   -0.0094    0.0102    0.0683
          28    0.0032   -0.0367   -0.0931   -0.0407   -0.0674    0.0590   -0.1111    0.0032
          29   -0.0383   -0.0200   -0.0504    0.0143   -0.0921    0.0352   -0.1010    0.0662
          30   -0.0259    0.0191    0.0307    0.0139    0.0176   -0.0073    0.1224    0.0084
          31    0.0175    0.0024   -0.0503   -0.0416   -0.0828    0.0652    0.0032    0.0007
          32   -0.0294   -0.0098    0.0014    0.0173    0.0349   -0.0516    0.0318   -0.0392
          33   -0.0579   -0.0581   -0.0873    0.0145   -0.0589    0.0522   -0.1890    0.1185
          34   -0.0080   -0.0512   -0.0273    0.0834   -0.0760   -0.0572    0.1108    0.0031
          35    0.0275    0.0266    0.0176   -0.0190    0.0317    0.0219   -0.1293    0.0158
          36    0.0467   -0.0230   -0.0188    0.0650   -0.0780    0.0380    0.0899    0.0487
          37    0.0068   -0.0094    0.0146    0.0743   -0.0892   -0.0413   -0.0062    0.0245
          38    0.0309   -0.0611   -0.0575    0.0804   -0.0652   -0.0041    0.2048    0.0986
          39    0.0165   -0.0175   -0.0257   -0.0120    0.0388    0.0358   -0.0058   -0.0502
          40   -0.0129   -0.0006    0.0237    0.0442    0.0228    0.0436    0.0027    0.0106
          41    0.0249    0.1956   -0.1363    0.0326    0.0157   -0.0105    0.0026    0.0348
          42    0.0038    0.0673    0.0162    0.0762   -0.0325    0.0399   -0.0029   -0.0817
          43   -0.0408    0.1594   -0.0589    0.1168    0.0294    0.0754    0.0046   -0.0210
          44    0.1242   -0.0927    0.0512   -0.0166    0.0003    0.0123    0.0052    0.0234
          45   -0.0383    0.0411   -0.0066   -0.0125   -0.0281   -0.0393   -0.0080   -0.0134
          46    0.0091   -0.1517    0.1417    0.0298    0.0059    0.0864    0.0045   -0.0449
          47    0.0893   -0.0658    0.0398   -0.0171   -0.0034    0.0157    0.0036    0.0029
          48    0.1005   -0.0661    0.0395   -0.0089   -0.0151   -0.0529   -0.0028    0.0601


   Root No.       9        10        11        12        13        14        15        16

                 9 A      10 A      11 A      12 A      13 A      14 A      15 A      16 A   

                 812.0     858.1     913.4     949.5     961.7     987.5     997.1    1053.4
  
           1    0.0024    0.0030   -0.0185   -0.0038   -0.0176   -0.0159    0.0066   -0.0006
           2   -0.0065    0.0167   -0.0052    0.0139    0.0240   -0.0158   -0.0055   -0.0137
           3   -0.0020    0.0224   -0.0042   -0.0078    0.0028    0.0343    0.0150    0.0087
           4   -0.0036   -0.0056    0.0230    0.0006    0.0050    0.0074    0.0081   -0.0091
           5   -0.0268   -0.0164   -0.0022    0.0028    0.0082   -0.0140    0.0061    0.0144
           6   -0.0083   -0.0068    0.0100    0.0029    0.0059    0.0012    0.0064   -0.0015
           7    0.0146   -0.0173   -0.0168    0.0192    0.0017   -0.0100   -0.0111    0.0057
           8    0.0158    0.0131    0.0418   -0.0123   -0.0162    0.0339    0.0098   -0.0144
           9    0.0130   -0.0233   -0.0176    0.0045   -0.0129   -0.0070   -0.0025    0.0187
          10    0.0220   -0.0149   -0.0142   -0.0184   -0.0028    0.0046   -0.0062    0.0024
          11    0.0138   -0.0245   -0.0233   -0.0096   -0.0090   -0.0134   -0.0052   -0.0124
          12    0.0048    0.0054    0.0366    0.0094    0.0110   -0.0207   -0.0119    0.0033
          13   -0.0017   -0.0015    0.0239    0.0038    0.0168    0.0079   -0.0249    0.0098
          14   -0.0059   -0.0077    0.0036   -0.0002   -0.0089    0.0098   -0.0067   -0.0070
          15    0.0014   -0.0037   -0.0045   -0.0032   -0.0054    0.0004   -0.0058   -0.0001
          16   -0.0202    0.0324    0.0243   -0.0038   -0.0177   -0.0150    0.0000    0.0024
          17   -0.0088   -0.0003   -0.0302    0.0016    0.0079    0.0182   -0.0021    0.0447
          18   -0.0109   -0.0011   -0.0354    0.0027    0.0139    0.0101   -0.0074   -0.0434
          19   -0.0328   -0.0094   -0.0490   -0.0004    0.0025   -0.0544    0.0854    0.0110
          20    0.0058    0.0218    0.0050    0.0947    0.0227   -0.0520   -0.0429   -0.0470
          21    0.0046    0.0235    0.0068   -0.0790   -0.0058    0.0843    0.0117    0.0308
          22   -0.0667   -0.0067    0.0058    0.0127    0.0766   -0.0435    0.1104    0.0262
          23    0.0902    0.0605   -0.0148    0.0031    0.0066    0.0021   -0.0022   -0.0109
          24   -0.0824   -0.0758    0.0289   -0.0040   -0.0288    0.0121   -0.0367    0.0032
          25    0.0575    0.0060    0.0365   -0.0230   -0.0944    0.1222    0.0040   -0.0856
          26    0.0389    0.0194   -0.0013   -0.0026   -0.0095    0.0153   -0.0040   -0.0127
          27    0.1145    0.0823   -0.0038    0.0101    0.0570   -0.0347   -0.0146    0.0008
          28   -0.0530    0.0644   -0.0936    0.0930    0.0155    0.0477   -0.0459   -0.0887
          29   -0.0415    0.0156    0.1346   -0.1557    0.0468   -0.0063    0.0745   -0.0001
          30    0.0574   -0.0944    0.0710   -0.0974   -0.0121   -0.0688    0.0451    0.1076
          31   -0.0181   -0.0531   -0.0055   -0.0967    0.1318    0.0096    0.0378   -0.0942
          32    0.0378    0.0448    0.0332    0.0781   -0.1160    0.0186   -0.0285    0.0633
          33   -0.0697    0.0715   -0.0113    0.0297   -0.1061   -0.0603   -0.0072    0.1365
          34   -0.0530    0.0643   -0.0919   -0.0821    0.0377    0.0618   -0.0415    0.0758
          35    0.0701   -0.0905    0.0500    0.0606   -0.0457   -0.0640    0.0335   -0.0781
          36   -0.0397    0.0021    0.1448    0.1751   -0.0085   -0.0119    0.0867   -0.0421
          37    0.0061   -0.0420   -0.0011    0.1325    0.0502    0.0977    0.0747    0.0627
          38   -0.0871    0.0581   -0.0179   -0.0451   -0.0645   -0.0879   -0.0132   -0.0838
          39    0.0002    0.0426    0.0272   -0.1178   -0.0398   -0.1043   -0.0779   -0.0564
          40   -0.0018   -0.0012    0.0233    0.0036    0.0161    0.0086   -0.0230    0.0091
          41    0.0331    0.0282    0.0239    0.0075    0.0505   -0.0135   -0.0221    0.0218
          42    0.0177    0.0323   -0.1320   -0.0211   -0.0872   -0.0280    0.1518   -0.0470
          43    0.0282    0.0419   -0.0493   -0.0023   -0.0053   -0.0218    0.0791   -0.0089
          44    0.0553    0.0539   -0.0160    0.0048    0.0364   -0.0299    0.0307    0.0125
          45   -0.0658   -0.0767    0.0427   -0.0054   -0.0374    0.0486   -0.0816   -0.0102
          46   -0.0278   -0.0180   -0.0338   -0.0084   -0.0565    0.0216    0.0462   -0.0341
          47    0.0172    0.0161   -0.0115    0.0002    0.0011   -0.0058    0.0168   -0.0040
          48    0.0879    0.0770    0.0046    0.0085    0.0855   -0.0546   -0.0031    0.0481


   Root No.      17        18        19        20        21        22        23        24

                17 A      18 A      19 A      20 A      21 A      22 A      23 A      24 A   

                1054.3    1123.3    1123.7    1161.7    1178.5    1180.2    1255.1    1285.3
  
           1    0.0018   -0.0002    0.0043   -0.0135    0.0061   -0.0289   -0.0348   -0.0259
           2    0.0132    0.0127    0.0120   -0.0457   -0.0355   -0.0308    0.0070    0.0402
           3   -0.0077   -0.0076    0.0047    0.0564   -0.0061   -0.0434    0.0167   -0.0185
           4    0.0129    0.0132    0.0011   -0.0071   -0.0167    0.0292   -0.0306   -0.0125
           5   -0.0202    0.0198   -0.0329    0.0144   -0.0041    0.0113   -0.0096   -0.0128
           6    0.0027   -0.0561   -0.0105    0.0081   -0.0241    0.0243    0.0253    0.0163
           7   -0.0082    0.0041    0.0023   -0.0217   -0.0145    0.0053    0.0245   -0.0120
           8   -0.0211   -0.0120   -0.0113    0.0021    0.0366    0.0197   -0.0100   -0.0048
           9   -0.0037   -0.0024   -0.0020    0.0184    0.0119    0.0037   -0.0259    0.0355
          10   -0.0026   -0.0085   -0.0040    0.0362    0.0060    0.0014   -0.0041    0.0260
          11   -0.0111   -0.0015    0.0013   -0.0098   -0.0082    0.0038    0.0257   -0.0376
          12    0.0328    0.0009   -0.0090   -0.0432    0.0223    0.0231    0.0008   -0.0084
          13   -0.0142   -0.0084   -0.0007    0.0099    0.0043   -0.0102    0.0113    0.0017
          14    0.0103   -0.0191    0.0391   -0.0013    0.0052    0.0020    0.0013    0.0005
          15   -0.0005    0.0614    0.0111   -0.0010    0.0195   -0.0072   -0.0010    0.0003
          16   -0.0043    0.0011    0.0037    0.0064   -0.0075   -0.0066    0.0052    0.0020
          17    0.0260   -0.0013   -0.0039    0.0111    0.0127    0.0033   -0.0253    0.0272
          18   -0.0154    0.0002   -0.0024   -0.0205   -0.0001    0.0069    0.0118   -0.0284
          19   -0.0178   -0.0971   -0.0365   -0.1264    0.2740   -0.1192    0.0944    0.0547
          20    0.1707    0.0062   -0.0222    0.2198   -0.0194   -0.0291    0.0108   -0.0953
          21   -0.1327    0.0430    0.0522   -0.1202   -0.1478   -0.0036   -0.0488    0.0598
          22   -0.0418    0.1145    0.0963    0.1053    0.0358    0.1901    0.1083    0.0546
          23    0.0157    0.0433    0.0547    0.0050    0.0233   -0.0181    0.0138   -0.0049
          24   -0.0019   -0.1301   -0.1416   -0.0406   -0.0811   -0.0292   -0.0688   -0.0232
          25    0.1224    0.1151   -0.1120   -0.0435   -0.0440   -0.0150    0.1245    0.1150
          26    0.0178    0.0248   -0.0190   -0.0046   -0.0101   -0.0059    0.0176    0.0217
          27   -0.0032   -0.1557    0.1555   -0.0124   -0.0108    0.0256   -0.0636   -0.0152
          28   -0.0344   -0.0088   -0.0248    0.0121    0.0536    0.0437   -0.0469    0.0269
          29    0.0517   -0.0000    0.0080   -0.0218    0.0009   -0.0440   -0.0023   -0.1072
          30    0.0342    0.0115    0.0279   -0.0171   -0.0592   -0.0488    0.0429   -0.0203
          31    0.0273    0.0019    0.0011    0.0254    0.0037   -0.0535   -0.0372    0.0588
          32   -0.0470   -0.0100   -0.0111   -0.0377    0.0247    0.0655    0.0356   -0.0622
          33    0.0066    0.0083    0.0274   -0.0129   -0.0660   -0.0245    0.0643    0.0098
          34    0.0529   -0.0113   -0.0156   -0.0597    0.0231    0.0519    0.0162   -0.0505
          35   -0.0619    0.0016    0.0135    0.0762   -0.0253   -0.0489    0.0036    0.0337
          36   -0.0205    0.0096    0.0110   -0.0144    0.0024   -0.0523   -0.0865    0.0533
          37    0.0147    0.0022    0.0148   -0.0421   -0.0218   -0.0457    0.0276   -0.0603
          38   -0.0655    0.0047    0.0138    0.0918   -0.0316   -0.0453    0.0220    0.0364
          39    0.0107   -0.0087   -0.0235    0.0334    0.0439    0.0547   -0.0278    0.0704
          40   -0.0131   -0.0093   -0.0007    0.0110    0.0035   -0.0081    0.0155    0.0050
          41   -0.0339   -0.0059   -0.0333    0.0152   -0.0081   -0.0070    0.0172    0.0123
          42    0.0671    0.0432   -0.0054   -0.0388   -0.0331    0.0497   -0.0852   -0.0433
          43    0.0133   -0.0567   -0.0497    0.0022   -0.0400    0.0385    0.0186    0.0188
          44   -0.0191   -0.0304   -0.0607    0.0081   -0.0261    0.0118    0.0164    0.0134
          45    0.0148    0.0945    0.1245   -0.0065    0.0656   -0.0352   -0.0224   -0.0217
          46    0.0500   -0.0672    0.0471   -0.0067   -0.0219    0.0324    0.0190    0.0241
          47    0.0053   -0.0170    0.0047   -0.0014   -0.0080    0.0099   -0.0051   -0.0012
          48   -0.0720    0.1268   -0.1326    0.0117    0.0067   -0.0256   -0.0343   -0.0324


   Root No.      25        26        27        28        29        30        31        32

                25 A      26 A      27 A      28 A      29 A      30 A      31 A      32 A   

                1339.9    1351.1    1368.7    1400.1    1406.2    1410.5    1421.8    1444.1
  
           1   -0.0056   -0.0018    0.0339   -0.0110   -0.0005    0.0007    0.0199    0.0700
           2    0.0036    0.0058   -0.0037   -0.0037   -0.0019   -0.0009   -0.0079   -0.0138
           3    0.0038   -0.0046   -0.0102   -0.0019    0.0006   -0.0003   -0.0023   -0.0263
           4   -0.0015    0.0013   -0.0172    0.0318    0.0023    0.0068   -0.0131   -0.0626
           5   -0.0014   -0.0020   -0.0029   -0.0012    0.0005    0.0007    0.0105   -0.0035
           6    0.0023    0.0031    0.0196    0.0056   -0.0058   -0.0007   -0.0351    0.0324
           7    0.0347   -0.0002   -0.0110    0.0090    0.0019    0.0008    0.0020   -0.0029
           8   -0.0264   -0.0250   -0.0046    0.0189    0.0032    0.0028    0.0097    0.0205
           9   -0.0368    0.0231    0.0157   -0.0285   -0.0057   -0.0039   -0.0150   -0.0239
          10    0.0351    0.0012   -0.0100    0.0096    0.0012    0.0007   -0.0004   -0.0005
          11   -0.0321   -0.0269    0.0145   -0.0293   -0.0041   -0.0036   -0.0127   -0.0303
          12   -0.0320    0.0218   -0.0029    0.0125    0.0019    0.0016    0.0070    0.0185
          13    0.0003   -0.0012   -0.0047   -0.0057   -0.0127   -0.0365   -0.0135    0.0183
          14    0.0005   -0.0005   -0.0075   -0.0036   -0.0358    0.0107   -0.0079    0.0079
          15    0.0009    0.0013    0.0224    0.0160   -0.0073   -0.0007    0.0395   -0.0328
          16   -0.0410    0.0001    0.0066   -0.0163   -0.0030   -0.0021   -0.0094   -0.0206
          17    0.0344    0.0092   -0.0042    0.0132    0.0019    0.0017    0.0069    0.0192
          18    0.0408   -0.0083   -0.0067    0.0162    0.0035    0.0023    0.0109    0.0207
          19    0.0183    0.0015   -0.0545    0.0071    0.0096   -0.0048   -0.0198   -0.0890
          20   -0.0039   -0.0251    0.0059   -0.0072    0.0011   -0.0003    0.0121    0.0100
          21   -0.0040    0.0205    0.0238   -0.0079   -0.0074    0.0023   -0.0007    0.0273
          22    0.0018   -0.0042   -0.0175   -0.0881   -0.0014   -0.0314    0.0608    0.0822
          23    0.0090    0.0059    0.0845    0.1023   -0.0117    0.0276   -0.1368    0.0001
          24   -0.0117   -0.0027   -0.0749   -0.0474    0.0079   -0.0114    0.0881   -0.0420
          25    0.0006    0.0036   -0.0296   -0.0905   -0.0062   -0.0298    0.0529    0.0549
          26   -0.0042   -0.0041   -0.0395   -0.0649    0.0019   -0.0164    0.0764    0.0149
          27   -0.0121   -0.0078   -0.1056   -0.0908    0.0126   -0.0241    0.1408   -0.0360
          28   -0.0090    0.0892    0.0323   -0.0604   -0.0105   -0.0083   -0.0264   -0.0444
          29    0.1803    0.1773    0.0450   -0.0799   -0.0093   -0.0103   -0.0144   -0.0240
          30    0.0368   -0.0315   -0.0162    0.0210    0.0041    0.0027    0.0084    0.0098
          31   -0.1376   -0.1154   -0.0076    0.0457    0.0033    0.0079    0.0154    0.0473
          32    0.1210    0.0848   -0.0028   -0.0190    0.0006   -0.0039   -0.0045   -0.0244
          33   -0.0376   -0.1469   -0.0513    0.0872    0.0149    0.0112    0.0280    0.0415
          34   -0.0082   -0.0944    0.0353   -0.0571   -0.0079   -0.0069   -0.0244   -0.0494
          35    0.0102    0.0579   -0.0243    0.0288    0.0039    0.0030    0.0088    0.0151
          36    0.1817   -0.1761    0.0550   -0.0666   -0.0086   -0.0073   -0.0177   -0.0227
          37   -0.1341    0.1135   -0.0170    0.0365    0.0054    0.0055    0.0234    0.0449
          38   -0.0552    0.1646   -0.0590    0.0806    0.0110    0.0092    0.0288    0.0509
          39    0.1151   -0.0633   -0.0022   -0.0024   -0.0005   -0.0016   -0.0097   -0.0137
          40    0.0008   -0.0004    0.0028   -0.0045   -0.0045   -0.0108   -0.0047    0.0116
          41   -0.0018    0.0037    0.0423   -0.0018    0.3690   -0.0613    0.0078   -0.0097
          42   -0.0082   -0.0075   -0.1057   -0.0100    0.0331   -0.1882   -0.1168    0.0372
          43    0.0041    0.0054    0.0349    0.0045   -0.1485    0.2796    0.0613   -0.0374
          44    0.0024    0.0052    0.0682    0.0546   -0.0269   -0.1968    0.0694   -0.0511
          45   -0.0035   -0.0078   -0.0769   -0.0514    0.0751    0.0662   -0.0816    0.0570
          46    0.0016    0.0078    0.0499   -0.0010    0.2873    0.1533    0.0349   -0.0400
          47   -0.0014   -0.0006   -0.0200   -0.0254    0.0914    0.1137   -0.0289    0.0183
          48   -0.0065   -0.0101   -0.0986   -0.0699    0.0206    0.1702   -0.0994    0.0782


   Root No.      33        34        35        36        37        38        39        40

                33 A      34 A      35 A      36 A      37 A      38 A      39 A      40 A   

                2949.7    2963.8    3021.4    3024.3    3031.6    3077.1    3085.0    3095.5
  
           1    0.0049   -0.0145   -0.0007   -0.0015    0.0006    0.0001    0.0002   -0.0001
           2    0.0089   -0.0267   -0.0013   -0.0025    0.0000    0.0000    0.0001    0.0006
           3    0.0105   -0.0310   -0.0013   -0.0030    0.0001    0.0002   -0.0003   -0.0006
           4   -0.0013   -0.0006   -0.0009   -0.0004    0.0204    0.0004   -0.0016    0.0000
           5   -0.0434   -0.0170    0.0000    0.0001   -0.0100   -0.0028    0.0003   -0.0001
           6   -0.0122   -0.0045   -0.0013   -0.0012    0.0291   -0.0001   -0.0023   -0.0000
           7   -0.0012    0.0035   -0.0324   -0.0118   -0.0029    0.0007   -0.0002   -0.0033
           8   -0.0003    0.0013   -0.0180   -0.0066   -0.0012   -0.0005    0.0002    0.0168
           9   -0.0003    0.0017   -0.0169   -0.0061   -0.0016    0.0012   -0.0004   -0.0155
          10   -0.0010    0.0034    0.0119   -0.0325   -0.0006    0.0000    0.0001    0.0020
          11   -0.0004    0.0014    0.0055   -0.0149   -0.0005   -0.0000    0.0002    0.0141
          12   -0.0004    0.0013    0.0072   -0.0196   -0.0003    0.0001   -0.0001   -0.0116
          13    0.0001   -0.0001    0.0004    0.0001   -0.0039    0.0071   -0.0435    0.0007
          14    0.0023    0.0007   -0.0006   -0.0003    0.0007   -0.0501   -0.0027   -0.0010
          15    0.0006    0.0002    0.0001    0.0000   -0.0009   -0.0089   -0.0198   -0.0000
          16    0.0001   -0.0005   -0.0004   -0.0008   -0.0000    0.0000   -0.0000   -0.0000
          17   -0.0001    0.0003   -0.0002   -0.0003   -0.0000   -0.0000    0.0000    0.0007
          18   -0.0001    0.0004   -0.0001   -0.0004   -0.0000    0.0000   -0.0000   -0.0006
          19   -0.0574    0.1794    0.0069    0.0140   -0.0013   -0.0002    0.0008    0.0002
          20   -0.1103    0.3226    0.0171    0.0293   -0.0014   -0.0019    0.0002    0.0010
          21   -0.1270    0.3748    0.0154    0.0361   -0.0007   -0.0024   -0.0004   -0.0001
          22    0.1258    0.0507    0.0069    0.0054   -0.1228    0.0039    0.0081    0.0002
          23    0.2305    0.0865    0.0134    0.0098   -0.2721    0.0063    0.0210    0.0008
          24    0.2471    0.0928    0.0133    0.0089   -0.2505    0.0116    0.0219    0.0004
          25   -0.1079   -0.0457    0.0054    0.0035   -0.1255   -0.0077    0.0063   -0.0001
          26    0.2910    0.1171   -0.0169   -0.0110    0.3932    0.0257   -0.0249    0.0010
          27   -0.1006   -0.0411    0.0044    0.0024   -0.1034   -0.0114    0.0071   -0.0005
          28    0.0038   -0.0191    0.1819    0.0658    0.0171   -0.0134    0.0043    0.1922
          29   -0.0002    0.0030   -0.0538   -0.0195   -0.0047    0.0028   -0.0008   -0.0337
          30    0.0051   -0.0237    0.2102    0.0759    0.0197   -0.0144    0.0045    0.2035
          31    0.0055   -0.0213    0.2135    0.0768    0.0165    0.0035   -0.0018   -0.1511
          32    0.0072   -0.0231    0.2746    0.0990    0.0205    0.0041   -0.0021   -0.1753
          33   -0.0004    0.0002   -0.0044   -0.0016   -0.0002    0.0010   -0.0004   -0.0119
          34    0.0047   -0.0177   -0.0671    0.1814    0.0060    0.0007   -0.0020   -0.1505
          35    0.0062   -0.0230   -0.0825    0.2225    0.0070    0.0008   -0.0022   -0.1670
          36    0.0003   -0.0005    0.0087   -0.0237   -0.0007    0.0000    0.0001    0.0038
          37    0.0062   -0.0204   -0.0799    0.2137    0.0038   -0.0010    0.0010    0.1261
          38   -0.0015    0.0031    0.0155   -0.0415   -0.0006    0.0001   -0.0001   -0.0101
          39    0.0069   -0.0214   -0.0982    0.2635    0.0030   -0.0011    0.0013    0.1426
          40   -0.0005   -0.0016   -0.0028   -0.0012    0.0367   -0.0628    0.4162   -0.0073
          41    0.0005    0.0001   -0.0003   -0.0001   -0.0008   -0.0256   -0.0048   -0.0005
          42   -0.0002    0.0000   -0.0002   -0.0001    0.0041   -0.0068    0.0042   -0.0003
          43   -0.0071   -0.0030    0.0006    0.0003    0.0028    0.1188    0.0702    0.0021
          44   -0.0138   -0.0038    0.0007    0.0006    0.0095    0.2255    0.2008    0.0033
          45   -0.0110   -0.0019    0.0012    0.0009    0.0084    0.2493    0.1939    0.0038
          46    0.0072    0.0027   -0.0021   -0.0009    0.0052   -0.1406    0.0327   -0.0031
          47   -0.0166   -0.0064    0.0067    0.0028   -0.0185    0.3997   -0.1634    0.0095
          48    0.0029    0.0010   -0.0024   -0.0010    0.0048   -0.1371    0.0401   -0.0030


   Root No.      41        42

                41 A      42 A   

                3100.0    3179.9
  
           1   -0.0003    0.0000
           2   -0.0001   -0.0001
           3    0.0000   -0.0001
           4   -0.0001   -0.0004
           5   -0.0001   -0.0000
           6   -0.0003    0.0003
           7   -0.0026    0.0001
           8    0.0145    0.0002
           9   -0.0134   -0.0000
          10   -0.0023    0.0000
          11   -0.0187   -0.0000
          12    0.0153    0.0000
          13    0.0003   -0.0113
          14   -0.0007   -0.0044
          15   -0.0001    0.0215
          16   -0.0001   -0.0000
          17   -0.0001    0.0000
          18    0.0001   -0.0000
          19    0.0011    0.0003
          20    0.0023    0.0010
          21    0.0028    0.0015
          22    0.0011    0.0005
          23    0.0030    0.0018
          24    0.0030    0.0027
          25    0.0004    0.0005
          26   -0.0015   -0.0030
          27    0.0004    0.0017
          28    0.1548    0.0007
          29   -0.0271   -0.0001
          30    0.1637    0.0007
          31   -0.1223   -0.0022
          32   -0.1422   -0.0025
          33   -0.0097    0.0001
          34    0.1865   -0.0000
          35    0.2067   -0.0000
          36   -0.0048   -0.0000
          37   -0.1567   -0.0000
          38    0.0125    0.0000
          39   -0.1773   -0.0000
          40   -0.0032    0.3396
          41   -0.0003   -0.0046
          42   -0.0003    0.0210
          43    0.0017   -0.1034
          44    0.0032   -0.2170
          45    0.0036   -0.2075
          46   -0.0019   -0.0992
          47    0.0054    0.2764
          48   -0.0017   -0.0769


           MASS-WEIGHTED COORDINATE ANALYSIS (NORMAL COORDINATES)


   Root No.       1         2         3         4         5         6         7         8

                 1 A       2 A       3 A       4 A       5 A       6 A       7 A       8 A   

                  87.3     170.0     187.6     260.5     421.6     435.4     676.5     762.1
  
           1   -0.0471   -0.1066   -0.1343   -0.1525    0.2429   -0.1670   -0.0079    0.0137
           2   -0.2372   -0.1040   -0.0145    0.1476    0.1752   -0.2803   -0.0458   -0.2439
           3    0.0564   -0.1017   -0.1671   -0.1349    0.2565    0.1184    0.0012   -0.2672
           4   -0.0473   -0.1004   -0.1246   -0.1523    0.2957   -0.1338    0.0149    0.3149
           5   -0.3424   -0.0076    0.1832   -0.2403   -0.1551    0.1950   -0.0066   -0.1802
           6   -0.0347    0.0319    0.0309   -0.2126   -0.1334   -0.3191   -0.0089    0.0766
           7    0.0679   -0.0126   -0.2913   -0.2805   -0.2483    0.1677    0.2817   -0.2650
           8   -0.1817   -0.0548   -0.0935    0.0953   -0.0403   -0.1503    0.0915   -0.1261
           9   -0.2192   -0.0775   -0.1124    0.0556    0.0426    0.1120    0.1667    0.1397
          10    0.0179   -0.0784    0.0371    0.2880   -0.2797   -0.2610   -0.3104   -0.1548
          11    0.1335   -0.0628   -0.0719    0.1492    0.0328    0.0014   -0.1247    0.2025
          12    0.1486   -0.0817   -0.0891    0.0942    0.0416    0.2455   -0.1163   -0.2228
          13   -0.1047   -0.0034    0.2015    0.3708    0.1892    0.3475    0.0196    0.0907
          14    0.4333    0.0780   -0.0608   -0.0540   -0.0070    0.0919    0.0163   -0.0155
          15    0.1329    0.0973    0.1164    0.0678   -0.2035   -0.2090   -0.0339   -0.0267
          16    0.1460    0.3885    0.3845   -0.1830   -0.1096   -0.0726   -0.0093   -0.0630
          17    0.1851    0.1724    0.1065   -0.0898    0.1148    0.0871    0.0238    0.2011
          18   -0.1103    0.1561    0.2497    0.0717    0.1356    0.0271    0.0065    0.2363
          19   -0.0404   -0.0118   -0.0018   -0.1089    0.0941   -0.0829   -0.0045    0.0662
          20   -0.1092   -0.0289   -0.0224    0.0560    0.0379   -0.1169    0.0558   -0.0697
          21    0.0645   -0.0367   -0.0483   -0.0181    0.0662    0.0864   -0.0571   -0.1003
          22    0.0129   -0.0743   -0.0949   -0.0056    0.2089   -0.1141   -0.0223   -0.0207
          23   -0.2330    0.0097    0.1052   -0.1725   -0.1513    0.1457    0.0384    0.0958
          24    0.1039    0.0220   -0.0100    0.0180   -0.0066   -0.1342   -0.0265   -0.0580
          25   -0.0268   -0.0053   -0.0329   -0.1559    0.0142    0.0640    0.0476    0.2306
          26   -0.1605    0.0101    0.0793   -0.1352   -0.1118    0.1175    0.0240    0.0495
          27   -0.1838    0.0191    0.0886   -0.1313   -0.1596   -0.0221    0.0224    0.1632
          28    0.0075   -0.0873   -0.2294   -0.0991   -0.1645    0.1390   -0.2442    0.0077
          29   -0.0895   -0.0476   -0.1242    0.0349   -0.2247    0.0829   -0.2219    0.1582
          30   -0.0606    0.0455    0.0755    0.0338    0.0428   -0.0172    0.2690    0.0201
          31    0.0409    0.0058   -0.1239   -0.1012   -0.2021    0.1537    0.0070    0.0016
          32   -0.0687   -0.0232    0.0035    0.0421    0.0851   -0.1215    0.0700   -0.0937
          33   -0.1352   -0.1383   -0.2152    0.0354   -0.1438    0.1229   -0.4153    0.2831
          34   -0.0188   -0.1219   -0.0672    0.2029   -0.1855   -0.1349    0.2435    0.0073
          35    0.0643    0.0634    0.0434   -0.0463    0.0774    0.0516   -0.2842    0.0377
          36    0.1091   -0.0547   -0.0464    0.1583   -0.1904    0.0896    0.1977    0.1164
          37    0.0159   -0.0223    0.0360    0.1809   -0.2178   -0.0974   -0.0136    0.0586
          38    0.0722   -0.1453   -0.1417    0.1957   -0.1591   -0.0096    0.4501    0.2356
          39    0.0386   -0.0417   -0.0634   -0.0292    0.0946    0.0844   -0.0127   -0.1201
          40   -0.0302   -0.0014    0.0584    0.1075    0.0558    0.1027    0.0060    0.0254
          41    0.0582    0.4655   -0.3358    0.0795    0.0384   -0.0248    0.0057    0.0831
          42    0.0089    0.1602    0.0399    0.1854   -0.0792    0.0940   -0.0064   -0.1951
          43   -0.0952    0.3793   -0.1450    0.2843    0.0717    0.1778    0.0101   -0.0503
          44    0.2900   -0.2205    0.1261   -0.0403    0.0006    0.0290    0.0115    0.0560
          45   -0.0894    0.0978   -0.0162   -0.0304   -0.0685   -0.0926   -0.0177   -0.0319
          46    0.0213   -0.3610    0.3491    0.0726    0.0143    0.2037    0.0100   -0.1072
          47    0.2087   -0.1566    0.0980   -0.0417   -0.0084    0.0370    0.0079    0.0069
          48    0.2347   -0.1573    0.0973   -0.0217   -0.0368   -0.1248   -0.0062    0.1437


   Root No.       9        10        11        12        13        14        15        16

                 9 A      10 A      11 A      12 A      13 A      14 A      15 A      16 A   

                 812.0     858.1     913.4     949.5     961.7     987.5     997.1    1053.4
  
           1    0.0237    0.0285   -0.1428   -0.0326   -0.1683   -0.1452    0.0669   -0.0054
           2   -0.0640    0.1611   -0.0399    0.1177    0.2288   -0.1443   -0.0552   -0.1177
           3   -0.0202    0.2159   -0.0322   -0.0656    0.0270    0.3136    0.1512    0.0746
           4   -0.0353   -0.0539    0.1778    0.0047    0.0479    0.0680    0.0816   -0.0784
           5   -0.2648   -0.1583   -0.0170    0.0235    0.0782   -0.1279    0.0616    0.1238
           6   -0.0823   -0.0652    0.0775    0.0242    0.0567    0.0108    0.0645   -0.0131
           7    0.1443   -0.1663   -0.1295    0.1628    0.0166   -0.0911   -0.1117    0.0495
           8    0.1558    0.1260    0.3220   -0.1038   -0.1549    0.3105    0.0988   -0.1242
           9    0.1287   -0.2247   -0.1359    0.0376   -0.1235   -0.0641   -0.0251    0.1609
          10    0.2179   -0.1435   -0.1095   -0.1556   -0.0271    0.0419   -0.0624    0.0203
          11    0.1364   -0.2363   -0.1796   -0.0812   -0.0856   -0.1221   -0.0529   -0.1064
          12    0.0477    0.0518    0.2827    0.0796    0.1051   -0.1896   -0.1202    0.0286
          13   -0.0168   -0.0143    0.1840    0.0319    0.1600    0.0719   -0.2515    0.0847
          14   -0.0585   -0.0742    0.0277   -0.0016   -0.0848    0.0892   -0.0674   -0.0602
          15    0.0136   -0.0358   -0.0349   -0.0268   -0.0512    0.0037   -0.0582   -0.0010
          16   -0.1999    0.3122    0.1874   -0.0318   -0.1685   -0.1370    0.0001    0.0209
          17   -0.0874   -0.0025   -0.2331    0.0133    0.0756    0.1662   -0.0210    0.3851
          18   -0.1081   -0.0101   -0.2729    0.0231    0.1324    0.0927   -0.0751   -0.3741
          19   -0.0939   -0.0262   -0.1095   -0.0011    0.0068   -0.1443    0.2497    0.0276
          20    0.0167    0.0607    0.0112    0.2319    0.0627   -0.1377   -0.1254   -0.1173
          21    0.0131    0.0655    0.0152   -0.1936   -0.0160    0.2234    0.0341    0.0770
          22   -0.1910   -0.0187    0.0130    0.0312    0.2117   -0.1152    0.3227    0.0652
          23    0.2584    0.1688   -0.0331    0.0075    0.0181    0.0055   -0.0063   -0.0271
          24   -0.2361   -0.2115    0.0645   -0.0099   -0.0795    0.0322   -0.1073    0.0080
          25    0.1647    0.0168    0.0815   -0.0562   -0.2607    0.3239    0.0117   -0.2134
          26    0.1114    0.0541   -0.0029   -0.0063   -0.0263    0.0405   -0.0117   -0.0316
          27    0.3280    0.2297   -0.0085    0.0246    0.1576   -0.0918   -0.0428    0.0021
          28   -0.1518    0.1797   -0.2092    0.2278    0.0429    0.1264   -0.1343   -0.2214
          29   -0.1189    0.0435    0.3007   -0.3814    0.1293   -0.0168    0.2178   -0.0003
          30    0.1644   -0.2636    0.1587   -0.2386   -0.0334   -0.1824    0.1319    0.2686
          31   -0.0517   -0.1482   -0.0123   -0.2368    0.3643    0.0254    0.1105   -0.2350
          32    0.1082    0.1250    0.0742    0.1913   -0.3205    0.0492   -0.0833    0.1578
          33   -0.1996    0.1996   -0.0251    0.0728   -0.2932   -0.1597   -0.0210    0.3406
          34   -0.1519    0.1794   -0.2053   -0.2012    0.1042    0.1636   -0.1214    0.1891
          35    0.2009   -0.2524    0.1116    0.1485   -0.1262   -0.1696    0.0980   -0.1948
          36   -0.1137    0.0058    0.3235    0.4289   -0.0236   -0.0314    0.2535   -0.1050
          37    0.0176   -0.1171   -0.0024    0.3247    0.1386    0.2587    0.2183    0.1565
          38   -0.2494    0.1622   -0.0400   -0.1105   -0.1783   -0.2328   -0.0386   -0.2090
          39    0.0005    0.1189    0.0608   -0.2887   -0.1099   -0.2763   -0.2277   -0.1407
          40   -0.0051   -0.0034    0.0521    0.0088    0.0446    0.0229   -0.0671    0.0227
          41    0.0948    0.0786    0.0534    0.0183    0.1396   -0.0357   -0.0647    0.0543
          42    0.0507    0.0902   -0.2950   -0.0518   -0.2409   -0.0743    0.4437   -0.1173
          43    0.0807    0.1170   -0.1101   -0.0057   -0.0147   -0.0578    0.2311   -0.0223
          44    0.1584    0.1505   -0.0357    0.0117    0.1006   -0.0792    0.0897    0.0311
          45   -0.1884   -0.2141    0.0953   -0.0133   -0.1033    0.1287   -0.2385   -0.0254
          46   -0.0795   -0.0503   -0.0755   -0.0206   -0.1561    0.0572    0.1352   -0.0851
          47    0.0493    0.0451   -0.0258    0.0005    0.0032   -0.0154    0.0491   -0.0099
          48    0.2519    0.2150    0.0102    0.0209    0.2362   -0.1448   -0.0092    0.1201


   Root No.      17        18        19        20        21        22        23        24

                17 A      18 A      19 A      20 A      21 A      22 A      23 A      24 A   

                1054.3    1123.3    1123.7    1161.7    1178.5    1180.2    1255.1    1285.3
  
           1    0.0165   -0.0013    0.0367   -0.0939    0.0483   -0.2444   -0.3077   -0.2147
           2    0.1203    0.0942    0.1036   -0.3186   -0.2788   -0.2607    0.0620    0.3331
           3   -0.0702   -0.0563    0.0407    0.3931   -0.0476   -0.3668    0.1478   -0.1531
           4    0.1176    0.0980    0.0095   -0.0492   -0.1314    0.2471   -0.2700   -0.1038
           5   -0.1838    0.1461   -0.2840    0.1001   -0.0319    0.0955   -0.0851   -0.1056
           6    0.0248   -0.4146   -0.0905    0.0566   -0.1890    0.2055    0.2235    0.1349
           7   -0.0744    0.0305    0.0202   -0.1513   -0.1139    0.0451    0.2162   -0.0997
           8   -0.1921   -0.0885   -0.0977    0.0143    0.2870    0.1665   -0.0879   -0.0394
           9   -0.0336   -0.0181   -0.0172    0.1284    0.0933    0.0310   -0.2285    0.2936
          10   -0.0241   -0.0626   -0.0348    0.2524    0.0468    0.0121   -0.0362    0.2156
          11   -0.1010   -0.0111    0.0114   -0.0686   -0.0646    0.0325    0.2268   -0.3109
          12    0.2985    0.0069   -0.0776   -0.3011    0.1747    0.1957    0.0067   -0.0692
          13   -0.1294   -0.0620   -0.0060    0.0690    0.0339   -0.0859    0.0999    0.0144
          14    0.0943   -0.1415    0.3378   -0.0093    0.0411    0.0172    0.0118    0.0044
          15   -0.0049    0.4543    0.0960   -0.0070    0.1534   -0.0609   -0.0089    0.0027
          16   -0.0389    0.0078    0.0324    0.0446   -0.0589   -0.0557    0.0460    0.0165
          17    0.2365   -0.0100   -0.0336    0.0772    0.0996    0.0277   -0.2236    0.2250
          18   -0.1406    0.0016   -0.0206   -0.1427   -0.0008    0.0587    0.1041   -0.2349
          19   -0.0471   -0.2080   -0.0912   -0.2551    0.6230   -0.2919    0.2414    0.1312
          20    0.4507    0.0133   -0.0556    0.4435   -0.0440   -0.0712    0.0277   -0.2286
          21   -0.3502    0.0921    0.1305   -0.2426   -0.3360   -0.0088   -0.1248    0.1435
          22   -0.1105    0.2453    0.2408    0.2125    0.0814    0.4654    0.2771    0.1309
          23    0.0415    0.0928    0.1367    0.0100    0.0530   -0.0443    0.0354   -0.0118
          24   -0.0049   -0.2789   -0.3543   -0.0819   -0.1843   -0.0714   -0.1760   -0.0556
          25    0.3232    0.2466   -0.2802   -0.0878   -0.1001   -0.0367    0.3184    0.2759
          26    0.0469    0.0532   -0.0475   -0.0093   -0.0230   -0.0143    0.0451    0.0520
          27   -0.0084   -0.3336    0.3891   -0.0250   -0.0246    0.0627   -0.1627   -0.0365
          28   -0.0908   -0.0189   -0.0621    0.0244    0.1218    0.1069   -0.1201    0.0645
          29    0.1364   -0.0000    0.0201   -0.0439    0.0021   -0.1077   -0.0060   -0.2572
          30    0.0903    0.0246    0.0699   -0.0345   -0.1347   -0.1195    0.1097   -0.0488
          31    0.0721    0.0040    0.0027    0.0514    0.0085   -0.1310   -0.0951    0.1411
          32   -0.1240   -0.0215   -0.0277   -0.0762    0.0561    0.1604    0.0909   -0.1491
          33    0.0173    0.0179    0.0686   -0.0261   -0.1501   -0.0601    0.1643    0.0235
          34    0.1398   -0.0241   -0.0391   -0.1205    0.0525    0.1270    0.0414   -0.1211
          35   -0.1634    0.0034    0.0337    0.1537   -0.0574   -0.1197    0.0092    0.0809
          36   -0.0541    0.0206    0.0276   -0.0291    0.0056   -0.1280   -0.2212    0.1279
          37    0.0388    0.0046    0.0371   -0.0850   -0.0495   -0.1119    0.0706   -0.1447
          38   -0.1730    0.0100    0.0345    0.1853   -0.0719   -0.1109    0.0562    0.0873
          39    0.0282   -0.0187   -0.0587    0.0673    0.0999    0.1339   -0.0711    0.1689
          40   -0.0346   -0.0198   -0.0018    0.0222    0.0079   -0.0198    0.0396    0.0119
          41   -0.0894   -0.0126   -0.0833    0.0307   -0.0184   -0.0171    0.0441    0.0295
          42    0.1773    0.0925   -0.0135   -0.0784   -0.0753    0.1218   -0.2180   -0.1039
          43    0.0352   -0.1214   -0.1243    0.0045   -0.0909    0.0943    0.0475    0.0450
          44   -0.0506   -0.0651   -0.1520    0.0164   -0.0594    0.0290    0.0419    0.0321
          45    0.0391    0.2025    0.3116   -0.0131    0.1490   -0.0863   -0.0573   -0.0520
          46    0.1321   -0.1440    0.1178   -0.0136   -0.0499    0.0794    0.0486    0.0578
          47    0.0139   -0.0365    0.0119   -0.0029   -0.0181    0.0242   -0.0129   -0.0028
          48   -0.1901    0.2716   -0.3317    0.0235    0.0153   -0.0626   -0.0877   -0.0777


   Root No.      25        26        27        28        29        30        31        32

                25 A      26 A      27 A      28 A      29 A      30 A      31 A      32 A   

                1339.9    1351.1    1368.7    1400.1    1406.2    1410.5    1421.8    1444.1
  
           1   -0.0371   -0.0138    0.3349   -0.1000   -0.0031    0.0048    0.1720    0.4918
           2    0.0238    0.0449   -0.0363   -0.0338   -0.0125   -0.0063   -0.0683   -0.0968
           3    0.0253   -0.0356   -0.1006   -0.0172    0.0040   -0.0023   -0.0200   -0.1851
           4   -0.0101    0.0103   -0.1702    0.2894    0.0152    0.0468   -0.1138   -0.4402
           5   -0.0094   -0.0153   -0.0282   -0.0110    0.0033    0.0047    0.0905   -0.0248
           6    0.0155    0.0236    0.1933    0.0507   -0.0382   -0.0050   -0.3038    0.2278
           7    0.2308   -0.0015   -0.1088    0.0816    0.0126    0.0056    0.0169   -0.0205
           8   -0.1755   -0.1917   -0.0459    0.1721    0.0209    0.0194    0.0837    0.1442
           9   -0.2446    0.1774    0.1551   -0.2594   -0.0371   -0.0268   -0.1297   -0.1682
          10    0.2329    0.0095   -0.0987    0.0878    0.0082    0.0045   -0.0037   -0.0033
          11   -0.2135   -0.2066    0.1428   -0.2669   -0.0268   -0.0250   -0.1101   -0.2127
          12   -0.2124    0.1672   -0.0282    0.1143    0.0123    0.0112    0.0608    0.1299
          13    0.0019   -0.0095   -0.0468   -0.0516   -0.0829   -0.2528   -0.1164    0.1285
          14    0.0032   -0.0042   -0.0740   -0.0330   -0.2345    0.0744   -0.0686    0.0552
          15    0.0060    0.0101    0.2214    0.1459   -0.0476   -0.0045    0.3422   -0.2306
          16   -0.2726    0.0006    0.0654   -0.1483   -0.0196   -0.0148   -0.0810   -0.1450
          17    0.2284    0.0704   -0.0415    0.1204    0.0128    0.0115    0.0593    0.1349
          18    0.2708   -0.0634   -0.0658    0.1477    0.0231    0.0157    0.0946    0.1456
          19    0.0352    0.0034   -0.1561    0.0188    0.0182   -0.0095   -0.0496   -0.1811
          20   -0.0075   -0.0558    0.0170   -0.0189    0.0020   -0.0007    0.0302    0.0204
          21   -0.0078    0.0456    0.0682   -0.0207   -0.0140    0.0045   -0.0017    0.0556
          22    0.0034   -0.0093   -0.0500   -0.2325   -0.0027   -0.0629    0.1525    0.1674
          23    0.0173    0.0130    0.2418    0.2701   -0.0222    0.0553   -0.3432    0.0001
          24   -0.0226   -0.0059   -0.2144   -0.1252    0.0151   -0.0228    0.2210   -0.0854
          25    0.0012    0.0081   -0.0847   -0.2390   -0.0117   -0.0599    0.1328    0.1118
          26   -0.0080   -0.0092   -0.1131   -0.1713    0.0037   -0.0328    0.1916    0.0304
          27   -0.0232   -0.0174   -0.3022   -0.2396    0.0240   -0.0483    0.3531   -0.0734
          28   -0.0174    0.1985    0.0925   -0.1595   -0.0200   -0.0166   -0.0661   -0.0903
          29    0.3470    0.3944    0.1288   -0.2109   -0.0177   -0.0207   -0.0362   -0.0488
          30    0.0708   -0.0702   -0.0463    0.0555    0.0078    0.0054    0.0210    0.0198
          31   -0.2647   -0.2567   -0.0217    0.1205    0.0064    0.0158    0.0387    0.0962
          32    0.2328    0.1885   -0.0082   -0.0502    0.0011   -0.0078   -0.0112   -0.0497
          33   -0.0723   -0.3268   -0.1468    0.2302    0.0284    0.0225    0.0702    0.0845
          34   -0.0158   -0.2099    0.1011   -0.1507   -0.0150   -0.0138   -0.0612   -0.1006
          35    0.0196    0.1287   -0.0695    0.0759    0.0074    0.0060    0.0221    0.0306
          36    0.3496   -0.3918    0.1573   -0.1757   -0.0164   -0.0147   -0.0445   -0.0462
          37   -0.2580    0.2524   -0.0485    0.0962    0.0103    0.0109    0.0586    0.0913
          38   -0.1062    0.3662   -0.1688    0.2127    0.0209    0.0185    0.0722    0.1036
          39    0.2215   -0.1408   -0.0064   -0.0064   -0.0009   -0.0031   -0.0243   -0.0278
          40    0.0015   -0.0009    0.0080   -0.0119   -0.0085   -0.0216   -0.0117    0.0237
          41   -0.0034    0.0082    0.1209   -0.0046    0.7002   -0.1229    0.0196   -0.0197
          42   -0.0157   -0.0168   -0.3023   -0.0263    0.0628   -0.3773   -0.2929    0.0757
          43    0.0079    0.0120    0.0999    0.0118   -0.2817    0.5607    0.1537   -0.0761
          44    0.0046    0.0116    0.1951    0.1440   -0.0511   -0.3946    0.1742   -0.1041
          45   -0.0067   -0.0173   -0.2199   -0.1356    0.1425    0.1328   -0.2046    0.1161
          46    0.0030    0.0173    0.1428   -0.0026    0.5451    0.3073    0.0876   -0.0815
          47   -0.0027   -0.0013   -0.0572   -0.0670    0.1734    0.2280   -0.0725    0.0373
          48   -0.0125   -0.0225   -0.2823   -0.1844    0.0390    0.3414   -0.2494    0.1591


   Root No.      33        34        35        36        37        38        39        40

                33 A      34 A      35 A      36 A      37 A      38 A      39 A      40 A   

                2949.7    2963.8    3021.4    3024.3    3031.6    3077.1    3085.0    3095.5
  
           1    0.0312   -0.0853   -0.0051   -0.0103    0.0033    0.0003    0.0015   -0.0004
           2    0.0562   -0.1575   -0.0092   -0.0170    0.0003    0.0003    0.0004    0.0045
           3    0.0663   -0.1828   -0.0093   -0.0203    0.0008    0.0013   -0.0018   -0.0040
           4   -0.0084   -0.0036   -0.0060   -0.0030    0.1184    0.0020   -0.0097    0.0001
           5   -0.2756   -0.1001    0.0002    0.0005   -0.0582   -0.0162    0.0017   -0.0010
           6   -0.0771   -0.0263   -0.0092   -0.0083    0.1690   -0.0003   -0.0141   -0.0001
           7   -0.0074    0.0207   -0.2225   -0.0814   -0.0166    0.0042   -0.0011   -0.0238
           8   -0.0017    0.0075   -0.1235   -0.0457   -0.0072   -0.0031    0.0014    0.1207
           9   -0.0020    0.0098   -0.1158   -0.0423   -0.0090    0.0066   -0.0022   -0.1116
          10   -0.0064    0.0201    0.0819   -0.2236   -0.0034    0.0001    0.0005    0.0142
          11   -0.0024    0.0084    0.0377   -0.1024   -0.0030   -0.0002    0.0010    0.1015
          12   -0.0025    0.0079    0.0492   -0.1353   -0.0017    0.0004   -0.0004   -0.0834
          13    0.0008   -0.0005    0.0025    0.0010   -0.0227    0.0407   -0.2678    0.0049
          14    0.0148    0.0042   -0.0042   -0.0020    0.0038   -0.2870   -0.0168   -0.0073
          15    0.0037    0.0009    0.0004    0.0002   -0.0050   -0.0507   -0.1220   -0.0002
          16    0.0008   -0.0028   -0.0026   -0.0055   -0.0002    0.0001   -0.0001   -0.0002
          17   -0.0006    0.0020   -0.0016   -0.0021   -0.0002   -0.0001    0.0001    0.0053
          18   -0.0007    0.0024   -0.0007   -0.0028   -0.0002    0.0001   -0.0000   -0.0046
          19   -0.1055    0.3062    0.0138    0.0279   -0.0022   -0.0003    0.0014    0.0004
          20   -0.2027    0.5507    0.0341    0.0585   -0.0023   -0.0031    0.0004    0.0021
          21   -0.2335    0.6398    0.0306    0.0721   -0.0013   -0.0039   -0.0008   -0.0001
          22    0.2312    0.0865    0.0137    0.0108   -0.2068    0.0065    0.0145    0.0005
          23    0.4238    0.1477    0.0267    0.0195   -0.4580    0.0105    0.0374    0.0016
          24    0.4542    0.1585    0.0265    0.0177   -0.4217    0.0192    0.0390    0.0008
          25   -0.1983   -0.0780    0.0108    0.0070   -0.2112   -0.0128    0.0112   -0.0002
          26    0.5350    0.1999   -0.0336   -0.0220    0.6619    0.0427   -0.0444    0.0020
          27   -0.1849   -0.0702    0.0087    0.0049   -0.1740   -0.0190    0.0126   -0.0011
          28    0.0069   -0.0327    0.3618    0.1312    0.0288   -0.0223    0.0077    0.4001
          29   -0.0003    0.0052   -0.1069   -0.0389   -0.0080    0.0046   -0.0014   -0.0701
          30    0.0094   -0.0405    0.4181    0.1514    0.0332   -0.0240    0.0081    0.4236
          31    0.0101   -0.0363    0.4247    0.1532    0.0278    0.0058   -0.0033   -0.3145
          32    0.0133   -0.0395    0.5462    0.1975    0.0345    0.0067   -0.0038   -0.3651
          33   -0.0007    0.0004   -0.0087   -0.0031   -0.0004    0.0017   -0.0008   -0.0248
          34    0.0087   -0.0302   -0.1335    0.3617    0.0101    0.0012   -0.0035   -0.3134
          35    0.0114   -0.0393   -0.1641    0.4438    0.0118    0.0013   -0.0040   -0.3476
          36    0.0005   -0.0009    0.0174   -0.0473   -0.0012    0.0000    0.0002    0.0080
          37    0.0114   -0.0348   -0.1589    0.4262    0.0064   -0.0016    0.0018    0.2626
          38   -0.0028    0.0053    0.0307   -0.0827   -0.0009    0.0001   -0.0001   -0.0211
          39    0.0126   -0.0364   -0.1954    0.5256    0.0051   -0.0019    0.0023    0.2968
          40   -0.0008   -0.0027   -0.0057   -0.0024    0.0618   -0.1042    0.7420   -0.0152
          41    0.0009    0.0002   -0.0006   -0.0002   -0.0013   -0.0424   -0.0085   -0.0010
          42   -0.0003    0.0000   -0.0003   -0.0003    0.0068   -0.0113    0.0075   -0.0006
          43   -0.0131   -0.0051    0.0013    0.0007    0.0048    0.1971    0.1252    0.0043
          44   -0.0255   -0.0065    0.0015    0.0012    0.0160    0.3742    0.3579    0.0068
          45   -0.0202   -0.0033    0.0024    0.0017    0.0141    0.4137    0.3456    0.0079
          46    0.0132    0.0045   -0.0041   -0.0018    0.0088   -0.2333    0.0583   -0.0065
          47   -0.0306   -0.0109    0.0133    0.0056   -0.0311    0.6633   -0.2913    0.0197
          48    0.0054    0.0016   -0.0048   -0.0020    0.0081   -0.2274    0.0715   -0.0062


   Root No.      41        42

                41 A      42 A   

                3100.0    3179.9
  
           1   -0.0023    0.0002
           2   -0.0005   -0.0005
           3    0.0003   -0.0008
           4   -0.0008   -0.0022
           5   -0.0010   -0.0003
           6   -0.0020    0.0016
           7   -0.0184    0.0007
           8    0.1038    0.0013
           9   -0.0957   -0.0003
          10   -0.0168    0.0001
          11   -0.1340   -0.0000
          12    0.1099    0.0000
          13    0.0021   -0.0692
          14   -0.0049   -0.0273
          15   -0.0009    0.1318
          16   -0.0008   -0.0000
          17   -0.0005    0.0001
          18    0.0006   -0.0000
          19    0.0023    0.0005
          20    0.0048    0.0018
          21    0.0057    0.0028
          22    0.0024    0.0009
          23    0.0062    0.0032
          24    0.0062    0.0049
          25    0.0008    0.0009
          26   -0.0032   -0.0054
          27    0.0008    0.0030
          28    0.3212    0.0012
          29   -0.0562   -0.0001
          30    0.3396    0.0012
          31   -0.2538   -0.0039
          32   -0.2950   -0.0045
          33   -0.0201    0.0002
          34    0.3870   -0.0000
          35    0.4288   -0.0000
          36   -0.0099   -0.0000
          37   -0.3251   -0.0000
          38    0.0260    0.0000
          39   -0.3678   -0.0000
          40   -0.0066    0.6040
          41   -0.0007   -0.0082
          42   -0.0005    0.0374
          43    0.0036   -0.1839
          44    0.0067   -0.3861
          45    0.0074   -0.3691
          46   -0.0040   -0.1765
          47    0.0113    0.4917
          48   -0.0036   -0.1368


          DESCRIPTION OF VIBRATIONS


 VIBRATION          1    1A           ATOM PAIR      ENERGY CONTRIBUTION    RADIAL
 FREQUENCY            87.27         C  2 -- C  5         +18.5% (758.0%)      0.0%
 TRANSITION DIPOLE   0.0916         C  5 -- H 15          +9.9% (555.4%)     86.1%
 TRAVEL (Ang.)       0.8902         C  5 -- H 14          +9.8% (552.8%)      3.4%
 REDUCED MASS        0.9751         C  5 -- H 16          +9.5% (544.1%)     96.2%
 EFFECTIVE MASS    416.1407
 FORCE CONSTANT      0.0044

 VIBRATION          2    2A           ATOM PAIR      ENERGY CONTRIBUTION    RADIAL
 FREQUENCY           169.98         C  5 -- H 14         +21.0% (299.0%)      0.0%
 TRANSITION DIPOLE   0.2205         C  5 -- H 15         +20.0% (291.4%)      2.9%
 TRAVEL (Ang.)       0.7749         C  5 -- H 16         +19.2% (285.4%)      0.3%
 REDUCED MASS        0.6606         C  1 -- C  6          +4.9% (144.0%)      0.0%
 EFFECTIVE MASS     22.2626
 FORCE CONSTANT      0.0112

 VIBRATION          3    3A           ATOM PAIR      ENERGY CONTRIBUTION    RADIAL
 FREQUENCY           187.58         C  5 -- H 16          +9.8% (219.7%)     23.7%
 TRANSITION DIPOLE   0.3137         C  3 -- C  6          +9.5% (216.2%)      0.0%
 TRAVEL (Ang.)       0.6429         C  5 -- H 14          +9.2% (212.9%)     20.2%
 REDUCED MASS        0.8698         C  1 -- C  3          +8.4% (204.1%)      0.0%
 EFFECTIVE MASS     55.0179
 FORCE CONSTANT      0.0180

 VIBRATION          4    4A           ATOM PAIR      ENERGY CONTRIBUTION    RADIAL
 FREQUENCY           260.55         C  2 -- C  5         +13.1% (222.2%)      0.1%
 TRANSITION DIPOLE   0.1756         C  3 -- C  4          +7.9% (171.9%)      0.0%
 TRAVEL (Ang.)       0.5695         C  5 -- H 15          +7.8% (170.7%)     41.4%
 REDUCED MASS        0.7979         C  1 -- C  4          +7.7% (169.7%)      0.1%
 EFFECTIVE MASS     51.4147
 FORCE CONSTANT      0.0319

 VIBRATION          5    5A           ATOM PAIR      ENERGY CONTRIBUTION    RADIAL
 FREQUENCY           421.64         C  1 -- C  4         +10.2% (125.7%)      0.7%
 TRANSITION DIPOLE   0.2720         C  1 -- C  2         +10.2% (125.6%)      1.1%
 TRAVEL (Ang.)       0.4631         C  1 -- C  3         +10.1% (125.1%)      0.1%
 REDUCED MASS        0.7456         C  1 -- C  6          +8.2% (112.7%)      8.0%
 EFFECTIVE MASS     19.8197
 FORCE CONSTANT      0.0781

[...]
 TRAVEL (Ang.)       0.2350         C  4 -- C  6          +9.2% ( 44.5%)     93.4%
 REDUCED MASS        0.9502         C  1 -- C  3          +8.6% ( 43.1%)     42.2%
 EFFECTIVE MASS      6.7274
 FORCE CONSTANT      0.9248

 VIBRATION         25   25A           ATOM PAIR      ENERGY CONTRIBUTION    RADIAL
 FREQUENCY          1339.87         C  4 -- C  6         +15.7% ( 51.2%)     52.3%
 TRANSITION DIPOLE   0.6675         C  3 -- C  6         +15.6% ( 51.1%)     52.0%
 TRAVEL (Ang.)       0.2195         C  3 -- H 11         +11.1% ( 43.0%)      0.0%
 REDUCED MASS        1.0449         C  4 -- H 13         +11.0% ( 42.9%)      0.0%
 EFFECTIVE MASS      5.9668         C  3 -- H 10         +10.8% ( 42.6%)      0.1%
 FORCE CONSTANT      1.1053         C  4 -- H 12         +10.8% ( 42.4%)      0.1%

 VIBRATION         26   26A           ATOM PAIR      ENERGY CONTRIBUTION    RADIAL
 FREQUENCY          1351.10         C  4 -- H 13         +17.9% ( 45.4%)      4.1%
 TRANSITION DIPOLE   0.7126         C  4 -- H 12         +17.5% ( 44.8%)      4.4%
 TRAVEL (Ang.)       0.4113         C  3 -- H 11         +17.2% ( 44.5%)      4.0%
 REDUCED MASS        0.2950         C  3 -- H 10         +16.4% ( 43.4%)      4.6%
 EFFECTIVE MASS      2.4818
 FORCE CONSTANT      0.3173

 VIBRATION         27   27A           ATOM PAIR      ENERGY CONTRIBUTION    RADIAL
 FREQUENCY          1368.75         C  1 -- C  2         +10.7% ( 40.9%)     74.7%
 TRANSITION DIPOLE   0.2596         C  5 -- H 14          +8.2% ( 35.9%)      0.8%
 TRAVEL (Ang.)       0.3667         C  1 -- H  7          +8.1% ( 35.5%)      0.1%
 REDUCED MASS        0.3664         C  2 -- H  9          +8.1% ( 35.5%)      0.7%
 EFFECTIVE MASS      4.0959
 FORCE CONSTANT      0.4044

 VIBRATION         28   28A           ATOM PAIR      ENERGY CONTRIBUTION    RADIAL
 FREQUENCY          1400.07         C  3 -- C  4          +9.9% ( 40.2%)    100.0%
 TRANSITION DIPOLE   0.4262         C  2 -- H  9          +9.8% ( 40.0%)      3.3%
 TRAVEL (Ang.)       0.3341         C  2 -- H  8          +9.8% ( 39.9%)      3.6%
 REDUCED MASS        0.4314         C  3 -- C  6          +8.2% ( 36.6%)     98.9%
 EFFECTIVE MASS      4.9587
 FORCE CONSTANT      0.4982

 VIBRATION         29   29A           ATOM PAIR      ENERGY CONTRIBUTION    RADIAL
 FREQUENCY          1406.25         C  5 -- H 14         +48.5% ( 60.7%)      0.6%
 TRANSITION DIPOLE   0.0715         C  5 -- H 16         +32.7% ( 49.8%)      4.3%
 TRAVEL (Ang.)       0.3398         C  5 -- H 15         +11.0% ( 28.9%)     34.3%
 REDUCED MASS        0.4152         C  2 -- C  5          +5.2% ( 19.9%)      9.9%
 EFFECTIVE MASS      1.6174
 FORCE CONSTANT      0.4838

 VIBRATION         30   30A           ATOM PAIR      ENERGY CONTRIBUTION    RADIAL
 FREQUENCY          1410.53         C  5 -- H 15         +48.0% ( 60.9%)      0.1%
 TRANSITION DIPOLE   0.0322         C  5 -- H 16         +26.9% ( 45.6%)      3.8%
 TRAVEL (Ang.)       0.3489         C  5 -- H 14         +16.1% ( 35.3%)     22.5%
 REDUCED MASS        0.3928         C  2 -- C  5          +5.9% ( 21.3%)      9.7%
 EFFECTIVE MASS      1.6658
 FORCE CONSTANT      0.4604

 VIBRATION         31   31A           ATOM PAIR      ENERGY CONTRIBUTION    RADIAL
 FREQUENCY          1421.81         C  2 -- H  8         +14.0% ( 45.4%)      5.3%
 TRANSITION DIPOLE   0.1917         C  2 -- C  5         +13.6% ( 44.8%)     86.5%
 TRAVEL (Ang.)       0.3096         C  2 -- H  9         +13.1% ( 44.0%)      6.6%
 REDUCED MASS        0.4947         C  5 -- H 15         +11.0% ( 40.2%)      4.6%
 EFFECTIVE MASS      4.5499         C  5 -- H 14         +10.7% ( 39.7%)      2.3%
 FORCE CONSTANT      0.5892

 VIBRATION         32   32A           ATOM PAIR      ENERGY CONTRIBUTION    RADIAL
 FREQUENCY          1444.06         C  1 -- C  2         +17.0% ( 66.9%)     83.2%
 TRANSITION DIPOLE   0.4484         C  1 -- C  4          +9.3% ( 49.5%)     72.1%
 TRAVEL (Ang.)       0.1569         C  1 -- C  6          +9.3% ( 49.5%)     87.1%
 REDUCED MASS        1.8972         C  2 -- C  5          +9.1% ( 48.9%)     76.3%
 EFFECTIVE MASS      9.3807
 FORCE CONSTANT      2.3309

 VIBRATION         33   33A           ATOM PAIR      ENERGY CONTRIBUTION    RADIAL
 FREQUENCY          2949.72         C  2 -- H  8         +47.1% ( 71.2%)     96.9%
 TRANSITION DIPOLE   0.0268         C  2 -- H  9         +39.2% ( 65.0%)     95.9%
 TRAVEL (Ang.)       0.2338         C  1 -- H  7         +10.8% ( 34.1%)    100.0%
 REDUCED MASS        0.4181         C  1 -- C  2          +1.2% ( 11.4%)      1.2%
 EFFECTIVE MASS      1.5380
 FORCE CONSTANT      2.1433

 VIBRATION         34   34A           ATOM PAIR      ENERGY CONTRIBUTION    RADIAL
 FREQUENCY          2963.75         C  1 -- H  7         +83.2% ( 93.3%)    100.0%
 TRANSITION DIPOLE   0.0776         C  2 -- H  8          +6.0% ( 25.0%)     97.0%
 TRAVEL (Ang.)       0.1785         C  2 -- H  9          +5.6% ( 24.3%)     96.5%
 REDUCED MASS        0.7139         C  1 -- C  2          +1.0% ( 10.1%)     19.4%
 EFFECTIVE MASS      1.4549
 FORCE CONSTANT      3.6946

 VIBRATION         35   35A           ATOM PAIR      ENERGY CONTRIBUTION    RADIAL
 FREQUENCY          3021.36         C  3 -- H 11         +50.4% ( 73.8%)     97.9%
 TRANSITION DIPOLE   0.2037         C  3 -- H 10         +34.5% ( 61.0%)     95.8%
 TRAVEL (Ang.)       0.2323         C  4 -- H 13          +6.8% ( 27.1%)     97.8%
 REDUCED MASS        0.4135         C  4 -- H 12          +4.9% ( 23.0%)     96.1%
 EFFECTIVE MASS      1.5089
 FORCE CONSTANT      2.2238

 VIBRATION         36   36A           ATOM PAIR      ENERGY CONTRIBUTION    RADIAL
 FREQUENCY          3024.29         C  4 -- H 13         +49.1% ( 72.8%)     97.8%
 TRANSITION DIPOLE   0.4218         C  4 -- H 12         +35.8% ( 62.1%)     96.0%
 TRAVEL (Ang.)       0.2334         C  3 -- H 11          +6.6% ( 26.7%)     97.9%
 REDUCED MASS        0.4092         C  3 -- H 10          +4.5% ( 22.1%)     95.7%
 EFFECTIVE MASS      1.5178
 FORCE CONSTANT      2.2050

 VIBRATION         37   37A           ATOM PAIR      ENERGY CONTRIBUTION    RADIAL
 FREQUENCY          3031.59         C  2 -- H  9         +53.3% ( 72.0%)     98.2%
 TRANSITION DIPOLE   0.0350         C  2 -- H  8         +44.2% ( 65.6%)     97.1%
 TRAVEL (Ang.)       0.2159         C  2 -- C  5          +0.6% (  7.8%)     25.9%
 REDUCED MASS        0.4773         C  1 -- C  2          +0.6% (  7.7%)     29.5%
 EFFECTIVE MASS      1.2775
 FORCE CONSTANT      2.5844

 VIBRATION         38   38A           ATOM PAIR      ENERGY CONTRIBUTION    RADIAL
 FREQUENCY          3077.13         C  5 -- H 16         +58.5% ( 78.9%)     98.2%
 TRANSITION DIPOLE   0.0203         C  5 -- H 15         +38.0% ( 63.6%)     95.1%
 TRAVEL (Ang.)       0.2064         C  5 -- H 14          +2.1% ( 15.0%)     25.5%
 REDUCED MASS        0.5144         C  2 -- C  5          +1.0% ( 10.2%)      0.0%
 EFFECTIVE MASS      1.5013
 FORCE CONSTANT      2.8698

 VIBRATION         39   39A           ATOM PAIR      ENERGY CONTRIBUTION    RADIAL
 FREQUENCY          3084.96         C  5 -- H 14         +59.5% ( 79.6%)     98.6%
 TRANSITION DIPOLE   0.0187         C  5 -- H 15         +28.4% ( 55.0%)     91.8%
 TRAVEL (Ang.)       0.2145         C  5 -- H 16         +10.5% ( 33.4%)     74.4%
 REDUCED MASS        0.4749         C  2 -- C  5          +1.0% ( 10.3%)      0.0%
 EFFECTIVE MASS      1.5039
 FORCE CONSTANT      2.6630

 VIBRATION         40   40A           ATOM PAIR      ENERGY CONTRIBUTION    RADIAL
 FREQUENCY          3095.48         C  3 -- H 10         +35.7% ( 59.2%)     98.4%
 TRANSITION DIPOLE   0.5995         C  3 -- H 11         +23.6% ( 48.2%)     95.8%
 TRAVEL (Ang.)       0.2892         C  4 -- H 12         +22.7% ( 47.2%)     98.3%
 REDUCED MASS        0.2604         C  4 -- H 13         +16.0% ( 39.6%)     96.2%
 EFFECTIVE MASS      1.2621
 FORCE CONSTANT      1.4704

 VIBRATION         41   41A           ATOM PAIR      ENERGY CONTRIBUTION    RADIAL
 FREQUENCY          3099.98         C  4 -- H 12         +34.5% ( 58.3%)     98.0%
 TRANSITION DIPOLE   0.1289         C  4 -- H 13         +24.6% ( 49.2%)     95.7%
 TRAVEL (Ang.)       0.2893         C  3 -- H 10         +23.0% ( 47.6%)     98.1%
 REDUCED MASS        0.2599         C  3 -- H 11         +15.4% ( 39.0%)     95.4%
 EFFECTIVE MASS      1.3121
 FORCE CONSTANT      1.4713

 VIBRATION         42   42A           ATOM PAIR      ENERGY CONTRIBUTION    RADIAL
 FREQUENCY          3179.87         C  5 -- H 14         +37.8% ( 59.1%)     97.7%
 TRANSITION DIPOLE   0.0223         C  5 -- H 15         +32.5% ( 54.9%)     96.9%
 TRAVEL (Ang.)       0.2536         C  5 -- H 16         +29.4% ( 52.2%)     96.4%
 REDUCED MASS        0.3298         C  2 -- C  5          +0.3% (  5.1%)     99.1%
 EFFECTIVE MASS      1.1370
 FORCE CONSTANT      1.9651

      SYMMETRY NUMBER FOR POINT-GROUP C1  =  1


          SYSTEM IS A GROUND STATE



 InChI=1S/C6H10/c1-2-6-4-3-5-6/h6H,2,4-5H2,1H3/lp3


          MOLECULE IS NOT LINEAR

          THERE ARE 42 GENUINE VIBRATIONS IN THIS SYSTEM
          THIS THERMODYNAMICS CALCULATION IS LIMITED TO
          MOLECULES WHICH HAVE NO INTERNAL ROTATIONS




                    CALCULATED THERMODYNAMIC PROPERTIES
                                          *
   TEMP. (K)   PARTITION FUNCTION   H.O.F.    ENTHALPY  HEAT CAPACITY ENTROPY
                                   KCAL/MOL   CAL/MOLE    CAL/K/MOL  CAL/K/MOL


 298.00  VIB.     0.1940D+02                  2381.8177    18.1691    13.8854
         ROT.     0.1348D+06                   888.2803     2.9808    26.4533
         INT.     0.2616D+07                  3270.0980    21.1499    40.3387
         TRA.     0.7198D+27                  1480.4672     4.9680    39.1295
         TOT.                       79.724    4750.5652    26.1179    79.4682

 200.00  VIB.     0.5460D+01                   988.3673    10.6363     8.3149
         ROT.     0.7414D+05                   596.1613     2.9808    25.2646
         INT.     0.4048D+06                  1584.5285    13.6171    33.5795
         TRA.     0.3957D+27                   993.6021     4.9680    37.1484
         TOT.                       77.551    2578.1307    18.5851    70.7279

 210.00  VIB.     0.6186D+01                  1097.9815    11.2916     8.8496
         ROT.     0.7977D+05                   625.9693     2.9808    25.4101
         INT.     0.4934D+06                  1723.9508    14.2724    34.2597
         TRA.     0.4258D+27                  1043.2822     4.9680    37.3907
         TOT.                       77.740    2767.2330    19.2404    71.6504

 220.00  VIB.     0.7015D+01                  1214.2995    11.9770     9.3906
         ROT.     0.8553D+05                   655.7774     2.9808    25.5487
         INT.     0.6000D+06                  1870.0769    14.9578    34.9393
         TRA.     0.4566D+27                  1092.9623     4.9680    37.6219
         TOT.                       77.936    2963.0392    19.9258    72.5612

 230.00  VIB.     0.7962D+01                  1337.6198    12.6919     9.9386
         ROT.     0.9143D+05                   685.5855     2.9808    25.6812
         INT.     0.7280D+06                  2023.2052    15.6727    35.6199
         TRA.     0.4880D+27                  1142.6424     4.9680    37.8427
         TOT.                       78.139    3165.8477    20.6407    73.4626

 240.00  VIB.     0.9047D+01                  1468.2298    13.4347    10.4944
         ROT.     0.9745D+05                   715.3935     2.9808    25.8081
         INT.     0.8817D+06                  2183.6233    16.4155    36.3025
         TRA.     0.5202D+27                  1192.3226     4.9680    38.0541
         TOT.                       78.349    3375.9459    21.3835    74.3566

 250.00  VIB.     0.1029D+02                  1606.3994    14.2034    11.0583
         ROT.     0.1036D+06                   745.2016     2.9808    25.9298
         INT.     0.1066D+07                  2351.6010    17.1842    36.9881
         TRA.     0.5531D+27                  1242.0027     4.9680    38.2569
         TOT.                       78.567    3593.6036    22.1522    75.2451

 260.00  VIB.     0.1172D+02                  1752.3757    14.9956    11.6308
         ROT.     0.1099D+06                   775.0097     2.9808    26.0467
         INT.     0.1288D+07                  2527.3853    17.9764    37.6775
         TRA.     0.5866D+27                  1291.6828     4.9680    38.4518
         TOT.                       78.792    3819.0681    22.9444    76.1292

 270.00  VIB.     0.1336D+02                  1906.3795    15.8084    12.2119
         ROT.     0.1163D+06                   804.8177     2.9808    26.1592
         INT.     0.1553D+07                  2711.1972    18.7892    38.3711
         TRA.     0.6208D+27                  1341.3629     4.9680    38.6393
         TOT.                       79.026    4052.5601    23.7572    77.0104

 280.00  VIB.     0.1525D+02                  2068.6029    16.6390    12.8018
         ROT.     0.1228D+06                   834.6258     2.9808    26.2676
         INT.     0.1872D+07                  2903.2287    19.6198    39.0693
         TRA.     0.6556D+27                  1391.0430     4.9680    38.8200
         TOT.                       79.267    4294.2717    24.5878    77.8893

 290.00  VIB.     0.1742D+02                  2239.2084    17.4843    13.4003
         ROT.     0.1294D+06                   864.4339     2.9808    26.3722
         INT.     0.2255D+07                  3103.6423    20.4651    39.7725
         TRA.     0.6910D+27                  1440.7231     4.9680    38.9943
         TOT.                       79.518    4544.3654    25.4331    78.7668

 300.00  VIB.     0.1993D+02                  2418.3281    18.3413    14.0075
         ROT.     0.1362D+06                   894.2419     2.9808    26.4733
         INT.     0.2715D+07                  3312.5700    21.3221    40.4808
         TRA.     0.7270D+27                  1490.4032     4.9680    39.1627
         TOT.                       79.776    4802.9732    26.2901    79.6435

 310.00  VIB.     0.2283D+02                  2606.0643    19.2071    14.6230
         ROT.     0.1431D+06                   924.0500     2.9808    26.5710
         INT.     0.3267D+07                  3530.1143    22.1879    41.1940
         TRA.     0.7637D+27                  1540.0833     4.9680    39.3256
         TOT.                       80.043    5070.1976    27.1560    80.5196

 320.00  VIB.     0.2619D+02                  2802.4908    20.0789    15.2466
         ROT.     0.1500D+06                   953.8580     2.9808    26.6656
         INT.     0.3929D+07                  3756.3489    23.0597    41.9122
         TRA.     0.8009D+27                  1589.7634     4.9680    39.4834
         TOT.                       80.319    5346.1123    28.0278    81.3955

 330.00  VIB.     0.3007D+02                  3007.6541    20.9541    15.8778
         ROT.     0.1571D+06                   983.6661     2.9808    26.7574
         INT.     0.4725D+07                  3991.3202    23.9349    42.6352
         TRA.     0.8388D+27                  1639.4435     4.9680    39.6362
         TOT.                       80.604    5630.7637    28.9029    82.2714

 340.00  VIB.     0.3458D+02                  3221.5752    21.8301    16.5164
         ROT.     0.1643D+06                  1013.4742     2.9808    26.8463
         INT.     0.5682D+07                  4235.0493    24.8109    43.3627
         TRA.     0.8772D+27                  1689.1236     4.9680    39.7845
         TOT.                       80.897    5924.1730    29.7789    83.1472

 350.00  VIB.     0.3981D+02                  3444.2516    22.7048    17.1618
         ROT.     0.1716D+06                  1043.2822     2.9808    26.9327
         INT.     0.6832D+07                  4487.5338    25.6856    44.0945
         TRA.     0.9162D+27                  1738.8037     4.9680    39.9285
         TOT.                       81.200    6226.3376    30.6536    84.0231

 360.00  VIB.     0.4589D+02                  3675.6596    23.5761    17.8136
         ROT.     0.1790D+06                  1073.0903     2.9808    27.0167
         INT.     0.8216D+07                  4748.7499    26.5569    44.8304
         TRA.     0.9557D+27                  1788.4838     4.9680    40.0685
         TOT.                       81.510    6537.2338    31.5249    84.8989

 370.00  VIB.     0.5296D+02                  3915.7563    24.4422    18.4714
         ROT.     0.1865D+06                  1102.8984     2.9808    27.0984
         INT.     0.9880D+07                  5018.6547    27.4230    45.5698
         TRA.     0.9958D+27                  1838.1639     4.9680    40.2046
         TOT.                       81.830    6856.8186    32.3910    85.7744

 380.00  VIB.     0.6120D+02                  4164.4816    25.3016    19.1347
         ROT.     0.1942D+06                  1132.7064     2.9808    27.1779
         INT.     0.1188D+08                  5297.1880    28.2824    46.3126
         TRA.     0.1036D+28                  1887.8440     4.9680    40.3371
         TOT.                       82.158    7185.0321    33.2504    86.6497

 390.00  VIB.     0.7080D+02                  4421.7606    26.1528    19.8029
         ROT.     0.2019D+06                  1162.5145     2.9808    27.2553
         INT.     0.1429D+08                  5584.2751    29.1336    47.0582
         TRA.     0.1078D+28                  1937.5242     4.9680    40.4662
         TOT.                       82.495    7521.7992    34.1016    87.5244

 400.00  VIB.     0.8199D+02                  4687.5054    26.9946    20.4757
         ROT.     0.2097D+06                  1192.3226     2.9808    27.3308
         INT.     0.1719D+08                  5879.8279    29.9754    47.8065
         TRA.     0.1119D+28                  1987.2043     4.9680    40.5919
         TOT.                       82.840    7867.0322    34.9434    88.3984

   *: NOTE: HEATS OF FORMATION ARE RELATIVE TO THE
            ELEMENTS IN THEIR STANDARD STATE AT 298K
              (=  Standard Enthalpy of Formation).

            Hvib:  Zero-point energy is not included.
                   frequencies of less than zero cm-1 are not included.
            Hrot = (3/2)RT
            Htra = (3/2)RT + pV = (5/2)RT

            Heat capacity is Cp, not Cv

          For more information, see: HTTP://OpenMOPAC.net/Manual/thermochemistry.html


           FORCE CONSTANT IN CARTESIAN COORDINATES (Millidynes/A)

    ATOM   CHEMICAL       X               Y               Z
   NUMBER   SYMBOL  FORCE CONSTANT  FORCE CONSTANT  FORCE CONSTANT

      1       C        9.092707        7.347646        8.059321
      2       C        8.391995        8.287258        8.470999
      3       C        7.133707        8.229630        8.419602
      4       C        7.144842        8.931041        7.731205
      5       C        8.462248        8.192144        8.239598
      6       C        3.201627        5.000551        5.037359
      7       H        1.241912        2.243537        2.799286
      8       H        1.209127        2.574211        2.602428
      9       H        1.119302        4.227353        1.025747
     10       H        2.611382        0.773081        3.020456
     11       H        2.438431        3.391059        0.536255
     12       H        2.531107        3.194227        0.682038
     13       H        2.504734        0.585250        3.281225
     14       H        5.398789        0.669044        0.726010
     15       H        1.124652        2.781685        2.871599
     16       H        1.116677        4.540590        1.093680

 **********************
 *                    *
 * JOB ENDED NORMALLY *
 *                    *
 **********************



 TOTAL JOB TIME:             1.14 SECONDS

 == MOPAC DONE ==
