 *******************************************************************************
 **                                                                           **
 **                              MOPAC v23.1.2                                **
 **                                                                           **
 *******************************************************************************
 **          Digital Object Identifier (DOI): 10.5281/zenodo.6511958          **
 **    Visit the DOI location for information on how to cite this program.    **
 *******************************************************************************

                              PM3 CALCULATION RESULTS

 *******************************************************************************
 *  CALCULATION DONE: (MAX THREADS = 1)              Tue Jun  3 16:31:32 2025  *
 *  PM3        - The PM3 Hamiltonian to be used
 *  PRECISE    - TIGHTER CRITERIA TO BE USED
 *  NOSYM      - POINT-GROUP SYMMETRY SET TO C1
 *  THREADS=1  - MULTI-THREADING NOT USED
 *  T=         - A TIME OF 172800.0 SECONDS REQUESTED
 *  DUMP=N     - RESTART FILE WRITTEN EVERY 7200.0 SECONDS REQUESTED
 *******************************************************************************
pm3  precise nosym THREADS=1
 InChI=1S/C10H12/c1-2-6-10-8-4-3-7-9(10)5-1/h1-6,9-10H,7-8H2

   ATOM   CHEMICAL          X               Y               Z
  NUMBER   SYMBOL      (ANGSTROMS)     (ANGSTROMS)     (ANGSTROMS)

     1       C          0.04350000  *   0.58400000  *  -0.65340000  *
     2       C          0.18220000  *  -0.53770000  *   0.39960000  *
     3       C         -1.35500000  *   1.21210000  *  -0.55460000  *
     4       C         -0.82240000  *  -1.65870000  *   0.09220000  *
     5       C          1.14000000  *   1.60860000  *  -0.47560000  *
     6       C          1.60480000  *  -1.04570000  *   0.44050000  *
     7       C         -2.44060000  *   0.16030000  *  -0.52400000  *
     8       C         -2.21140000  *  -1.11430000  *  -0.15330000  *
     9       C          2.36450000  *   1.21660000  *  -0.10110000  *
    10       C          2.62240000  *  -0.19390000  *   0.26080000  *
    11       H          0.16240000  *   0.14320000  *  -1.66970000  *
    12       H         -0.05070000  *  -0.12030000  *   1.40610000  *
    13       H         -1.43330000  *   1.82190000  *   0.37180000  *
    14       H         -1.52390000  *   1.88090000  *  -1.42580000  *
    15       H         -0.50180000  *  -2.21870000  *  -0.81320000  *
    16       H         -0.85820000  *  -2.36940000  *   0.94570000  *
    17       H         -3.46280000  *   0.47300000  *  -0.71390000  *
    18       H         -3.04620000  *  -1.80790000  *  -0.12460000  *
    19       H          0.96300000  *   2.64750000  *  -0.72650000  *
    20       H          1.80900000  *  -2.07900000  *   0.69380000  *
    21       H          3.64210000  *  -0.53780000  *   0.37610000  *
    22       H          3.17250000  *   1.93540000  *  -0.05780000  *



          CARTESIAN COORDINATES 

    NO.       ATOM           X           Y           Z

     1         C          0.0435      0.5840     -0.6534
     2         C          0.1822     -0.5377      0.3996
     3         C         -1.3550      1.2121     -0.5546
     4         C         -0.8224     -1.6587      0.0922
     5         C          1.1400      1.6086     -0.4756
     6         C          1.6048     -1.0457      0.4405
     7         C         -2.4406      0.1603     -0.5240
     8         C         -2.2114     -1.1143     -0.1533
     9         C          2.3645      1.2166     -0.1011
    10         C          2.6224     -0.1939      0.2608
    11         H          0.1624      0.1432     -1.6697
    12         H         -0.0507     -0.1203      1.4061
    13         H         -1.4333      1.8219      0.3718
    14         H         -1.5239      1.8809     -1.4258
    15         H         -0.5018     -2.2187     -0.8132
    16         H         -0.8582     -2.3694      0.9457
    17         H         -3.4628      0.4730     -0.7139
    18         H         -3.0462     -1.8079     -0.1246
    19         H          0.9630      2.6475     -0.7265
    20         H          1.8090     -2.0790      0.6938
    21         H          3.6421     -0.5378      0.3761
    22         H          3.1725      1.9354     -0.0578

  H: (PM3): J. J. P. STEWART, J. COMP. CHEM. 10, 209 (1989).
  C: (PM3): J. J. P. STEWART, J. COMP. CHEM. 10, 209 (1989).

           Empirical Formula: C10 H12  =    22 atoms



      MOLECULAR POINT GROUP   :   C1  


      RHF CALCULATION, NO. OF DOUBLY OCCUPIED LEVELS = 26


          Geometry optimization using EF

          DIAGONAL MATRIX USED AS START HESSIAN

 CYCLE:     1 TIME:   0.008 TIME LEFT:  2.00D  GRAD.:    78.951 HEAT:  37.31320
 CYCLE:     2 TIME:   0.016 TIME LEFT:  2.00D  GRAD.:    47.744 HEAT:  35.75090
 CYCLE:     3 TIME:   0.012 TIME LEFT:  2.00D  GRAD.:    35.565 HEAT:  35.35428
 CYCLE:     4 TIME:   0.008 TIME LEFT:  2.00D  GRAD.:    19.667 HEAT:  35.02216
 CYCLE:     5 TIME:   0.008 TIME LEFT:  2.00D  GRAD.:    26.210 HEAT:  34.81404
 CYCLE:     6 TIME:   0.004 TIME LEFT:  2.00D  GRAD.:    38.344 HEAT:  34.77569
 CYCLE:     7 TIME:   0.008 TIME LEFT:  2.00D  GRAD.:    28.323 HEAT:  34.54591
 CYCLE:     8 TIME:   0.012 TIME LEFT:  2.00D  GRAD.:    31.812 HEAT:  34.49672
 CYCLE:     9 TIME:   0.008 TIME LEFT:  2.00D  GRAD.:    26.498 HEAT:  34.45101
 CYCLE:    10 TIME:   0.008 TIME LEFT:  2.00D  GRAD.:    20.145 HEAT:  34.38814
 CYCLE:    11 TIME:   0.012 TIME LEFT:  2.00D  GRAD.:    22.272 HEAT:  34.38608
 CYCLE:    12 TIME:   0.012 TIME LEFT:  2.00D  GRAD.:     9.627 HEAT:  34.27657
 CYCLE:    13 TIME:   0.012 TIME LEFT:  2.00D  GRAD.:     8.948 HEAT:  34.26415
 CYCLE:    14 TIME:   0.008 TIME LEFT:  2.00D  GRAD.:     7.246 HEAT:  34.25136
 CYCLE:    15 TIME:   0.012 TIME LEFT:  2.00D  GRAD.:     4.889 HEAT:  34.23911
 CYCLE:    16 TIME:   0.008 TIME LEFT:  2.00D  GRAD.:     3.396 HEAT:  34.22580
 CYCLE:    17 TIME:   0.008 TIME LEFT:  2.00D  GRAD.:     4.564 HEAT:  34.21720
 CYCLE:    18 TIME:   0.008 TIME LEFT:  2.00D  GRAD.:     5.011 HEAT:  34.20692
 CYCLE:    19 TIME:   0.004 TIME LEFT:  2.00D  GRAD.:     6.951 HEAT:  34.20180
 CYCLE:    20 TIME:   0.008 TIME LEFT:  2.00D  GRAD.:     7.724 HEAT:  34.20093
 CYCLE:    21 TIME:   0.008 TIME LEFT:  2.00D  GRAD.:     8.128 HEAT:  34.19937
 CYCLE:    22 TIME:   0.008 TIME LEFT:  2.00D  GRAD.:     5.729 HEAT:  34.18929
 CYCLE:    23 TIME:   0.008 TIME LEFT:  2.00D  GRAD.:     3.079 HEAT:  34.18110
 CYCLE:    24 TIME:   0.008 TIME LEFT:  2.00D  GRAD.:     3.384 HEAT:  34.17987
 CYCLE:    25 TIME:   0.004 TIME LEFT:  2.00D  GRAD.:     2.139 HEAT:  34.17669
 CYCLE:    26 TIME:   0.008 TIME LEFT:  2.00D  GRAD.:     1.395 HEAT:  34.17432
 CYCLE:    27 TIME:   0.008 TIME LEFT:  2.00D  GRAD.:     1.036 HEAT:  34.17184
 CYCLE:    28 TIME:   0.008 TIME LEFT:  2.00D  GRAD.:     1.958 HEAT:  34.16729
 CYCLE:    29 TIME:   0.008 TIME LEFT:  2.00D  GRAD.:     2.320 HEAT:  34.16593
 CYCLE:    30 TIME:   0.004 TIME LEFT:  2.00D  GRAD.:     1.038 HEAT:  34.16368
 CYCLE:    31 TIME:   0.008 TIME LEFT:  2.00D  GRAD.:     1.225 HEAT:  34.16185
 CYCLE:    32 TIME:   0.008 TIME LEFT:  2.00D  GRAD.:     1.788 HEAT:  34.15847
 CYCLE:    33 TIME:   0.008 TIME LEFT:  2.00D  GRAD.:     1.508 HEAT:  34.15458
 CYCLE:    34 TIME:   0.008 TIME LEFT:  2.00D  GRAD.:     1.043 HEAT:  34.15296
 CYCLE:    35 TIME:   0.008 TIME LEFT:  2.00D  GRAD.:     0.972 HEAT:  34.15222
 CYCLE:    36 TIME:   0.004 TIME LEFT:  2.00D  GRAD.:     0.710 HEAT:  34.15159
 CYCLE:    37 TIME:   0.008 TIME LEFT:  2.00D  GRAD.:     0.481 HEAT:  34.15104
 CYCLE:    38 TIME:   0.008 TIME LEFT:  2.00D  GRAD.:     0.478 HEAT:  34.15064
 CYCLE:    39 TIME:   0.008 TIME LEFT:  2.00D  GRAD.:     0.381 HEAT:  34.15034
 CYCLE:    40 TIME:   0.008 TIME LEFT:  2.00D  GRAD.:     0.203 HEAT:  34.15018
 CYCLE:    41 TIME:   0.004 TIME LEFT:  2.00D  GRAD.:     0.151 HEAT:  34.15013
 CYCLE:    42 TIME:   0.008 TIME LEFT:  2.00D  GRAD.:     0.132 HEAT:  34.15009
 CYCLE:    43 TIME:   0.004 TIME LEFT:  2.00D  GRAD.:     0.107 HEAT:  34.15007
 CYCLE:    44 TIME:   0.008 TIME LEFT:  2.00D  GRAD.:     0.059 HEAT:  34.15006
 CYCLE:    45 TIME:   0.008 TIME LEFT:  2.00D  GRAD.:     0.062 HEAT:  34.15005
 CYCLE:    46 TIME:   0.008 TIME LEFT:  2.00D  GRAD.:     0.065 HEAT:  34.15005
 CYCLE:    47 TIME:   0.004 TIME LEFT:  2.00D  GRAD.:     0.031 HEAT:  34.15004

     GRADIENT =  0.03054 IS LESS THAN CUTOFF =  0.05000



 -------------------------------------------------------------------------------
 pm3  precise nosym THREADS=1
 InChI=1S/C10H12/c1-2-6-10-8-4-3-7-9(10)5-1/h1-6,9-10H,7-8H2



     GEOMETRY OPTIMISED USING EIGENVECTOR FOLLOWING (EF).     
     SCF FIELD WAS ACHIEVED                                   


                              PM3 CALCULATION
                                                       MOPAC v23.1.2 MacOS
                                                       Tue Jun  3 16:31:33 2025




          FINAL HEAT OF FORMATION =         34.15004 KCAL/MOL =     142.88378 KJ/MOL


          COSMO AREA              =        172.92 SQUARE ANGSTROMS
          COSMO VOLUME            =        179.23 CUBIC ANGSTROMS

          GRADIENT NORM           =          0.03054          =       0.00651 PER ATOM
          IONIZATION POTENTIAL    =          9.021943 EV
          HOMO LUMO ENERGIES (EV) =         -9.022  0.262
          NO. OF FILLED LEVELS    =         26
          MOLECULAR WEIGHT        =        132.2048         POINT GROUP:  C1  

          MOLECULAR DIMENSIONS (Angstroms)

            Atom       Atom       Distance
            H    22    H    18     7.23131
            H    20    H    14     5.51377
            H    12    H    11     2.79824


          SCF CALCULATIONS        =         55

          WALL-CLOCK TIME         =      0.387 SECONDS
          COMPUTATION TIME        =      0.251 SECONDS




   ATOM   CHEMICAL          X               Y               Z
  NUMBER   SYMBOL      (ANGSTROMS)     (ANGSTROMS)     (ANGSTROMS)

     1       C          0.03556777  *   0.58038502  *  -0.64984493  *
     2       C          0.17412338  *  -0.53749224  *   0.39448210  *
     3       C         -1.34995191  *   1.20974613  *  -0.52418211  *
     4       C         -0.81373689  *  -1.65355553  *   0.06263963  *
     5       C          1.13841547  *   1.57957635  *  -0.52268992  *
     6       C          1.58424897  *  -1.02122779  *   0.48570767  *
     7       C         -2.41602419  *   0.17210395  *  -0.46901089  *
     8       C         -2.17551006  *  -1.11366817  *  -0.20265750  *
     9       C          2.35512998  *   1.20029627  *  -0.10852154  *
    10       C          2.60624583  *  -0.18271829  *   0.26615009  *
    11       H          0.13200862  *   0.13267972  *  -1.67223590  *
    12       H         -0.08271569  *  -0.12270487  *   1.40295744  *
    13       H         -1.41378707  *   1.83665738  *   0.38841130  *
    14       H         -1.53423493  *   1.89368861  *  -1.37591709  *
    15       H         -0.47587324  *  -2.22383926  *  -0.82648342  *
    16       H         -0.85395002  *  -2.38392263  *   0.89458170  *
    17       H         -3.43762525  *   0.52298223  *  -0.65284009  *
    18       H         -2.99396510  *  -1.84173695  *  -0.17803399  *
    19       H          0.91918482  *   2.61062581  *  -0.81808008  *
    20       H          1.73987773  *  -2.06532015  *   0.77558276  *
    21       H          3.64789429  *  -0.50355310  *   0.36348362  *
    22       H          3.18901016  *   1.90583613  *  -0.04278378  *

                             CARTESIAN COORDINATES

   1    C        0.035567774     0.580385015    -0.649844926
   2    C        0.174123384    -0.537492242     0.394482100
   3    C       -1.349951912     1.209746131    -0.524182107
   4    C       -0.813736891    -1.653555527     0.062639633
   5    C        1.138415474     1.579576347    -0.522689922
   6    C        1.584248973    -1.021227794     0.485707671
   7    C       -2.416024195     0.172103949    -0.469010890
   8    C       -2.175510062    -1.113668174    -0.202657496
   9    C        2.355129977     1.200296268    -0.108521545
  10    C        2.606245833    -0.182718290     0.266150093
  11    H        0.132008621     0.132679720    -1.672235898
  12    H       -0.082715686    -0.122704874     1.402957442
  13    H       -1.413787069     1.836657383     0.388411296
  14    H       -1.534234929     1.893688608    -1.375917085
  15    H       -0.475873241    -2.223839259    -0.826483422
  16    H       -0.853950024    -2.383922631     0.894581704
  17    H       -3.437625253     0.522982233    -0.652840088
  18    H       -2.993965099    -1.841736949    -0.178033994
  19    H        0.919184819     2.610625812    -0.818080085
  20    H        1.739877728    -2.065320148     0.775582760
  21    H        3.647894287    -0.503553101     0.363483620
  22    H        3.189010161     1.905836133    -0.042783784


           Empirical Formula: C10 H12  =    22 atoms



      MOLECULAR POINT GROUP   :   C1  


                  EIGENVALUES  
 -42.07342 -35.45297 -32.11085 -28.72375 -27.61515 -22.60230 -21.63285 -20.94193
 -18.19643 -17.58876 -16.94802 -16.74029 -15.17928 -14.81988 -14.72419 -14.30198
 -14.25529 -13.51132 -13.19323 -12.88074 -12.11570 -11.65935 -11.48019 -11.34411
  -9.69005  -9.02194   0.26222   1.06931   2.04269   3.21957   3.30049   3.42297
   3.48179   3.58175   3.77004   3.77641   3.82763   3.91054   4.11182   4.15167
   4.38620   4.42230   4.57170   4.64128   4.90179   4.92289   5.16760   5.48453
   5.63313   5.87532   6.01066   6.16651


              NET ATOMIC CHARGES AND DIPOLE CONTRIBUTIONS

  ATOM NO.   TYPE          CHARGE      No. of ELECS.   s-Pop       p-Pop       
    1          C          -0.045656        4.0457     1.16467     2.88099
    2          C          -0.045660        4.0457     1.16467     2.88099
    3          C          -0.053718        4.0537     1.14860     2.90512
    4          C          -0.053712        4.0537     1.14860     2.90511
    5          C          -0.131944        4.1319     1.19873     2.93322
    6          C          -0.131935        4.1319     1.19872     2.93321
    7          C          -0.148362        4.1484     1.19459     2.95378
    8          C          -0.148369        4.1484     1.19459     2.95378
    9          C          -0.114965        4.1150     1.18003     2.93493
   10          C          -0.114981        4.1150     1.18003     2.93495
   11          H           0.076095        0.9239     0.92391
   12          H           0.076096        0.9239     0.92390
   13          H           0.060330        0.9397     0.93967
   14          H           0.054995        0.9450     0.94501
   15          H           0.060333        0.9397     0.93967
   16          H           0.054993        0.9450     0.94501
   17          H           0.097554        0.9024     0.90245
   18          H           0.097560        0.9024     0.90244
   19          H           0.103286        0.8967     0.89671
   20          H           0.103286        0.8967     0.89671
   21          H           0.102385        0.8976     0.89761
   22          H           0.102388        0.8976     0.89761
 DIPOLE           X         Y         Z       TOTAL
 POINT-CHG.    -0.174    -0.036    -0.015     0.178
 HYBRID        -0.029    -0.006    -0.002     0.029
 SUM           -0.202    -0.041    -0.018     0.207


          ATOMIC ORBITAL ELECTRON POPULATIONS

     Atom    s        px        py        pz   
    1  C   1.16467   0.93486   0.95158   0.99454
    2  C   1.16467   0.93240   0.95640   0.99219
    3  C   1.14860   0.92993   0.96220   1.01299
    4  C   1.14860   0.93252   0.96417   1.00842
    5  C   1.19873   0.95359   0.98265   0.99699
    6  C   1.19872   0.95049   0.98393   0.99879
    7  C   1.19459   0.98429   0.95525   1.01425
    8  C   1.19459   0.97475   0.96569   1.01335
    9  C   1.18003   0.96753   0.95751   1.00989
   10  C   1.18003   0.97731   0.94517   1.01246
   11  H   0.92391
   12  H   0.92390
   13  H   0.93967
   14  H   0.94501
   15  H   0.93967
   16  H   0.94501
   17  H   0.90245
   18  H   0.90244
   19  H   0.89671
   20  H   0.89671
   21  H   0.89761
   22  H   0.89761
 *******************************************************************************
 **                                                                           **
 **                              MOPAC v23.1.2                                **
 **                                                                           **
 *******************************************************************************
 **          Digital Object Identifier (DOI): 10.5281/zenodo.6511958          **
 **    Visit the DOI location for information on how to cite this program.    **
 *******************************************************************************

                              PM3 CALCULATION RESULTS

 *******************************************************************************
 *  CALCULATION DONE: (MAX THREADS = 1)              Tue Jun  3 16:31:33 2025  *
 *  PM3        - The PM3 Hamiltonian to be used
 *  OLDGEO     - PREVIOUS GEOMETRY TO BE USED
 *  PRECISE    - TIGHTER CRITERIA TO BE USED
 *  NOSYM      - POINT-GROUP SYMMETRY SET TO C1
 *  THREADS=1  - MULTI-THREADING NOT USED
 *  T=         - A TIME OF 172800.0 SECONDS REQUESTED
 *  DUMP=N     - RESTART FILE WRITTEN EVERY 7200.0 SECONDS REQUESTED
 *  THERMO     - THERMODYNAMIC QUANTITIES TO BE CALCULATED
 *******************************************************************************
oldgeo thermo nosym precise THREADS=1  pm3
 InChI=1S/C10H12/c1-2-6-10-8-4-3-7-9(10)5-1/h1-6,9-10H,7-8H2

   ATOM   CHEMICAL          X               Y               Z
  NUMBER   SYMBOL      (ANGSTROMS)     (ANGSTROMS)     (ANGSTROMS)

     1       C          0.03556777  *   0.58038502  *  -0.64984493  *
     2       C          0.17412338  *  -0.53749224  *   0.39448210  *
     3       C         -1.34995191  *   1.20974613  *  -0.52418211  *
     4       C         -0.81373689  *  -1.65355553  *   0.06263963  *
     5       C          1.13841547  *   1.57957635  *  -0.52268992  *
     6       C          1.58424897  *  -1.02122779  *   0.48570767  *
     7       C         -2.41602419  *   0.17210395  *  -0.46901089  *
     8       C         -2.17551006  *  -1.11366817  *  -0.20265750  *
     9       C          2.35512998  *   1.20029627  *  -0.10852154  *
    10       C          2.60624583  *  -0.18271829  *   0.26615009  *
    11       H          0.13200862  *   0.13267972  *  -1.67223590  *
    12       H         -0.08271569  *  -0.12270487  *   1.40295744  *
    13       H         -1.41378707  *   1.83665738  *   0.38841130  *
    14       H         -1.53423493  *   1.89368861  *  -1.37591709  *
    15       H         -0.47587324  *  -2.22383926  *  -0.82648342  *
    16       H         -0.85395002  *  -2.38392263  *   0.89458170  *
    17       H         -3.43762525  *   0.52298223  *  -0.65284009  *
    18       H         -2.99396510  *  -1.84173695  *  -0.17803399  *
    19       H          0.91918482  *   2.61062581  *  -0.81808008  *
    20       H          1.73987773  *  -2.06532015  *   0.77558276  *
    21       H          3.64789429  *  -0.50355310  *   0.36348362  *
    22       H          3.18901016  *   1.90583613  *  -0.04278378  *



          CARTESIAN COORDINATES 

    NO.       ATOM           X           Y           Z

     1         C          0.0356      0.5804     -0.6498
     2         C          0.1741     -0.5375      0.3945
     3         C         -1.3500      1.2097     -0.5242
     4         C         -0.8137     -1.6536      0.0626
     5         C          1.1384      1.5796     -0.5227
     6         C          1.5842     -1.0212      0.4857
     7         C         -2.4160      0.1721     -0.4690
     8         C         -2.1755     -1.1137     -0.2027
     9         C          2.3551      1.2003     -0.1085
    10         C          2.6062     -0.1827      0.2662
    11         H          0.1320      0.1327     -1.6722
    12         H         -0.0827     -0.1227      1.4030
    13         H         -1.4138      1.8367      0.3884
    14         H         -1.5342      1.8937     -1.3759
    15         H         -0.4759     -2.2238     -0.8265
    16         H         -0.8540     -2.3839      0.8946
    17         H         -3.4376      0.5230     -0.6528
    18         H         -2.9940     -1.8417     -0.1780
    19         H          0.9192      2.6106     -0.8181
    20         H          1.7399     -2.0653      0.7756
    21         H          3.6479     -0.5036      0.3635
    22         H          3.1890      1.9058     -0.0428

  H: (PM3): J. J. P. STEWART, J. COMP. CHEM. 10, 209 (1989).
  C: (PM3): J. J. P. STEWART, J. COMP. CHEM. 10, 209 (1989).

           Empirical Formula: C10 H12  =    22 atoms



      MOLECULAR POINT GROUP   :   C1  


      RHF CALCULATION, NO. OF DOUBLY OCCUPIED LEVELS = 26



          HEAT OF FORMATION =      34.150043 KCALS/MOLE


          CARTESIAN COORDINATE DERIVATIVES

   NUMBER  ATOM         X            Y            Z

     1       C     -0.006632     0.005007    -0.000763
     2       C      0.002235    -0.010946     0.000394
     3       C      0.003033    -0.003945    -0.000140
     4       C      0.000450    -0.004462     0.005138
     5       C     -0.000966     0.004319    -0.005497
     6       C     -0.000957     0.004074     0.004105
     7       C      0.006702    -0.006786     0.001086
     8       C     -0.005370     0.009615     0.003143
     9       C     -0.002835    -0.002344     0.001247
    10       C      0.004341    -0.000977    -0.002888
    11       H      0.001793     0.004896     0.005416
    12       H      0.001622     0.003147    -0.002402
    13       H     -0.003107     0.000689    -0.002015
    14       H      0.004237    -0.003810     0.001266
    15       H      0.000845     0.001873     0.004631
    16       H     -0.005066     0.000337    -0.002468
    17       H     -0.001987     0.000124    -0.003450
    18       H      0.001185    -0.003599    -0.003585
    19       H     -0.000600     0.002283     0.000375
    20       H      0.000628    -0.004155    -0.003270
    21       H      0.000706     0.007022     0.000833
    22       H     -0.000254    -0.002364    -0.001155



          GRADIENT NORM =   0.03053

          MOLECULAR WEIGHT =  132.20



          ROTATIONAL CONSTANTS IN CM(-1)

          A =    0.09177325   B =    0.03922911   C =    0.02851871



           PRINCIPAL MOMENTS OF INERTIA IN UNITS OF 10**(-40)*GRAM-CM**2

          A =      305.0208   B =      713.5708   C =      981.5573


          ORIENTATION OF MOLECULE IN FORCE CALCULATION

    NO.       ATOM         X         Y         Z

     1          C      -0.7681   -0.0089   -0.0056
     2          C       0.7680   -0.0089   -0.0056
     3          C      -1.2656    1.4347   -0.0056
     4          C       1.2655    0.5952    1.3056
     5          C      -1.3093   -0.8073   -1.1460
     6          C       1.3093   -1.3787   -0.2536
     7          C      -0.5691    2.2504    1.0268
     8          C       0.5694    1.8746    1.6138
     9          C      -0.6419   -1.8743   -1.6062
    10          C       0.6419   -2.2431   -1.0302
    11          H      -1.1286   -0.5099    0.9293
    12          H       1.1286    0.6305   -0.8518
    13          H      -1.1072    1.9033   -0.9981
    14          H      -2.3591    1.4587    0.1705
    15          H       1.1065   -0.1099    2.1467
    16          H       2.3590    0.7647    1.2540
    17          H      -1.0416    3.2050    1.2838
    18          H       1.0422    2.5078    2.3728
    19          H      -2.2803   -0.5077   -1.5533
    20          H       2.2802   -1.6234    0.1889
    21          H       1.0356   -3.2386   -1.2573
    22          H      -1.0355   -2.4970   -2.4155


    FIRST DERIVATIVES WILL BE USED IN THE CALCULATION OF SECOND DERIVATIVES

          ESTIMATED TIME TO COMPLETE CALCULATION =        2.06 SECONDS

    FOR POINT-GROUP C1   THERE ARE   1 UNIQUE SYMMETRY FUNCTIONS.

 STEP:   1 TIME =     0.02 SECS, INTEGRAL =      0.02 TIME LEFT: 172799.97
 STEP:   2 TIME =     0.02 SECS, INTEGRAL =      0.04 TIME LEFT: 172799.95
 STEP:   3 TIME =     0.02 SECS, INTEGRAL =      0.06 TIME LEFT: 172799.93
 STEP:   4 TIME =     0.02 SECS, INTEGRAL =      0.08 TIME LEFT: 172799.91
 STEP:   5 TIME =     0.02 SECS, INTEGRAL =      0.11 TIME LEFT: 172799.89
 STEP:   6 TIME =     0.02 SECS, INTEGRAL =      0.13 TIME LEFT: 172799.86
 STEP:   7 TIME =     0.02 SECS, INTEGRAL =      0.15 TIME LEFT: 172799.84
 STEP:   8 TIME =     0.02 SECS, INTEGRAL =      0.17 TIME LEFT: 172799.82
 STEP:   9 TIME =     0.02 SECS, INTEGRAL =      0.19 TIME LEFT: 172799.80
 STEP:  10 TIME =     0.02 SECS, INTEGRAL =      0.21 TIME LEFT: 172799.79
 STEP:  11 TIME =     0.02 SECS, INTEGRAL =      0.23 TIME LEFT: 172799.77
 STEP:  12 TIME =     0.02 SECS, INTEGRAL =      0.25 TIME LEFT: 172799.74
 STEP:  13 TIME =     0.02 SECS, INTEGRAL =      0.27 TIME LEFT: 172799.72
 STEP:  14 TIME =     0.02 SECS, INTEGRAL =      0.29 TIME LEFT: 172799.70
 STEP:  15 TIME =     0.02 SECS, INTEGRAL =      0.31 TIME LEFT: 172799.68
 STEP:  16 TIME =     0.02 SECS, INTEGRAL =      0.33 TIME LEFT: 172799.66
 STEP:  17 TIME =     0.02 SECS, INTEGRAL =      0.35 TIME LEFT: 172799.64
 STEP:  18 TIME =     0.02 SECS, INTEGRAL =      0.37 TIME LEFT: 172799.62
 STEP:  19 TIME =     0.02 SECS, INTEGRAL =      0.39 TIME LEFT: 172799.60
 STEP:  20 TIME =     0.02 SECS, INTEGRAL =      0.41 TIME LEFT: 172799.58
 STEP:  21 TIME =     0.02 SECS, INTEGRAL =      0.43 TIME LEFT: 172799.56
 STEP:  22 TIME =     0.02 SECS, INTEGRAL =      0.45 TIME LEFT: 172799.54
 STEP:  23 TIME =     0.02 SECS, INTEGRAL =      0.48 TIME LEFT: 172799.52
 STEP:  24 TIME =     0.02 SECS, INTEGRAL =      0.50 TIME LEFT: 172799.49
 STEP:  25 TIME =     0.02 SECS, INTEGRAL =      0.52 TIME LEFT: 172799.47
 STEP:  26 TIME =     0.02 SECS, INTEGRAL =      0.54 TIME LEFT: 172799.45
 STEP:  27 TIME =     0.02 SECS, INTEGRAL =      0.56 TIME LEFT: 172799.43
 STEP:  28 TIME =     0.02 SECS, INTEGRAL =      0.58 TIME LEFT: 172799.41
 STEP:  29 TIME =     0.02 SECS, INTEGRAL =      0.60 TIME LEFT: 172799.39
 STEP:  30 TIME =     0.02 SECS, INTEGRAL =      0.62 TIME LEFT: 172799.38
 STEP:  31 TIME =     0.02 SECS, INTEGRAL =      0.64 TIME LEFT: 172799.35
 STEP:  32 TIME =     0.02 SECS, INTEGRAL =      0.66 TIME LEFT: 172799.33
 STEP:  33 TIME =     0.02 SECS, INTEGRAL =      0.68 TIME LEFT: 172799.31
 STEP:  34 TIME =     0.02 SECS, INTEGRAL =      0.71 TIME LEFT: 172799.29
 STEP:  35 TIME =     0.02 SECS, INTEGRAL =      0.73 TIME LEFT: 172799.26
 STEP:  36 TIME =     0.02 SECS, INTEGRAL =      0.75 TIME LEFT: 172799.24
 STEP:  37 TIME =     0.02 SECS, INTEGRAL =      0.78 TIME LEFT: 172799.21
 STEP:  38 TIME =     0.02 SECS, INTEGRAL =      0.80 TIME LEFT: 172799.19
 STEP:  39 TIME =     0.02 SECS, INTEGRAL =      0.82 TIME LEFT: 172799.17
 STEP:  40 TIME =     0.02 SECS, INTEGRAL =      0.84 TIME LEFT: 172799.15
 STEP:  41 TIME =     0.02 SECS, INTEGRAL =      0.87 TIME LEFT: 172799.12
 STEP:  42 TIME =     0.02 SECS, INTEGRAL =      0.89 TIME LEFT: 172799.10
 STEP:  43 TIME =     0.02 SECS, INTEGRAL =      0.91 TIME LEFT: 172799.08
 STEP:  44 TIME =     0.02 SECS, INTEGRAL =      0.93 TIME LEFT: 172799.06
 STEP:  45 TIME =     0.02 SECS, INTEGRAL =      0.96 TIME LEFT: 172799.04
 STEP:  46 TIME =     0.02 SECS, INTEGRAL =      0.98 TIME LEFT: 172799.02
 STEP:  47 TIME =     0.02 SECS, INTEGRAL =      1.00 TIME LEFT: 172798.99
 STEP:  48 TIME =     0.02 SECS, INTEGRAL =      1.02 TIME LEFT: 172798.97
 STEP:  49 TIME =     0.02 SECS, INTEGRAL =      1.05 TIME LEFT: 172798.95
 STEP:  50 TIME =     0.02 SECS, INTEGRAL =      1.07 TIME LEFT: 172798.92
 STEP:  51 TIME =     0.02 SECS, INTEGRAL =      1.09 TIME LEFT: 172798.90
 STEP:  52 TIME =     0.02 SECS, INTEGRAL =      1.12 TIME LEFT: 172798.88
 STEP:  53 TIME =     0.02 SECS, INTEGRAL =      1.14 TIME LEFT: 172798.85
 STEP:  54 TIME =     0.02 SECS, INTEGRAL =      1.16 TIME LEFT: 172798.83
 STEP:  55 TIME =     0.02 SECS, INTEGRAL =      1.19 TIME LEFT: 172798.80
 STEP:  56 TIME =     0.02 SECS, INTEGRAL =      1.21 TIME LEFT: 172798.78
 STEP:  57 TIME =     0.02 SECS, INTEGRAL =      1.23 TIME LEFT: 172798.76
 STEP:  58 TIME =     0.02 SECS, INTEGRAL =      1.26 TIME LEFT: 172798.73
 STEP:  59 TIME =     0.02 SECS, INTEGRAL =      1.28 TIME LEFT: 172798.71
 STEP:  60 TIME =     0.02 SECS, INTEGRAL =      1.30 TIME LEFT: 172798.69
 STEP:  61 TIME =     0.02 SECS, INTEGRAL =      1.33 TIME LEFT: 172798.66
 STEP:  62 TIME =     0.02 SECS, INTEGRAL =      1.35 TIME LEFT: 172798.64
 STEP:  63 TIME =     0.02 SECS, INTEGRAL =      1.37 TIME LEFT: 172798.62
 STEP:  64 TIME =     0.02 SECS, INTEGRAL =      1.39 TIME LEFT: 172798.60
 STEP:  65 TIME =     0.02 SECS, INTEGRAL =      1.42 TIME LEFT: 172798.57
 STEP:  66 TIME =     0.02 SECS, INTEGRAL =      1.44 TIME LEFT: 172798.55

(To convert to Hartree/Bohr^2, multiply by (10^(-21) x N x a0^2)/(4.184 x 627.51) =  0.0642)


           FORCE MATRIX IN MILLIDYNES/ANGSTROM


                  C  1       C  2       C  3       C  4       C  5       C  6
 ------------------------------------------------------------------------------
     C    1  14.814629
     C    2   3.666283  14.816586
     C    3   3.953119   0.673346  14.707592
     C    4   0.673372   3.953579   0.104579  14.707573
     C    5   4.729709   0.657046   0.643809   0.055064  18.014903
     C    6   0.657151   4.729620   0.055067   0.643765   0.142404  18.011670
     C    7   0.695597   0.074441   4.926197   0.824896   0.055720   0.003119
     C    8   0.074444   0.695879   0.824973   4.925412   0.003116   0.055718
     C    9   0.868068   0.125420   0.052104   0.009664  10.257216   1.117110
     C   10   0.124841   0.868083   0.009649   0.052207   1.116934  10.256310
     H   11   4.122381   0.437635   0.427384   0.040631   0.380773   0.017010
     H   12   0.437663   4.122289   0.040615   0.427536   0.017000   0.380833
     H   13   0.452331   0.017240   4.412202   0.014344   0.022579   0.001568
     H   14   0.434776   0.047891   4.459930   0.009634   0.021024   0.009401
     H   15   0.017243   0.452538   0.014492   4.412435   0.001567   0.022471
     H   16   0.047909   0.434791   0.009607   4.460067   0.009394   0.021030
     H   17   0.042131   0.004284   0.425635   0.124109   0.008430   0.001340
     H   18   0.004303   0.042150   0.124656   0.425706   0.001352   0.008454
     H   19   0.432656   0.039562   0.033269   0.008336   4.855858   0.016626
     H   20   0.039553   0.432656   0.008335   0.033240   0.016592   4.855850
     H   21   0.006672   0.120606   0.001135   0.011635   0.047044   0.445520
     H   22   0.121532   0.006639   0.011844   0.001130   0.445477   0.047086


                  C  7       C  8       C  9       C 10       H 11       H 12
 ------------------------------------------------------------------------------
     C    7  18.120419
     C    8  10.633444  18.118013
     C    9   0.010330   0.002595  18.303917
     C   10   0.002576   0.010313   5.525803  18.305166
     H   11   0.015606   0.009102   0.036649   0.019792   4.587956
     H   12   0.009109   0.015623   0.019960   0.036498   0.044176   4.587823
     H   13   0.415065   0.029781   0.003107   0.001318   0.043012   0.017479
     H   14   0.433078   0.043309   0.002438   0.000591   0.034823   0.002692
     H   15   0.029789   0.414883   0.001324   0.003114   0.017521   0.043166
     H   16   0.043457   0.433107   0.000597   0.002449   0.002692   0.034798
     H   17   4.825501   0.443657   0.002329   0.000801   0.001461   0.000406
     H   18   0.443698   4.825434   0.000827   0.002298   0.000428   0.001460
     H   19   0.002812   0.001476   0.444493   0.125338   0.013848   0.004743
     H   20   0.001485   0.002800   0.126010   0.444480   0.004740   0.013837
     H   21   0.000427   0.002234   0.433858   4.871392   0.000888   0.015318
     H   22   0.002252   0.000437   4.870856   0.433759   0.015540   0.000875


                  H 13       H 14       H 15       H 16       H 17       H 18
 ------------------------------------------------------------------------------
     H   13   5.016642
     H   14   0.566097   5.059755
     H   15   0.002177   0.001108   5.016463
     H   16   0.001088   0.000417   0.566089   5.059891
     H   17   0.017885   0.034748   0.017771   0.014281   5.199044
     H   18   0.017675   0.014398   0.017888   0.034643   0.070366   5.199112
     H   19   0.007603   0.013741   0.000520   0.001767   0.000599   0.000382
     H   20   0.000519   0.001767   0.007578   0.013753   0.000378   0.000597
     H   21   0.000263   0.000215   0.000537   0.000299   0.000164   0.000480
     H   22   0.000542   0.000297   0.000263   0.000213   0.000478   0.000165


                  H 19       H 20       H 21       H 22
 ------------------------------------------------------
     H   19   5.237712
     H   20   0.008697   5.237777
     H   21   0.007943   0.065092   5.240148
     H   22   0.065597   0.007946   0.029953   5.239595


          HEAT OF FORMATION =      34.150043 KCALS/MOLE

          ZERO POINT ENERGY     118.829 KCAL/MOL


           NORMAL COORDINATE ANALYSIS (Total motion = 1 Angstrom)


   Root No.       1         2         3         4         5         6         7         8

                 1 A       2 A       3 A       4 A       5 A       6 A       7 A       8 A   

                 115.2     128.4     215.5     347.8     364.9     404.9     417.9     461.0
  
           1    0.0106    0.0008    0.0064    0.0468    0.0005   -0.0031   -0.0233    0.0103
           2    0.0162   -0.0051    0.0096   -0.0046    0.0015   -0.0124   -0.0278   -0.0214
           3   -0.0186   -0.0030   -0.0242    0.0068   -0.0090    0.0201    0.0238   -0.0332
           4    0.0106    0.0006    0.0064    0.0467   -0.0006    0.0024   -0.0235    0.0103
           5    0.0107   -0.0037    0.0179   -0.0043   -0.0076    0.0129   -0.0106    0.0390
           6   -0.0218   -0.0062   -0.0189    0.0071    0.0050   -0.0183    0.0360    0.0054
           7    0.0203   -0.0194   -0.0185    0.0012    0.0154    0.0061    0.0144    0.0184
           8    0.0187   -0.0130    0.0003   -0.0258    0.0073   -0.0133   -0.0167   -0.0300
           9   -0.0256    0.0280    0.0227   -0.0032    0.0009   -0.0151   -0.0059   -0.0052
          10    0.0173    0.0225   -0.0181    0.0012   -0.0154   -0.0054    0.0146    0.0180
          11    0.0124    0.0223   -0.0203    0.0137    0.0038   -0.0186    0.0134    0.0177
          12   -0.0240   -0.0274    0.0088    0.0221    0.0060   -0.0052    0.0129    0.0250
          13    0.0002    0.0172    0.0130    0.0079    0.0025   -0.0152    0.0096   -0.0286
          14    0.0019    0.0203    0.0119    0.0241   -0.0046    0.0020    0.0186   -0.0309
          15   -0.0026   -0.0309   -0.0285    0.0106   -0.0071    0.0207   -0.0292   -0.0206
          16    0.0027   -0.0172    0.0127    0.0078   -0.0025    0.0155    0.0088   -0.0287
          17    0.0044   -0.0195    0.0205   -0.0198   -0.0084    0.0205    0.0178    0.0314
          18   -0.0074    0.0312   -0.0222   -0.0174   -0.0011   -0.0080   -0.0290    0.0191
          19   -0.0209   -0.0124    0.0077   -0.0253   -0.0281   -0.0070    0.0052    0.0210
          20   -0.0156   -0.0089    0.0024   -0.0004   -0.0112   -0.0224   -0.0078   -0.0273
          21    0.0296    0.0187    0.0042   -0.0138    0.0473   -0.0013   -0.0076   -0.0036
          22   -0.0226    0.0092    0.0080   -0.0252    0.0280    0.0071    0.0050    0.0209
          23   -0.0221    0.0103   -0.0046    0.0128    0.0380   -0.0102    0.0110    0.0153
          24    0.0288   -0.0120   -0.0007   -0.0055   -0.0300   -0.0194    0.0049    0.0237
          25   -0.0129    0.0133   -0.0066   -0.0278   -0.0050    0.0151   -0.0120   -0.0203
          26   -0.0168    0.0136   -0.0225    0.0101   -0.0144    0.0375   -0.0094   -0.0207
          27    0.0218   -0.0215    0.0220   -0.0005    0.0026   -0.0119    0.0066   -0.0301
          28   -0.0108   -0.0148   -0.0068   -0.0277    0.0052   -0.0158   -0.0114   -0.0204
          29   -0.0106   -0.0153   -0.0107   -0.0038   -0.0038    0.0049   -0.0026    0.0355
          30    0.0210    0.0240    0.0299   -0.0095   -0.0142    0.0397    0.0095    0.0060
          31    0.0119    0.0053    0.0147    0.0661   -0.0134    0.0166   -0.0551    0.0252
          32    0.0283   -0.0312   -0.0176   -0.0155    0.0023    0.0002   -0.0363   -0.0431
          33   -0.0113   -0.0156   -0.0344    0.0095   -0.0136    0.0334    0.0040   -0.0382
          34    0.0126   -0.0038    0.0147    0.0663    0.0132   -0.0184   -0.0543    0.0252
          35    0.0023   -0.0279    0.0380   -0.0023   -0.0116    0.0310    0.0102    0.0526
          36   -0.0270   -0.0260    0.0013    0.0181    0.0075   -0.0124    0.0353    0.0230
          37    0.0782   -0.0496   -0.0756   -0.0201    0.0981    0.0592    0.0680    0.0093
          38    0.0352    0.0015    0.0200   -0.0293    0.0332   -0.0263   -0.0427   -0.0196
          39   -0.0085    0.0300    0.0232   -0.0083    0.0253   -0.0138   -0.0111   -0.0021
          40    0.0113   -0.0161   -0.0109    0.0004    0.0030   -0.0008    0.0089    0.0204
          41    0.0258   -0.0339   -0.0250   -0.0664    0.0168    0.0065    0.0223   -0.0291
          42   -0.0837    0.0525    0.0755    0.0010   -0.0830   -0.0655   -0.0501    0.0070
          43    0.0704    0.0616   -0.0747   -0.0203   -0.0976   -0.0561    0.0703    0.0086
          44   -0.0111    0.0270   -0.0289    0.0201    0.0368   -0.0225    0.0293    0.0106
          45   -0.0336   -0.0159   -0.0086    0.0232    0.0193   -0.0168    0.0351    0.0169
          46    0.0088    0.0178   -0.0106    0.0004   -0.0031    0.0013    0.0088    0.0199
          47    0.0600    0.0434   -0.0575    0.0268   -0.0681   -0.0549    0.0386    0.0061
          48   -0.0504   -0.0615    0.0533    0.0608    0.0494    0.0317   -0.0425    0.0294
          49   -0.0478   -0.0244    0.0248   -0.0401   -0.0735   -0.0176   -0.0030    0.0033
          50   -0.0406   -0.0194    0.0134   -0.0034   -0.0480   -0.0320   -0.0076   -0.0302
          51    0.0722    0.0359   -0.0051   -0.0303    0.0998    0.0137   -0.0232   -0.0238
          52   -0.0513    0.0170    0.0253   -0.0398    0.0738    0.0175   -0.0036    0.0034
          53   -0.0519    0.0173   -0.0005    0.0293    0.0702    0.0001    0.0246    0.0346
          54    0.0718   -0.0226   -0.0151   -0.0100   -0.0857   -0.0349   -0.0013    0.0181
          55    0.0027    0.0375    0.0323    0.0110    0.0007   -0.0151    0.0552   -0.0565
          56    0.0039    0.0457    0.0304    0.0575   -0.0084    0.0055    0.0768   -0.0546
          57   -0.0068   -0.0604   -0.0602    0.0267   -0.0056    0.0233   -0.0952    0.0294
          58    0.0081   -0.0373    0.0317    0.0109   -0.0009    0.0173    0.0544   -0.0566
          59    0.0097   -0.0354    0.0413   -0.0485   -0.0086    0.0257    0.0532   -0.0042
          60   -0.0161    0.0661   -0.0516   -0.0409   -0.0047   -0.0094   -0.1094    0.0616
          61   -0.0176   -0.0351   -0.0113   -0.0505    0.0197   -0.0649    0.0018   -0.0065
          62   -0.0177   -0.0294   -0.0196   -0.0119    0.0065   -0.0292    0.0049    0.0313
          63    0.0401    0.0515    0.0609   -0.0150   -0.0348    0.1061   -0.0007    0.0471
          64   -0.0229    0.0328   -0.0110   -0.0508   -0.0197    0.0652   -0.0007   -0.0067
          65   -0.0342    0.0310   -0.0469    0.0182   -0.0289    0.0839   -0.0048   -0.0562
          66    0.0400   -0.0443    0.0429    0.0049    0.0207   -0.0716   -0.0025   -0.0090


   Root No.       9        10        11        12        13        14        15        16

                 9 A      10 A      11 A      12 A      13 A      14 A      15 A      16 A   

                 474.9     570.7     604.4     706.5     758.0     762.1     810.5     841.9
  
           1    0.0033    0.0019    0.0076   -0.0048   -0.0057    0.0099    0.0183   -0.0151
           2   -0.0201   -0.0284   -0.0026    0.0020   -0.0059   -0.0111    0.0047   -0.0021
           3    0.0101    0.0025    0.0430    0.0007    0.0114    0.0099   -0.0055    0.0084
           4   -0.0032   -0.0021   -0.0076   -0.0048   -0.0059    0.0101   -0.0181    0.0152
           5    0.0005   -0.0097    0.0379   -0.0015   -0.0079   -0.0044   -0.0028    0.0071
           6   -0.0229   -0.0266   -0.0204   -0.0014    0.0102    0.0142    0.0066   -0.0055
           7    0.0350    0.0303    0.0012   -0.0009    0.0028    0.0132    0.0180   -0.0284
           8    0.0008   -0.0279   -0.0113   -0.0014    0.0017    0.0140   -0.0110    0.0021
           9    0.0266    0.0138   -0.0031   -0.0187    0.0013    0.0128   -0.0018    0.0146
          10   -0.0354   -0.0303   -0.0012   -0.0007    0.0028    0.0134   -0.0177    0.0286
          11    0.0242    0.0009   -0.0076    0.0175   -0.0019   -0.0174   -0.0064    0.0139
          12   -0.0108   -0.0311   -0.0089   -0.0065   -0.0011   -0.0072   -0.0092   -0.0038
          13    0.0061   -0.0228    0.0537   -0.0033    0.0149    0.0018    0.0284   -0.0011
          14   -0.0302    0.0261    0.0104    0.0017    0.0117   -0.0236    0.0163    0.0027
          15    0.0060   -0.0182    0.0162    0.0064   -0.0106   -0.0025   -0.0011   -0.0136
          16   -0.0058    0.0229   -0.0537   -0.0033    0.0143    0.0024   -0.0291    0.0004
          17   -0.0077   -0.0056    0.0190   -0.0065    0.0048    0.0121    0.0059   -0.0111
          18   -0.0300    0.0312    0.0026    0.0012   -0.0150    0.0203    0.0161    0.0081
          19    0.0096    0.0053    0.0008    0.0181    0.0016   -0.0114   -0.0000   -0.0002
          20    0.0483    0.0081   -0.0080   -0.0184    0.0110    0.0505   -0.0036    0.0009
          21    0.0142   -0.0020   -0.0079   -0.0137   -0.0062    0.0014   -0.0009   -0.0018
          22   -0.0098   -0.0052   -0.0008    0.0183    0.0017   -0.0113   -0.0001    0.0001
          23    0.0330    0.0017   -0.0105    0.0201    0.0011   -0.0223   -0.0026   -0.0014
          24    0.0376    0.0081   -0.0039    0.0107   -0.0127   -0.0454   -0.0034    0.0012
          25    0.0111   -0.0122   -0.0041    0.0010    0.0048   -0.0187    0.0144    0.0053
          26   -0.0133    0.0143   -0.0211    0.0041    0.0061   -0.0290    0.0155    0.0029
          27   -0.0330    0.0297    0.0036    0.0093   -0.0120   -0.0241   -0.0154   -0.0085
          28   -0.0110    0.0123    0.0041    0.0012    0.0042   -0.0182   -0.0146   -0.0050
          29   -0.0359    0.0329   -0.0055   -0.0100    0.0079    0.0345   -0.0074   -0.0071
          30    0.0017    0.0005   -0.0207   -0.0000   -0.0097    0.0156    0.0209    0.0062
          31    0.0179    0.0144    0.0287   -0.0079   -0.0381    0.0123    0.0051   -0.0083
          32   -0.0236   -0.0627   -0.0051    0.0200   -0.0183   -0.0095   -0.0134   -0.0309
          33    0.0131   -0.0114    0.0490    0.0095   -0.0082    0.0109   -0.0180   -0.0064
          34   -0.0176   -0.0149   -0.0288   -0.0078   -0.0382    0.0125   -0.0039    0.0092
          35    0.0013   -0.0365    0.0424   -0.0170    0.0149   -0.0056   -0.0222   -0.0179
          36   -0.0275   -0.0520   -0.0251   -0.0141    0.0130    0.0134   -0.0046   -0.0248
          37    0.0486    0.0546    0.0452   -0.0868   -0.0121   -0.0064   -0.0161    0.0787
          38   -0.0150   -0.0479   -0.0446   -0.0107   -0.0205   -0.0064   -0.0038   -0.0198
          39    0.0212    0.0071   -0.0131   -0.0349   -0.0110    0.0015   -0.0032    0.0190
          40    0.0348    0.0280   -0.0040    0.0101    0.0053    0.0162    0.0208   -0.0398
          41    0.0130   -0.0180    0.0090   -0.0139    0.0069   -0.0017   -0.0490    0.0684
          42    0.0190   -0.0057   -0.0445    0.0644    0.0173    0.0298    0.0237   -0.0771
          43   -0.0499   -0.0545   -0.0451   -0.0873   -0.0125   -0.0066    0.0162   -0.0776
          44    0.0128   -0.0134   -0.0307    0.0366    0.0188    0.0016   -0.0048    0.0086
          45   -0.0230   -0.0463   -0.0351   -0.0047    0.0139    0.0067   -0.0022   -0.0255
          46   -0.0350   -0.0280    0.0039    0.0104    0.0053    0.0164   -0.0204    0.0399
          47    0.0219   -0.0127   -0.0366   -0.0533   -0.0190   -0.0264    0.0008   -0.0409
          48    0.0043   -0.0141    0.0268    0.0400    0.0009    0.0147   -0.0538    0.0944
          49    0.0059   -0.0016    0.0041   -0.0756   -0.0442   -0.0506   -0.0191    0.0525
          50    0.0571    0.0125   -0.0055   -0.0934   -0.0309   -0.0005   -0.0140    0.0387
          51   -0.0264   -0.0336   -0.0128    0.0935    0.0653    0.1182    0.0007   -0.0442
          52   -0.0063    0.0015   -0.0041   -0.0762   -0.0446   -0.0514    0.0189   -0.0527
          53   -0.0009   -0.0252   -0.0138   -0.0460   -0.0467   -0.1074   -0.0061   -0.0240
          54    0.0634    0.0256    0.0003    0.1245    0.0560    0.0508   -0.0130    0.0532
          55    0.0054   -0.0096    0.0911    0.0179   -0.0409    0.0364   -0.0669   -0.0359
          56   -0.0276    0.0468    0.0718    0.0252   -0.0559    0.0384   -0.0904   -0.0548
          57    0.0099   -0.0333   -0.0286   -0.0272    0.0725   -0.0381    0.1483    0.0270
          58   -0.0049    0.0096   -0.0911    0.0178   -0.0397    0.0350    0.0688    0.0358
          59   -0.0027   -0.0107    0.0040    0.0139   -0.0409    0.0168    0.0988    0.0026
          60   -0.0297    0.0564    0.0772   -0.0339    0.0781   -0.0477   -0.1477   -0.0618
          61   -0.0365    0.0229    0.0482    0.0192   -0.0818    0.0450    0.0514    0.0148
          62   -0.0585    0.0497    0.0121    0.0076   -0.0569    0.0687    0.0380    0.0121
          63    0.0564   -0.0547   -0.0185   -0.0462    0.1261   -0.0241   -0.0610   -0.0459
          64    0.0371   -0.0234   -0.0482    0.0194   -0.0831    0.0460   -0.0487   -0.0137
          65    0.0278   -0.0294   -0.0118    0.0389   -0.0917   -0.0060   -0.0370   -0.0353
          66   -0.0773    0.0688    0.0187   -0.0264    0.1060   -0.0737    0.0566    0.0296


   Root No.      17        18        19        20        21        22        23        24

                17 A      18 A      19 A      20 A      21 A      22 A      23 A      24 A   

                 849.8     935.7     942.5     963.8     989.4    1022.3    1034.6    1043.8
  
           1    0.0003   -0.0057   -0.0136   -0.0009   -0.0012   -0.0104    0.0059   -0.0117
           2    0.0057   -0.0043   -0.0097   -0.0029    0.0022    0.0002   -0.0093   -0.0050
           3    0.0152    0.0066    0.0175    0.0024   -0.0023    0.0007    0.0050    0.0169
           4    0.0006   -0.0048    0.0139   -0.0006    0.0012    0.0104    0.0054    0.0118
           5   -0.0160   -0.0034    0.0121   -0.0008   -0.0012    0.0007   -0.0010    0.0131
           6    0.0011    0.0056   -0.0165    0.0034    0.0029   -0.0000    0.0107   -0.0112
           7   -0.0189    0.0369   -0.0036    0.0009   -0.0033    0.0223   -0.0098    0.0108
           8    0.0132    0.0045    0.0097    0.0033   -0.0013    0.0075    0.0071    0.0061
           9   -0.0173   -0.0143   -0.0089   -0.0035    0.0061    0.0212   -0.0204   -0.0144
          10   -0.0183    0.0372    0.0016    0.0011    0.0033   -0.0224   -0.0093   -0.0111
          11    0.0105    0.0109   -0.0047    0.0019    0.0050    0.0226    0.0157   -0.0100
          12   -0.0194   -0.0092    0.0131   -0.0043   -0.0036   -0.0022   -0.0153    0.0111
          13    0.0332   -0.0084   -0.0072    0.0253    0.0110    0.0021   -0.0066    0.0024
          14   -0.0115   -0.0001   -0.0019    0.0180    0.0121   -0.0034    0.0030    0.0070
          15    0.0123   -0.0050   -0.0100   -0.0152   -0.0079    0.0084   -0.0067   -0.0162
          16    0.0331   -0.0079    0.0072    0.0250   -0.0116   -0.0022   -0.0065   -0.0027
          17   -0.0066    0.0040   -0.0101    0.0059   -0.0022    0.0062    0.0051   -0.0115
          18    0.0159   -0.0019    0.0030   -0.0220    0.0147   -0.0067   -0.0058    0.0128
          19    0.0065   -0.0202    0.0098   -0.0012    0.0087    0.0088   -0.0016   -0.0166
          20   -0.0259    0.0026    0.0146   -0.0018    0.0047   -0.0359    0.0017   -0.0122
          21    0.0060    0.0156   -0.0104    0.0009   -0.0121   -0.0124    0.0174    0.0249
          22    0.0064   -0.0209   -0.0086   -0.0016   -0.0086   -0.0088   -0.0022    0.0166
          23    0.0053   -0.0156   -0.0025   -0.0004   -0.0090   -0.0265   -0.0171    0.0170
          24    0.0262    0.0054    0.0171    0.0027    0.0093   -0.0274    0.0067   -0.0212
          25   -0.0193    0.0042    0.0061   -0.0176   -0.0152    0.0033    0.0022   -0.0029
          26   -0.0216    0.0040    0.0051   -0.0192   -0.0173    0.0024    0.0023   -0.0076
          27   -0.0349    0.0010   -0.0114    0.0143    0.0222   -0.0045    0.0035    0.0088
          28   -0.0194    0.0038   -0.0060   -0.0172    0.0156   -0.0033    0.0022    0.0030
          29    0.0406   -0.0031   -0.0081   -0.0047    0.0130   -0.0032   -0.0043    0.0047
          30    0.0053   -0.0026    0.0093    0.0228   -0.0256    0.0041   -0.0004   -0.0106
          31   -0.0262   -0.0622    0.0125   -0.0652   -0.0199   -0.0505    0.0713    0.0027
          32    0.0620    0.0380   -0.0082   -0.0251   -0.0479   -0.0108   -0.0496    0.0306
          33    0.0352    0.0075    0.0264   -0.0351   -0.0368   -0.0212    0.0080    0.0406
          34   -0.0260   -0.0628   -0.0082   -0.0649    0.0213    0.0511    0.0705    0.0002
          35   -0.0585   -0.0215    0.0213    0.0411   -0.0545   -0.0235    0.0130    0.0487
          36   -0.0423   -0.0326   -0.0167    0.0067   -0.0283   -0.0005    0.0483    0.0118
          37   -0.0414   -0.0853   -0.0316   -0.0129    0.0185    0.0363   -0.0445   -0.0524
          38    0.0298    0.0232   -0.0587    0.0022   -0.0366    0.0531   -0.1141   -0.0485
          39   -0.0125   -0.0220   -0.0453   -0.0062   -0.0076    0.0466   -0.0833   -0.0494
          40   -0.0172    0.0513    0.0034    0.0025   -0.0030    0.0398   -0.0037    0.0225
          41    0.0177   -0.0571    0.0568    0.0055    0.0358    0.1217    0.0467    0.0385
          42    0.0000    0.0971    0.0291    0.0084   -0.0006    0.1042    0.0091    0.0591
          43   -0.0431   -0.0834    0.0361   -0.0129   -0.0181   -0.0367   -0.0461    0.0509
          44   -0.0011    0.0062   -0.0664    0.0025   -0.0224    0.0659    0.1261   -0.0616
          45   -0.0331   -0.0326   -0.0327   -0.0064   -0.0299    0.0295    0.0700   -0.0214
          46   -0.0163    0.0510   -0.0060    0.0025    0.0028   -0.0398   -0.0027   -0.0226
          47   -0.0083   -0.0610    0.0537   -0.0086    0.0147    0.1453   -0.0315    0.0691
          48   -0.0140    0.0951    0.0346    0.0005    0.0327    0.0664   -0.0396    0.0094
          49    0.0512    0.0131   -0.0672    0.0033   -0.0305    0.0505    0.0934    0.0412
          50    0.0094    0.0419   -0.0571    0.0021   -0.0329   -0.0260    0.0399    0.0400
          51   -0.0436   -0.0664    0.1161   -0.0051    0.0552    0.0226    0.0448   -0.0616
          52    0.0504    0.0174    0.0656    0.0056    0.0299   -0.0497    0.0952   -0.0380
          53    0.0354    0.0479    0.0782    0.0064    0.0359    0.0091   -0.0560   -0.0406
          54   -0.0262   -0.0724   -0.0958   -0.0076   -0.0523   -0.0332   -0.0196    0.0612
          55    0.0481   -0.0041   -0.0070   -0.0668   -0.0329    0.0123   -0.0126   -0.0249
          56    0.0370   -0.0017   -0.0147   -0.0842   -0.0405    0.0100   -0.0015   -0.0572
          57    0.0126   -0.0166   -0.0199    0.1290    0.0577   -0.0053    0.0043    0.0023
          58    0.0494   -0.0037    0.0083   -0.0649    0.0339   -0.0123   -0.0131    0.0241
          59   -0.0264    0.0142   -0.0237   -0.0808    0.0370   -0.0008   -0.0027   -0.0218
          60   -0.0306   -0.0057   -0.0070    0.1272   -0.0631    0.0114    0.0043   -0.0524
          61   -0.0392    0.0014    0.0183    0.0585   -0.0513    0.0215    0.0177   -0.0393
          62    0.0256   -0.0085    0.0182    0.0582   -0.0452    0.0095   -0.0007   -0.0170
          63    0.0382    0.0173   -0.0668   -0.1221    0.1150   -0.0078    0.0102    0.0089
          64   -0.0399    0.0002   -0.0190    0.0596    0.0496   -0.0213    0.0170    0.0402
          65   -0.0468   -0.0154   -0.0532    0.0875    0.0827   -0.0028   -0.0092   -0.0002
          66   -0.0060    0.0177    0.0448   -0.1053   -0.0860    0.0117    0.0053   -0.0187


   Root No.      25        26        27        28        29        30        31        32

                25 A      26 A      27 A      28 A      29 A      30 A      31 A      32 A   

                1049.6    1057.0    1072.4    1075.0    1100.7    1113.8    1139.5    1140.5
  
           1    0.0001    0.0112    0.0005   -0.0053   -0.0102    0.0070   -0.0198   -0.0105
           2   -0.0115   -0.0135    0.0006    0.0115    0.0100   -0.0139   -0.0148   -0.0111
           3   -0.0183    0.0057    0.0097   -0.0061    0.0008    0.0110    0.0152    0.0102
           4    0.0003   -0.0113   -0.0009   -0.0051    0.0102    0.0069    0.0207   -0.0089
           5    0.0216   -0.0004    0.0091    0.0001    0.0049   -0.0042    0.0079   -0.0040
           6    0.0027   -0.0147   -0.0043   -0.0127    0.0088    0.0172   -0.0209    0.0127
           7    0.0009   -0.0030    0.0048    0.0105    0.0018   -0.0042    0.0015    0.0030
           8    0.0050    0.0155   -0.0011    0.0048   -0.0171    0.0156    0.0048    0.0102
           9   -0.0075   -0.0063    0.0083    0.0146    0.0118   -0.0061   -0.0101   -0.0088
          10    0.0009    0.0031   -0.0041    0.0108   -0.0018   -0.0042   -0.0018    0.0029
          11    0.0046    0.0007    0.0061   -0.0158    0.0036   -0.0010   -0.0075    0.0031
          12   -0.0076    0.0168   -0.0042    0.0020   -0.0205   -0.0167    0.0096   -0.0122
          13    0.0089   -0.0119    0.0019    0.0066   -0.0092   -0.0110    0.0016    0.0071
          14   -0.0117    0.0086    0.0028   -0.0017    0.0052    0.0049    0.0039   -0.0013
          15    0.0257   -0.0134   -0.0139    0.0049   -0.0098   -0.0030   -0.0008   -0.0051
          16    0.0089    0.0120   -0.0014    0.0066    0.0092   -0.0110   -0.0022    0.0069
          17   -0.0185   -0.0086   -0.0117   -0.0029   -0.0067    0.0007    0.0005    0.0052
          18    0.0215    0.0134    0.0086    0.0029    0.0088   -0.0057    0.0039   -0.0006
          19   -0.0022   -0.0002    0.0084   -0.0119    0.0020   -0.0015    0.0002   -0.0009
          20    0.0030   -0.0047   -0.0032   -0.0086    0.0022   -0.0070    0.0044   -0.0016
          21    0.0029    0.0005   -0.0135   -0.0037   -0.0042   -0.0063   -0.0002   -0.0022
          22   -0.0020    0.0002   -0.0090   -0.0112   -0.0020   -0.0015   -0.0001   -0.0009
          23   -0.0036   -0.0015   -0.0132    0.0080   -0.0029    0.0086    0.0015    0.0027
          24   -0.0017   -0.0044    0.0030    0.0061    0.0038    0.0037    0.0040    0.0009
          25    0.0018   -0.0205    0.0040   -0.0019   -0.0146    0.0035   -0.0028   -0.0022
          26    0.0052   -0.0084   -0.0043   -0.0034   -0.0057    0.0023    0.0014   -0.0020
          27    0.0005   -0.0164    0.0097   -0.0039   -0.0146    0.0017    0.0003    0.0008
          28    0.0019    0.0205   -0.0041   -0.0016    0.0146    0.0034    0.0030   -0.0020
          29   -0.0026   -0.0184    0.0073    0.0045   -0.0157   -0.0025    0.0008    0.0002
          30   -0.0046   -0.0007   -0.0079    0.0021    0.0010   -0.0014    0.0009    0.0022
          31   -0.0872    0.0978    0.0603    0.0410   -0.0785    0.0273   -0.0553    0.1149
          32   -0.1377   -0.0175    0.0713   -0.0150    0.1495   -0.0664   -0.0392   -0.0644
          33   -0.1216    0.0367    0.0719   -0.0031    0.0499   -0.0094   -0.0124    0.0320
          34   -0.0867   -0.0981   -0.0588    0.0461    0.0786    0.0268    0.0456    0.1186
          35    0.1683    0.0262    0.0956    0.0019    0.1079    0.0364   -0.0273   -0.0042
          36    0.0743   -0.0314    0.0348    0.0099    0.1151    0.0564   -0.0362    0.0691
          37   -0.0104   -0.0093    0.0235    0.0226    0.0195   -0.0078   -0.0252   -0.0105
          38    0.0138    0.0557    0.0815   -0.0735   -0.0367    0.0939    0.0880    0.0865
          39   -0.0059    0.0118    0.0510   -0.0208    0.0054    0.0308    0.0259    0.0264
          40    0.0044   -0.0009    0.0015    0.0270   -0.0010    0.0002   -0.0011    0.0069
          41    0.0202    0.0144   -0.0378    0.1571    0.0009    0.0379   -0.0552   -0.0136
          42    0.0082    0.0032   -0.0101    0.0904    0.0000    0.0174   -0.0114    0.0141
          43   -0.0099    0.0094   -0.0218    0.0244   -0.0195   -0.0080    0.0260   -0.0085
          44   -0.0014    0.0340    0.0823    0.0433   -0.0108   -0.0671    0.0647   -0.0550
          45   -0.0155    0.0458    0.0555    0.0538   -0.0360   -0.0723    0.0740   -0.0616
          46    0.0042    0.0010    0.0000    0.0270    0.0010    0.0002    0.0005    0.0070
          47   -0.0153    0.0086   -0.0327   -0.1456    0.0005   -0.0317   -0.0325   -0.0099
          48   -0.0148    0.0116   -0.0354   -0.1024    0.0010   -0.0271   -0.0466    0.0144
          49    0.0184    0.0428   -0.0062   -0.0805   -0.0584   -0.0146   -0.0113   -0.0058
          50    0.0117    0.0106   -0.0197   -0.0192   -0.0196   -0.0092    0.0012   -0.0015
          51    0.0087    0.0236    0.0184   -0.0808   -0.0355   -0.0187   -0.0077   -0.0097
          52    0.0181   -0.0432    0.0010   -0.0806    0.0582   -0.0150    0.0116   -0.0054
          53   -0.0134    0.0263    0.0132    0.0806   -0.0405    0.0212   -0.0071    0.0093
          54   -0.0062   -0.0003   -0.0262   -0.0144   -0.0028    0.0003    0.0045   -0.0025
          55    0.0400   -0.0315   -0.0126    0.0088   -0.0212   -0.0155   -0.0041    0.0012
          56    0.0505    0.0885   -0.0654    0.0013    0.0347    0.0707   -0.0622   -0.0930
          57   -0.0029    0.0869   -0.0265    0.0027    0.0345    0.0548   -0.0369   -0.0559
          58    0.0402    0.0316    0.0133    0.0078    0.0211   -0.0155    0.0039    0.0015
          59   -0.0187    0.1159   -0.0514    0.0006    0.0458   -0.0793   -0.0671    0.0841
          60   -0.0475    0.0440   -0.0483    0.0033    0.0171   -0.0412   -0.0462    0.0574
          61   -0.0824    0.0447   -0.0703   -0.0049    0.0690    0.0855    0.1109   -0.0723
          62   -0.0275   -0.0162   -0.0148    0.0050   -0.0038    0.0147    0.0267   -0.0149
          63   -0.0444    0.0286   -0.0290   -0.0053    0.0399    0.0632    0.0779   -0.0506
          64   -0.0819   -0.0450    0.0694   -0.0101   -0.0689    0.0861   -0.1040   -0.0813
          65    0.0525    0.0191   -0.0323    0.0052    0.0344   -0.0640    0.0771    0.0590
          66    0.0058   -0.0265   -0.0015   -0.0066   -0.0201    0.0133   -0.0078   -0.0083


   Root No.      33        34        35        36        37        38        39        40

                33 A      34 A      35 A      36 A      37 A      38 A      39 A      40 A   

                1156.8    1167.7    1194.9    1215.7    1232.8    1267.4    1358.2    1361.3
  
           1   -0.0092    0.0009    0.0024    0.0349   -0.0051   -0.0184   -0.0091    0.0586
           2   -0.0117   -0.0042   -0.0205   -0.0096    0.0426    0.0129   -0.0235   -0.0215
           3    0.0153    0.0036   -0.0104    0.0112    0.0253   -0.0084   -0.0218    0.0131
           4    0.0091   -0.0009    0.0025    0.0349    0.0050   -0.0184   -0.0094   -0.0585
           5    0.0089    0.0015    0.0181   -0.0061    0.0408    0.0022    0.0296    0.0027
           6   -0.0170   -0.0054    0.0142    0.0134    0.0280   -0.0153    0.0121   -0.0251
           7   -0.0015    0.0045   -0.0027   -0.0093    0.0154    0.0087    0.0002    0.0009
           8    0.0025   -0.0044   -0.0098    0.0014    0.0116   -0.0242   -0.0192    0.0254
           9   -0.0066    0.0023   -0.0030   -0.0000    0.0112   -0.0060   -0.0073    0.0175
          10    0.0016   -0.0045   -0.0027   -0.0094   -0.0154    0.0087    0.0001   -0.0009
          11   -0.0050    0.0002    0.0068   -0.0005    0.0150    0.0156    0.0150    0.0265
          12    0.0049   -0.0049    0.0077   -0.0012    0.0059    0.0195    0.0146    0.0156
          13    0.0016   -0.0007   -0.0016   -0.0103   -0.0193    0.0120    0.0134   -0.0086
          14    0.0008    0.0005   -0.0060    0.0021    0.0017    0.0093    0.0102    0.0038
          15   -0.0005   -0.0013   -0.0114   -0.0011   -0.0049    0.0164    0.0165   -0.0018
          16   -0.0016    0.0007   -0.0016   -0.0102    0.0194    0.0120    0.0134    0.0085
          17   -0.0001   -0.0009    0.0129    0.0000   -0.0037   -0.0187   -0.0193    0.0001
          18    0.0010    0.0010    0.0007   -0.0024    0.0035   -0.0016   -0.0024    0.0043
          19   -0.0006    0.0031   -0.0058   -0.0048    0.0016   -0.0144    0.0123    0.0011
          20    0.0038    0.0002    0.0026   -0.0060   -0.0159   -0.0042    0.0206   -0.0107
          21   -0.0004    0.0022   -0.0037   -0.0072   -0.0067   -0.0142    0.0212   -0.0050
          22    0.0006   -0.0031   -0.0058   -0.0048   -0.0016   -0.0144    0.0123   -0.0012
          23    0.0013    0.0020    0.0023    0.0090   -0.0128    0.0147   -0.0280   -0.0088
          24    0.0037   -0.0007   -0.0039    0.0024   -0.0116   -0.0022   -0.0099   -0.0075
          25   -0.0014   -0.0009    0.0094   -0.0056   -0.0166   -0.0100   -0.0114   -0.0085
          26   -0.0031   -0.0000   -0.0021    0.0069   -0.0089    0.0045    0.0115    0.0024
          27   -0.0007   -0.0003    0.0061    0.0010   -0.0216   -0.0037    0.0016   -0.0042
          28    0.0013    0.0009    0.0094   -0.0056    0.0166   -0.0100   -0.0114    0.0086
          29   -0.0019   -0.0002   -0.0047   -0.0038   -0.0233    0.0015   -0.0062   -0.0028
          30   -0.0026    0.0001    0.0044   -0.0058    0.0010   -0.0056   -0.0098    0.0040
          31   -0.1097   -0.0861    0.0004   -0.0923    0.0115    0.0256    0.0181   -0.0854
          32   -0.0165    0.0493    0.0791    0.0276   -0.0869   -0.0149    0.0322    0.0286
          33   -0.0269   -0.0008    0.0424   -0.0202   -0.0384   -0.0049    0.0201   -0.0155
          34    0.1101    0.0858    0.0007   -0.0923   -0.0111    0.0256    0.0185    0.0852
          35   -0.0312    0.0199   -0.0716    0.0067   -0.0711    0.0107   -0.0317   -0.0019
          36   -0.0035    0.0450   -0.0540   -0.0337   -0.0626    0.0115   -0.0207    0.0326
          37   -0.0189   -0.0030    0.0123    0.0003    0.0121    0.0471   -0.0786   -0.0670
          38    0.0598   -0.0443    0.0389    0.0302   -0.0465    0.0330    0.0351   -0.0144
          39    0.0184   -0.0166    0.0237    0.0149   -0.0166    0.0301    0.0001   -0.0174
          40   -0.0036   -0.0015    0.0057   -0.0044    0.0100    0.0243   -0.0118   -0.0176
          41   -0.0254   -0.0820    0.0662    0.0903   -0.1044    0.0126    0.0651    0.0412
          42   -0.0065   -0.0279    0.0343    0.0178   -0.0114    0.0652   -0.0591   -0.0713
          43    0.0189    0.0029    0.0124    0.0003   -0.0121    0.0470   -0.0782    0.0676
          44    0.0414   -0.0333   -0.0376   -0.0262   -0.0344   -0.0410   -0.0150   -0.0217
          45    0.0463   -0.0330   -0.0253   -0.0212   -0.0352   -0.0173   -0.0320   -0.0055
          46    0.0036    0.0015    0.0057   -0.0044   -0.0099    0.0243   -0.0116    0.0177
          47   -0.0162   -0.0594   -0.0591   -0.0542   -0.0540   -0.0645    0.0259   -0.0478
          48   -0.0200   -0.0627   -0.0460   -0.0749   -0.0898    0.0159   -0.0837    0.0680
          49   -0.0304    0.1814    0.0379    0.0251   -0.0076    0.0926   -0.0529   -0.0241
          50   -0.0042    0.0464    0.0127    0.0014   -0.0185    0.0213    0.0044   -0.0174
          51   -0.0234    0.1539    0.0393    0.0209   -0.0215    0.0833   -0.0338   -0.0292
          52    0.0303   -0.1813    0.0378    0.0251    0.0076    0.0925   -0.0527    0.0244
          53   -0.0229    0.1593   -0.0410   -0.0197   -0.0273   -0.0845    0.0286   -0.0340
          54    0.0060   -0.0225    0.0049    0.0075   -0.0078    0.0156   -0.0182   -0.0034
          55   -0.0058   -0.0028   -0.0094   -0.0005   -0.0156    0.0140    0.0145   -0.0044
          56    0.0722    0.0025    0.0595   -0.1080   -0.0155   -0.0223   -0.0302   -0.0575
          57    0.0685    0.0043    0.0533   -0.1019   -0.0312   -0.0094   -0.0128   -0.0540
          58    0.0059    0.0028   -0.0094   -0.0004    0.0156    0.0139    0.0145    0.0043
          59    0.0928    0.0050   -0.0731    0.1377   -0.0352    0.0179    0.0240   -0.0733
          60    0.0372    0.0005   -0.0317    0.0554   -0.0011    0.0163    0.0219   -0.0298
          61   -0.0937    0.0002   -0.0673    0.0141   -0.0126    0.0594    0.0482    0.0041
          62   -0.0254   -0.0006   -0.0235    0.0010   -0.0326    0.0180    0.0067   -0.0047
          63   -0.0675    0.0001   -0.0491    0.0092   -0.0243    0.0424    0.0333    0.0014
          64    0.0935    0.0000   -0.0671    0.0142    0.0126    0.0593    0.0481   -0.0044
          65   -0.0720   -0.0003    0.0544   -0.0089   -0.0358   -0.0461   -0.0329   -0.0004
          66    0.0053   -0.0006    0.0007    0.0029   -0.0194    0.0015    0.0079   -0.0049


   Root No.      41        42        43        44        45        46        47        48

                41 A      42 A      43 A      44 A      45 A      46 A      47 A      48 A   

                1372.0    1389.5    1397.5    1447.6    1450.6    1836.7    1851.9    1874.7
  
           1   -0.0217    0.0190    0.0020    0.0285    0.0065   -0.0009   -0.0022    0.0041
           2   -0.0162   -0.0125   -0.0212    0.0316    0.0436   -0.0129   -0.0181    0.0004
           3   -0.0115    0.0045   -0.0109    0.0339    0.0290   -0.0127   -0.0153    0.0021
           4    0.0218   -0.0190    0.0020   -0.0285    0.0068    0.0010   -0.0022   -0.0041
           5   -0.0173   -0.0011    0.0188    0.0435   -0.0450   -0.0171    0.0214    0.0021
           6   -0.0099   -0.0132    0.0147    0.0142   -0.0276   -0.0065    0.0100   -0.0006
           7    0.0093   -0.0230   -0.0230    0.0008   -0.0154   -0.0012   -0.0008   -0.0223
           8    0.0399    0.0218    0.0122   -0.0187   -0.0474   -0.0012   -0.0006   -0.0125
           9    0.0248   -0.0138   -0.0179   -0.0079   -0.0342   -0.0015   -0.0018   -0.0235
          10   -0.0093    0.0230   -0.0230   -0.0010   -0.0153    0.0012   -0.0008    0.0223
          11    0.0391   -0.0034    0.0111   -0.0144    0.0511   -0.0018    0.0019   -0.0266
          12    0.0258    0.0255   -0.0187   -0.0133    0.0289   -0.0004   -0.0002   -0.0015
          13    0.0079   -0.0020    0.0049   -0.0171   -0.0116   -0.0585   -0.0506   -0.0040
          14   -0.0118   -0.0016    0.0041   -0.0345   -0.0058    0.1149    0.1117    0.0069
          15   -0.0067   -0.0037    0.0063   -0.0399   -0.0132    0.0607    0.0615    0.0027
          16   -0.0080    0.0020    0.0049    0.0169   -0.0117    0.0589   -0.0502    0.0040
          17   -0.0109   -0.0040   -0.0074   -0.0505    0.0149    0.1040   -0.1019    0.0053
          18   -0.0079    0.0001   -0.0011   -0.0146   -0.0002    0.0795   -0.0753    0.0051
          19    0.0043   -0.0024    0.0104   -0.0020    0.0177   -0.0091    0.0004    0.2009
          20   -0.0158    0.0003    0.0083    0.0030    0.0253    0.0025    0.0007   -0.0359
          21   -0.0059   -0.0005    0.0130    0.0006    0.0287   -0.0050    0.0007    0.1230
          22   -0.0044    0.0024    0.0104    0.0022    0.0177    0.0091    0.0005   -0.2009
          23   -0.0119   -0.0003   -0.0153    0.0014   -0.0367   -0.0035   -0.0010    0.0967
          24   -0.0118    0.0005   -0.0021    0.0023   -0.0109    0.0044   -0.0003   -0.0841
          25    0.0242    0.0026   -0.0052    0.0536    0.0086    0.1087    0.0657    0.0059
          26   -0.0007    0.0010    0.0068   -0.0103   -0.0107   -0.1106   -0.1039   -0.0060
          27    0.0171    0.0029    0.0020    0.0276   -0.0031   -0.0213   -0.0419   -0.0011
          28   -0.0242   -0.0026   -0.0052   -0.0535    0.0091   -0.1092    0.0651   -0.0059
          29    0.0152    0.0031   -0.0047    0.0208    0.0071   -0.0662    0.0811   -0.0035
          30   -0.0077   -0.0003   -0.0053   -0.0208    0.0087   -0.0921    0.0763   -0.0050
          31    0.0216   -0.0330   -0.0076   -0.0269   -0.0129   -0.0057   -0.0057   -0.0027
          32    0.0164    0.0142    0.0249   -0.0257   -0.0488    0.0053    0.0092   -0.0022
          33    0.0221   -0.0011    0.0099   -0.0189   -0.0287    0.0016    0.0024   -0.0012
          34   -0.0217    0.0330   -0.0077    0.0268   -0.0131    0.0057   -0.0056    0.0027
          35    0.0270    0.0049   -0.0194   -0.0275    0.0468    0.0038   -0.0061   -0.0020
          36    0.0057    0.0133   -0.0185   -0.0151    0.0324    0.0042   -0.0074   -0.0015
          37   -0.0202    0.1725    0.1425   -0.0109    0.0265    0.0006    0.0003   -0.0018
          38   -0.0652   -0.0388   -0.0296    0.0323    0.0561    0.0003   -0.0008   -0.0093
          39   -0.0312    0.0044    0.0021    0.0130    0.0238   -0.0014   -0.0023   -0.0128
          40   -0.0075    0.0145    0.0093    0.0033    0.0022   -0.0012   -0.0004   -0.0192
          41   -0.0795   -0.0846   -0.0723    0.0377    0.0515    0.0027   -0.0018   -0.0218
          42   -0.0502    0.1490    0.1222    0.0037    0.0495    0.0017   -0.0001   -0.0251
          43    0.0207   -0.1722    0.1426    0.0113    0.0263   -0.0006    0.0003    0.0018
          44   -0.0554   -0.0121    0.0105    0.0248   -0.0452   -0.0012    0.0023   -0.0154
          45   -0.0458   -0.0370    0.0279    0.0234   -0.0411    0.0009   -0.0002   -0.0031
          46    0.0075   -0.0144    0.0092   -0.0033    0.0022    0.0012   -0.0004    0.0192
          47   -0.0792    0.0998   -0.0807    0.0184   -0.0667    0.0027    0.0009   -0.0320
          48   -0.0506   -0.1391    0.1171    0.0325   -0.0265    0.0017    0.0016   -0.0092
          49   -0.0199   -0.0177   -0.0388    0.0058   -0.0472   -0.0011   -0.0006    0.0174
          50   -0.0228   -0.0023   -0.0031    0.0050    0.0085    0.0064    0.0006   -0.1195
          51   -0.0307   -0.0148   -0.0313    0.0075   -0.0263    0.0035   -0.0002   -0.0663
          52    0.0200    0.0177   -0.0388   -0.0063   -0.0471    0.0011   -0.0006   -0.0175
          53   -0.0375   -0.0143    0.0298    0.0092    0.0202    0.0059   -0.0001   -0.1103
          54   -0.0078    0.0041   -0.0103    0.0011   -0.0188    0.0043   -0.0006   -0.0806
          55    0.0040   -0.0017    0.0058   -0.0204   -0.0133   -0.0712   -0.0639   -0.0052
          56    0.0513   -0.0089   -0.0162    0.0681    0.0207    0.0074   -0.0096    0.0005
          57    0.0503   -0.0082   -0.0090    0.0437    0.0068   -0.0475   -0.0562   -0.0036
          58   -0.0040    0.0017    0.0058    0.0203   -0.0135    0.0717   -0.0635    0.0052
          59    0.0671   -0.0111    0.0149    0.0680   -0.0154   -0.0404    0.0548   -0.0030
          60    0.0254   -0.0046    0.0109    0.0434   -0.0164    0.0267   -0.0147    0.0019
          61    0.0182    0.0070    0.0190    0.0560   -0.0290    0.0236   -0.0786    0.0018
          62    0.0277    0.0057    0.0001    0.0488   -0.0004   -0.0573    0.0676   -0.0029
          63    0.0237    0.0070    0.0126    0.0610   -0.0191   -0.0087   -0.0172   -0.0004
          64   -0.0182   -0.0070    0.0190   -0.0562   -0.0285   -0.0230   -0.0788   -0.0018
          65    0.0332    0.0088   -0.0116    0.0760    0.0168   -0.0318   -0.0129   -0.0016
          66    0.0151    0.0023    0.0051    0.0186   -0.0078   -0.0478   -0.0688   -0.0025


   Root No.      49        50        51        52        53        54        55        56

                49 A      50 A      51 A      52 A      53 A      54 A      55 A      56 A   

                2843.0    2851.2    2948.6    2948.6    3026.5    3026.7    3046.2    3057.5
  
           1    0.0107    0.0117    0.0008   -0.0002   -0.0002   -0.0001    0.0000    0.0000
           2    0.0156    0.0157    0.0010   -0.0004    0.0003    0.0003    0.0002   -0.0001
           3   -0.0288   -0.0289   -0.0016    0.0010   -0.0002    0.0002    0.0001   -0.0002
           4   -0.0107    0.0117   -0.0005   -0.0007    0.0002   -0.0001    0.0000    0.0000
           5   -0.0198    0.0196   -0.0003   -0.0012   -0.0001   -0.0003   -0.0002    0.0002
           6    0.0263   -0.0262    0.0007    0.0016    0.0004   -0.0003   -0.0001    0.0001
           7   -0.0016   -0.0016    0.0269   -0.0122   -0.0163   -0.0144    0.0031    0.0001
           8   -0.0002   -0.0003    0.0109   -0.0049    0.0070    0.0062   -0.0012   -0.0001
           9    0.0015    0.0014   -0.0277    0.0126   -0.0111   -0.0098    0.0015   -0.0001
          10    0.0017   -0.0016   -0.0123   -0.0268    0.0146   -0.0160    0.0031    0.0001
          11    0.0013   -0.0011   -0.0094   -0.0205   -0.0064    0.0071   -0.0009    0.0001
          12   -0.0008    0.0008    0.0098    0.0214    0.0099   -0.0108    0.0017    0.0000
          13   -0.0001    0.0000    0.0001   -0.0001   -0.0001   -0.0001    0.0000   -0.0160
          14   -0.0007   -0.0004    0.0000   -0.0000    0.0001    0.0001   -0.0000    0.0049
          15   -0.0005   -0.0005    0.0000   -0.0000    0.0000   -0.0000   -0.0000   -0.0068
          16    0.0001    0.0000   -0.0001   -0.0001    0.0001   -0.0001    0.0000   -0.0156
          17   -0.0007    0.0006   -0.0000    0.0001    0.0001   -0.0001    0.0000    0.0040
          18   -0.0004    0.0002    0.0000    0.0000    0.0001   -0.0001    0.0000   -0.0071
          19    0.0000    0.0000   -0.0005    0.0000    0.0015    0.0016    0.0137    0.0000
          20    0.0000    0.0000    0.0004   -0.0003   -0.0031   -0.0034   -0.0279    0.0000
          21    0.0000   -0.0000   -0.0000    0.0001   -0.0009   -0.0010   -0.0076    0.0000
          22   -0.0000    0.0000    0.0003    0.0003   -0.0013    0.0017    0.0137    0.0000
          23    0.0000    0.0000    0.0000    0.0001   -0.0018    0.0025    0.0185   -0.0000
          24    0.0000   -0.0000    0.0001    0.0005   -0.0021    0.0029    0.0221    0.0000
          25   -0.0004   -0.0001   -0.0000    0.0000    0.0000    0.0000    0.0000    0.0077
          26    0.0004    0.0002    0.0000    0.0000    0.0000    0.0000    0.0000    0.0120
          27   -0.0001    0.0000   -0.0000    0.0000    0.0000    0.0000    0.0000    0.0156
          28    0.0004   -0.0001    0.0000    0.0000   -0.0000    0.0000   -0.0000    0.0075
          29    0.0001   -0.0001   -0.0000   -0.0000    0.0000   -0.0000   -0.0000   -0.0188
          30    0.0004   -0.0002    0.0000    0.0000   -0.0000    0.0000   -0.0000   -0.0043
          31   -0.1376   -0.1418   -0.0056    0.0040   -0.0005    0.0001   -0.0000   -0.0005
          32   -0.1925   -0.1911   -0.0131    0.0065   -0.0003    0.0009   -0.0002   -0.0003
          33    0.3544    0.3528    0.0192   -0.0088    0.0008   -0.0017    0.0003    0.0004
          34    0.1382   -0.1412    0.0016    0.0067    0.0005    0.0000   -0.0000   -0.0005
          35    0.2424   -0.2394    0.0056    0.0118    0.0007    0.0011   -0.0002   -0.0003
          36   -0.3246    0.3197   -0.0088   -0.0203   -0.0008   -0.0014    0.0003    0.0004
          37    0.0028    0.0038   -0.0445    0.0201   -0.0454   -0.0400    0.0075   -0.0000
          38    0.0061    0.0047   -0.1417    0.0644   -0.0878   -0.0775    0.0128   -0.0001
          39   -0.0173   -0.0159    0.2966   -0.1349    0.1872    0.1651   -0.0302   -0.0002
          40    0.0127    0.0170   -0.2774    0.1263    0.2415    0.2124   -0.0474   -0.0015
          41    0.0020    0.0018    0.0099   -0.0044    0.0005    0.0004   -0.0017   -0.0002
          42   -0.0024   -0.0031    0.0393   -0.0178   -0.0533   -0.0469    0.0084    0.0001
          43   -0.0029    0.0038    0.0205    0.0444    0.0408   -0.0447    0.0075    0.0000
          44   -0.0132    0.0124    0.0959    0.2093    0.1193   -0.1311    0.0219    0.0002
          45    0.0129   -0.0109   -0.1155   -0.2520   -0.1417    0.1557   -0.0241   -0.0000
          46   -0.0128    0.0169    0.1266    0.2765   -0.2166    0.2372   -0.0472   -0.0015
          47   -0.0013    0.0021    0.0182    0.0395   -0.0431    0.0473   -0.0069    0.0000
          48    0.0028   -0.0029   -0.0034   -0.0074    0.0203   -0.0222    0.0051    0.0002
          49   -0.0004   -0.0002    0.0038   -0.0021   -0.0188   -0.0187   -0.1615    0.0000
          50    0.0007    0.0003   -0.0048    0.0022    0.0355    0.0369    0.3337   -0.0000
          51    0.0002    0.0001   -0.0015    0.0012    0.0084    0.0093    0.0926   -0.0000
          52    0.0004   -0.0002   -0.0015   -0.0041    0.0166   -0.0206   -0.1612   -0.0000
          53    0.0005   -0.0002   -0.0012   -0.0038    0.0197   -0.0262   -0.2233   -0.0000
          54    0.0006   -0.0002   -0.0019   -0.0036    0.0252   -0.0325   -0.2635   -0.0001
          55    0.0003    0.0005   -0.0012    0.0006    0.0005    0.0009   -0.0004    0.1900
          56    0.0009    0.0010    0.0004   -0.0002    0.0005    0.0002    0.0000   -0.0565
          57   -0.0007   -0.0007   -0.0010    0.0005    0.0005    0.0007   -0.0002    0.0816
          58   -0.0003    0.0005    0.0005    0.0012   -0.0004    0.0010   -0.0004    0.1853
          59   -0.0003    0.0002   -0.0003   -0.0008    0.0006   -0.0008    0.0002   -0.0492
          60    0.0011   -0.0012    0.0003    0.0008    0.0002    0.0001   -0.0001    0.0833
          61   -0.0005    0.0007   -0.0000   -0.0001    0.0002   -0.0002   -0.0000   -0.0879
          62    0.0005   -0.0009    0.0000    0.0002   -0.0005    0.0004    0.0001    0.2221
          63    0.0007   -0.0007    0.0000    0.0001   -0.0001    0.0001    0.0000    0.0505
          64    0.0005    0.0007    0.0001   -0.0001   -0.0002   -0.0002   -0.0000   -0.0898
          65    0.0009    0.0010    0.0001   -0.0001   -0.0003   -0.0003   -0.0000   -0.1416
          66    0.0002    0.0005    0.0001   -0.0001   -0.0004   -0.0003   -0.0001   -0.1841


   Root No.      57        58        59        60

                57 A      58 A      59 A      60 A   

                3060.4    3066.1    3074.4    3083.0
  
           1    0.0002    0.0001   -0.0000   -0.0003
           2   -0.0001    0.0003    0.0000    0.0003
           3    0.0001    0.0002    0.0001    0.0002
           4   -0.0002   -0.0001   -0.0000    0.0003
           5    0.0001    0.0003   -0.0001    0.0003
           6   -0.0001    0.0001   -0.0000    0.0002
           7   -0.0000    0.0031    0.0001    0.0000
           8    0.0001   -0.0011   -0.0001   -0.0001
           9    0.0001    0.0016   -0.0001   -0.0001
          10    0.0000   -0.0031    0.0001   -0.0000
          11    0.0001    0.0010    0.0001   -0.0001
          12    0.0000   -0.0016    0.0000   -0.0000
          13    0.0196   -0.0003   -0.0197   -0.0160
          14   -0.0062    0.0001    0.0081    0.0069
          15    0.0081   -0.0001   -0.0066   -0.0050
          16   -0.0200    0.0003   -0.0196    0.0161
          17    0.0048   -0.0001    0.0026   -0.0016
          18   -0.0092    0.0001   -0.0100    0.0084
          19    0.0001    0.0185    0.0000   -0.0000
          20   -0.0002   -0.0297   -0.0000    0.0000
          21   -0.0001   -0.0053    0.0000    0.0000
          22   -0.0001   -0.0185    0.0000    0.0000
          23   -0.0002   -0.0173    0.0000    0.0000
          24   -0.0002   -0.0248    0.0000    0.0000
          25   -0.0061    0.0001   -0.0047   -0.0072
[...]
 FREQUENCY          1397.49         C  4 -- H 15         +11.2% ( 40.4%)      5.3%
 TRANSITION DIPOLE   0.1065         C  3 -- H 13         +11.2% ( 40.4%)      5.3%
 TRAVEL (Ang.)       0.3769         C  4 -- H 16         +10.6% ( 39.3%)      6.7%
 REDUCED MASS        0.3396         C  3 -- H 14         +10.6% ( 39.2%)      6.7%
 EFFECTIVE MASS      4.6279
 FORCE CONSTANT      0.3907

 VIBRATION         44   44A           ATOM PAIR      ENERGY CONTRIBUTION    RADIAL
 FREQUENCY          1447.56         C  9 -- C 10         +14.7% ( 58.6%)    100.0%
 TRANSITION DIPOLE   0.0958         C  1 -- C  5         +10.6% ( 49.9%)     98.4%
 TRAVEL (Ang.)       0.1846         C  2 -- C  6         +10.5% ( 49.6%)     98.4%
 REDUCED MASS        1.3674         C  5 -- C  9          +8.0% ( 43.4%)      0.5%
 EFFECTIVE MASS     10.3117
 FORCE CONSTANT      1.6882

 VIBRATION         45   45A           ATOM PAIR      ENERGY CONTRIBUTION    RADIAL
 FREQUENCY          1450.56         C  4 -- C  8          +9.7% ( 49.1%)     94.7%
 TRANSITION DIPOLE   0.0586         C  3 -- C  7          +9.7% ( 49.0%)     94.7%
 TRAVEL (Ang.)       0.1823         C  2 -- C  4          +9.7% ( 49.0%)     48.7%
 REDUCED MASS        1.3986         C  1 -- C  3          +9.6% ( 48.7%)     48.8%
 EFFECTIVE MASS     10.2169
 FORCE CONSTANT      1.7339

 VIBRATION         46   46A           ATOM PAIR      ENERGY CONTRIBUTION    RADIAL
 FREQUENCY          1836.70         C  6 -- C 10         +22.1% ( 70.0%)     99.0%
 TRANSITION DIPOLE   0.2361         C  5 -- C  9         +21.8% ( 69.6%)     99.0%
 TRAVEL (Ang.)       0.1135         C  9 -- C 10         +16.3% ( 60.2%)     98.5%
 REDUCED MASS        2.8481         C 10 -- H 21          +7.1% ( 39.8%)      2.0%
 EFFECTIVE MASS     11.9685
 FORCE CONSTANT      5.6609

 VIBRATION         47   47A           ATOM PAIR      ENERGY CONTRIBUTION    RADIAL
 FREQUENCY          1851.89         C  5 -- C  9         +22.5% ( 69.6%)     99.4%
 TRANSITION DIPOLE   0.3230         C  6 -- C 10         +22.2% ( 69.1%)     99.4%
 TRAVEL (Ang.)       0.1165         C  9 -- C 10         +12.5% ( 51.9%)      0.0%
 REDUCED MASS        2.6828         C  1 -- C  5          +7.7% ( 40.7%)     48.7%
 EFFECTIVE MASS     11.7829
 FORCE CONSTANT      5.4208

 VIBRATION         48   48A           ATOM PAIR      ENERGY CONTRIBUTION    RADIAL
 FREQUENCY          1874.66         C  7 -- C  8         +44.3% ( 98.0%)    100.0%
 TRANSITION DIPOLE   0.1550         C  3 -- C  7         +14.2% ( 55.5%)     52.0%
 TRAVEL (Ang.)       0.0816         C  4 -- C  8         +14.2% ( 55.5%)     52.0%
 REDUCED MASS        5.3999         C  7 -- H 17         +13.1% ( 53.2%)      4.7%
 EFFECTIVE MASS     11.8719         C  8 -- H 18         +13.1% ( 53.2%)      4.6%
 FORCE CONSTANT     11.1810

 VIBRATION         49   49A           ATOM PAIR      ENERGY CONTRIBUTION    RADIAL
 FREQUENCY          2842.96         C  2 -- H 12         +48.5% ( 70.9%)    100.0%
 TRANSITION DIPOLE   0.0504         C  1 -- H 11         +48.1% ( 70.6%)    100.0%
 TRAVEL (Ang.)       0.2265         C  1 -- C  2          +1.1% ( 10.8%)      9.7%
 REDUCED MASS        0.4623         C  2 -- C  4          +0.5% (  7.1%)      8.9%
 EFFECTIVE MASS      1.4375
 FORCE CONSTANT      2.2016

 VIBRATION         50   50A           ATOM PAIR      ENERGY CONTRIBUTION    RADIAL
 FREQUENCY          2851.17         C  1 -- H 11         +48.6% ( 70.6%)    100.0%
 TRANSITION DIPOLE   0.0968         C  2 -- H 12         +48.2% ( 70.3%)    100.0%
 TRAVEL (Ang.)       0.2263         C  1 -- C  2          +0.8% (  9.1%)      0.0%
 REDUCED MASS        0.4619         C  1 -- C  3          +0.5% (  7.2%)      8.5%
 EFFECTIVE MASS      1.4265
 FORCE CONSTANT      2.2123

 VIBRATION         51   51A           ATOM PAIR      ENERGY CONTRIBUTION    RADIAL
 FREQUENCY          2948.57         C  3 -- H 13         +46.5% ( 70.7%)     97.3%
 TRANSITION DIPOLE   0.0223         C  3 -- H 14         +34.2% ( 60.6%)     95.6%
 TRAVEL (Ang.)       0.2467         C  4 -- H 15          +9.7% ( 32.3%)     97.3%
 REDUCED MASS        0.3758         C  4 -- H 16          +7.1% ( 27.7%)     95.6%
 EFFECTIVE MASS      1.5381
 FORCE CONSTANT      1.9249

 VIBRATION         52   52A           ATOM PAIR      ENERGY CONTRIBUTION    RADIAL
 FREQUENCY          2948.61         C  4 -- H 15         +46.5% ( 70.7%)     97.3%
 TRANSITION DIPOLE   0.0463         C  4 -- H 16         +34.2% ( 60.6%)     95.6%
 TRAVEL (Ang.)       0.2468         C  3 -- H 13          +9.7% ( 32.3%)     97.3%
 REDUCED MASS        0.3755         C  3 -- H 14          +7.1% ( 27.7%)     95.7%
 EFFECTIVE MASS      1.5355
 FORCE CONSTANT      1.9233

 VIBRATION         53   53A           ATOM PAIR      ENERGY CONTRIBUTION    RADIAL
 FREQUENCY          3026.51         C  3 -- H 14         +31.3% ( 55.2%)     98.5%
 TRANSITION DIPOLE   0.0328         C  4 -- H 16         +25.2% ( 49.5%)     98.5%
 TRAVEL (Ang.)       0.3030         C  3 -- H 13         +22.5% ( 46.8%)     96.5%
 REDUCED MASS        0.2427         C  4 -- H 15         +18.1% ( 41.9%)     96.5%
 EFFECTIVE MASS      1.2805
 FORCE CONSTANT      1.3098

 VIBRATION         54   54A           ATOM PAIR      ENERGY CONTRIBUTION    RADIAL
 FREQUENCY          3026.68         C  4 -- H 16         +31.0% ( 55.0%)     98.5%
 TRANSITION DIPOLE   0.0889         C  3 -- H 14         +24.9% ( 49.2%)     98.5%
 TRAVEL (Ang.)       0.3049         C  4 -- H 15         +22.4% ( 46.7%)     96.5%
 REDUCED MASS        0.2397         C  3 -- H 13         +18.0% ( 41.9%)     96.5%
 EFFECTIVE MASS      1.2854
 FORCE CONSTANT      1.2935

 VIBRATION         55   55A           ATOM PAIR      ENERGY CONTRIBUTION    RADIAL
 FREQUENCY          3046.16         C  7 -- H 17         +47.9% ( 70.2%)    100.0%
 TRANSITION DIPOLE   0.2954         C  8 -- H 18         +47.7% ( 70.0%)    100.0%
 TRAVEL (Ang.)       0.2231         C  7 -- C  8          +1.1% ( 10.4%)      0.0%
 REDUCED MASS        0.4446         C  3 -- H 14          +0.7% (  8.5%)     98.9%
 EFFECTIVE MASS      1.4515
 FORCE CONSTANT      2.4306

 VIBRATION         56   56A           ATOM PAIR      ENERGY CONTRIBUTION    RADIAL
 FREQUENCY          3057.47         C  9 -- H 22         +28.7% ( 54.4%)    100.0%
 TRANSITION DIPOLE   0.2060         C 10 -- H 21         +27.5% ( 53.3%)    100.0%
 TRAVEL (Ang.)       0.3045         C  5 -- H 19         +21.2% ( 46.8%)    100.0%
 REDUCED MASS        0.2379         C  6 -- H 20         +20.1% ( 45.6%)    100.0%
 EFFECTIVE MASS      1.4716
 FORCE CONSTANT      1.3104

 VIBRATION         57   57A           ATOM PAIR      ENERGY CONTRIBUTION    RADIAL
 FREQUENCY          3060.35         C  6 -- H 20         +32.6% ( 57.9%)    100.0%
 TRANSITION DIPOLE   0.3239         C  5 -- H 19         +31.4% ( 56.8%)    100.0%
 TRAVEL (Ang.)       0.2938         C 10 -- H 21         +17.2% ( 42.1%)    100.0%
 REDUCED MASS        0.2552         C  9 -- H 22         +16.3% ( 41.0%)    100.0%
 EFFECTIVE MASS      1.4564
 FORCE CONSTANT      1.4083

 VIBRATION         58   58A           ATOM PAIR      ENERGY CONTRIBUTION    RADIAL
 FREQUENCY          3066.14         C  8 -- H 18         +47.6% ( 70.0%)     99.9%
 TRANSITION DIPOLE   0.2845         C  7 -- H 17         +47.3% ( 69.8%)     99.9%
 TRAVEL (Ang.)       0.2207         C  7 -- C  8          +2.0% ( 14.3%)    100.0%
 REDUCED MASS        0.4513         C  4 -- C  8          +0.8% (  9.0%)     15.9%
 EFFECTIVE MASS      1.5832
 FORCE CONSTANT      2.5000

 VIBRATION         59   59A           ATOM PAIR      ENERGY CONTRIBUTION    RADIAL
 FREQUENCY          3074.38         C  5 -- H 19         +27.9% ( 53.7%)     99.9%
 TRANSITION DIPOLE   0.4196         C  6 -- H 20         +27.5% ( 53.3%)     99.9%
 TRAVEL (Ang.)       0.3034         C  9 -- H 22         +20.6% ( 46.1%)     99.8%
 REDUCED MASS        0.2383         C 10 -- H 21         +20.3% ( 45.8%)     99.8%
 EFFECTIVE MASS      1.5783
 FORCE CONSTANT      1.3273

 VIBRATION         60   60A           ATOM PAIR      ENERGY CONTRIBUTION    RADIAL
 FREQUENCY          3082.97         C 10 -- H 21         +31.8% ( 57.2%)    100.0%
 TRANSITION DIPOLE   0.3098         C  9 -- H 22         +31.4% ( 56.8%)    100.0%
 TRAVEL (Ang.)       0.2922         C  6 -- H 20         +16.6% ( 41.3%)     99.9%
 REDUCED MASS        0.2561         C  5 -- H 19         +16.4% ( 41.1%)     99.9%
 EFFECTIVE MASS      1.6131
 FORCE CONSTANT      1.4342

      SYMMETRY NUMBER FOR POINT-GROUP C1  =  1


          SYSTEM IS A GROUND STATE



 InChI=1S/C10H12/c1-2-6-10-8-4-3-7-9(10)5-1/h1-6,9-10H,7-8H2


          MOLECULE IS NOT LINEAR

          THERE ARE 60 GENUINE VIBRATIONS IN THIS SYSTEM
          THIS THERMODYNAMICS CALCULATION IS LIMITED TO
          MOLECULES WHICH HAVE NO INTERNAL ROTATIONS




                    CALCULATED THERMODYNAMIC PROPERTIES
                                          *
   TEMP. (K)   PARTITION FUNCTION   H.O.F.    ENTHALPY  HEAT CAPACITY ENTROPY
                                   KCAL/MOL   CAL/MOLE    CAL/K/MOL  CAL/K/MOL


 298.00  VIB.     0.2878D+02                  3255.7577    27.5357    17.6017
         ROT.     0.5214D+06                   888.2803     2.9808    29.1410
         INT.     0.1501D+08                  4144.0380    30.5165    46.7427
         TRA.     0.1470D+28                  1480.4672     4.9680    40.5480
         TOT.                       34.150    5624.5052    35.4846    87.2906

 200.00  VIB.     0.5573D+01                  1187.5774    15.0178     9.3518
         ROT.     0.2867D+06                   596.1613     2.9808    27.9523
         INT.     0.1598D+07                  1783.7387    17.9986    37.3041
         TRA.     0.8080D+27                   993.6021     4.9680    38.5668
         TOT.                       31.303    2777.3408    22.9666    75.8710

 210.00  VIB.     0.6484D+01                  1343.5366    16.1800    10.1125
         ROT.     0.3085D+06                   625.9693     2.9808    28.0977
         INT.     0.2000D+07                  1969.5059    19.1608    38.2103
         TRA.     0.8694D+27                  1043.2822     4.9680    38.8092
         TOT.                       31.538    3012.7881    24.1288    77.0195

 220.00  VIB.     0.7573D+01                  1511.2917    17.3766    10.8927
         ROT.     0.3307D+06                   655.7774     2.9808    28.2364
         INT.     0.2505D+07                  2167.0691    20.3574    39.1291
         TRA.     0.9322D+27                  1092.9623     4.9680    39.0403
         TOT.                       31.786    3260.0314    25.3254    78.1694

 230.00  VIB.     0.8878D+01                  1691.1753    18.6052    11.6921
         ROT.     0.3535D+06                   685.5855     2.9808    28.3689
         INT.     0.3139D+07                  2376.7608    21.5860    40.0610
         TRA.     0.9965D+27                  1142.6424     4.9680    39.2612
         TOT.                       32.045    3519.4033    26.5540    79.3222

 240.00  VIB.     0.1045D+02                  1883.4927    19.8628    12.5104
         ROT.     0.3769D+06                   715.3935     2.9808    28.4957
         INT.     0.3937D+07                  2598.8862    22.8436    41.0062
         TRA.     0.1062D+28                  1192.3226     4.9680    39.4726
         TOT.                       32.317    3791.2087    27.8116    80.4788

 250.00  VIB.     0.1234D+02                  2088.5161    21.1458    13.3472
         ROT.     0.4007D+06                   745.2016     2.9808    28.6174
         INT.     0.4943D+07                  2833.7177    24.1266    41.9646
         TRA.     0.1129D+28                  1242.0027     4.9680    39.6754
         TOT.                       32.601    4075.7203    29.0946    81.6401

 260.00  VIB.     0.1462D+02                  2306.4814    22.4505    14.2019
         ROT.     0.4249D+06                   775.0097     2.9808    28.7343
         INT.     0.6214D+07                  3081.4911    25.4313    42.9363
         TRA.     0.1198D+28                  1291.6828     4.9680    39.8703
         TOT.                       32.899    4373.1738    30.3993    82.8065

 270.00  VIB.     0.1739D+02                  2537.5856    23.7729    15.0740
         ROT.     0.4497D+06                   804.8177     2.9808    28.8468
         INT.     0.7821D+07                  3342.4033    26.7537    43.9208
         TRA.     0.1267D+28                  1341.3629     4.9680    40.0578
         TOT.                       33.209    4683.7662    31.7217    83.9785

 280.00  VIB.     0.2076D+02                  2781.9854    25.1090    15.9626
         ROT.     0.4749D+06                   834.6258     2.9808    28.9552
         INT.     0.9857D+07                  3616.6112    28.0898    44.9179
         TRA.     0.1338D+28                  1391.0430     4.9680    40.2384
         TOT.                       33.533    5007.6542    33.0578    85.1563

 290.00  VIB.     0.2486D+02                  3039.7976    26.4547    16.8672
         ROT.     0.5006D+06                   864.4339     2.9808    29.0598
         INT.     0.1244D+08                  3904.2315    29.4356    45.9270
         TRA.     0.1411D+28                  1440.7231     4.9680    40.4128
         TOT.                       33.870    5344.9546    34.4036    86.3398

 300.00  VIB.     0.2986D+02                  3311.0998    27.8063    17.7868
         ROT.     0.5267D+06                   894.2419     2.9808    29.1609
         INT.     0.1573D+08                  4205.3417    30.7872    46.9477
         TRA.     0.1484D+28                  1490.4032     4.9680    40.5812
         TOT.                       34.221    5695.7449    35.7552    87.5289

 310.00  VIB.     0.3599D+02                  3595.9319    29.1601    18.7207
         ROT.     0.5532D+06                   924.0500     2.9808    29.2586
         INT.     0.1991D+08                  4519.9818    32.1410    47.9793
         TRA.     0.1559D+28                  1540.0833     4.9680    40.7441
         TOT.                       34.586    6060.0651    37.1090    88.7234

 320.00  VIB.     0.4352D+02                  3894.2986    30.5127    19.6678
         ROT.     0.5802D+06                   953.8580     2.9808    29.3533
         INT.     0.2525D+08                  4848.1566    33.4935    49.0211
         TRA.     0.1635D+28                  1589.7634     4.9680    40.9018
         TOT.                       34.963    6437.9200    38.4615    89.9229

 330.00  VIB.     0.5278D+02                  4206.1718    31.8609    20.6274
         ROT.     0.6076D+06                   983.6661     2.9808    29.4450
         INT.     0.3207D+08                  5189.8379    34.8418    50.0724
         TRA.     0.1713D+28                  1639.4435     4.9680    41.0547
         TOT.                       35.355    6829.2814    39.8098    91.1271

 340.00  VIB.     0.6419D+02                  4531.4934    33.2020    21.5985
         ROT.     0.6354D+06                  1013.4742     2.9808    29.5340
         INT.     0.4079D+08                  5544.9676    36.1828    51.1325
         TRA.     0.1791D+28                  1689.1236     4.9680    41.2030
         TOT.                       35.760    7234.0912    41.1508    92.3355

 350.00  VIB.     0.7830D+02                  4870.1783    34.5332    22.5802
         ROT.     0.6637D+06                  1043.2822     2.9808    29.6204
         INT.     0.5197D+08                  5913.4605    37.5140    52.2005
         TRA.     0.1871D+28                  1738.8037     4.9680    41.3470
         TOT.                       36.178    7652.2642    42.4820    93.5476

 360.00  VIB.     0.9577D+02                  5222.1171    35.8524    23.5715
         ROT.     0.6923D+06                  1073.0903     2.9808    29.7044
         INT.     0.6631D+08                  6295.2074    38.8332    53.2759
         TRA.     0.1951D+28                  1788.4838     4.9680    41.4870
         TOT.                       36.609    8083.6912    43.8012    94.7628

 370.00  VIB.     0.1175D+03                  5587.1794    37.1576    24.5717
         ROT.     0.7214D+06                  1102.8984     2.9808    29.7860
         INT.     0.8473D+08                  6690.0778    40.1384    54.3577
         TRA.     0.2033D+28                  1838.1639     4.9680    41.6231
         TOT.                       37.054    8528.2417    45.1064    95.9808

 380.00  VIB.     0.1444D+03                  5965.2165    38.4471    25.5797
         ROT.     0.7508D+06                  1132.7064     2.9808    29.8655
         INT.     0.1084D+09                  7097.9229    41.4279    55.4453
         TRA.     0.2116D+28                  1887.8440     4.9680    41.7556
         TOT.                       37.511    8985.7669    46.3959    97.2008

 390.00  VIB.     0.1780D+03                  6356.0638    39.7194    26.5949
         ROT.     0.7806D+06                  1162.5145     2.9808    29.9430
         INT.     0.1390D+09                  7518.5783    42.7002    56.5379
         TRA.     0.2200D+28                  1937.5242     4.9680    41.8846
         TOT.                       37.982    9456.1024    47.6682    98.4225

 400.00  VIB.     0.2199D+03                  6759.5437    40.9734    27.6164
         ROT.     0.8109D+06                  1192.3226     2.9808    30.0184
         INT.     0.1783D+09                  7951.8663    43.9542    57.6348
         TRA.     0.2285D+28                  1987.2043     4.9680    42.0104
         TOT.                       38.465    9939.0705    48.9222    99.6452

   *: NOTE: HEATS OF FORMATION ARE RELATIVE TO THE
            ELEMENTS IN THEIR STANDARD STATE AT 298K
              (=  Standard Enthalpy of Formation).

            Hvib:  Zero-point energy is not included.
                   frequencies of less than zero cm-1 are not included.
            Hrot = (3/2)RT
            Htra = (3/2)RT + pV = (5/2)RT

            Heat capacity is Cp, not Cv

          For more information, see: HTTP://OpenMOPAC.net/Manual/thermochemistry.html


           FORCE CONSTANT IN CARTESIAN COORDINATES (Millidynes/A)

    ATOM   CHEMICAL       X               Y               Z
   NUMBER   SYMBOL  FORCE CONSTANT  FORCE CONSTANT  FORCE CONSTANT

      1       C        8.113269        8.920071        8.520020
      2       C        8.113046        9.172287        8.271146
      3       C        8.759962        8.269003        8.400357
      4       C        8.760223        8.617433        8.051650
      5       C        9.740197       10.489626        6.766414
      6       C        9.740681       10.475468        6.769006
      7       C       11.695616        8.634041        6.801591
      8       C       11.695404        8.321400        7.108013
      9       C        9.587944       10.647535        7.283853
     10       C        9.587981       11.347870        6.591442
     11       H        1.102858        1.454377        3.293913
     12       H        1.102855        1.884051        2.864011
     13       H        0.778923        1.445691        4.045347
     14       H        4.820598        0.728275        0.799835
     15       H        0.779571        2.370630        3.118616
     16       H        4.821460        0.797668        0.729842
     17       H        1.454016        4.001087        0.791798
     18       H        1.454997        2.150339        2.639598
     19       H        4.137294        0.939432        1.198568
     20       H        4.137412        0.941766        1.196219
     21       H        1.237073        4.355122        0.681235
     22       H        1.237084        2.044658        2.988010

 **********************
 *                    *
 * JOB ENDED NORMALLY *
 *                    *
 **********************



 TOTAL JOB TIME:             2.37 SECONDS

 == MOPAC DONE ==
