 *******************************************************************************
 **                                                                           **
 **                              MOPAC v23.1.2                                **
 **                                                                           **
 *******************************************************************************
 **          Digital Object Identifier (DOI): 10.5281/zenodo.6511958          **
 **    Visit the DOI location for information on how to cite this program.    **
 *******************************************************************************

                              PM3 CALCULATION RESULTS

 *******************************************************************************
 *  CALCULATION DONE: (MAX THREADS = 1)              Tue Jun  3 16:30:09 2025  *
 *  PM3        - The PM3 Hamiltonian to be used
 *  PRECISE    - TIGHTER CRITERIA TO BE USED
 *  NOSYM      - POINT-GROUP SYMMETRY SET TO C1
 *  THREADS=1  - MULTI-THREADING NOT USED
 *  T=         - A TIME OF 172800.0 SECONDS REQUESTED
 *  DUMP=N     - RESTART FILE WRITTEN EVERY 7200.0 SECONDS REQUESTED
 *******************************************************************************
pm3  precise nosym THREADS=1
 InChI=1S/C9H10/c1-2-6-9-7-4-3-5-8-9/h2-8H,1H3

   ATOM   CHEMICAL          X               Y               Z
  NUMBER   SYMBOL      (ANGSTROMS)     (ANGSTROMS)     (ANGSTROMS)

     1       C          3.49980000  *  -0.01060000  *  -0.04190000  *
     2       C         -0.34060000  *   0.22850000  *   0.30110000  *
     3       C          2.06670000  *  -0.39730000  *   0.13780000  *
     4       C          1.10330000  *   0.53160000  *   0.14210000  *
     5       C         -1.27830000  *   1.19650000  *  -0.09930000  *
     6       C         -0.80710000  *  -0.97640000  *   0.86740000  *
     7       C         -2.64910000  *   0.95880000  *   0.03930000  *
     8       C         -3.09950000  *  -0.24350000  *   0.58770000  *
     9       C         -2.17970000  *  -1.20800000  *   1.00400000  *
    10       H          3.63410000  *   0.50850000  *  -1.01440000  *
    11       H          4.13840000  *  -0.91860000  *  -0.02960000  *
    12       H          3.81700000  *   0.66160000  *   0.78320000  *
    13       H          1.83590000  *  -1.44870000  *   0.23770000  *
    14       H         -0.94930000  *   2.13570000  *  -0.52740000  *
    15       H         -3.36260000  *   1.70830000  *  -0.27810000  *
    16       H         -4.16100000  *  -0.42530000  *   0.69580000  *
    17       H         -0.12410000  *  -1.73270000  *   1.22720000  *
    18       H          1.38660000  *   1.56640000  *  -0.01840000  *
    19       H         -2.53040000  *  -2.13460000  *   1.44010000  *



          CARTESIAN COORDINATES 

    NO.       ATOM           X           Y           Z

     1         C          3.4998     -0.0106     -0.0419
     2         C         -0.3406      0.2285      0.3011
     3         C          2.0667     -0.3973      0.1378
     4         C          1.1033      0.5316      0.1421
     5         C         -1.2783      1.1965     -0.0993
     6         C         -0.8071     -0.9764      0.8674
     7         C         -2.6491      0.9588      0.0393
     8         C         -3.0995     -0.2435      0.5877
     9         C         -2.1797     -1.2080      1.0040
    10         H          3.6341      0.5085     -1.0144
    11         H          4.1384     -0.9186     -0.0296
    12         H          3.8170      0.6616      0.7832
    13         H          1.8359     -1.4487      0.2377
    14         H         -0.9493      2.1357     -0.5274
    15         H         -3.3626      1.7083     -0.2781
    16         H         -4.1610     -0.4253      0.6958
    17         H         -0.1241     -1.7327      1.2272
    18         H          1.3866      1.5664     -0.0184
    19         H         -2.5304     -2.1346      1.4401

  H: (PM3): J. J. P. STEWART, J. COMP. CHEM. 10, 209 (1989).
  C: (PM3): J. J. P. STEWART, J. COMP. CHEM. 10, 209 (1989).

           Empirical Formula: C9 H10  =    19 atoms



      MOLECULAR POINT GROUP   :   C1  


      RHF CALCULATION, NO. OF DOUBLY OCCUPIED LEVELS = 23


          Geometry optimization using EF

          DIAGONAL MATRIX USED AS START HESSIAN

 CYCLE:     1 TIME:   0.008 TIME LEFT:  2.00D  GRAD.:    69.172 HEAT:  31.64783
 CYCLE:     2 TIME:   0.016 TIME LEFT:  2.00D  GRAD.:    27.164 HEAT:  30.49002
 CYCLE:     3 TIME:   0.012 TIME LEFT:  2.00D  GRAD.:    25.665 HEAT:  30.25314
 CYCLE:     4 TIME:   0.008 TIME LEFT:  2.00D  GRAD.:    22.256 HEAT:  30.12815
 CYCLE:     5 TIME:   0.008 TIME LEFT:  2.00D  GRAD.:    23.981 HEAT:  30.06663
 CYCLE:     6 TIME:   0.012 TIME LEFT:  2.00D  GRAD.:    14.824 HEAT:  29.94312
 CYCLE:     7 TIME:   0.008 TIME LEFT:  2.00D  GRAD.:    11.488 HEAT:  29.90175
 CYCLE:     8 TIME:   0.008 TIME LEFT:  2.00D  GRAD.:     7.873 HEAT:  29.86201
 CYCLE:     9 TIME:   0.004 TIME LEFT:  2.00D  GRAD.:     9.182 HEAT:  29.82467
 CYCLE:    10 TIME:   0.008 TIME LEFT:  2.00D  GRAD.:     9.966 HEAT:  29.79484
 CYCLE:    11 TIME:   0.012 TIME LEFT:  2.00D  GRAD.:    10.127 HEAT:  29.77844
 CYCLE:    12 TIME:   0.008 TIME LEFT:  2.00D  GRAD.:     8.242 HEAT:  29.76704
 CYCLE:    13 TIME:   0.008 TIME LEFT:  2.00D  GRAD.:     4.162 HEAT:  29.75000
 CYCLE:    14 TIME:   0.008 TIME LEFT:  2.00D  GRAD.:     4.764 HEAT:  29.74813
 CYCLE:    15 TIME:   0.004 TIME LEFT:  2.00D  GRAD.:     3.797 HEAT:  29.74262
 CYCLE:    16 TIME:   0.008 TIME LEFT:  2.00D  GRAD.:     4.211 HEAT:  29.73775
 CYCLE:    17 TIME:   0.004 TIME LEFT:  2.00D  GRAD.:     4.066 HEAT:  29.73111
 CYCLE:    18 TIME:   0.008 TIME LEFT:  2.00D  GRAD.:     6.935 HEAT:  29.72672
 CYCLE:    19 TIME:   0.008 TIME LEFT:  2.00D  GRAD.:     8.825 HEAT:  29.72456
 CYCLE:    20 TIME:   0.004 TIME LEFT:  2.00D  GRAD.:     3.475 HEAT:  29.70409
 CYCLE:    21 TIME:   0.008 TIME LEFT:  2.00D  GRAD.:     2.939 HEAT:  29.69641
 CYCLE:    22 TIME:   0.008 TIME LEFT:  2.00D  GRAD.:     2.901 HEAT:  29.68565
 CYCLE:    23 TIME:   0.004 TIME LEFT:  2.00D  GRAD.:     3.846 HEAT:  29.66023
 CYCLE:    24 TIME:   0.008 TIME LEFT:  2.00D  GRAD.:     4.615 HEAT:  29.63853
 CYCLE:    25 TIME:   0.008 TIME LEFT:  2.00D  GRAD.:     5.222 HEAT:  29.61059
 CYCLE:    26 TIME:   0.008 TIME LEFT:  2.00D  GRAD.:     5.146 HEAT:  29.55602
 CYCLE:    27 TIME:   0.004 TIME LEFT:  2.00D  GRAD.:     5.811 HEAT:  29.49618
 CYCLE:    28 TIME:   0.008 TIME LEFT:  2.00D  GRAD.:     6.344 HEAT:  29.42157
 CYCLE:    29 TIME:   0.008 TIME LEFT:  2.00D  GRAD.:     6.117 HEAT:  29.36195
 CYCLE:    30 TIME:   0.008 TIME LEFT:  2.00D  GRAD.:     8.268 HEAT:  29.34960
 CYCLE:    31 TIME:   0.008 TIME LEFT:  2.00D  GRAD.:     6.827 HEAT:  29.31067
 CYCLE:    32 TIME:   0.004 TIME LEFT:  2.00D  GRAD.:     5.092 HEAT:  29.28737
 CYCLE:    33 TIME:   0.008 TIME LEFT:  2.00D  GRAD.:     3.077 HEAT:  29.26695
 CYCLE:    34 TIME:   0.008 TIME LEFT:  2.00D  GRAD.:     3.222 HEAT:  29.23501
 CYCLE:    35 TIME:   0.008 TIME LEFT:  2.00D  GRAD.:     3.802 HEAT:  29.21528
 CYCLE:    36 TIME:   0.008 TIME LEFT:  2.00D  GRAD.:     2.954 HEAT:  29.20204
 CYCLE:    37 TIME:   0.004 TIME LEFT:  2.00D  GRAD.:     2.903 HEAT:  29.18694
 CYCLE:    38 TIME:   0.008 TIME LEFT:  2.00D  GRAD.:     2.676 HEAT:  29.17271
 CYCLE:    39 TIME:   0.004 TIME LEFT:  2.00D  GRAD.:     2.436 HEAT:  29.16010
 CYCLE:    40 TIME:   0.008 TIME LEFT:  2.00D  GRAD.:     2.853 HEAT:  29.14376
 CYCLE:    41 TIME:   0.008 TIME LEFT:  2.00D  GRAD.:     3.185 HEAT:  29.12739
 CYCLE:    42 TIME:   0.004 TIME LEFT:  2.00D  GRAD.:     3.277 HEAT:  29.11035
 CYCLE:    43 TIME:   0.008 TIME LEFT:  2.00D  GRAD.:     3.237 HEAT:  29.09127
 CYCLE:    44 TIME:   0.004 TIME LEFT:  2.00D  GRAD.:     6.122 HEAT:  29.07400
 CYCLE:    45 TIME:   0.008 TIME LEFT:  2.00D  GRAD.:     4.850 HEAT:  29.04054
 CYCLE:    46 TIME:   0.004 TIME LEFT:  2.00D  GRAD.:     3.764 HEAT:  28.99812
 CYCLE:    47 TIME:   0.008 TIME LEFT:  2.00D  GRAD.:     3.875 HEAT:  28.97031
 CYCLE:    48 TIME:   0.004 TIME LEFT:  2.00D  GRAD.:     6.145 HEAT:  28.96502
 CYCLE:    49 TIME:   0.008 TIME LEFT:  2.00D  GRAD.:     2.836 HEAT:  28.94599
 CYCLE:    50 TIME:   0.008 TIME LEFT:  2.00D  GRAD.:     1.992 HEAT:  28.92902
 CYCLE:    51 TIME:   0.004 TIME LEFT:  2.00D  GRAD.:     2.882 HEAT:  28.91374
 CYCLE:    52 TIME:   0.004 TIME LEFT:  2.00D  GRAD.:     1.896 HEAT:  28.90301
 CYCLE:    53 TIME:   0.012 TIME LEFT:  2.00D  GRAD.:     1.504 HEAT:  28.89617
 CYCLE:    54 TIME:   0.004 TIME LEFT:  2.00D  GRAD.:     1.699 HEAT:  28.88933
 CYCLE:    55 TIME:   0.008 TIME LEFT:  2.00D  GRAD.:     1.962 HEAT:  28.88158
 CYCLE:    56 TIME:   0.004 TIME LEFT:  2.00D  GRAD.:     1.902 HEAT:  28.87272
 CYCLE:    57 TIME:   0.008 TIME LEFT:  2.00D  GRAD.:     1.953 HEAT:  28.86437
 CYCLE:    58 TIME:   0.008 TIME LEFT:  2.00D  GRAD.:     2.113 HEAT:  28.85572
 CYCLE:    59 TIME:   0.004 TIME LEFT:  2.00D  GRAD.:     2.566 HEAT:  28.84510
 CYCLE:    60 TIME:   0.008 TIME LEFT:  2.00D  GRAD.:     2.757 HEAT:  28.83111
 CYCLE:    61 TIME:   0.004 TIME LEFT:  2.00D  GRAD.:     2.427 HEAT:  28.81872
 CYCLE:    62 TIME:   0.008 TIME LEFT:  2.00D  GRAD.:     2.439 HEAT:  28.80558
 CYCLE:    63 TIME:   0.008 TIME LEFT:  2.00D  GRAD.:     4.523 HEAT:  28.79462
 CYCLE:    64 TIME:   0.008 TIME LEFT:  2.00D  GRAD.:     5.693 HEAT:  28.77241
 CYCLE:    65 TIME:   0.004 TIME LEFT:  2.00D  GRAD.:     4.999 HEAT:  28.74317
 CYCLE:    66 TIME:   0.012 TIME LEFT:  2.00D  GRAD.:    10.311 HEAT:  28.72967
 CYCLE:    67 TIME:   0.008 TIME LEFT:  2.00D  GRAD.:     6.025 HEAT:  28.71674
 CYCLE:    68 TIME:   0.008 TIME LEFT:  2.00D  GRAD.:     2.233 HEAT:  28.68833
 CYCLE:    69 TIME:   0.008 TIME LEFT:  2.00D  GRAD.:     1.901 HEAT:  28.67727
 CYCLE:    70 TIME:   0.008 TIME LEFT:  2.00D  GRAD.:     2.745 HEAT:  28.67304
 CYCLE:    71 TIME:   0.008 TIME LEFT:  2.00D  GRAD.:     2.267 HEAT:  28.66832
 CYCLE:    72 TIME:   0.008 TIME LEFT:  2.00D  GRAD.:     1.189 HEAT:  28.65580
 CYCLE:    73 TIME:   0.004 TIME LEFT:  2.00D  GRAD.:     1.144 HEAT:  28.65108
 CYCLE:    74 TIME:   0.008 TIME LEFT:  2.00D  GRAD.:     2.221 HEAT:  28.63647
 CYCLE:    75 TIME:   0.008 TIME LEFT:  2.00D  GRAD.:     2.750 HEAT:  28.62861
 CYCLE:    76 TIME:   0.008 TIME LEFT:  2.00D  GRAD.:     3.146 HEAT:  28.61762
 CYCLE:    77 TIME:   0.008 TIME LEFT:  2.00D  GRAD.:     3.128 HEAT:  28.60451
 CYCLE:    78 TIME:   0.008 TIME LEFT:  2.00D  GRAD.:     2.119 HEAT:  28.59541
 CYCLE:    79 TIME:   0.012 TIME LEFT:  2.00D  GRAD.:     1.310 HEAT:  28.58475
 CYCLE:    80 TIME:   0.008 TIME LEFT:  2.00D  GRAD.:     2.428 HEAT:  28.58316
 CYCLE:    81 TIME:   0.008 TIME LEFT:  2.00D  GRAD.:     1.496 HEAT:  28.58130
 CYCLE:    82 TIME:   0.004 TIME LEFT:  2.00D  GRAD.:     0.493 HEAT:  28.57966
 CYCLE:    83 TIME:   0.008 TIME LEFT:  2.00D  GRAD.:     0.558 HEAT:  28.57935
 CYCLE:    84 TIME:   0.004 TIME LEFT:  2.00D  GRAD.:     0.356 HEAT:  28.57913
 CYCLE:    85 TIME:   0.004 TIME LEFT:  2.00D  GRAD.:     0.247 HEAT:  28.57890
 CYCLE:    86 TIME:   0.008 TIME LEFT:  2.00D  GRAD.:     0.239 HEAT:  28.57881
 CYCLE:    87 TIME:   0.004 TIME LEFT:  2.00D  GRAD.:     0.230 HEAT:  28.57874
 CYCLE:    88 TIME:   0.004 TIME LEFT:  2.00D  GRAD.:     0.356 HEAT:  28.57870
 CYCLE:    89 TIME:   0.004 TIME LEFT:  2.00D  GRAD.:     0.252 HEAT:  28.57862
 CYCLE:    90 TIME:   0.004 TIME LEFT:  2.00D  GRAD.:     0.193 HEAT:  28.57852
 CYCLE:    91 TIME:   0.004 TIME LEFT:  2.00D  GRAD.:     0.140 HEAT:  28.57842
 CYCLE:    92 TIME:   0.004 TIME LEFT:  2.00D  GRAD.:     0.171 HEAT:  28.57819
 CYCLE:    93 TIME:   0.008 TIME LEFT:  2.00D  GRAD.:     0.159 HEAT:  28.57796
 CYCLE:    94 TIME:   0.008 TIME LEFT:  2.00D  GRAD.:     2.576 HEAT:  28.58662
 CYCLE:    95 TIME:   0.004 TIME LEFT:  2.00D  GRAD.:     0.212 HEAT:  28.57787
 CYCLE:    96 TIME:   0.004 TIME LEFT:  2.00D  GRAD.:     0.222 HEAT:  28.57800
 CYCLE:    97 TIME:   0.004 TIME LEFT:  2.00D  GRAD.:     0.071 HEAT:  28.57789
 CYCLE:    98 TIME:   0.004 TIME LEFT:  2.00D  GRAD.:     0.115 HEAT:  28.57782
 CYCLE:    99 TIME:   0.004 TIME LEFT:  2.00D  GRAD.:     0.084 HEAT:  28.57779
 CYCLE:   100 TIME:   0.008 TIME LEFT:  2.00D  GRAD.:     0.154 HEAT:  28.57774
 CYCLE:   101 TIME:   0.004 TIME LEFT:  2.00D  GRAD.:     0.087 HEAT:  28.57773
 CYCLE:   102 TIME:   0.004 TIME LEFT:  2.00D  GRAD.:     0.172 HEAT:  28.57773
 CYCLE:   103 TIME:   0.004 TIME LEFT:  2.00D  GRAD.:     0.043 HEAT:  28.57771

     GRADIENT =  0.04254 IS LESS THAN CUTOFF =  0.05000



 -------------------------------------------------------------------------------
 pm3  precise nosym THREADS=1
 InChI=1S/C9H10/c1-2-6-9-7-4-3-5-8-9/h2-8H,1H3



     GEOMETRY OPTIMISED USING EIGENVECTOR FOLLOWING (EF).     
     SCF FIELD WAS ACHIEVED                                   


                              PM3 CALCULATION
                                                       MOPAC v23.1.2 MacOS
                                                       Tue Jun  3 16:30:10 2025




          FINAL HEAT OF FORMATION =         28.57771 KCAL/MOL =     119.56914 KJ/MOL


          COSMO AREA              =        169.96 SQUARE ANGSTROMS
          COSMO VOLUME            =        163.74 CUBIC ANGSTROMS

          GRADIENT NORM           =          0.04254          =       0.00976 PER ATOM
          IONIZATION POTENTIAL    =          8.923831 EV
          HOMO LUMO ENERGIES (EV) =         -8.924 -0.115
          NO. OF FILLED LEVELS    =         23
          MOLECULAR WEIGHT        =        118.1780         POINT GROUP:  C1  

          MOLECULAR DIMENSIONS (Angstroms)

            Atom       Atom       Distance
            H    16    H    11     8.15874
            H    19    H    14     4.72550
            H    16    H    12     1.75986


          SCF CALCULATIONS        =        113

          WALL-CLOCK TIME         =      0.699 SECONDS
          COMPUTATION TIME        =      0.423 SECONDS




   ATOM   CHEMICAL          X               Y               Z
  NUMBER   SYMBOL      (ANGSTROMS)     (ANGSTROMS)     (ANGSTROMS)

     1       C          3.46844833  *  -0.06709794  *   0.04496989  *
     2       C         -0.35003664  *   0.25222427  *   0.20572203  *
     3       C          2.03501401  *  -0.33322732  *   0.28121360  *
     4       C          1.06280796  *   0.53020684  *  -0.03445039  *
     5       C         -1.31264566  *   1.20335134  *  -0.14949854  *
     6       C         -0.76120315  *  -0.95169399  *   0.78662920  *
     7       C         -2.66013553  *   0.94951317  *   0.07459627  *
     8       C         -3.06084740  *  -0.25090431  *   0.65299086  *
     9       C         -2.10917387  *  -1.20111510  *   1.00859421  *
    10       H          3.65256648  *   0.91233800  *  -0.41628458  *
    11       H          3.89709694  *  -0.83190271  *  -0.61681749  *
    12       H          4.02596711  *  -0.09905285  *   0.99087948  *
    13       H          1.77589845  *  -1.30044007  *   0.74291289  *
    14       H         -1.00286887  *   2.15059064  *  -0.60541470  *
    15       H         -3.40917720  *   1.69744896  *  -0.20521430  *
    16       H         -4.12347666  *  -0.44705898  *   0.82792191  *
    17       H          0.00509654  *  -1.69255012  *   1.06219202  *
    18       H          1.29635822  *   1.49938124  *  -0.49503954  *
    19       H         -2.42156597  *  -2.14647803  *   1.46374797  *

                             CARTESIAN COORDINATES

   1    C        3.468448331    -0.067097937     0.044969893
   2    C       -0.350036643     0.252224274     0.205722028
   3    C        2.035014014    -0.333227325     0.281213601
   4    C        1.062807956     0.530206836    -0.034450386
   5    C       -1.312645657     1.203351335    -0.149498537
   6    C       -0.761203149    -0.951693993     0.786629199
   7    C       -2.660135533     0.949513167     0.074596269
   8    C       -3.060847400    -0.250904311     0.652990856
   9    C       -2.109173871    -1.201115098     1.008594207
  10    H        3.652566480     0.912338005    -0.416284579
  11    H        3.897096937    -0.831902709    -0.616817494
  12    H        4.025967107    -0.099052854     0.990879480
  13    H        1.775898455    -1.300440070     0.742912895
  14    H       -1.002868873     2.150590638    -0.605414697
  15    H       -3.409177195     1.697448955    -0.205214296
  16    H       -4.123476660    -0.447058984     0.827921906
  17    H        0.005096545    -1.692550118     1.062192020
  18    H        1.296358217     1.499381237    -0.495039539
  19    H       -2.421565970    -2.146478030     1.463747975


           Empirical Formula: C9 H10  =    19 atoms



      MOLECULAR POINT GROUP   :   C1  


                  EIGENVALUES  
 -40.11363 -35.39715 -30.16986 -29.63697 -25.33033 -22.18498 -21.00626 -19.01263
 -18.28236 -16.52775 -15.76846 -14.97540 -14.71576 -14.48374 -14.39276 -13.38287
 -13.36571 -12.69543 -12.49243 -12.01405 -10.90759  -9.74816  -8.92383  -0.11453
   0.43726   1.50654   3.02045   3.10892   3.27474   3.46141   3.53260   3.69995
   3.79783   3.94659   4.07342   4.25649   4.28588   4.42825   4.95190   4.97487
   5.05910   5.25208   5.62897   5.79467   6.25374   6.41603


              NET ATOMIC CHARGES AND DIPOLE CONTRIBUTIONS

  ATOM NO.   TYPE          CHARGE      No. of ELECS.   s-Pop       p-Pop       
    1          C          -0.072674        4.0727     1.12419     2.94848
    2          C          -0.041555        4.0416     1.16700     2.87456
    3          C          -0.139432        4.1394     1.19567     2.94377
    4          C          -0.108658        4.1087     1.17982     2.92884
    5          C          -0.093260        4.0933     1.17947     2.91379
    6          C          -0.103076        4.1031     1.17989     2.92318
    7          C          -0.101931        4.1019     1.17888     2.92305
    8          C          -0.103354        4.1034     1.17943     2.92393
    9          C          -0.097938        4.0979     1.17774     2.92020
   10          H           0.042230        0.9578     0.95777
   11          H           0.045811        0.9542     0.95419
   12          H           0.045814        0.9542     0.95419
   13          H           0.103395        0.8966     0.89661
   14          H           0.104730        0.8953     0.89527
   15          H           0.102047        0.8980     0.89795
   16          H           0.102375        0.8976     0.89763
   17          H           0.109544        0.8905     0.89046
   18          H           0.103848        0.8962     0.89615
   19          H           0.102085        0.8979     0.89791
 DIPOLE           X         Y         Z       TOTAL
 POINT-CHG.     0.346    -0.090     0.014     0.357
 HYBRID        -0.001    -0.001     0.001     0.002
 SUM            0.345    -0.092     0.015     0.357


          ATOMIC ORBITAL ELECTRON POPULATIONS

     Atom    s        px        py        pz   
    1  C   1.12419   0.93728   1.00728   1.00393
    2  C   1.16700   0.93535   0.95208   0.98713
    3  C   1.19567   0.95556   0.99202   0.99619
    4  C   1.17982   0.92510   0.99021   1.01353
    5  C   1.17947   0.93974   0.97789   0.99616
    6  C   1.17989   0.96126   0.96809   0.99384
    7  C   1.17888   0.95934   0.97040   0.99331
    8  C   1.17943   0.97987   0.95207   0.99199
    9  C   1.17774   0.94156   0.98158   0.99706
   10  H   0.95777
   11  H   0.95419
   12  H   0.95419
   13  H   0.89661
   14  H   0.89527
   15  H   0.89795
   16  H   0.89763
   17  H   0.89046
   18  H   0.89615
   19  H   0.89791
 *******************************************************************************
 **                                                                           **
 **                              MOPAC v23.1.2                                **
 **                                                                           **
 *******************************************************************************
 **          Digital Object Identifier (DOI): 10.5281/zenodo.6511958          **
 **    Visit the DOI location for information on how to cite this program.    **
 *******************************************************************************

                              PM3 CALCULATION RESULTS

 *******************************************************************************
 *  CALCULATION DONE: (MAX THREADS = 1)              Tue Jun  3 16:30:10 2025  *
 *  PM3        - The PM3 Hamiltonian to be used
 *  OLDGEO     - PREVIOUS GEOMETRY TO BE USED
 *  PRECISE    - TIGHTER CRITERIA TO BE USED
 *  NOSYM      - POINT-GROUP SYMMETRY SET TO C1
 *  THREADS=1  - MULTI-THREADING NOT USED
 *  T=         - A TIME OF 172800.0 SECONDS REQUESTED
 *  DUMP=N     - RESTART FILE WRITTEN EVERY 7200.0 SECONDS REQUESTED
 *  THERMO     - THERMODYNAMIC QUANTITIES TO BE CALCULATED
 *******************************************************************************
oldgeo thermo nosym precise THREADS=1  pm3
 InChI=1S/C9H10/c1-2-6-9-7-4-3-5-8-9/h2-8H,1H3

   ATOM   CHEMICAL          X               Y               Z
  NUMBER   SYMBOL      (ANGSTROMS)     (ANGSTROMS)     (ANGSTROMS)

     1       C          3.46844833  *  -0.06709794  *   0.04496989  *
     2       C         -0.35003664  *   0.25222427  *   0.20572203  *
     3       C          2.03501401  *  -0.33322732  *   0.28121360  *
     4       C          1.06280796  *   0.53020684  *  -0.03445039  *
     5       C         -1.31264566  *   1.20335134  *  -0.14949854  *
     6       C         -0.76120315  *  -0.95169399  *   0.78662920  *
     7       C         -2.66013553  *   0.94951317  *   0.07459627  *
     8       C         -3.06084740  *  -0.25090431  *   0.65299086  *
     9       C         -2.10917387  *  -1.20111510  *   1.00859421  *
    10       H          3.65256648  *   0.91233800  *  -0.41628458  *
    11       H          3.89709694  *  -0.83190271  *  -0.61681749  *
    12       H          4.02596711  *  -0.09905285  *   0.99087948  *
    13       H          1.77589845  *  -1.30044007  *   0.74291289  *
    14       H         -1.00286887  *   2.15059064  *  -0.60541470  *
    15       H         -3.40917720  *   1.69744896  *  -0.20521430  *
    16       H         -4.12347666  *  -0.44705898  *   0.82792191  *
    17       H          0.00509654  *  -1.69255012  *   1.06219202  *
    18       H          1.29635822  *   1.49938124  *  -0.49503954  *
    19       H         -2.42156597  *  -2.14647803  *   1.46374797  *



          CARTESIAN COORDINATES 

    NO.       ATOM           X           Y           Z

     1         C          3.4684     -0.0671      0.0450
     2         C         -0.3500      0.2522      0.2057
     3         C          2.0350     -0.3332      0.2812
     4         C          1.0628      0.5302     -0.0345
     5         C         -1.3126      1.2034     -0.1495
     6         C         -0.7612     -0.9517      0.7866
     7         C         -2.6601      0.9495      0.0746
     8         C         -3.0608     -0.2509      0.6530
     9         C         -2.1092     -1.2011      1.0086
    10         H          3.6526      0.9123     -0.4163
    11         H          3.8971     -0.8319     -0.6168
    12         H          4.0260     -0.0991      0.9909
    13         H          1.7759     -1.3004      0.7429
    14         H         -1.0029      2.1506     -0.6054
    15         H         -3.4092      1.6974     -0.2052
    16         H         -4.1235     -0.4471      0.8279
    17         H          0.0051     -1.6926      1.0622
    18         H          1.2964      1.4994     -0.4950
    19         H         -2.4216     -2.1465      1.4637

  H: (PM3): J. J. P. STEWART, J. COMP. CHEM. 10, 209 (1989).
  C: (PM3): J. J. P. STEWART, J. COMP. CHEM. 10, 209 (1989).

           Empirical Formula: C9 H10  =    19 atoms



      MOLECULAR POINT GROUP   :   C1  


      RHF CALCULATION, NO. OF DOUBLY OCCUPIED LEVELS = 23



          HEAT OF FORMATION =      28.577710 KCALS/MOLE


          CARTESIAN COORDINATE DERIVATIVES

   NUMBER  ATOM         X            Y            Z

     1       C     -0.006537    -0.012427     0.012572
     2       C     -0.000069     0.002051    -0.003311
     3       C      0.006688    -0.004794     0.000894
     4       C     -0.001842     0.003062    -0.002999
     5       C      0.004330    -0.001216    -0.000516
     6       C     -0.000630    -0.001289    -0.001331
     7       C      0.000240    -0.000825    -0.002562
     8       C      0.001918     0.003935    -0.002051
     9       C      0.002609     0.000524     0.000648
    10       H     -0.002988     0.022518    -0.002233
    11       H      0.003742    -0.004652     0.009125
    12       H      0.010262    -0.005204    -0.017901
    13       H     -0.000255    -0.003580     0.000743
    14       H     -0.000819    -0.000607     0.001113
    15       H     -0.007619    -0.002819     0.003625
    16       H     -0.003630     0.000387     0.003890
    17       H     -0.004289    -0.000121     0.005102
    18       H     -0.002777     0.001671    -0.000825
    19       H      0.001667     0.003387    -0.003980



          GRADIENT NORM =   0.04272

          MOLECULAR WEIGHT =  118.18



          ROTATIONAL CONSTANTS IN CM(-1)

          A =    0.16542915   B =    0.02986296   C =    0.02541714



           PRINCIPAL MOMENTS OF INERTIA IN UNITS OF 10**(-40)*GRAM-CM**2

          A =      169.2129   B =      937.3735   C =     1101.3339


          ORIENTATION OF MOLECULE IN FORCE CALCULATION

    NO.       ATOM         X         Y         Z

     1          C      -3.8130   -0.2639   -0.0002
     2          C       0.0222   -0.2639   -0.0002
     3          C      -2.3980    0.1595   -0.0002
     4          C      -1.3714   -0.6986   -0.0003
     5          C       1.0449   -1.2187    0.0007
     6          C       0.3557    1.0943   -0.0008
     7          C       2.3748   -0.8164    0.0011
     8          C       2.6981    0.5370    0.0004
     9          C       1.6863    1.4916   -0.0006
    10          H      -3.9341   -1.3554   -0.0003
    11          H      -4.3312    0.1280   -0.8859
    12          H      -4.3311    0.1278    0.8857
    13          H      -2.2012    1.2445   -0.0000
    14          H       0.7963   -2.2860    0.0013
    15          H       3.1711   -1.5678    0.0019
    16          H       3.7471    0.8498    0.0006
    17          H      -0.4574    1.8365   -0.0013
    18          H      -1.5426   -1.7833   -0.0005
    19          H       1.9377    2.5571   -0.0012


    FIRST DERIVATIVES WILL BE USED IN THE CALCULATION OF SECOND DERIVATIVES

          ESTIMATED TIME TO COMPLETE CALCULATION =        1.78 SECONDS

    FOR POINT-GROUP C1   THERE ARE   1 UNIQUE SYMMETRY FUNCTIONS.

 STEP:   1 TIME =     0.02 SECS, INTEGRAL =      0.02 TIME LEFT: 172799.98
 STEP:   2 TIME =     0.02 SECS, INTEGRAL =      0.03 TIME LEFT: 172799.96
 STEP:   3 TIME =     0.02 SECS, INTEGRAL =      0.05 TIME LEFT: 172799.95
 STEP:   4 TIME =     0.02 SECS, INTEGRAL =      0.07 TIME LEFT: 172799.93
 STEP:   5 TIME =     0.02 SECS, INTEGRAL =      0.09 TIME LEFT: 172799.91
 STEP:   6 TIME =     0.02 SECS, INTEGRAL =      0.11 TIME LEFT: 172799.89
 STEP:   7 TIME =     0.02 SECS, INTEGRAL =      0.12 TIME LEFT: 172799.87
 STEP:   8 TIME =     0.02 SECS, INTEGRAL =      0.14 TIME LEFT: 172799.85
 STEP:   9 TIME =     0.02 SECS, INTEGRAL =      0.16 TIME LEFT: 172799.83
 STEP:  10 TIME =     0.02 SECS, INTEGRAL =      0.18 TIME LEFT: 172799.81
 STEP:  11 TIME =     0.02 SECS, INTEGRAL =      0.20 TIME LEFT: 172799.79
 STEP:  12 TIME =     0.02 SECS, INTEGRAL =      0.22 TIME LEFT: 172799.77
 STEP:  13 TIME =     0.02 SECS, INTEGRAL =      0.24 TIME LEFT: 172799.75
 STEP:  14 TIME =     0.02 SECS, INTEGRAL =      0.26 TIME LEFT: 172799.73
 STEP:  15 TIME =     0.02 SECS, INTEGRAL =      0.28 TIME LEFT: 172799.71
 STEP:  16 TIME =     0.02 SECS, INTEGRAL =      0.30 TIME LEFT: 172799.69
 STEP:  17 TIME =     0.02 SECS, INTEGRAL =      0.32 TIME LEFT: 172799.67
 STEP:  18 TIME =     0.02 SECS, INTEGRAL =      0.34 TIME LEFT: 172799.65
 STEP:  19 TIME =     0.02 SECS, INTEGRAL =      0.36 TIME LEFT: 172799.63
 STEP:  20 TIME =     0.02 SECS, INTEGRAL =      0.38 TIME LEFT: 172799.61
 STEP:  21 TIME =     0.02 SECS, INTEGRAL =      0.40 TIME LEFT: 172799.59
 STEP:  22 TIME =     0.02 SECS, INTEGRAL =      0.41 TIME LEFT: 172799.58
 STEP:  23 TIME =     0.02 SECS, INTEGRAL =      0.43 TIME LEFT: 172799.56
 STEP:  24 TIME =     0.02 SECS, INTEGRAL =      0.45 TIME LEFT: 172799.54
 STEP:  25 TIME =     0.02 SECS, INTEGRAL =      0.47 TIME LEFT: 172799.52
 STEP:  26 TIME =     0.02 SECS, INTEGRAL =      0.49 TIME LEFT: 172799.50
 STEP:  27 TIME =     0.02 SECS, INTEGRAL =      0.51 TIME LEFT: 172799.48
 STEP:  28 TIME =     0.02 SECS, INTEGRAL =      0.53 TIME LEFT: 172799.46
 STEP:  29 TIME =     0.02 SECS, INTEGRAL =      0.55 TIME LEFT: 172799.45
 STEP:  30 TIME =     0.02 SECS, INTEGRAL =      0.57 TIME LEFT: 172799.43
 STEP:  31 TIME =     0.02 SECS, INTEGRAL =      0.59 TIME LEFT: 172799.41
 STEP:  32 TIME =     0.02 SECS, INTEGRAL =      0.60 TIME LEFT: 172799.39
 STEP:  33 TIME =     0.02 SECS, INTEGRAL =      0.62 TIME LEFT: 172799.38
 STEP:  34 TIME =     0.02 SECS, INTEGRAL =      0.64 TIME LEFT: 172799.36
 STEP:  35 TIME =     0.02 SECS, INTEGRAL =      0.66 TIME LEFT: 172799.34
 STEP:  36 TIME =     0.02 SECS, INTEGRAL =      0.67 TIME LEFT: 172799.32
 STEP:  37 TIME =     0.02 SECS, INTEGRAL =      0.69 TIME LEFT: 172799.30
 STEP:  38 TIME =     0.02 SECS, INTEGRAL =      0.70 TIME LEFT: 172799.29
 STEP:  39 TIME =     0.02 SECS, INTEGRAL =      0.72 TIME LEFT: 172799.27
 STEP:  40 TIME =     0.02 SECS, INTEGRAL =      0.74 TIME LEFT: 172799.25
 STEP:  41 TIME =     0.02 SECS, INTEGRAL =      0.75 TIME LEFT: 172799.24
 STEP:  42 TIME =     0.02 SECS, INTEGRAL =      0.77 TIME LEFT: 172799.22
 STEP:  43 TIME =     0.02 SECS, INTEGRAL =      0.79 TIME LEFT: 172799.20
 STEP:  44 TIME =     0.02 SECS, INTEGRAL =      0.80 TIME LEFT: 172799.19
 STEP:  45 TIME =     0.02 SECS, INTEGRAL =      0.82 TIME LEFT: 172799.17
 STEP:  46 TIME =     0.02 SECS, INTEGRAL =      0.84 TIME LEFT: 172799.15
 STEP:  47 TIME =     0.02 SECS, INTEGRAL =      0.86 TIME LEFT: 172799.14
 STEP:  48 TIME =     0.02 SECS, INTEGRAL =      0.87 TIME LEFT: 172799.12
 STEP:  49 TIME =     0.02 SECS, INTEGRAL =      0.89 TIME LEFT: 172799.11
 STEP:  50 TIME =     0.02 SECS, INTEGRAL =      0.90 TIME LEFT: 172799.09
 STEP:  51 TIME =     0.02 SECS, INTEGRAL =      0.92 TIME LEFT: 172799.07
 STEP:  52 TIME =     0.02 SECS, INTEGRAL =      0.94 TIME LEFT: 172799.05
 STEP:  53 TIME =     0.02 SECS, INTEGRAL =      0.96 TIME LEFT: 172799.03
 STEP:  54 TIME =     0.02 SECS, INTEGRAL =      0.98 TIME LEFT: 172799.01
 STEP:  55 TIME =     0.02 SECS, INTEGRAL =      1.00 TIME LEFT: 172799.00
 STEP:  56 TIME =     0.02 SECS, INTEGRAL =      1.01 TIME LEFT: 172798.98
 STEP:  57 TIME =     0.02 SECS, INTEGRAL =      1.03 TIME LEFT: 172798.96

(To convert to Hartree/Bohr^2, multiply by (10^(-21) x N x a0^2)/(4.184 x 627.51) =  0.0642)


           FORCE MATRIX IN MILLIDYNES/ANGSTROM


                  C  1       C  2       C  3       C  4       C  5       C  6
 ------------------------------------------------------------------------------
     C    1  14.737023
     C    2   0.149289  18.042358
     C    3   5.325921   1.045347  17.974559
     C    4   0.852331   5.319469  10.328264  18.419282
     C    5   0.013748   6.647091   0.084695   0.919669  17.278203
     C    6   0.011762   6.655105   0.123035   0.816083   2.363447  17.305678
     C    7   0.008272   2.422643   0.036882   0.125372   7.027927   1.808813
     C    8   0.001883   1.805926   0.015775   0.035025   2.541444   2.510807
     C    9   0.004055   2.435964   0.014136   0.103389   1.859097   7.050081
     H   10   4.727364   0.002558   0.481209   0.038688   0.000920   0.000882
     H   11   4.701546   0.020245   0.437649   0.036275   0.001671   0.001283
     H   12   4.701987   0.020246   0.437643   0.036276   0.001675   0.001285
     H   13   0.423229   0.088401   4.598851   0.472615   0.003231   0.101816
     H   14   0.002501   0.448426   0.002931   0.052973   4.824809   0.082589
     H   15   0.000633   0.092282   0.001548   0.008487   0.437703   0.010464
     H   16   0.000547   0.008440   0.000951   0.009762   0.088765   0.088611
     H   17   0.005933   0.452197   0.099593   0.050417   0.083473   4.656369
     H   18   0.082497   0.441996   0.467725   4.747957   0.047373   0.042399
     H   19   0.000596   0.092445   0.001078   0.008680   0.010637   0.438103


                  C  7       C  8       C  9       H 10       H 11       H 12
 ------------------------------------------------------------------------------
     C    7  17.261700
     C    8   6.957743  17.230023
     C    9   2.538047   7.004983  17.264240
     H   10   0.000088   0.000101   0.000576   5.449419
     H   11   0.001152   0.000371   0.000521   0.563406   5.419397
     H   12   0.001152   0.000371   0.000521   0.563361   0.575248   5.419791
     H   13   0.002902   0.000809   0.004987   0.040824   0.022354   0.022360
     H   14   0.437870   0.091088   0.010878   0.000292   0.000343   0.000343
     H   15   4.861010   0.439385   0.089289   0.000065   0.000134   0.000134
     H   16   0.439780   4.867544   0.439172   0.000074   0.000162   0.000161
     H   17   0.010677   0.090133   0.436909   0.001090   0.000705   0.000704
     H   18   0.002092   0.001711   0.008571   0.029293   0.009298   0.009298
     H   19   0.089603   0.439614   4.863806   0.000071   0.000159   0.000159


                  H 13       H 14       H 15       H 16       H 17       H 18
 ------------------------------------------------------------------------------
     H   13   5.010993
     H   14   0.001484   5.200156
     H   15   0.000303   0.042728   5.225881
     H   16   0.000437   0.007060   0.041328   5.234544
     H   17   0.074556   0.006927   0.007892   0.006850   5.065717
     H   18   0.105271   0.029453   0.000650   0.000390   0.002123   5.121625
     H   19   0.000595   0.008098   0.007106   0.041363   0.041136   0.001382


                  H 19
 ------------------
     H   19   5.229297


          HEAT OF FORMATION =      28.577710 KCALS/MOLE

          ZERO POINT ENERGY     100.480 KCAL/MOL


           NORMAL COORDINATE ANALYSIS (Total motion = 1 Angstrom)


   Root No.       1         2         3         4         5         6         7         8

                 1 A       2 A       3 A       4 A       5 A       6 A       7 A       8 A   

                  69.2     113.2     143.3     189.4     255.7     359.8     387.5     431.9
  
           1   -0.0000    0.0000    0.0000    0.0026   -0.0000   -0.0000    0.0780   -0.0332
           2   -0.0000    0.0000    0.0000    0.0670   -0.0001    0.0000   -0.0207   -0.0141
           3   -0.0295    0.0368   -0.0324   -0.0000   -0.0303    0.0005   -0.0000    0.0000
           4   -0.0000    0.0000   -0.0000    0.0033    0.0000   -0.0000    0.0053    0.0045
           5    0.0000   -0.0000   -0.0000   -0.0392    0.0000    0.0000   -0.0169   -0.0420
           6    0.0330   -0.0290    0.0113    0.0000   -0.0075    0.0031    0.0000    0.0001
           7   -0.0000    0.0000    0.0000    0.0235   -0.0000   -0.0000    0.0448   -0.0412
           8    0.0000   -0.0000   -0.0000   -0.0108    0.0000   -0.0000    0.0672    0.0493
           9   -0.0325   -0.0128    0.0606    0.0000    0.0463   -0.0051   -0.0000   -0.0000
          10   -0.0000    0.0000    0.0000    0.0010   -0.0000   -0.0000    0.0094   -0.0326
          11    0.0000   -0.0000   -0.0000   -0.0391    0.0001   -0.0000    0.0273    0.0488
          12    0.0520   -0.0155   -0.0185    0.0001    0.0684    0.0020   -0.0000   -0.0001
          13    0.0000    0.0000    0.0000    0.0248    0.0000    0.0000   -0.0113    0.0388
          14   -0.0000   -0.0000    0.0000   -0.0152   -0.0000   -0.0000   -0.0296   -0.0150
          15   -0.0016   -0.0248    0.0153   -0.0000   -0.0457   -0.0656   -0.0000    0.0000
          16   -0.0000    0.0000   -0.0000   -0.0229    0.0000   -0.0000   -0.0298    0.0099
          17    0.0000   -0.0000   -0.0000   -0.0316   -0.0000    0.0000   -0.0100   -0.0462
          18    0.0396   -0.0196    0.0100   -0.0000   -0.0461    0.0671    0.0000    0.0000
          19    0.0000   -0.0000    0.0000    0.0161   -0.0000   -0.0000   -0.0190    0.0375
          20   -0.0000    0.0000    0.0000    0.0191   -0.0000    0.0000   -0.0092    0.0152
          21   -0.0347    0.0075   -0.0006   -0.0000   -0.0105    0.0635    0.0000   -0.0000
          22    0.0000   -0.0000    0.0000   -0.0134   -0.0000    0.0000   -0.0451    0.0272
          23   -0.0000    0.0000   -0.0000    0.0259    0.0000    0.0000   -0.0026    0.0186
          24   -0.0281    0.0324   -0.0214    0.0000    0.0457    0.0002   -0.0000    0.0000
          25   -0.0000   -0.0000   -0.0000   -0.0352    0.0000    0.0000   -0.0408   -0.0005
          26    0.0000    0.0000   -0.0000    0.0024   -0.0000   -0.0000    0.0022   -0.0133
          27    0.0112    0.0132   -0.0108    0.0000   -0.0117   -0.0648   -0.0000   -0.0000
          28   -0.0000   -0.0000   -0.0000   -0.0595    0.0001   -0.0001    0.1637    0.0225
          29   -0.0000   -0.0000    0.0000    0.0744   -0.0001    0.0000   -0.0319   -0.0212
          30    0.0660    0.2339    0.0559   -0.0002   -0.0761    0.0029    0.0000    0.0001
          31    0.0228    0.0193    0.0931    0.0257    0.0516   -0.0044    0.0484   -0.0573
          32   -0.0802   -0.1621   -0.0826    0.0984    0.0302   -0.0013   -0.0654   -0.0452
          33   -0.0783   -0.0464   -0.1241    0.0001   -0.0477    0.0026   -0.0014    0.0004
          34   -0.0228   -0.0193   -0.0931    0.0257   -0.0517    0.0043    0.0484   -0.0572
          35    0.0801    0.1622    0.0827    0.0982   -0.0304    0.0014   -0.0654   -0.0451
          36   -0.0783   -0.0464   -0.1241   -0.0001   -0.0477    0.0026    0.0014   -0.0004
          37   -0.0000    0.0000    0.0000    0.0562   -0.0001   -0.0000    0.0215   -0.0686
          38    0.0000    0.0000   -0.0000   -0.0154    0.0000   -0.0000    0.0691    0.0526
          39   -0.1076   -0.0454    0.1724   -0.0000    0.0324   -0.0061   -0.0000    0.0001
          40    0.0000    0.0000    0.0000    0.0505   -0.0000    0.0001   -0.0147    0.0718
          41   -0.0000   -0.0000    0.0000   -0.0209   -0.0000   -0.0001   -0.0284   -0.0221
          42   -0.0055   -0.0412    0.0263   -0.0001   -0.0830   -0.1819   -0.0000    0.0000
          43    0.0000   -0.0000    0.0000    0.0343   -0.0000   -0.0001   -0.0037    0.0510
          44   -0.0000    0.0000    0.0000    0.0384   -0.0000    0.0001    0.0074    0.0288
          45   -0.0660    0.0160   -0.0001   -0.0000   -0.0162    0.1726    0.0001   -0.0001
          46    0.0000   -0.0000    0.0000   -0.0208   -0.0000    0.0000   -0.0479    0.0201
          47   -0.0000    0.0000   -0.0000    0.0504    0.0000    0.0000    0.0066    0.0423
          48   -0.0536    0.0651   -0.0437    0.0001    0.1192   -0.0001   -0.0001    0.0001
          49   -0.0000    0.0000   -0.0000   -0.0323    0.0000   -0.0000   -0.0366    0.0017
          50    0.0000   -0.0000   -0.0000   -0.0414   -0.0000    0.0001   -0.0171   -0.0542
          51    0.0607   -0.0317    0.0229   -0.0001   -0.0782    0.1700    0.0001   -0.0000
          52   -0.0000   -0.0000    0.0000   -0.0133   -0.0000    0.0000   -0.0321   -0.0693
          53   -0.0000   -0.0000    0.0000   -0.0358    0.0000   -0.0000    0.0335    0.0540
          54    0.1318    0.0090   -0.1260    0.0001    0.1116    0.0047   -0.0000   -0.0002
          55   -0.0000   -0.0000   -0.0000   -0.0624    0.0001    0.0001   -0.0441   -0.0371
          56    0.0000    0.0000   -0.0000    0.0088   -0.0000   -0.0001    0.0026   -0.0047
          57    0.0179    0.0265   -0.0203    0.0000   -0.0182   -0.1793   -0.0001   -0.0001


   Root No.       9        10        11        12        13        14        15        16

                 9 A      10 A      11 A      12 A      13 A      14 A      15 A      16 A   

                 476.6     627.2     636.5     646.8     764.9     849.5     865.5     889.4
  
           1    0.0000   -0.0211    0.0348    0.0001    0.0000    0.0000   -0.0000   -0.0056
           2    0.0000    0.0035   -0.0009   -0.0000    0.0000    0.0000    0.0000    0.0107
           3    0.0055    0.0000   -0.0000   -0.0002   -0.0037   -0.0021   -0.0207   -0.0000
           4   -0.0000    0.0323   -0.0589   -0.0001   -0.0000   -0.0000    0.0000   -0.0141
           5    0.0001    0.0293    0.0074    0.0000    0.0000   -0.0000   -0.0000   -0.0040
           6    0.0710    0.0001   -0.0001    0.0647    0.0300   -0.0036   -0.0122   -0.0000
           7    0.0000   -0.0105    0.0150    0.0000    0.0000    0.0000   -0.0000   -0.0009
           8   -0.0000   -0.0083    0.0219    0.0000   -0.0000    0.0000    0.0000    0.0180
           9   -0.0191   -0.0000    0.0000   -0.0081   -0.0108   -0.0041   -0.0203   -0.0000
          10    0.0000    0.0304   -0.0412   -0.0001   -0.0000   -0.0000    0.0000   -0.0440
          11   -0.0000    0.0353   -0.0425   -0.0001   -0.0000   -0.0000   -0.0000   -0.0478
          12   -0.0222   -0.0000   -0.0000    0.0002    0.0100    0.0014    0.0358   -0.0000
          13   -0.0000    0.0486   -0.0023   -0.0000    0.0000   -0.0000    0.0000    0.0206
          14    0.0000    0.0260    0.0773    0.0001    0.0000    0.0000   -0.0000    0.0161
          15    0.0106   -0.0000    0.0000   -0.0236   -0.0142    0.0305   -0.0124   -0.0000
          16   -0.0000   -0.0647   -0.0312    0.0000    0.0000    0.0000   -0.0000    0.0238
          17    0.0000    0.0453   -0.0034   -0.0000   -0.0000   -0.0000   -0.0000    0.0105
          18    0.0076   -0.0001    0.0001   -0.0282   -0.0128   -0.0253   -0.0110    0.0000
          19   -0.0000    0.0740    0.0226   -0.0000    0.0000   -0.0000   -0.0000    0.0401
          20   -0.0000   -0.0588    0.0139    0.0001   -0.0000    0.0000    0.0000   -0.0366
          21   -0.0410    0.0001   -0.0001    0.0295   -0.0154    0.0289    0.0040    0.0000
          22   -0.0000   -0.0327    0.0576    0.0001    0.0000   -0.0000    0.0000   -0.0467
          23    0.0000   -0.0374   -0.0031    0.0000   -0.0000   -0.0000    0.0000   -0.0153
          24    0.0489   -0.0000    0.0001   -0.0229   -0.0245   -0.0013    0.0151   -0.0000
          25    0.0000   -0.0474   -0.0074    0.0000    0.0000    0.0000   -0.0000    0.0167
          26   -0.0000   -0.0421   -0.0680   -0.0000   -0.0000   -0.0000    0.0000    0.0574
          27   -0.0396    0.0001   -0.0000    0.0300   -0.0151   -0.0307    0.0074   -0.0000
          28   -0.0000   -0.0468    0.0813    0.0001    0.0000    0.0000   -0.0000    0.1053
          29    0.0000    0.0074   -0.0075   -0.0000   -0.0000   -0.0000   -0.0000   -0.0049
          30    0.0266    0.0000   -0.0000    0.0131    0.0169    0.0057    0.0506    0.0000
          31   -0.0286   -0.0140    0.0218   -0.0201   -0.0337   -0.0131   -0.1214   -0.0533
          32   -0.0125    0.0174   -0.0252   -0.0073   -0.0109   -0.0041   -0.0369   -0.0560
          33    0.0173    0.0013   -0.0020    0.0090    0.0121    0.0041    0.0370   -0.0005
          34    0.0287   -0.0140    0.0217    0.0202    0.0338    0.0131    0.1214   -0.0532
          35    0.0126    0.0175   -0.0252    0.0072    0.0109    0.0041    0.0370   -0.0559
          36    0.0173   -0.0012    0.0020    0.0090    0.0121    0.0041    0.0370    0.0005
          37    0.0000   -0.0466    0.0461    0.0001    0.0000    0.0000    0.0000    0.0626
          38   -0.0000   -0.0008    0.0153    0.0000   -0.0000   -0.0000   -0.0000    0.0053
          39    0.0218    0.0000   -0.0000    0.0178    0.0412    0.0359    0.1681    0.0001
          40   -0.0000    0.0021    0.0084    0.0001   -0.0000    0.0001   -0.0000    0.0093
          41   -0.0000    0.0366    0.0748   -0.0001    0.0000   -0.0001    0.0000    0.0191
          42   -0.0355   -0.0003    0.0003   -0.2089    0.0599   -0.1940    0.0720    0.0000
          43    0.0000    0.0823   -0.0253   -0.0001   -0.0001    0.0001   -0.0000    0.0688
          44   -0.0001   -0.0497   -0.0366    0.0000    0.0001   -0.0001   -0.0000   -0.0082
          45   -0.1522    0.0002   -0.0001    0.0391    0.1845   -0.1943   -0.0273    0.0001
          46   -0.0001   -0.0547    0.0468    0.0002   -0.0001   -0.0000    0.0001   -0.0446
          47    0.0001    0.0372    0.0320   -0.0001    0.0001    0.0000   -0.0001   -0.0225
          48    0.1366   -0.0003    0.0003   -0.1541    0.1851    0.0109   -0.0948    0.0000
          49   -0.0000   -0.0685    0.0134    0.0001   -0.0000   -0.0000   -0.0000    0.0279
          50    0.0000    0.0407    0.0447   -0.0001    0.0000    0.0001    0.0000    0.0146
          51   -0.0416   -0.0003    0.0003   -0.2007    0.0512    0.1887    0.0553   -0.0001
          52    0.0001    0.0540   -0.0595   -0.0001    0.0000   -0.0000    0.0000   -0.0796
          53   -0.0000    0.0320   -0.0390   -0.0001    0.0000   -0.0000    0.0000   -0.0430
          54   -0.1018   -0.0001    0.0001   -0.0656   -0.0699    0.0165   -0.0809   -0.0000
          55    0.0001   -0.0001   -0.0220   -0.0000   -0.0001   -0.0000    0.0000    0.0778
          56   -0.0001   -0.0532   -0.0642   -0.0000    0.0001    0.0001   -0.0000    0.0448
          57   -0.1468    0.0001   -0.0001    0.0467    0.1798    0.1975   -0.0477   -0.0001


   Root No.      17        18        19        20        21        22        23        24

                17 A      18 A      19 A      20 A      21 A      22 A      23 A      24 A   

                 921.9     951.5     979.7     981.3    1013.7    1034.0    1051.8    1109.2
  
           1   -0.0000   -0.0000    0.0000   -0.0292   -0.0000   -0.0000    0.0034   -0.0025
           2   -0.0000   -0.0000   -0.0000    0.0348    0.0000    0.0000   -0.0108   -0.0049
           3   -0.0076   -0.0131    0.0039    0.0000   -0.0178   -0.0340    0.0000    0.0000
           4    0.0000    0.0000   -0.0000    0.0154    0.0000   -0.0000    0.0033    0.0027
           5   -0.0000   -0.0000   -0.0000    0.0054   -0.0000    0.0000   -0.0023    0.0097
           6   -0.0037   -0.0355    0.0013   -0.0000   -0.0152    0.0208    0.0000   -0.0000
           7   -0.0000    0.0000   -0.0000    0.0080    0.0000    0.0000   -0.0016    0.0020
           8   -0.0000    0.0000    0.0000   -0.0027   -0.0000   -0.0000    0.0092    0.0010
           9   -0.0113    0.0083   -0.0022   -0.0000    0.0224    0.0531   -0.0000   -0.0000
          10    0.0000    0.0000   -0.0000    0.0182    0.0000   -0.0000   -0.0193   -0.0057
          11    0.0000    0.0000    0.0000   -0.0104    0.0000    0.0000   -0.0145   -0.0055
          12   -0.0284    0.0285    0.0026    0.0000   -0.0041   -0.0317   -0.0000    0.0000
          13   -0.0000   -0.0000   -0.0000   -0.0031   -0.0000    0.0000    0.0036   -0.0161
          14    0.0000    0.0000    0.0000   -0.0195    0.0000   -0.0000   -0.0429   -0.0274
          15    0.0160    0.0285    0.0393    0.0000    0.0237   -0.0143    0.0000    0.0000
          16   -0.0000   -0.0000    0.0000   -0.0132   -0.0000    0.0000   -0.0249    0.0136
          17    0.0000    0.0000   -0.0000    0.0130    0.0000   -0.0000    0.0461    0.0062
          18    0.0121    0.0239   -0.0420   -0.0000    0.0266   -0.0186   -0.0000   -0.0000
          19   -0.0000   -0.0000    0.0000   -0.0147    0.0000   -0.0000   -0.0064    0.0114
          20    0.0000    0.0000   -0.0000    0.0128   -0.0000    0.0000    0.0195   -0.0146
          21   -0.0068    0.0052   -0.0431   -0.0000   -0.0351    0.0121   -0.0000    0.0000
          22    0.0000    0.0000   -0.0000    0.0149   -0.0000    0.0000    0.0092    0.0106
          23   -0.0000   -0.0000    0.0000    0.0049    0.0000   -0.0000    0.0002    0.0119
          24   -0.0157   -0.0327    0.0071    0.0000    0.0393   -0.0117    0.0000   -0.0000
          25   -0.0000   -0.0000   -0.0000   -0.0045    0.0000   -0.0000    0.0054    0.0032
          26   -0.0000    0.0000    0.0000   -0.0187   -0.0000    0.0000   -0.0146   -0.0107
          27    0.0064    0.0117    0.0355    0.0000   -0.0371    0.0147    0.0000    0.0000
          28   -0.0000   -0.0000   -0.0002    0.1989    0.0000    0.0000   -0.0518   -0.0204
          29   -0.0000   -0.0000   -0.0000    0.0041   -0.0000   -0.0000   -0.0041   -0.0033
          30    0.0177    0.0200   -0.0061   -0.0000    0.0226    0.0403   -0.0000   -0.0000
          31   -0.0426   -0.0590    0.0177   -0.1373   -0.0733   -0.1360    0.0251    0.0002
          32   -0.0133   -0.0167    0.0052   -0.1025   -0.0204   -0.0376    0.0175    0.0002
          33    0.0125    0.0153   -0.0045    0.0031    0.0175    0.0316   -0.0003    0.0007
          34    0.0426    0.0590   -0.0175   -0.1374    0.0733    0.1360    0.0251    0.0002
          35    0.0134    0.0167   -0.0050   -0.1025    0.0204    0.0376    0.0174    0.0002
          36    0.0125    0.0153   -0.0045   -0.0032    0.0175    0.0316    0.0003   -0.0007
          37    0.0000   -0.0000   -0.0001    0.0740    0.0000    0.0000   -0.0015    0.0470
          38   -0.0000    0.0000    0.0000   -0.0154    0.0000    0.0000    0.0090   -0.0073
          39    0.2251   -0.0516   -0.0191    0.0000   -0.0531   -0.1437    0.0000    0.0000
          40    0.0000    0.0000    0.0001    0.0112    0.0000    0.0000    0.1026   -0.2125
          41   -0.0001   -0.0001   -0.0001   -0.0236   -0.0000    0.0000   -0.0668    0.0158
          42   -0.0734   -0.1219   -0.1679   -0.0001   -0.0716    0.0451    0.0001   -0.0001
          43   -0.0000    0.0000   -0.0001   -0.0106   -0.0001    0.0000    0.0928    0.0737
          44    0.0000   -0.0000    0.0001    0.0178    0.0001   -0.0000    0.1243    0.0518
          45    0.0340   -0.0323    0.1848    0.0001    0.1185   -0.0349   -0.0000    0.0000
          46   -0.0000   -0.0001    0.0000    0.0154    0.0001   -0.0000    0.0162   -0.0652
          47    0.0001    0.0001   -0.0000    0.0046   -0.0001    0.0000   -0.0172    0.2703
          48    0.0846    0.1602   -0.0291   -0.0000   -0.1334    0.0340    0.0000   -0.0002
          49   -0.0000    0.0000   -0.0000   -0.0014    0.0000    0.0000    0.0232    0.0745
          50   -0.0001   -0.0001    0.0001    0.0264   -0.0000    0.0001    0.1002    0.0714
          51   -0.0732   -0.1085    0.1977    0.0001   -0.0871    0.0740   -0.0000   -0.0000
          52   -0.0000   -0.0000   -0.0001    0.0870   -0.0000    0.0000   -0.0915   -0.0542
          53   -0.0000    0.0000    0.0000   -0.0221    0.0000   -0.0000   -0.0030    0.0017
          54    0.2576   -0.1300   -0.0236   -0.0000    0.0098    0.0818   -0.0000   -0.0000
          55    0.0000    0.0000    0.0001   -0.0021   -0.0000    0.0000    0.1843   -0.0729
          56   -0.0000   -0.0000   -0.0001   -0.0198    0.0001   -0.0000   -0.0564    0.0083
          57   -0.0335   -0.0616   -0.1570   -0.0001    0.1266   -0.0461    0.0001   -0.0000


   Root No.      25        26        27        28        29        30        31        32

                25 A      26 A      27 A      28 A      29 A      30 A      31 A      32 A   

                1124.3    1153.5    1164.8    1183.0    1236.3    1243.5    1277.1    1352.7
  
           1    0.0049   -0.0027    0.0083    0.0265   -0.0030   -0.0105   -0.0049    0.0056
           2    0.0031   -0.0007    0.0135    0.0177   -0.0133   -0.0146   -0.0083    0.0005
           3    0.0000   -0.0000    0.0000    0.0000   -0.0000   -0.0000    0.0000   -0.0000
           4   -0.0222    0.0045    0.0048   -0.0125   -0.0058   -0.0044    0.0041   -0.0213
           5    0.0040   -0.0138   -0.0052    0.0089   -0.0068    0.0100    0.0039    0.0866
           6   -0.0000    0.0000    0.0000   -0.0000   -0.0000   -0.0000   -0.0000   -0.0001
           7   -0.0085    0.0033   -0.0051   -0.0366   -0.0099    0.0271   -0.0158    0.0040
           8   -0.0077    0.0017   -0.0120   -0.0186    0.0177    0.0377   -0.0121   -0.0036
           9   -0.0000    0.0000    0.0000   -0.0000    0.0000    0.0000   -0.0000   -0.0000
          10    0.0057    0.0039    0.0045   -0.0250   -0.0183   -0.0038   -0.0073    0.0023
          11    0.0182    0.0006    0.0006    0.0014    0.0035   -0.0237    0.0246   -0.0005
          12    0.0000   -0.0000   -0.0000    0.0000   -0.0000   -0.0000    0.0000    0.0000
          13   -0.0044   -0.0020   -0.0038   -0.0039    0.0126   -0.0126   -0.0158    0.0856
          14    0.0243    0.0028    0.0105   -0.0245   -0.0156   -0.0010    0.0049   -0.0140
          15   -0.0000   -0.0000   -0.0000    0.0000    0.0000   -0.0000   -0.0000    0.0000
          16    0.0253    0.0051   -0.0052   -0.0072   -0.0180    0.0005    0.0031   -0.0604
          17   -0.0311    0.0022   -0.0138    0.0159   -0.0080    0.0086    0.0101   -0.0578
          18    0.0000    0.0000    0.0000   -0.0000    0.0000   -0.0000   -0.0000    0.0000
          19   -0.0101   -0.0031    0.0017    0.0080    0.0111   -0.0033    0.0013   -0.0666
          20    0.0077    0.0046    0.0099   -0.0178   -0.0017   -0.0105   -0.0016   -0.0654
          21   -0.0000   -0.0000   -0.0000    0.0000    0.0000    0.0000    0.0000    0.0000
          22   -0.0387   -0.0043    0.0024    0.0186    0.0063    0.0119    0.0117   -0.0265
          23   -0.0103    0.0019    0.0037    0.0029    0.0205   -0.0089   -0.0147    0.0825
          24   -0.0000   -0.0000   -0.0000    0.0000   -0.0000    0.0000    0.0000   -0.0001
          25    0.0022   -0.0039    0.0018    0.0103   -0.0052    0.0099   -0.0016    0.0897
          26   -0.0245    0.0045   -0.0009    0.0121    0.0102    0.0039    0.0031   -0.0242
          27    0.0000   -0.0000    0.0000   -0.0000   -0.0000   -0.0000   -0.0000    0.0000
          28    0.0277   -0.0092    0.0634    0.1322   -0.0336   -0.1261    0.0230   -0.0264
          29    0.0017   -0.0002    0.0076    0.0093   -0.0082   -0.0033   -0.0111    0.0015
          30   -0.0000    0.0000    0.0000   -0.0000   -0.0000    0.0000   -0.0000    0.0000
          31    0.0148   -0.0073    0.0019    0.0697    0.0285   -0.0515    0.0443   -0.0203
          32    0.0067   -0.0019   -0.0060    0.0192    0.0203   -0.0036    0.0068   -0.0136
          33   -0.0032    0.0017   -0.0042   -0.0199   -0.0023    0.0232   -0.0171    0.0071
          34    0.0148   -0.0073    0.0019    0.0697    0.0285   -0.0515    0.0443   -0.0203
          35    0.0067   -0.0019   -0.0060    0.0192    0.0203   -0.0036    0.0068   -0.0136
          36    0.0032   -0.0017    0.0042    0.0199    0.0023   -0.0232    0.0171   -0.0071
          37    0.0302   -0.0077   -0.1049   -0.1041    0.1366   -0.0369    0.3149    0.0581
          38   -0.0141    0.0037    0.0055   -0.0065   -0.0068    0.0514   -0.0721   -0.0133
          39    0.0000   -0.0000   -0.0000    0.0000   -0.0000   -0.0000   -0.0001   -0.0000
          40    0.0971    0.1212   -0.1926    0.0675   -0.1187    0.0541    0.0627    0.0498
          41    0.0031   -0.0264    0.0549   -0.0435    0.0122   -0.0169   -0.0125   -0.0043
          42    0.0000    0.0001   -0.0001    0.0000   -0.0001    0.0000    0.0000    0.0000
          43    0.1056   -0.2044    0.0552    0.0151   -0.0395    0.0526    0.0363   -0.0133
          44    0.1330   -0.2073    0.0685   -0.0136   -0.0568    0.0478    0.0348   -0.0079
          45   -0.0000    0.0000   -0.0000    0.0000    0.0000   -0.0000   -0.0000    0.0000
          46   -0.0658   -0.0790    0.0052    0.0037    0.0326   -0.0082   -0.0013   -0.0130
          47    0.0720    0.2500   -0.0007    0.0594   -0.0628    0.0624    0.0325    0.0356
          48   -0.0001   -0.0002    0.0000   -0.0000    0.0001   -0.0000   -0.0000    0.0000
          49    0.0902   -0.0134   -0.1323   -0.0511    0.0332   -0.1181   -0.1428   -0.0550
          50    0.0344   -0.0194   -0.1526   -0.0284    0.0484   -0.1181   -0.1463   -0.0502
          51   -0.0000    0.0000    0.0001   -0.0000   -0.0000    0.0000    0.0001   -0.0000
          52    0.1561   -0.0067   -0.0205    0.1150    0.2024    0.1407   -0.0721   -0.1214
          53   -0.0049    0.0024    0.0035   -0.0218   -0.0316   -0.0476    0.0379    0.0225
          54    0.0000   -0.0000    0.0000    0.0000    0.0000   -0.0000   -0.0000   -0.0000
          55    0.0756    0.2040    0.2107   -0.0602    0.0897   -0.0312   -0.0094    0.0146
          56   -0.0439   -0.0433   -0.0510    0.0305   -0.0110    0.0139    0.0047   -0.0071
          57    0.0000    0.0001    0.0001   -0.0000    0.0000   -0.0000   -0.0000    0.0000


   Root No.      33        34        35        36        37        38        39        40

                33 A      34 A      35 A      36 A      37 A      38 A      39 A      40 A   

                1377.9    1394.9    1395.0    1429.9    1543.3    1612.8    1777.3    1797.9
  
           1   -0.0392   -0.0021    0.0102    0.0666   -0.0088    0.0161    0.0042   -0.0041
           2    0.0014    0.0056   -0.0276    0.0254   -0.0027    0.0019    0.0011   -0.0001
           3   -0.0000   -0.0402   -0.0052    0.0000   -0.0000   -0.0000    0.0000    0.0000
           4    0.0412   -0.0057    0.0280    0.0215   -0.0208    0.1064    0.0399   -0.0833
           5    0.0121   -0.0016    0.0078    0.0076    0.0742    0.0327   -0.1346   -0.0300
           6    0.0000   -0.0001   -0.0000   -0.0000   -0.0000    0.0000    0.0001   -0.0000
           7   -0.0035    0.0031   -0.0153   -0.0328    0.0142   -0.0330   -0.0150    0.0130
           8    0.0245   -0.0015    0.0071   -0.0139    0.0004    0.0125    0.0035   -0.0067
           9    0.0000   -0.0006   -0.0001   -0.0000   -0.0000    0.0000    0.0000   -0.0000
          10   -0.0177    0.0038   -0.0189   -0.0343   -0.0012   -0.0270    0.0071    0.0083
          11   -0.0286    0.0028   -0.0137    0.0030   -0.0092   -0.0273    0.0034    0.0121
          12   -0.0000   -0.0003   -0.0000   -0.0000    0.0000   -0.0000   -0.0000    0.0000
          13    0.0247   -0.0037    0.0183    0.0173   -0.0455   -0.0302   -0.0654    0.1276
          14    0.0041   -0.0001    0.0005   -0.0068   -0.0416    0.0394    0.0584   -0.0030
          15    0.0000   -0.0000    0.0000    0.0000    0.0000   -0.0000   -0.0001    0.0001
          16    0.0190   -0.0030    0.0150    0.0192    0.0618   -0.0002    0.0159    0.1076
          17    0.0114   -0.0022    0.0107    0.0141   -0.0083   -0.0490    0.0811    0.0789
          18   -0.0000    0.0000   -0.0000   -0.0000    0.0000    0.0000   -0.0000   -0.0000
          19   -0.0184    0.0021   -0.0102   -0.0006    0.0628   -0.0415   -0.0081   -0.0986
          20    0.0251   -0.0041    0.0201    0.0244   -0.0044   -0.0604   -0.0791   -0.0686
          21   -0.0000    0.0000   -0.0000   -0.0000    0.0000    0.0000    0.0000    0.0000
          22   -0.0248    0.0037   -0.0182   -0.0193   -0.0218    0.0479   -0.0427    0.0451
          23   -0.0085    0.0014   -0.0067   -0.0059    0.0680    0.0168    0.1355    0.0179
          24   -0.0000    0.0000   -0.0000   -0.0000   -0.0001    0.0000   -0.0001    0.0000
          25    0.0064   -0.0008    0.0038    0.0003   -0.0480   -0.0690    0.0593   -0.1180
          26   -0.0296    0.0044   -0.0214   -0.0220   -0.0405    0.0255   -0.0623   -0.0011
          27    0.0000    0.0000    0.0000    0.0000    0.0000   -0.0000    0.0001   -0.0000
          28    0.0362   -0.0253    0.1238   -0.1882    0.0132   -0.0170   -0.0041    0.0037
          29   -0.0081    0.0044   -0.0220    0.0359   -0.0040    0.0042    0.0019   -0.0008
          30    0.0000    0.3960    0.0507   -0.0001    0.0000    0.0000    0.0000   -0.0000
          31    0.1505    0.0822   -0.0633   -0.0830    0.0049    0.0001    0.0003   -0.0016
          32   -0.0433    0.1900    0.2071   -0.1185    0.0069   -0.0031   -0.0012   -0.0004
          33   -0.1135    0.0218    0.1354    0.0116   -0.0025    0.0054    0.0005   -0.0014
          34    0.1505   -0.0530   -0.0806   -0.0829    0.0050    0.0001    0.0003   -0.0016
          35   -0.0434   -0.2626    0.1492   -0.1184    0.0069   -0.0031   -0.0012   -0.0004
          36    0.1135    0.0743   -0.1231   -0.0116    0.0025   -0.0054   -0.0005    0.0014
          37   -0.0178   -0.0025    0.0123    0.0276   -0.0163   -0.0016    0.0083   -0.0066
          38    0.0293   -0.0004    0.0021   -0.0262    0.0059    0.0083   -0.0008   -0.0047
          39    0.0000   -0.0022   -0.0003   -0.0000    0.0000    0.0000   -0.0000   -0.0000
          40   -0.0346    0.0055   -0.0272   -0.0323    0.0532    0.0917    0.0381   -0.0497
          41    0.0201   -0.0025    0.0124    0.0051   -0.0727    0.0193    0.0407    0.0423
          42   -0.0000    0.0001   -0.0000   -0.0000    0.0001    0.0000   -0.0000   -0.0000
          43   -0.0514    0.0080   -0.0393   -0.0437   -0.0023    0.0662    0.0588    0.0085
          44   -0.0032    0.0012   -0.0060   -0.0174   -0.0866    0.0505   -0.0213    0.0515
          45   -0.0000   -0.0000   -0.0000   -0.0000    0.0001   -0.0000    0.0000   -0.0000
          46   -0.0320    0.0046   -0.0226   -0.0202    0.0333    0.0582    0.0144    0.0553
          47   -0.0001    0.0007   -0.0036   -0.0154   -0.1178    0.0147   -0.0575    0.0143
          48   -0.0000    0.0000   -0.0000    0.0000    0.0001    0.0000    0.0000    0.0000
          49   -0.0220    0.0039   -0.0191   -0.0200   -0.0046    0.0969   -0.0574   -0.0204
          50   -0.0359    0.0057   -0.0282   -0.0302   -0.0925    0.0444    0.0101   -0.0674
          51    0.0000    0.0000    0.0000    0.0000    0.0000   -0.0000   -0.0000    0.0000
          52    0.0214   -0.0006    0.0031    0.0262   -0.0434   -0.0151    0.0396    0.0078
          53   -0.0375    0.0039   -0.0191   -0.0061   -0.0021   -0.0330   -0.0058    0.0139
          54    0.0000    0.0012    0.0001    0.0000   -0.0000    0.0000    0.0000   -0.0000
          55   -0.0544    0.0080   -0.0391   -0.0350    0.0451    0.0838   -0.0407    0.0328
          56   -0.0195    0.0029   -0.0145   -0.0173   -0.0720   -0.0086   -0.0477   -0.0420
          57   -0.0000    0.0000   -0.0000   -0.0000    0.0001    0.0000    0.0000    0.0000


   Root No.      41        42        43        44        45        46        47        48

                41 A      42 A      43 A      44 A      45 A      46 A      47 A      48 A   

                1875.6    2983.4    3015.1    3030.1    3051.8    3059.3    3067.0    3068.5
  
           1    0.0380   -0.0006   -0.0005    0.0007   -0.0000   -0.0001    0.0001   -0.0001
           2    0.0042    0.0028    0.0020   -0.0020    0.0001    0.0002   -0.0003    0.0004
           3   -0.0000   -0.0000   -0.0000    0.0000   -0.0000   -0.0000    0.0000   -0.0577
           4   -0.0514    0.0006   -0.0004    0.0007   -0.0010   -0.0009   -0.0006   -0.0000
           5    0.0025    0.0005   -0.0017   -0.0002    0.0009    0.0001    0.0008    0.0000
           6   -0.0000   -0.0000    0.0000    0.0000   -0.0000   -0.0000   -0.0000   -0.0001
           7   -0.2046   -0.0056   -0.0026   -0.0046    0.0001   -0.0000    0.0001   -0.0000
           8    0.1105   -0.0474   -0.0220    0.0037   -0.0001   -0.0005    0.0005    0.0000
           9    0.0000   -0.0000   -0.0000    0.0000   -0.0000   -0.0000    0.0000   -0.0001
          10    0.2084   -0.0029   -0.0016   -0.0069    0.0004    0.0002    0.0002    0.0000
          11   -0.1104    0.0024   -0.0007   -0.0697    0.0017    0.0007    0.0003   -0.0000
          12   -0.0000    0.0000   -0.0000   -0.0000    0.0000    0.0000    0.0000   -0.0002
          13   -0.0014   -0.0001    0.0003   -0.0013   -0.0080   -0.0038   -0.0047   -0.0000
          14   -0.0090   -0.0002    0.0006   -0.0029   -0.0377   -0.0155   -0.0156   -0.0000
          15    0.0000   -0.0000   -0.0000    0.0000    0.0000    0.0000    0.0000    0.0000
          16    0.0056    0.0178   -0.0332    0.0025   -0.0004   -0.0030    0.0035    0.0000
          17    0.0002   -0.0161    0.0305   -0.0014    0.0007    0.0019   -0.0016   -0.0000
          18   -0.0000    0.0000   -0.0000    0.0000   -0.0000   -0.0000    0.0000    0.0000
          19    0.0083   -0.0000   -0.0000   -0.0003   -0.0171    0.0080    0.0204    0.0000
          20    0.0075   -0.0001    0.0002    0.0005    0.0176   -0.0055   -0.0180   -0.0000
          21   -0.0000    0.0000   -0.0000   -0.0000   -0.0000    0.0000    0.0000    0.0000
          22   -0.0001    0.0000    0.0001   -0.0001    0.0095   -0.0266   -0.0050    0.0000
          23   -0.0062    0.0002   -0.0001    0.0000    0.0023   -0.0083    0.0008    0.0000
          24    0.0000   -0.0000    0.0000   -0.0000    0.0000   -0.0000   -0.0000   -0.0000
          25   -0.0016   -0.0005    0.0005   -0.0000   -0.0011    0.0061   -0.0067   -0.0000
          26    0.0026    0.0017   -0.0054    0.0004   -0.0040    0.0210   -0.0280   -0.0000
          27   -0.0000   -0.0000    0.0000   -0.0000    0.0000   -0.0000    0.0000   -0.0000
          28   -0.0473    0.0005   -0.0003    0.0040   -0.0001   -0.0002    0.0002   -0.0004
          29    0.0130   -0.0259   -0.0177    0.0193   -0.0007   -0.0019    0.0029   -0.0033
          30    0.0000   -0.0000   -0.0000    0.0000   -0.0000   -0.0000    0.0000   -0.0292
          31    0.0210    0.0046    0.0035   -0.0023    0.0000    0.0004   -0.0007    0.2156
          32    0.0001   -0.0057   -0.0036    0.0015   -0.0000   -0.0003    0.0005   -0.1769
          33    0.0003    0.0130    0.0087   -0.0053    0.0001    0.0008   -0.0014    0.3622
          34    0.0210    0.0046    0.0035   -0.0023    0.0000    0.0004   -0.0006   -0.2139
          35    0.0001   -0.0057   -0.0036    0.0015   -0.0000   -0.0003    0.0004    0.1757
          36   -0.0003   -0.0130   -0.0087    0.0052   -0.0001   -0.0008    0.0013    0.3589
          37    0.1045    0.0959    0.0451   -0.0044    0.0001    0.0011   -0.0010   -0.0001
          38    0.0910    0.5428    0.2530   -0.0024   -0.0000    0.0057   -0.0055   -0.0003
          39    0.0000    0.0001    0.0000    0.0000    0.0000    0.0000   -0.0000   -0.0013
          40   -0.0114    0.0012   -0.0028    0.0054    0.0969    0.0411    0.0417    0.0000
          41   -0.0113    0.0053   -0.0124    0.0342    0.4311    0.1762    0.1743    0.0001
          42    0.0000   -0.0000    0.0000   -0.0000   -0.0002   -0.0001   -0.0001   -0.0000
          43   -0.0020   -0.0007    0.0011    0.0051    0.2093   -0.0817   -0.2246   -0.0001
          44   -0.0047    0.0007   -0.0010   -0.0050   -0.2001    0.0730    0.2102    0.0001
          45    0.0000   -0.0000    0.0000    0.0000    0.0002   -0.0001   -0.0002   -0.0000
          46   -0.0024   -0.0026    0.0024    0.0009   -0.1092    0.3114    0.0510   -0.0000
          47   -0.0006   -0.0006    0.0002    0.0004   -0.0310    0.0937    0.0114   -0.0000
          48   -0.0000   -0.0000    0.0000    0.0000   -0.0000    0.0001    0.0000   -0.0000
          49   -0.0053   -0.1995    0.3764   -0.0221    0.0030    0.0262   -0.0273   -0.0001
          50   -0.0131    0.1861   -0.3498    0.0214   -0.0032   -0.0223    0.0229    0.0001
          51    0.0000   -0.0001    0.0003   -0.0000    0.0000    0.0000   -0.0000   -0.0000
          52   -0.0941   -0.0037    0.0030    0.1263   -0.0020   -0.0007   -0.0002    0.0000
          53   -0.0989   -0.0038    0.0245    0.7878   -0.0211   -0.0077   -0.0044    0.0001
          54   -0.0000   -0.0000    0.0000    0.0001   -0.0000   -0.0000   -0.0000    0.0005
          55    0.0016   -0.0041    0.0133   -0.0012    0.0115   -0.0597    0.0745    0.0000
          56    0.0024   -0.0240    0.0696   -0.0059    0.0461   -0.2443    0.3173    0.0001
          57   -0.0000    0.0000   -0.0000    0.0000   -0.0000    0.0001   -0.0002   -0.0000


   Root No.      49        50        51

                49 A      50 A      51 A   

                3075.1    3079.1    3168.2
  
           1    0.0127   -0.0001   -0.0238
           2   -0.0465    0.0003   -0.0073
           3   -0.0003    0.0000    0.0000
           4    0.0001    0.0008   -0.0001
           5    0.0000    0.0001   -0.0000
           6   -0.0000    0.0000    0.0000
           7    0.0002    0.0000   -0.0003
           8   -0.0032    0.0004    0.0001
           9   -0.0000    0.0000    0.0000
          10   -0.0007   -0.0001    0.0003
          11    0.0014   -0.0002    0.0001
          12   -0.0000   -0.0000    0.0000
          13    0.0001    0.0031    0.0000
          14    0.0001    0.0090   -0.0000
          15    0.0000   -0.0000   -0.0000
          16   -0.0004    0.0033    0.0000
          17    0.0004   -0.0019    0.0000
          18   -0.0000    0.0000    0.0000
          19   -0.0003   -0.0154    0.0000
          20    0.0003    0.0156   -0.0000
          21   -0.0000   -0.0000   -0.0000
          22   -0.0003   -0.0274    0.0000
          23   -0.0001   -0.0082    0.0000
          24   -0.0000   -0.0000    0.0000
          25    0.0000   -0.0038   -0.0000
          26    0.0000   -0.0204    0.0000
          27   -0.0000    0.0000    0.0000
          28    0.0453   -0.0003    0.0182
          29    0.4276   -0.0026    0.3306
          30   -0.0001    0.0000    0.0001
          31   -0.0974    0.0007    0.1335
          32    0.0619   -0.0004   -0.1212
          33   -0.1901    0.0014    0.2627
          34   -0.0998    0.0007    0.1337
          35    0.0638   -0.0004   -0.1213
          36    0.1941   -0.0014   -0.2630
          37    0.0094   -0.0008   -0.0006
          38    0.0341   -0.0040   -0.0014
          39   -0.0000   -0.0000    0.0000
          40   -0.0003   -0.0231    0.0001
          41   -0.0016   -0.0951    0.0002
          42    0.0000    0.0000   -0.0000
          43    0.0030    0.1710   -0.0001
          44   -0.0029   -0.1630    0.0001
          45    0.0000    0.0002   -0.0000
          46    0.0037    0.2986   -0.0002
          47    0.0011    0.0891   -0.0001
          48    0.0000    0.0001   -0.0000
          49    0.0048   -0.0244   -0.0000
          50   -0.0045    0.0211    0.0000
          51    0.0000   -0.0000    0.0000
          52   -0.0035    0.0000   -0.0011
          53   -0.0130    0.0022   -0.0031
          54    0.0000    0.0000   -0.0000
          55   -0.0002    0.0498   -0.0000
          56   -0.0006    0.2182   -0.0001
          57    0.0000   -0.0001    0.0000


           MASS-WEIGHTED COORDINATE ANALYSIS (NORMAL COORDINATES)


   Root No.       1         2         3         4         5         6         7         8

                 1 A       2 A       3 A       4 A       5 A       6 A       7 A       8 A   

                  69.2     113.2     143.3     189.4     255.7     359.8     387.5     431.9
  
           1   -0.0001    0.0000    0.0000    0.0197   -0.0000   -0.0002    0.4934   -0.2289
           2   -0.0001    0.0001    0.0002    0.5063   -0.0004    0.0001   -0.1312   -0.0971
           3   -0.2381    0.2988   -0.2588   -0.0003   -0.2183    0.0032   -0.0000    0.0001
           4   -0.0000    0.0000   -0.0000    0.0246    0.0000   -0.0000    0.0333    0.0307
           5    0.0001   -0.0001   -0.0000   -0.2962    0.0002    0.0000   -0.1072   -0.2896
           6    0.2662   -0.2357    0.0907    0.0000   -0.0539    0.0188    0.0001    0.0004
           7   -0.0001    0.0001    0.0001    0.1772   -0.0002   -0.0001    0.2836   -0.2837
           8    0.0001   -0.0000   -0.0001   -0.0812    0.0003   -0.0002    0.4251    0.3397
           9   -0.2621   -0.1043    0.4838    0.0001    0.3333   -0.0306   -0.0001   -0.0002
          10   -0.0000    0.0000    0.0000    0.0076   -0.0001   -0.0000    0.0593   -0.2245
          11    0.0001   -0.0001   -0.0001   -0.2956    0.0004   -0.0001    0.1724    0.3360
          12    0.4197   -0.1256   -0.1481    0.0005    0.4926    0.0121   -0.0000   -0.0004
          13    0.0001    0.0000    0.0000    0.1872    0.0000    0.0002   -0.0715    0.2671
          14   -0.0000   -0.0001    0.0000   -0.1147   -0.0001   -0.0002   -0.1874   -0.1034
          15   -0.0130   -0.2015    0.1221   -0.0002   -0.3289   -0.3958   -0.0000    0.0001
          16   -0.0001    0.0000   -0.0001   -0.1732    0.0002   -0.0001   -0.1887    0.0685
          17    0.0001   -0.0001   -0.0000   -0.2388   -0.0000    0.0002   -0.0635   -0.3183
          18    0.3200   -0.1589    0.0799   -0.0001   -0.3318    0.4048    0.0002    0.0001
          19    0.0002   -0.0001    0.0000    0.1216   -0.0001   -0.0001   -0.1204    0.2583
          20   -0.0001    0.0000    0.0001    0.1443   -0.0002    0.0003   -0.0581    0.1045
          21   -0.2803    0.0611   -0.0048   -0.0002   -0.0758    0.3829    0.0002   -0.0001
          22    0.0001   -0.0001    0.0000   -0.1015   -0.0001    0.0001   -0.2855    0.1872
          23   -0.0001    0.0001   -0.0000    0.1959    0.0001    0.0000   -0.0167    0.1279
          24   -0.2267    0.2635   -0.1710    0.0002    0.3295    0.0014   -0.0002    0.0002
          25   -0.0000   -0.0000   -0.0001   -0.2658    0.0002    0.0002   -0.2581   -0.0038
          26    0.0000    0.0001   -0.0000    0.0183   -0.0001   -0.0002    0.0138   -0.0913
          27    0.0907    0.1075   -0.0861    0.0001   -0.0840   -0.3907   -0.0002   -0.0001
          28   -0.0000   -0.0000   -0.0000   -0.1303    0.0002   -0.0001    0.2998    0.0450
          29   -0.0001   -0.0000    0.0000    0.1629   -0.0001    0.0000   -0.0584   -0.0423
          30    0.1544    0.5505    0.1294   -0.0003   -0.1588    0.0051    0.0000    0.0001
          31    0.0532    0.0454    0.2155    0.0562    0.1077   -0.0076    0.0886   -0.1143
          32   -0.1875   -0.3815   -0.1912    0.2153    0.0629   -0.0022   -0.1198   -0.0901
          33   -0.1831   -0.1093   -0.2871    0.0002   -0.0995    0.0045   -0.0026    0.0009
          34   -0.0533   -0.0453   -0.2155    0.0562   -0.1079    0.0076    0.0887   -0.1141
          35    0.1874    0.3817    0.1914    0.2149   -0.0634    0.0024   -0.1197   -0.0900
          36   -0.1831   -0.1092   -0.2871   -0.0002   -0.0995    0.0045    0.0026   -0.0008
          37   -0.0001    0.0001    0.0001    0.1230   -0.0001   -0.0000    0.0394   -0.1370
          38    0.0001    0.0000   -0.0001   -0.0338    0.0001   -0.0000    0.1266    0.1049
          39   -0.2517   -0.1068    0.3990   -0.0000    0.0677   -0.0106   -0.0000    0.0001
          40    0.0001    0.0000    0.0000    0.1104   -0.0000    0.0002   -0.0269    0.1432
          41   -0.0000   -0.0001    0.0000   -0.0457   -0.0001   -0.0002   -0.0521   -0.0442
          42   -0.0129   -0.0970    0.0608   -0.0001   -0.1731   -0.3178   -0.0001    0.0000
          43    0.0001   -0.0000    0.0000    0.0751   -0.0000   -0.0001   -0.0067    0.1018
          44   -0.0001    0.0000    0.0000    0.0839   -0.0001    0.0002    0.0135    0.0575
          45   -0.1543    0.0376   -0.0002   -0.0001   -0.0338    0.3015    0.0001   -0.0001
          46    0.0001   -0.0001    0.0000   -0.0455   -0.0001    0.0000   -0.0878    0.0401
          47   -0.0001    0.0001   -0.0000    0.1103    0.0001    0.0000    0.0120    0.0844
          48   -0.1254    0.1532   -0.1011    0.0002    0.2488   -0.0003   -0.0001    0.0001
          49   -0.0000    0.0000   -0.0001   -0.0707    0.0001   -0.0000   -0.0671    0.0033
          50    0.0001   -0.0000   -0.0000   -0.0906   -0.0000    0.0002   -0.0314   -0.1082
          51    0.1420   -0.0745    0.0529   -0.0001   -0.1631    0.2971    0.0001   -0.0000
          52   -0.0000   -0.0000    0.0000   -0.0291   -0.0000    0.0000   -0.0589   -0.1383
          53   -0.0000   -0.0000    0.0000   -0.0782    0.0001   -0.0000    0.0614    0.1077
          54    0.3083    0.0211   -0.2917    0.0003    0.2328    0.0082   -0.0000   -0.0004
          55   -0.0000   -0.0000   -0.0000   -0.1365    0.0001    0.0001   -0.0807   -0.0740
          56    0.0000    0.0000   -0.0000    0.0193   -0.0000   -0.0002    0.0048   -0.0093
          57    0.0419    0.0624   -0.0470    0.0000   -0.0380   -0.3134   -0.0001   -0.0001


   Root No.       9        10        11        12        13        14        15        16

                 9 A      10 A      11 A      12 A      13 A      14 A      15 A      16 A   

                 476.6     627.2     636.5     646.8     764.9     849.5     865.5     889.4
  
           1    0.0001   -0.1177    0.2097    0.0005    0.0001    0.0000   -0.0000   -0.0402
           2    0.0001    0.0196   -0.0054   -0.0000    0.0000    0.0000    0.0000    0.0766
           3    0.0403    0.0000   -0.0000   -0.0012   -0.0332   -0.0162   -0.2013   -0.0000
           4   -0.0001    0.1802   -0.3552   -0.0009   -0.0001   -0.0000    0.0001   -0.1007
           5    0.0004    0.1633    0.0449    0.0002    0.0001   -0.0000   -0.0000   -0.0288
           6    0.5219    0.0003   -0.0008    0.4859    0.2704   -0.0281   -0.1188   -0.0000
           7    0.0002   -0.0585    0.0906    0.0002    0.0000    0.0000   -0.0000   -0.0066
           8   -0.0003   -0.0462    0.1321    0.0002   -0.0000    0.0000    0.0000    0.1288
           9   -0.1406   -0.0001    0.0001   -0.0610   -0.0975   -0.0325   -0.1968   -0.0000
          10    0.0002    0.1691   -0.2488   -0.0005   -0.0000   -0.0001    0.0000   -0.3149
          11   -0.0001    0.1969   -0.2565   -0.0006   -0.0001   -0.0001   -0.0000   -0.3418
          12   -0.1634   -0.0000   -0.0001    0.0019    0.0900    0.0112    0.3474   -0.0000
          13   -0.0001    0.2708   -0.0140   -0.0002    0.0000   -0.0001    0.0000    0.1474
          14    0.0000    0.1447    0.4667    0.0005    0.0000    0.0002   -0.0000    0.1153
          15    0.0782   -0.0002    0.0001   -0.1769   -0.1279    0.2399   -0.1200   -0.0000
          16   -0.0001   -0.3604   -0.1883    0.0001    0.0000    0.0001   -0.0000    0.1700
          17    0.0002    0.2526   -0.0207   -0.0004   -0.0001   -0.0001   -0.0000    0.0749
          18    0.0558   -0.0005    0.0004   -0.2118   -0.1149   -0.1995   -0.1064    0.0001
          19   -0.0000    0.4121    0.1363   -0.0003    0.0000   -0.0000   -0.0001    0.2866
          20   -0.0003   -0.3276    0.0836    0.0006   -0.0000    0.0001    0.0001   -0.2617
          21   -0.3015    0.0006   -0.0004    0.2216   -0.1387    0.2271    0.0390    0.0002
          22   -0.0004   -0.1820    0.3475    0.0008    0.0002   -0.0001    0.0000   -0.3335
          23    0.0001   -0.2086   -0.0188    0.0000   -0.0001   -0.0000    0.0001   -0.1096
          24    0.3599   -0.0002    0.0005   -0.1722   -0.2209   -0.0098    0.1468   -0.0001
          25    0.0000   -0.2640   -0.0449    0.0001    0.0000    0.0001   -0.0000    0.1194
          26   -0.0001   -0.2345   -0.4102   -0.0003   -0.0002   -0.0001    0.0000    0.4104
          27   -0.2911    0.0003   -0.0001    0.2253   -0.1355   -0.2417    0.0722   -0.0001
          28   -0.0001   -0.0755    0.1421    0.0003    0.0000    0.0000   -0.0000    0.2180
          29    0.0000    0.0120   -0.0131   -0.0000   -0.0000   -0.0000   -0.0000   -0.0102
          30    0.0568    0.0000   -0.0001    0.0285    0.0442    0.0131    0.1424    0.0000
          31   -0.0610   -0.0227    0.0380   -0.0437   -0.0880   -0.0298   -0.3414   -0.1104
          32   -0.0267    0.0281   -0.0440   -0.0158   -0.0284   -0.0093   -0.1039   -0.1159
          33    0.0369    0.0020   -0.0035    0.0195    0.0316    0.0094    0.1041   -0.0010
          34    0.0611   -0.0226    0.0379    0.0439    0.0881    0.0298    0.3415   -0.1102
          35    0.0268    0.0282   -0.0440    0.0156    0.0284    0.0093    0.1039   -0.1158
          36    0.0369   -0.0020    0.0034    0.0195    0.0316    0.0094    0.1041    0.0010
[...]
 EFFECTIVE MASS      7.2205
 FORCE CONSTANT      0.6023

 VIBRATION         34   34A           ATOM PAIR      ENERGY CONTRIBUTION    RADIAL
 FREQUENCY          1394.89         C  1 -- H 10         +52.0% ( 62.8%)      0.1%
 TRANSITION DIPOLE   0.0716         C  1 -- H 12         +25.8% ( 44.3%)      6.8%
 TRAVEL (Ang.)       0.3402         C  1 -- H 11         +14.9% ( 33.7%)     19.5%
 REDUCED MASS        0.4178         C  1 -- C  3          +5.1% ( 19.6%)      0.5%
 EFFECTIVE MASS      1.6346
 FORCE CONSTANT      0.4790

 VIBRATION         35   35A           ATOM PAIR      ENERGY CONTRIBUTION    RADIAL
 FREQUENCY          1394.98         C  1 -- H 11         +21.9% ( 51.6%)      0.8%
 TRANSITION DIPOLE   0.1512         C  1 -- H 12         +15.1% ( 42.9%)      3.8%
 TRAVEL (Ang.)       0.3912         C  2 -- C  4          +8.7% ( 32.6%)     98.4%
 REDUCED MASS        0.3158         C  1 -- H 10          +6.5% ( 28.0%)     38.0%
 EFFECTIVE MASS      4.2750
 FORCE CONSTANT      0.3621

 VIBRATION         36   36A           ATOM PAIR      ENERGY CONTRIBUTION    RADIAL
 FREQUENCY          1429.89         C  1 -- C  3         +17.3% ( 57.9%)     99.3%
 TRANSITION DIPOLE   0.1245         C  1 -- H 10         +17.1% ( 57.6%)      5.4%
 TRAVEL (Ang.)       0.1985         C  1 -- H 11         +14.0% ( 52.0%)      3.0%
 REDUCED MASS        1.1971         C  1 -- H 12         +14.0% ( 52.0%)      3.0%
 EFFECTIVE MASS      7.3600
 FORCE CONSTANT      1.4421

 VIBRATION         37   37A           ATOM PAIR      ENERGY CONTRIBUTION    RADIAL
 FREQUENCY          1543.29         C  6 -- C  9         +12.5% ( 52.1%)    100.0%
 TRANSITION DIPOLE   0.5158         C  5 -- C  7         +12.4% ( 51.8%)     99.9%
 TRAVEL (Ang.)       0.1696         C  2 -- C  5         +11.8% ( 50.6%)     26.5%
 REDUCED MASS        1.5191         C  2 -- C  6         +11.7% ( 50.5%)     26.8%
 EFFECTIVE MASS     10.8962         C  8 -- C  9         +10.5% ( 47.8%)     24.7%
 FORCE CONSTANT      2.1317         C  7 -- C  8         +10.4% ( 47.5%)     20.8%

 VIBRATION         38   38A           ATOM PAIR      ENERGY CONTRIBUTION    RADIAL
 FREQUENCY          1612.75         C  2 -- C  5         +15.6% ( 57.8%)     58.3%
 TRANSITION DIPOLE   0.5024         C  2 -- C  6         +15.5% ( 57.6%)     60.8%
 TRAVEL (Ang.)       0.1423         C  2 -- C  4         +14.7% ( 56.1%)     98.6%
 REDUCED MASS        2.0634         C  7 -- C  8          +8.9% ( 43.6%)     65.8%
 EFFECTIVE MASS     11.0773
 FORCE CONSTANT      3.1621

 VIBRATION         39   39A           ATOM PAIR      ENERGY CONTRIBUTION    RADIAL
 FREQUENCY          1777.28         C  8 -- C  9         +15.4% ( 54.2%)     89.0%
 TRANSITION DIPOLE   0.0286         C  2 -- C  5         +15.2% ( 54.0%)     90.1%
 TRAVEL (Ang.)       0.1248         C  2 -- C  6         +14.8% ( 53.1%)     88.2%
 REDUCED MASS        2.4356         C  7 -- C  8         +14.6% ( 52.8%)     85.2%
 EFFECTIVE MASS     11.8562
 FORCE CONSTANT      4.5328

 VIBRATION         40   40A           ATOM PAIR      ENERGY CONTRIBUTION    RADIAL
 FREQUENCY          1797.88         C  6 -- C  9         +16.8% ( 57.0%)     99.7%
 TRANSITION DIPOLE   0.3144         C  5 -- C  7         +16.1% ( 55.8%)    100.0%
 TRAVEL (Ang.)       0.1286         C  2 -- C  6         +12.4% ( 49.0%)     47.4%
 REDUCED MASS        2.2670         C  2 -- C  5         +11.4% ( 46.9%)     40.8%
 EFFECTIVE MASS     11.8235
 FORCE CONSTANT      4.3174

 VIBRATION         41   41A           ATOM PAIR      ENERGY CONTRIBUTION    RADIAL
 FREQUENCY          1875.59         C  3 -- C  4         +42.7% ( 96.4%)     95.9%
 TRANSITION DIPOLE   0.6455         C  2 -- C  4         +15.1% ( 57.3%)     57.3%
 TRAVEL (Ang.)       0.0829         C  1 -- C  3         +13.9% ( 55.1%)     58.1%
 REDUCED MASS        5.2361         C  4 -- H 18         +13.4% ( 54.0%)      3.1%
 EFFECTIVE MASS     11.7904         C  3 -- H 13         +13.0% ( 53.2%)      2.7%
 FORCE CONSTANT     10.8527

 VIBRATION         42   42A           ATOM PAIR      ENERGY CONTRIBUTION    RADIAL
 FREQUENCY          2983.44         C  3 -- H 13         +77.4% ( 89.6%)    100.0%
 TRANSITION DIPOLE   0.3495         C  6 -- H 17         +19.3% ( 44.7%)    100.0%
 TRAVEL (Ang.)       0.1895         C  3 -- C  4          +1.2% ( 11.0%)     35.9%
 REDUCED MASS        0.6293         C  1 -- C  3          +1.1% ( 10.6%)     14.4%
 EFFECTIVE MASS      1.5112
 FORCE CONSTANT      3.3003

 VIBRATION         43   43A           ATOM PAIR      ENERGY CONTRIBUTION    RADIAL
 FREQUENCY          3015.10         C  6 -- H 17         +76.4% ( 88.5%)    100.0%
 TRANSITION DIPOLE   0.1688         C  3 -- H 13         +18.8% ( 43.9%)    100.0%
 TRAVEL (Ang.)       0.1915         C  9 -- H 19          +1.5% ( 12.3%)     99.0%
 REDUCED MASS        0.6101         C  2 -- C  6          +1.2% ( 11.2%)     26.0%
 EFFECTIVE MASS      1.5136
 FORCE CONSTANT      3.2681

 VIBRATION         44   44A           ATOM PAIR      ENERGY CONTRIBUTION    RADIAL
 FREQUENCY          3030.10         C  4 -- H 18         +96.6% ( 99.7%)    100.0%
 TRANSITION DIPOLE   0.2740         C  3 -- C  4          +1.6% ( 12.7%)     38.1%
 TRAVEL (Ang.)       0.1554         C  2 -- C  4          +1.4% ( 12.1%)     15.9%
 REDUCED MASS        0.9214         C  5 -- H 14          +0.2% (  4.4%)    100.0%
 EFFECTIVE MASS      1.5252
 FORCE CONSTANT      4.9841

 VIBRATION         45   45A           ATOM PAIR      ENERGY CONTRIBUTION    RADIAL
 FREQUENCY          3051.80         C  5 -- H 14         +64.4% ( 81.6%)    100.0%
 TRANSITION DIPOLE   0.1770         C  7 -- H 15         +27.7% ( 53.5%)    100.0%
 TRAVEL (Ang.)       0.2132         C  8 -- H 16          +4.3% ( 21.0%)    100.0%
 REDUCED MASS        0.4860         C  5 -- C  7          +1.3% ( 11.5%)      1.7%
 EFFECTIVE MASS      1.4998
 FORCE CONSTANT      2.6669

 VIBRATION         46   46A           ATOM PAIR      ENERGY CONTRIBUTION    RADIAL
 FREQUENCY          3059.28         C  8 -- H 16         +47.8% ( 70.2%)    100.0%
 TRANSITION DIPOLE   0.1821         C  9 -- H 19         +28.6% ( 54.4%)    100.0%
 TRAVEL (Ang.)       0.2587         C  5 -- H 14         +14.8% ( 39.0%)    100.0%
 REDUCED MASS        0.3293         C  7 -- H 15          +5.4% ( 23.7%)     99.7%
 EFFECTIVE MASS      1.5020
 FORCE CONSTANT      1.8156

 VIBRATION         47   47A           ATOM PAIR      ENERGY CONTRIBUTION    RADIAL
 FREQUENCY          3067.04         C  9 -- H 19         +43.4% ( 66.9%)    100.0%
 TRANSITION DIPOLE   0.5123         C  7 -- H 15         +38.6% ( 63.1%)    100.0%
 TRAVEL (Ang.)       0.2500         C  5 -- H 14         +13.1% ( 36.7%)    100.0%
 REDUCED MASS        0.3518         C  8 -- H 16          +1.1% ( 10.7%)     97.4%
 EFFECTIVE MASS      1.5348
 FORCE CONSTANT      1.9498

 VIBRATION         48   48A           ATOM PAIR      ENERGY CONTRIBUTION    RADIAL
 FREQUENCY          3068.50         C  1 -- H 11         +49.5% ( 72.5%)     97.1%
 TRANSITION DIPOLE   0.0364         C  1 -- H 12         +48.6% ( 71.9%)     97.0%
 TRAVEL (Ang.)       0.2077         C  1 -- C  3          +1.0% ( 10.2%)      0.0%
 REDUCED MASS        0.5094         C  1 -- H 10          +0.9% (  9.9%)      0.1%
 EFFECTIVE MASS      1.5013
 FORCE CONSTANT      2.8259

 VIBRATION         49   49A           ATOM PAIR      ENERGY CONTRIBUTION    RADIAL
 FREQUENCY          3075.14         C  1 -- H 10         +63.1% ( 81.9%)     98.8%
 TRANSITION DIPOLE   0.0483         C  1 -- H 12         +18.1% ( 43.8%)     85.4%
 TRAVEL (Ang.)       0.2114         C  1 -- H 11         +17.3% ( 42.9%)     84.7%
 REDUCED MASS        0.4906         C  1 -- C  3          +1.0% ( 10.4%)      0.0%
 EFFECTIVE MASS      1.5097
 FORCE CONSTANT      2.7332

 VIBRATION         50   50A           ATOM PAIR      ENERGY CONTRIBUTION    RADIAL
 FREQUENCY          3079.09         C  8 -- H 16         +43.8% ( 67.1%)    100.0%
 TRANSITION DIPOLE   0.4177         C  7 -- H 15         +25.2% ( 50.9%)    100.0%
 TRAVEL (Ang.)       0.2663         C  9 -- H 19         +22.6% ( 48.2%)    100.0%
 REDUCED MASS        0.3088         C  5 -- H 14          +4.3% ( 21.1%)     99.9%
 EFFECTIVE MASS      1.5939
 FORCE CONSTANT      1.7252

 VIBRATION         51   51A           ATOM PAIR      ENERGY CONTRIBUTION    RADIAL
 FREQUENCY          3168.23         C  1 -- H 10         +35.1% ( 57.0%)     97.3%
 TRANSITION DIPOLE   0.0965         C  1 -- H 12         +32.3% ( 54.7%)     97.0%
 TRAVEL (Ang.)       0.2550         C  1 -- H 11         +32.3% ( 54.7%)     97.0%
 REDUCED MASS        0.3274         C  1 -- C  3          +0.3% (  5.4%)    100.0%
 EFFECTIVE MASS      1.1394
 FORCE CONSTANT      1.9364

      SYMMETRY NUMBER FOR POINT-GROUP C1  =  1


          SYSTEM IS A GROUND STATE



 InChI=1S/C9H10/c1-2-6-9-7-4-3-5-8-9/h2-8H,1H3


          MOLECULE IS NOT LINEAR

          THERE ARE 51 GENUINE VIBRATIONS IN THIS SYSTEM
          THIS THERMODYNAMICS CALCULATION IS LIMITED TO
          MOLECULES WHICH HAVE NO INTERNAL ROTATIONS




                    CALCULATED THERMODYNAMIC PROPERTIES
                                          *
   TEMP. (K)   PARTITION FUNCTION   H.O.F.    ENTHALPY  HEAT CAPACITY ENTROPY
                                   KCAL/MOL   CAL/MOLE    CAL/K/MOL  CAL/K/MOL


 298.00  VIB.     0.9766D+02                  3491.7783    25.5772    20.8218
         ROT.     0.4715D+06                   888.2803     2.9808    28.9410
         INT.     0.4605D+08                  4380.0586    28.5580    49.7628
         TRA.     0.1242D+28                  1480.4672     4.9680    40.2136
         TOT.                       28.578    5860.5258    33.5260    89.9764

 200.00  VIB.     0.1489D+02                  1478.8009    15.7472    12.7609
         ROT.     0.2592D+06                   596.1613     2.9808    27.7523
         INT.     0.3860D+07                  2074.9622    18.7280    40.5131
         TRA.     0.6829D+27                   993.6021     4.9680    38.2325
         TOT.                       25.786    3068.5643    23.6960    78.7456

 210.00  VIB.     0.1795D+02                  1640.8716    16.6709    13.5514
         ROT.     0.2789D+06                   625.9693     2.9808    27.8977
         INT.     0.5005D+07                  2266.8409    19.6517    41.4491
         TRA.     0.7347D+27                  1043.2822     4.9680    38.4749
         TOT.                       26.027    3310.1232    24.6197    79.9240

 220.00  VIB.     0.2165D+02                  1812.2946    17.6175    14.3487
         ROT.     0.2991D+06                   655.7774     2.9808    28.0364
         INT.     0.6476D+07                  2468.0720    20.5983    42.3851
         TRA.     0.7878D+27                  1092.9623     4.9680    38.7060
         TOT.                       26.278    3561.0343    25.5663    81.0911

 230.00  VIB.     0.2616D+02                  1993.2938    18.5858    15.1531
         ROT.     0.3197D+06                   685.5855     2.9808    28.1689
         INT.     0.8363D+07                  2678.8792    21.5666    43.3220
         TRA.     0.8422D+27                  1142.6424     4.9680    38.9268
         TOT.                       26.539    3821.5217    26.5346    82.2488

 240.00  VIB.     0.3164D+02                  2184.0778    19.5741    15.9649
         ROT.     0.3408D+06                   715.3935     2.9808    28.2957
         INT.     0.1078D+08                  2899.4713    22.5549    44.2607
         TRA.     0.8977D+27                  1192.3226     4.9680    39.1383
         TOT.                       26.809    4091.7939    27.5229    83.3990

 250.00  VIB.     0.3831D+02                  2384.8356    20.5802    16.7843
         ROT.     0.3623D+06                   745.2016     2.9808    28.4174
         INT.     0.1388D+08                  3130.0372    23.5610    45.2018
         TRA.     0.9544D+27                  1242.0027     4.9680    39.3411
         TOT.                       27.089    4372.0399    28.5290    84.5428

 260.00  VIB.     0.4645D+02                  2595.7334    21.6017    17.6114
         ROT.     0.3842D+06                   775.0097     2.9808    28.5343
         INT.     0.1785D+08                  3370.7430    24.5825    46.1457
         TRA.     0.1012D+28                  1291.6828     4.9680    39.5359
         TOT.                       27.380    4662.4258    29.5505    85.6816

 270.00  VIB.     0.5639D+02                  2816.9119    22.6359    18.4460
         ROT.     0.4066D+06                   804.8177     2.9808    28.6468
         INT.     0.2293D+08                  3621.7296    25.6167    47.0928
         TRA.     0.1071D+28                  1341.3629     4.9680    39.7234
         TOT.                       27.680    4963.0925    30.5848    86.8162

 280.00  VIB.     0.6853D+02                  3048.4858    23.6803    19.2880
         ROT.     0.4294D+06                   834.6258     2.9808    28.7552
         INT.     0.2943D+08                  3883.1116    26.6611    48.0433
         TRA.     0.1131D+28                  1391.0430     4.9680    39.9041
         TOT.                       27.991    5274.1546    31.6291    87.9474

 290.00  VIB.     0.8340D+02                  3290.5428    24.7321    20.1373
         ROT.     0.4526D+06                   864.4339     2.9808    28.8598
         INT.     0.3775D+08                  4154.9767    27.7129    48.9972
         TRA.     0.1192D+28                  1440.7231     4.9680    40.0784
         TOT.                       28.313    5595.6998    32.6809    89.0756

 300.00  VIB.     0.1016D+03                  3543.1442    25.7887    20.9936
         ROT.     0.4762D+06                   894.2419     2.9808    28.9609
         INT.     0.4839D+08                  4437.3861    28.7696    49.9545
         TRA.     0.1255D+28                  1490.4032     4.9680    40.2469
         TOT.                       28.645    5927.7893    33.7376    90.2014

 310.00  VIB.     0.1239D+03                  3806.3254    26.8477    21.8565
         ROT.     0.5003D+06                   924.0500     2.9808    29.0586
         INT.     0.6200D+08                  4730.3754    29.8285    50.9151
         TRA.     0.1318D+28                  1540.0833     4.9680    40.4098
         TOT.                       28.988    6270.4587    34.7965    91.3249

 320.00  VIB.     0.1514D+03                  4080.0972    27.9065    22.7256
         ROT.     0.5247D+06                   953.8580     2.9808    29.1533
         INT.     0.7942D+08                  5033.9553    30.8873    51.8788
         TRA.     0.1382D+28                  1589.7634     4.9680    40.5675
         TOT.                       29.341    6623.7187    35.8553    92.4463

 330.00  VIB.     0.1851D+03                  4364.4476    28.9630    23.6005
         ROT.     0.5494D+06                   983.6661     2.9808    29.2450
         INT.     0.1017D+09                  5348.1137    31.9438    52.8455
         TRA.     0.1447D+28                  1639.4435     4.9680    40.7204
         TOT.                       29.705    6987.5573    36.9118    93.5658

 340.00  VIB.     0.2266D+03                  4659.3430    30.0152    24.4808
         ROT.     0.5746D+06                  1013.4742     2.9808    29.3340
         INT.     0.1302D+09                  5672.8172    32.9960    53.8147
         TRA.     0.1514D+28                  1689.1236     4.9680    40.8687
         TOT.                       30.079    7361.9408    37.9640    94.6834

 350.00  VIB.     0.2777D+03                  4964.7304    31.0611    25.3659
         ROT.     0.6001D+06                  1043.2822     2.9808    29.4204
         INT.     0.1666D+09                  6008.0126    34.0419    54.7863
         TRA.     0.1581D+28                  1738.8037     4.9680    41.0127
         TOT.                       30.464    7746.8163    39.0099    95.7990

 360.00  VIB.     0.3407D+03                  5280.5389    32.0992    26.2555
         ROT.     0.6260D+06                  1073.0903     2.9808    29.5044
         INT.     0.2133D+09                  6353.6292    35.0800    55.7599
         TRA.     0.1649D+28                  1788.4838     4.9680    41.1526
         TOT.                       30.859    8142.1130    40.0480    96.9125

 370.00  VIB.     0.4184D+03                  5606.6822    33.1278    27.1490
         ROT.     0.6523D+06                  1102.8984     2.9808    29.5860
         INT.     0.2730D+09                  6709.5805    36.1086    56.7351
         TRA.     0.1718D+28                  1838.1639     4.9680    41.2888
         TOT.                       31.265    8547.7445    41.0766    98.0238

 380.00  VIB.     0.5145D+03                  5943.0598    34.1458    28.0460
         ROT.     0.6789D+06                  1132.7064     2.9808    29.6655
         INT.     0.3493D+09                  7075.7662    37.1266    57.7116
         TRA.     0.1788D+28                  1887.8440     4.9680    41.4213
         TOT.                       31.681    8963.6103    42.0946    99.1328

 390.00  VIB.     0.6332D+03                  6289.5594    35.1520    28.9460
         ROT.     0.7059D+06                  1162.5145     2.9808    29.7430
         INT.     0.4470D+09                  7452.0739    38.1328    58.6890
         TRA.     0.1860D+28                  1937.5242     4.9680    41.5503
         TOT.                       32.107    9389.5980    43.1009   100.2393

 400.00  VIB.     0.7800D+03                  6646.0581    36.1455    29.8486
         ROT.     0.7332D+06                  1192.3226     2.9808    29.8184
         INT.     0.5719D+09                  7838.3806    39.1263    59.6670
         TRA.     0.1932D+28                  1987.2043     4.9680    41.6761
         TOT.                       32.543    9825.5849    44.0943   101.3431

   *: NOTE: HEATS OF FORMATION ARE RELATIVE TO THE
            ELEMENTS IN THEIR STANDARD STATE AT 298K
              (=  Standard Enthalpy of Formation).

            Hvib:  Zero-point energy is not included.
                   frequencies of less than zero cm-1 are not included.
            Hrot = (3/2)RT
            Htra = (3/2)RT + pV = (5/2)RT

            Heat capacity is Cp, not Cv

          For more information, see: HTTP://OpenMOPAC.net/Manual/thermochemistry.html


           FORCE CONSTANT IN CARTESIAN COORDINATES (Millidynes/A)

    ATOM   CHEMICAL       X               Y               Z
   NUMBER   SYMBOL  FORCE CONSTANT  FORCE CONSTANT  FORCE CONSTANT

      1       C        9.084504        8.462684        7.931619
      2       C       12.867708       12.381095        2.578664
      3       C       13.304150       11.264786        2.352545
      4       C       13.431138       11.863849        2.203821
      5       C       12.288801       11.920096        2.322366
      6       C       12.482639       11.753237        2.320677
      7       C       12.116314       12.073340        2.322835
      8       C       12.133785       12.011091        2.319165
      9       C       12.070939       12.123270        2.317822
     10       H        0.786473        5.320634        0.655274
     11       H        1.606068        1.289445        3.755241
     12       H        1.605782        1.288772        3.756513
     13       H        0.993799        4.795747        0.370894
     14       H        0.999372        4.912620        0.350207
     15       H        3.086184        2.831752        0.352823
     16       H        4.807666        1.118940        0.350772
     17       H        3.075305        2.764848        0.373206
     18       H        0.916417        4.938690        0.347590
     19       H        0.988406        4.930838        0.352684

 **********************
 *                    *
 * JOB ENDED NORMALLY *
 *                    *
 **********************



 TOTAL JOB TIME:             2.57 SECONDS

 == MOPAC DONE ==
