 *******************************************************************************
 **                                                                           **
 **                              MOPAC v23.1.2                                **
 **                                                                           **
 *******************************************************************************
 **          Digital Object Identifier (DOI): 10.5281/zenodo.6511958          **
 **    Visit the DOI location for information on how to cite this program.    **
 *******************************************************************************

                              PM3 CALCULATION RESULTS

 *******************************************************************************
 *  CALCULATION DONE: (MAX THREADS = 1)              Tue Jun  3 16:30:46 2025  *
 *  PM3        - The PM3 Hamiltonian to be used
 *  PRECISE    - TIGHTER CRITERIA TO BE USED
 *  NOSYM      - POINT-GROUP SYMMETRY SET TO C1
 *  THREADS=1  - MULTI-THREADING NOT USED
 *  T=         - A TIME OF 172800.0 SECONDS REQUESTED
 *  DUMP=N     - RESTART FILE WRITTEN EVERY 7200.0 SECONDS REQUESTED
 *******************************************************************************
pm3  precise nosym THREADS=1
 InChI=1S/C9H12/c1-8(2)9-6-4-3-5-7-9/h3-6,9H,1,7H2,2H3

   ATOM   CHEMICAL          X               Y               Z
  NUMBER   SYMBOL      (ANGSTROMS)     (ANGSTROMS)     (ANGSTROMS)

     1       C         -0.01130000  *  -0.26990000  *   0.28900000  *
     2       C          0.71630000  *   1.06940000  *   0.55140000  *
     3       C         -2.51780000  *  -0.53100000  *   1.02040000  *
     4       C         -1.49270000  *  -0.04750000  *   0.02820000  *
     5       C          0.64000000  *  -1.03120000  *  -0.84590000  *
     6       C          2.21150000  *   0.88610000  *   0.54780000  *
     7       C          1.95810000  *  -0.94180000  *  -1.05420000  *
     8       C          2.78410000  *  -0.01810000  *  -0.25390000  *
     9       C         -1.91240000  *   0.58090000  *  -1.08320000  *
    10       H          0.11480000  *  -0.89470000  *   1.20030000  *
    11       H          0.46370000  *   1.81090000  *  -0.23670000  *
    12       H          0.39740000  *   1.48480000  *   1.53160000  *
    13       H         -2.04210000  *  -1.01740000  *   1.89710000  *
    14       H         -3.19150000  *  -1.26820000  *   0.53450000  *
    15       H         -3.12080000  *   0.32740000  *   1.38520000  *
    16       H          0.05710000  *  -1.73150000  *  -1.43240000  *
    17       H          2.83120000  *   1.55180000  *   1.13520000  *
    18       H          2.42770000  *  -1.55710000  *  -1.81090000  *
    19       H          3.86310000  *  -0.08150000  *  -0.31190000  *
    20       H         -2.97110000  *   0.73950000  *  -1.26630000  *
    21       H         -1.20520000  *   0.93910000  *  -1.82510000  *



          CARTESIAN COORDINATES 

    NO.       ATOM           X           Y           Z

     1         C         -0.0113     -0.2699      0.2890
     2         C          0.7163      1.0694      0.5514
     3         C         -2.5178     -0.5310      1.0204
     4         C         -1.4927     -0.0475      0.0282
     5         C          0.6400     -1.0312     -0.8459
     6         C          2.2115      0.8861      0.5478
     7         C          1.9581     -0.9418     -1.0542
     8         C          2.7841     -0.0181     -0.2539
     9         C         -1.9124      0.5809     -1.0832
    10         H          0.1148     -0.8947      1.2003
    11         H          0.4637      1.8109     -0.2367
    12         H          0.3974      1.4848      1.5316
    13         H         -2.0421     -1.0174      1.8971
    14         H         -3.1915     -1.2682      0.5345
    15         H         -3.1208      0.3274      1.3852
    16         H          0.0571     -1.7315     -1.4324
    17         H          2.8312      1.5518      1.1352
    18         H          2.4277     -1.5571     -1.8109
    19         H          3.8631     -0.0815     -0.3119
    20         H         -2.9711      0.7395     -1.2663
    21         H         -1.2052      0.9391     -1.8251

  H: (PM3): J. J. P. STEWART, J. COMP. CHEM. 10, 209 (1989).
  C: (PM3): J. J. P. STEWART, J. COMP. CHEM. 10, 209 (1989).

           Empirical Formula: C9 H12  =    21 atoms



      MOLECULAR POINT GROUP   :   C1  


      RHF CALCULATION, NO. OF DOUBLY OCCUPIED LEVELS = 24


          Geometry optimization using EF

          DIAGONAL MATRIX USED AS START HESSIAN

 CYCLE:     1 TIME:   0.008 TIME LEFT:  2.00D  GRAD.:    65.536 HEAT:  35.85127
 CYCLE:     2 TIME:   0.016 TIME LEFT:  2.00D  GRAD.:    56.900 HEAT:  34.89384
 CYCLE:     3 TIME:   0.008 TIME LEFT:  2.00D  GRAD.:    36.177 HEAT:  34.36404
 CYCLE:     4 TIME:   0.008 TIME LEFT:  2.00D  GRAD.:    38.900 HEAT:  34.24453
 CYCLE:     5 TIME:   0.008 TIME LEFT:  2.00D  GRAD.:    33.530 HEAT:  33.91446
 CYCLE:     6 TIME:   0.012 TIME LEFT:  2.00D  GRAD.:    39.267 HEAT:  33.84855
 CYCLE:     7 TIME:   0.004 TIME LEFT:  2.00D  GRAD.:    28.275 HEAT:  33.69355
 CYCLE:     8 TIME:   0.008 TIME LEFT:  2.00D  GRAD.:    23.895 HEAT:  33.55057
 CYCLE:     9 TIME:   0.008 TIME LEFT:  2.00D  GRAD.:    23.407 HEAT:  33.49019
 CYCLE:    10 TIME:   0.008 TIME LEFT:  2.00D  GRAD.:    20.258 HEAT:  33.36686
 CYCLE:    11 TIME:   0.004 TIME LEFT:  2.00D  GRAD.:    21.653 HEAT:  33.32183
 CYCLE:    12 TIME:   0.008 TIME LEFT:  2.00D  GRAD.:    23.489 HEAT:  33.30351
 CYCLE:    13 TIME:   0.008 TIME LEFT:  2.00D  GRAD.:    16.455 HEAT:  33.19366
 CYCLE:    14 TIME:   0.012 TIME LEFT:  2.00D  GRAD.:    13.650 HEAT:  33.16184
 CYCLE:    15 TIME:   0.008 TIME LEFT:  2.00D  GRAD.:     7.545 HEAT:  33.11926
 CYCLE:    16 TIME:   0.004 TIME LEFT:  2.00D  GRAD.:    12.055 HEAT:  33.10147
 CYCLE:    17 TIME:   0.008 TIME LEFT:  2.00D  GRAD.:    13.427 HEAT:  33.08762
 CYCLE:    18 TIME:   0.008 TIME LEFT:  2.00D  GRAD.:    11.028 HEAT:  33.04213
 CYCLE:    19 TIME:   0.008 TIME LEFT:  2.00D  GRAD.:    14.450 HEAT:  33.03396
 CYCLE:    20 TIME:   0.004 TIME LEFT:  2.00D  GRAD.:     7.879 HEAT:  32.97468
 CYCLE:    21 TIME:   0.008 TIME LEFT:  2.00D  GRAD.:     8.130 HEAT:  32.95433
 CYCLE:    22 TIME:   0.008 TIME LEFT:  2.00D  GRAD.:     4.940 HEAT:  32.92370
 CYCLE:    23 TIME:   0.004 TIME LEFT:  2.00D  GRAD.:     6.475 HEAT:  32.90723
 CYCLE:    24 TIME:   0.008 TIME LEFT:  2.00D  GRAD.:     4.227 HEAT:  32.88776
 CYCLE:    25 TIME:   0.004 TIME LEFT:  2.00D  GRAD.:     4.304 HEAT:  32.87844
 CYCLE:    26 TIME:   0.008 TIME LEFT:  2.00D  GRAD.:     2.322 HEAT:  32.86797
 CYCLE:    27 TIME:   0.008 TIME LEFT:  2.00D  GRAD.:     1.965 HEAT:  32.86308
 CYCLE:    28 TIME:   0.004 TIME LEFT:  2.00D  GRAD.:     2.444 HEAT:  32.85836
 CYCLE:    29 TIME:   0.008 TIME LEFT:  2.00D  GRAD.:     2.089 HEAT:  32.85405
 CYCLE:    30 TIME:   0.008 TIME LEFT:  2.00D  GRAD.:     1.972 HEAT:  32.85042
 CYCLE:    31 TIME:   0.004 TIME LEFT:  2.00D  GRAD.:     1.205 HEAT:  32.84745
 CYCLE:    32 TIME:   0.008 TIME LEFT:  2.00D  GRAD.:     1.092 HEAT:  32.84450
 CYCLE:    33 TIME:   0.004 TIME LEFT:  2.00D  GRAD.:     1.525 HEAT:  32.84152
 CYCLE:    34 TIME:   0.008 TIME LEFT:  2.00D  GRAD.:     1.408 HEAT:  32.83837
 CYCLE:    35 TIME:   0.008 TIME LEFT:  2.00D  GRAD.:     1.248 HEAT:  32.83479
 CYCLE:    36 TIME:   0.004 TIME LEFT:  2.00D  GRAD.:     1.289 HEAT:  32.83098
 CYCLE:    37 TIME:   0.008 TIME LEFT:  2.00D  GRAD.:     1.452 HEAT:  32.82810
 CYCLE:    38 TIME:   0.008 TIME LEFT:  2.00D  GRAD.:     1.276 HEAT:  32.82476
 CYCLE:    39 TIME:   0.008 TIME LEFT:  2.00D  GRAD.:     1.204 HEAT:  32.82115
 CYCLE:    40 TIME:   0.008 TIME LEFT:  2.00D  GRAD.:     1.174 HEAT:  32.81827
 CYCLE:    41 TIME:   0.004 TIME LEFT:  2.00D  GRAD.:     1.026 HEAT:  32.81581
 CYCLE:    42 TIME:   0.008 TIME LEFT:  2.00D  GRAD.:     0.935 HEAT:  32.81334
 CYCLE:    43 TIME:   0.008 TIME LEFT:  2.00D  GRAD.:     0.975 HEAT:  32.81140
 CYCLE:    44 TIME:   0.004 TIME LEFT:  2.00D  GRAD.:     1.060 HEAT:  32.80943
 CYCLE:    45 TIME:   0.008 TIME LEFT:  2.00D  GRAD.:     1.153 HEAT:  32.80712
 CYCLE:    46 TIME:   0.008 TIME LEFT:  2.00D  GRAD.:     1.090 HEAT:  32.80448
 CYCLE:    47 TIME:   0.008 TIME LEFT:  2.00D  GRAD.:     1.045 HEAT:  32.80195
 CYCLE:    48 TIME:   0.004 TIME LEFT:  2.00D  GRAD.:     1.109 HEAT:  32.79934
 CYCLE:    49 TIME:   0.008 TIME LEFT:  2.00D  GRAD.:     1.222 HEAT:  32.79639
 CYCLE:    50 TIME:   0.008 TIME LEFT:  2.00D  GRAD.:     1.236 HEAT:  32.79274
 CYCLE:    51 TIME:   0.008 TIME LEFT:  2.00D  GRAD.:     0.905 HEAT:  32.78934
 CYCLE:    52 TIME:   0.004 TIME LEFT:  2.00D  GRAD.:     0.643 HEAT:  32.78816
 CYCLE:    53 TIME:   0.008 TIME LEFT:  2.00D  GRAD.:     0.529 HEAT:  32.78711
 CYCLE:    54 TIME:   0.008 TIME LEFT:  2.00D  GRAD.:     0.463 HEAT:  32.78655
 CYCLE:    55 TIME:   0.008 TIME LEFT:  2.00D  GRAD.:     0.325 HEAT:  32.78593
 CYCLE:    56 TIME:   0.004 TIME LEFT:  2.00D  GRAD.:     0.280 HEAT:  32.78570
 CYCLE:    57 TIME:   0.008 TIME LEFT:  2.00D  GRAD.:     0.290 HEAT:  32.78551
 CYCLE:    58 TIME:   0.008 TIME LEFT:  2.00D  GRAD.:     0.353 HEAT:  32.78522
 CYCLE:    59 TIME:   0.008 TIME LEFT:  2.00D  GRAD.:     0.406 HEAT:  32.78480
 CYCLE:    60 TIME:   0.004 TIME LEFT:  2.00D  GRAD.:     0.345 HEAT:  32.78436
 CYCLE:    61 TIME:   0.008 TIME LEFT:  2.00D  GRAD.:     0.260 HEAT:  32.78416
 CYCLE:    62 TIME:   0.008 TIME LEFT:  2.00D  GRAD.:     0.284 HEAT:  32.78393
 CYCLE:    63 TIME:   0.004 TIME LEFT:  2.00D  GRAD.:     0.267 HEAT:  32.78380
 CYCLE:    64 TIME:   0.008 TIME LEFT:  2.00D  GRAD.:     0.428 HEAT:  32.78302
 CYCLE:    65 TIME:   0.008 TIME LEFT:  2.00D  GRAD.:     0.448 HEAT:  32.78266
 CYCLE:    66 TIME:   0.008 TIME LEFT:  2.00D  GRAD.:     0.871 HEAT:  32.78292
 CYCLE:    67 TIME:   0.008 TIME LEFT:  2.00D  GRAD.:     0.546 HEAT:  32.78144
 CYCLE:    68 TIME:   0.008 TIME LEFT:  2.00D  GRAD.:     0.459 HEAT:  32.78067
 CYCLE:    69 TIME:   0.008 TIME LEFT:  2.00D  GRAD.:     0.627 HEAT:  32.77890
 CYCLE:    70 TIME:   0.004 TIME LEFT:  2.00D  GRAD.:     0.754 HEAT:  32.77584
 CYCLE:    71 TIME:   0.012 TIME LEFT:  2.00D  GRAD.:     3.487 HEAT:  32.76810
 CYCLE:    72 TIME:   0.008 TIME LEFT:  2.00D  GRAD.:     2.184 HEAT:  32.76109
 CYCLE:    73 TIME:   0.008 TIME LEFT:  2.00D  GRAD.:     3.667 HEAT:  32.73747
 CYCLE:    74 TIME:   0.008 TIME LEFT:  2.00D  GRAD.:    11.200 HEAT:  32.68666
 CYCLE:    75 TIME:   0.016 TIME LEFT:  2.00D  GRAD.:     9.421 HEAT:  32.68594
 CYCLE:    76 TIME:   0.008 TIME LEFT:  2.00D  GRAD.:     5.860 HEAT:  32.62287
 CYCLE:    77 TIME:   0.008 TIME LEFT:  2.00D  GRAD.:     2.560 HEAT:  32.59784
 CYCLE:    78 TIME:   0.008 TIME LEFT:  2.00D  GRAD.:     3.294 HEAT:  32.56415
 CYCLE:    79 TIME:   0.004 TIME LEFT:  2.00D  GRAD.:     3.882 HEAT:  32.50886
 CYCLE:    80 TIME:   0.012 TIME LEFT:  2.00D  GRAD.:    10.994 HEAT:  32.46972
 CYCLE:    81 TIME:   0.004 TIME LEFT:  2.00D  GRAD.:     7.172 HEAT:  32.40894
 CYCLE:    82 TIME:   0.008 TIME LEFT:  2.00D  GRAD.:     7.474 HEAT:  32.36018
 CYCLE:    83 TIME:   0.004 TIME LEFT:  2.00D  GRAD.:     4.999 HEAT:  32.32330
 CYCLE:    84 TIME:   0.008 TIME LEFT:  2.00D  GRAD.:     8.868 HEAT:  32.29792
 CYCLE:    85 TIME:   0.008 TIME LEFT:  2.00D  GRAD.:     8.417 HEAT:  32.27419
 CYCLE:    86 TIME:   0.004 TIME LEFT:  2.00D  GRAD.:     5.144 HEAT:  32.18660
 CYCLE:    87 TIME:   0.008 TIME LEFT:  2.00D  GRAD.:     7.148 HEAT:  32.15423
 CYCLE:    88 TIME:   0.008 TIME LEFT:  2.00D  GRAD.:     3.720 HEAT:  32.12795
 CYCLE:    89 TIME:   0.008 TIME LEFT:  2.00D  GRAD.:     2.998 HEAT:  32.10569
 CYCLE:    90 TIME:   0.004 TIME LEFT:  2.00D  GRAD.:     3.241 HEAT:  32.09506
 CYCLE:    91 TIME:   0.008 TIME LEFT:  2.00D  GRAD.:     2.369 HEAT:  32.08468
 CYCLE:    92 TIME:   0.004 TIME LEFT:  2.00D  GRAD.:     3.864 HEAT:  32.07764
 CYCLE:    93 TIME:   0.008 TIME LEFT:  2.00D  GRAD.:     4.087 HEAT:  32.07316
 CYCLE:    94 TIME:   0.008 TIME LEFT:  2.00D  GRAD.:     2.294 HEAT:  32.06237
 CYCLE:    95 TIME:   0.004 TIME LEFT:  2.00D  GRAD.:     1.767 HEAT:  32.05667
 CYCLE:    96 TIME:   0.008 TIME LEFT:  2.00D  GRAD.:     2.654 HEAT:  32.04711
 CYCLE:    97 TIME:   0.008 TIME LEFT:  2.00D  GRAD.:     2.787 HEAT:  32.03659
 CYCLE:    98 TIME:   0.008 TIME LEFT:  2.00D  GRAD.:     2.631 HEAT:  32.02132
 CYCLE:    99 TIME:   0.004 TIME LEFT:  2.00D  GRAD.:     1.984 HEAT:  32.01351
 CYCLE:   100 TIME:   0.008 TIME LEFT:  2.00D  GRAD.:     1.821 HEAT:  32.00574
 CYCLE:   101 TIME:   0.008 TIME LEFT:  2.00D  GRAD.:     2.157 HEAT:  32.00393
 CYCLE:   102 TIME:   0.008 TIME LEFT:  2.00D  GRAD.:     1.421 HEAT:  31.99777
 CYCLE:   103 TIME:   0.004 TIME LEFT:  2.00D  GRAD.:     0.975 HEAT:  31.99477
 CYCLE:   104 TIME:   0.008 TIME LEFT:  2.00D  GRAD.:     0.809 HEAT:  31.99277
 CYCLE:   105 TIME:   0.008 TIME LEFT:  2.00D  GRAD.:     0.778 HEAT:  31.99153
 CYCLE:   106 TIME:   0.008 TIME LEFT:  2.00D  GRAD.:     0.818 HEAT:  31.98967
 CYCLE:   107 TIME:   0.004 TIME LEFT:  2.00D  GRAD.:     1.009 HEAT:  31.98786
 CYCLE:   108 TIME:   0.008 TIME LEFT:  2.00D  GRAD.:     1.030 HEAT:  31.98555
 CYCLE:   109 TIME:   0.008 TIME LEFT:  2.00D  GRAD.:     1.128 HEAT:  31.98298
 CYCLE:   110 TIME:   0.008 TIME LEFT:  2.00D  GRAD.:     1.326 HEAT:  31.98013
 CYCLE:   111 TIME:   0.008 TIME LEFT:  2.00D  GRAD.:     1.650 HEAT:  31.97644
 CYCLE:   112 TIME:   0.008 TIME LEFT:  2.00D  GRAD.:     1.944 HEAT:  31.97174
 CYCLE:   113 TIME:   0.004 TIME LEFT:  2.00D  GRAD.:     3.051 HEAT:  31.96565
 CYCLE:   114 TIME:   0.008 TIME LEFT:  2.00D  GRAD.:     2.710 HEAT:  31.96514
 CYCLE:   115 TIME:   0.008 TIME LEFT:  2.00D  GRAD.:     1.200 HEAT:  31.95563
 CYCLE:   116 TIME:   0.004 TIME LEFT:  2.00D  GRAD.:     1.072 HEAT:  31.95284
 CYCLE:   117 TIME:   0.008 TIME LEFT:  2.00D  GRAD.:     1.276 HEAT:  31.95080
 CYCLE:   118 TIME:   0.008 TIME LEFT:  2.00D  GRAD.:     1.072 HEAT:  31.94947
 CYCLE:   119 TIME:   0.008 TIME LEFT:  2.00D  GRAD.:     1.090 HEAT:  31.94789
 CYCLE:   120 TIME:   0.008 TIME LEFT:  2.00D  GRAD.:     0.836 HEAT:  31.94636
 CYCLE:   121 TIME:   0.008 TIME LEFT:  2.00D  GRAD.:     0.870 HEAT:  31.94486
 CYCLE:   122 TIME:   0.008 TIME LEFT:  2.00D  GRAD.:     0.942 HEAT:  31.94339
 CYCLE:   123 TIME:   0.008 TIME LEFT:  2.00D  GRAD.:     1.265 HEAT:  31.94142
 CYCLE:   124 TIME:   0.008 TIME LEFT:  2.00D  GRAD.:     0.797 HEAT:  31.94002
 CYCLE:   125 TIME:   0.004 TIME LEFT:  2.00D  GRAD.:     0.475 HEAT:  31.93931
 CYCLE:   126 TIME:   0.008 TIME LEFT:  2.00D  GRAD.:     0.294 HEAT:  31.93833
 CYCLE:   127 TIME:   0.008 TIME LEFT:  2.00D  GRAD.:     0.730 HEAT:  31.93800
 CYCLE:   128 TIME:   0.008 TIME LEFT:  2.00D  GRAD.:     0.359 HEAT:  31.93762
 CYCLE:   129 TIME:   0.008 TIME LEFT:  2.00D  GRAD.:     0.247 HEAT:  31.93755
 CYCLE:   130 TIME:   0.004 TIME LEFT:  2.00D  GRAD.:     0.140 HEAT:  31.93738
 CYCLE:   131 TIME:   0.051 TIME LEFT:  2.00D  GRAD.:     1.613 HEAT:  31.93812
 CYCLE:   132 TIME:   0.004 TIME LEFT:  2.00D  GRAD.:     0.094 HEAT:  31.93733
 CYCLE:   133 TIME:   0.004 TIME LEFT:  2.00D  GRAD.:     0.087 HEAT:  31.93731
 CYCLE:   134 TIME:   0.008 TIME LEFT:  2.00D  GRAD.:     0.164 HEAT:  31.93730
 CYCLE:   135 TIME:   0.004 TIME LEFT:  2.00D  GRAD.:     0.082 HEAT:  31.93727
 CYCLE:   136 TIME:   0.008 TIME LEFT:  2.00D  GRAD.:     0.065 HEAT:  31.93727
 CYCLE:   137 TIME:   0.008 TIME LEFT:  2.00D  GRAD.:     0.039 HEAT:  31.93726

     GRADIENT =  0.03873 IS LESS THAN CUTOFF =  0.05000



 -------------------------------------------------------------------------------
 pm3  precise nosym THREADS=1
 InChI=1S/C9H12/c1-8(2)9-6-4-3-5-7-9/h3-6,9H,1,7H2,2H3



     GEOMETRY OPTIMISED USING EIGENVECTOR FOLLOWING (EF).     
     SCF FIELD WAS ACHIEVED                                   


                              PM3 CALCULATION
                                                       MOPAC v23.1.2 MacOS
                                                       Tue Jun  3 16:30:47 2025




          FINAL HEAT OF FORMATION =         31.93726 KCAL/MOL =     133.62551 KJ/MOL


          COSMO AREA              =        172.15 SQUARE ANGSTROMS
          COSMO VOLUME            =        174.58 CUBIC ANGSTROMS

          GRADIENT NORM           =          0.03873          =       0.00845 PER ATOM
          IONIZATION POTENTIAL    =          8.965065 EV
          HOMO LUMO ENERGIES (EV) =         -8.965  0.270
          NO. OF FILLED LEVELS    =         24
          MOLECULAR WEIGHT        =        120.1938         POINT GROUP:  C1  

          MOLECULAR DIMENSIONS (Angstroms)

            Atom       Atom       Distance
            H    19    H    15     7.38980
            H    17    H    16     4.51418
            H    21    H    14     3.60112


          SCF CALCULATIONS        =        151

          WALL-CLOCK TIME         =      1.020 SECONDS
          COMPUTATION TIME        =      0.636 SECONDS




   ATOM   CHEMICAL          X               Y               Z
  NUMBER   SYMBOL      (ANGSTROMS)     (ANGSTROMS)     (ANGSTROMS)

     1       C         -0.03711508  *  -0.36402482  *   0.24873162  *
     2       C          0.68195620  *   0.90148030  *   0.73249653  *
     3       C         -2.42369294  *  -0.29359751  *   1.09085844  *
     4       C         -1.48080701  *  -0.04100757  *  -0.03104564  *
     5       C          0.64274039  *  -0.99826954  *  -0.92268146  *
     6       C          2.16165489  *   0.81757051  *   0.61155014  *
     7       C          1.95416050  *  -0.84061690  *  -1.14249456  *
     8       C          2.75305622  *   0.00600367  *  -0.27443501  *
     9       C         -1.88944033  *   0.45628721  *  -1.19809175  *
    10       H          0.00188436  *  -1.13272685  *   1.06334928  *
    11       H          0.34419576  *   1.78489584  *   0.15102690  *
    12       H          0.39446161  *   1.10488276  *   1.78288990  *
    13       H         -2.08563516  *   0.21858790  *   2.00256811  *
    14       H         -2.48071382  *  -1.36763245  *   1.31529377  *
    15       H         -3.44134413  *   0.05409539  *   0.87019319  *
    16       H          0.02310177  *  -1.62802298  *  -1.57026483  *
    17       H          2.74712989  *   1.47990848  *   1.25761577  *
    18       H          2.46079248  *  -1.33855039  *  -1.97513666  *
    19       H          3.84151088  *  -0.03845617  *  -0.37902829  *
    20       H         -2.92736396  *   0.70245067  *  -1.40286818  *
    21       H         -1.20785135  *   0.64688579  *  -2.02260741  *

                             CARTESIAN COORDINATES

   1    C       -0.037115082    -0.364024820     0.248731615
   2    C        0.681956200     0.901480296     0.732496527
   3    C       -2.423692943    -0.293597511     1.090858444
   4    C       -1.480807010    -0.041007572    -0.031045644
   5    C        0.642740387    -0.998269538    -0.922681461
   6    C        2.161654894     0.817570505     0.611550142
   7    C        1.954160502    -0.840616895    -1.142494560
   8    C        2.753056224     0.006003665    -0.274435011
   9    C       -1.889440330     0.456287209    -1.198091747
  10    H        0.001884363    -1.132726854     1.063349278
  11    H        0.344195763     1.784895837     0.151026903
  12    H        0.394461608     1.104882759     1.782889900
  13    H       -2.085635159     0.218587900     2.002568111
  14    H       -2.480713824    -1.367632448     1.315293767
  15    H       -3.441344127     0.054095386     0.870193186
  16    H        0.023101774    -1.628022981    -1.570264834
  17    H        2.747129887     1.479908480     1.257615767
  18    H        2.460792484    -1.338550387    -1.975136657
  19    H        3.841510877    -0.038456172    -0.379028294
  20    H       -2.927363960     0.702450675    -1.402868177
  21    H       -1.207851354     0.646885787    -2.022607407


           Empirical Formula: C9 H12  =    21 atoms



      MOLECULAR POINT GROUP   :   C1  


                  EIGENVALUES  
 -40.82914 -35.10903 -30.06777 -28.64925 -26.86802 -22.58215 -21.12139 -18.68684
 -17.59242 -16.74842 -15.99507 -15.76154 -14.96774 -14.42232 -14.28472 -14.10855
 -13.09069 -12.90949 -12.60897 -12.01675 -11.75100 -11.42232  -9.93160  -8.96506
   0.26971   1.04920   2.06892   3.16771   3.41052   3.44094   3.59257   3.72693
   3.77815   3.87440   4.06572   4.12930   4.35889   4.37394   4.41372   4.57863
   4.68416   4.72110   5.02384   5.38326   5.66946   5.83782   6.07124   6.19142


              NET ATOMIC CHARGES AND DIPOLE CONTRIBUTIONS

  ATOM NO.   TYPE          CHARGE      No. of ELECS.   s-Pop       p-Pop       
    1          C          -0.002278        4.0023     1.15261     2.84967
    2          C          -0.058618        4.0586     1.14909     2.90953
    3          C          -0.071090        4.0711     1.12686     2.94422
    4          C          -0.114602        4.1146     1.19988     2.91472
    5          C          -0.132708        4.1327     1.19924     2.93347
    6          C          -0.134479        4.1345     1.19642     2.93806
    7          C          -0.114737        4.1147     1.17916     2.93558
    8          C          -0.115448        4.1154     1.17910     2.93635
    9          C          -0.166525        4.1665     1.18210     2.98442
   10          H           0.071990        0.9280     0.92801
   11          H           0.063947        0.9361     0.93605
   12          H           0.056009        0.9440     0.94399
   13          H           0.045333        0.9547     0.95467
   14          H           0.046528        0.9535     0.95347
   15          H           0.043768        0.9562     0.95623
   16          H           0.106264        0.8937     0.89374
   17          H           0.099164        0.9008     0.90084
   18          H           0.102274        0.8977     0.89773
   19          H           0.102159        0.8978     0.89784
   20          H           0.084274        0.9157     0.91573
   21          H           0.088773        0.9112     0.91123
 DIPOLE           X         Y         Z       TOTAL
 POINT-CHG.    -0.253     0.041     0.387     0.464
 HYBRID        -0.004     0.017    -0.001     0.018
 SUM           -0.257     0.058     0.386     0.467


          ATOMIC ORBITAL ELECTRON POPULATIONS

     Atom    s        px        py        pz   
    1  C   1.15261   0.91578   0.96432   0.96957
    2  C   1.14909   0.93279   0.97066   1.00608
    3  C   1.12686   0.97434   1.00554   0.96435
    4  C   1.19988   0.95268   0.99582   0.96622
    5  C   1.19924   0.96105   0.99338   0.97904
    6  C   1.19642   0.96347   0.99074   0.98385
    7  C   1.17916   0.95041   0.99489   0.99029
    8  C   1.17910   0.98012   0.98426   0.97196
    9  C   1.18210   1.00766   1.00882   0.96794
   10  H   0.92801
   11  H   0.93605
   12  H   0.94399
   13  H   0.95467
   14  H   0.95347
   15  H   0.95623
   16  H   0.89374
   17  H   0.90084
   18  H   0.89773
   19  H   0.89784
   20  H   0.91573
   21  H   0.91123
 *******************************************************************************
 **                                                                           **
 **                              MOPAC v23.1.2                                **
 **                                                                           **
 *******************************************************************************
 **          Digital Object Identifier (DOI): 10.5281/zenodo.6511958          **
 **    Visit the DOI location for information on how to cite this program.    **
 *******************************************************************************

                              PM3 CALCULATION RESULTS

 *******************************************************************************
 *  CALCULATION DONE: (MAX THREADS = 1)              Tue Jun  3 16:30:47 2025  *
 *  PM3        - The PM3 Hamiltonian to be used
 *  OLDGEO     - PREVIOUS GEOMETRY TO BE USED
 *  PRECISE    - TIGHTER CRITERIA TO BE USED
 *  NOSYM      - POINT-GROUP SYMMETRY SET TO C1
 *  THREADS=1  - MULTI-THREADING NOT USED
 *  T=         - A TIME OF 172800.0 SECONDS REQUESTED
 *  DUMP=N     - RESTART FILE WRITTEN EVERY 7200.0 SECONDS REQUESTED
 *  THERMO     - THERMODYNAMIC QUANTITIES TO BE CALCULATED
 *******************************************************************************
oldgeo thermo nosym precise THREADS=1  pm3
 InChI=1S/C9H12/c1-8(2)9-6-4-3-5-7-9/h3-6,9H,1,7H2,2H3

   ATOM   CHEMICAL          X               Y               Z
  NUMBER   SYMBOL      (ANGSTROMS)     (ANGSTROMS)     (ANGSTROMS)

     1       C         -0.03711508  *  -0.36402482  *   0.24873162  *
     2       C          0.68195620  *   0.90148030  *   0.73249653  *
     3       C         -2.42369294  *  -0.29359751  *   1.09085844  *
     4       C         -1.48080701  *  -0.04100757  *  -0.03104564  *
     5       C          0.64274039  *  -0.99826954  *  -0.92268146  *
     6       C          2.16165489  *   0.81757051  *   0.61155014  *
     7       C          1.95416050  *  -0.84061690  *  -1.14249456  *
     8       C          2.75305622  *   0.00600367  *  -0.27443501  *
     9       C         -1.88944033  *   0.45628721  *  -1.19809175  *
    10       H          0.00188436  *  -1.13272685  *   1.06334928  *
    11       H          0.34419576  *   1.78489584  *   0.15102690  *
    12       H          0.39446161  *   1.10488276  *   1.78288990  *
    13       H         -2.08563516  *   0.21858790  *   2.00256811  *
    14       H         -2.48071382  *  -1.36763245  *   1.31529377  *
    15       H         -3.44134413  *   0.05409539  *   0.87019319  *
    16       H          0.02310177  *  -1.62802298  *  -1.57026483  *
    17       H          2.74712989  *   1.47990848  *   1.25761577  *
    18       H          2.46079248  *  -1.33855039  *  -1.97513666  *
    19       H          3.84151088  *  -0.03845617  *  -0.37902829  *
    20       H         -2.92736396  *   0.70245067  *  -1.40286818  *
    21       H         -1.20785135  *   0.64688579  *  -2.02260741  *



          CARTESIAN COORDINATES 

    NO.       ATOM           X           Y           Z

     1         C         -0.0371     -0.3640      0.2487
     2         C          0.6820      0.9015      0.7325
     3         C         -2.4237     -0.2936      1.0909
     4         C         -1.4808     -0.0410     -0.0310
     5         C          0.6427     -0.9983     -0.9227
     6         C          2.1617      0.8176      0.6116
     7         C          1.9542     -0.8406     -1.1425
     8         C          2.7531      0.0060     -0.2744
     9         C         -1.8894      0.4563     -1.1981
    10         H          0.0019     -1.1327      1.0633
    11         H          0.3442      1.7849      0.1510
    12         H          0.3945      1.1049      1.7829
    13         H         -2.0856      0.2186      2.0026
    14         H         -2.4807     -1.3676      1.3153
    15         H         -3.4413      0.0541      0.8702
    16         H          0.0231     -1.6280     -1.5703
    17         H          2.7471      1.4799      1.2576
    18         H          2.4608     -1.3386     -1.9751
    19         H          3.8415     -0.0385     -0.3790
    20         H         -2.9274      0.7025     -1.4029
    21         H         -1.2079      0.6469     -2.0226

  H: (PM3): J. J. P. STEWART, J. COMP. CHEM. 10, 209 (1989).
  C: (PM3): J. J. P. STEWART, J. COMP. CHEM. 10, 209 (1989).

           Empirical Formula: C9 H12  =    21 atoms



      MOLECULAR POINT GROUP   :   C1  


      RHF CALCULATION, NO. OF DOUBLY OCCUPIED LEVELS = 24



          HEAT OF FORMATION =      31.937263 KCALS/MOLE


          CARTESIAN COORDINATE DERIVATIVES

   NUMBER  ATOM         X            Y            Z

     1       C     -0.001463    -0.001322    -0.000353
     2       C     -0.000199     0.001555     0.003740
     3       C      0.010372    -0.000187     0.000143
     4       C      0.000588     0.000885    -0.000192
     5       C     -0.002566    -0.000118     0.002318
     6       C     -0.003317     0.002687     0.001193
     7       C     -0.002910     0.004011    -0.003072
     8       C      0.000977     0.001386    -0.001224
     9       C     -0.005882     0.002701     0.001663
    10       H      0.004510    -0.010471     0.001914
    11       H      0.006397    -0.010690     0.007281
    12       H     -0.009820     0.001785     0.001199
    13       H      0.013831    -0.003446    -0.003714
    14       H     -0.012876     0.004612     0.002583
    15       H     -0.003109     0.004331    -0.005042
    16       H     -0.001334     0.001795     0.001335
    17       H      0.003394     0.004272    -0.002959
    18       H      0.002621    -0.000049    -0.002097
    19       H     -0.000348     0.002592    -0.002094
    20       H     -0.005731    -0.005493     0.003242
    21       H      0.006867    -0.000836    -0.005866



          GRADIENT NORM =   0.03708

          MOLECULAR WEIGHT =  120.19



          ROTATIONAL CONSTANTS IN CM(-1)

          A =    0.11221874   B =    0.03802183   C =    0.03299840



           PRINCIPAL MOMENTS OF INERTIA IN UNITS OF 10**(-40)*GRAM-CM**2

          A =      249.4481   B =      736.2285   C =      848.3065


          ORIENTATION OF MOLECULE IN FORCE CALCULATION

    NO.       ATOM         X         Y         Z

     1          C      -0.2898    0.2612    0.3610
     2          C       1.2440    0.2612    0.3610
     3          C      -1.0850    2.6648    0.3610
     4          C      -0.7884    1.4411   -0.4302
     5          C      -0.8638   -1.0327   -0.1217
     6          C       1.8303   -1.0589    0.7143
     7          C      -0.1883   -2.1837   -0.0131
     8          C       1.1585   -2.2025    0.5293
     9          C      -0.9377    1.4031   -1.7541
    10          H      -0.6488    0.3666    1.4174
    11          H       1.6311    0.5468   -0.6396
    12          H       1.6083    1.0411    1.0583
    13          H      -0.2163    2.9510    0.9705
    14          H      -1.9270    2.4900    1.0447
    15          H      -1.3448    3.5222   -0.2736
    16          H      -1.8782   -0.9984   -0.5338
    17          H       2.8551   -1.0555    1.1001
    18          H      -0.6242   -3.1373   -0.3272
    19          H       1.5992   -3.1754    0.7680
    20          H      -1.2858    2.2540   -2.3326
    21          H      -0.7210    0.5148   -2.3411


    FIRST DERIVATIVES WILL BE USED IN THE CALCULATION OF SECOND DERIVATIVES

          ESTIMATED TIME TO COMPLETE CALCULATION =        1.97 SECONDS

    FOR POINT-GROUP C1   THERE ARE   1 UNIQUE SYMMETRY FUNCTIONS.

 STEP:   1 TIME =     0.02 SECS, INTEGRAL =      0.02 TIME LEFT: 172799.97
 STEP:   2 TIME =     0.02 SECS, INTEGRAL =      0.04 TIME LEFT: 172799.95
 STEP:   3 TIME =     0.02 SECS, INTEGRAL =      0.06 TIME LEFT: 172799.93
 STEP:   4 TIME =     0.02 SECS, INTEGRAL =      0.08 TIME LEFT: 172799.91
 STEP:   5 TIME =     0.02 SECS, INTEGRAL =      0.10 TIME LEFT: 172799.89
 STEP:   6 TIME =     0.02 SECS, INTEGRAL =      0.12 TIME LEFT: 172799.88
 STEP:   7 TIME =     0.02 SECS, INTEGRAL =      0.14 TIME LEFT: 172799.85
 STEP:   8 TIME =     0.02 SECS, INTEGRAL =      0.16 TIME LEFT: 172799.83
 STEP:   9 TIME =     0.02 SECS, INTEGRAL =      0.18 TIME LEFT: 172799.81
 STEP:  10 TIME =     0.02 SECS, INTEGRAL =      0.20 TIME LEFT: 172799.79
 STEP:  11 TIME =     0.02 SECS, INTEGRAL =      0.22 TIME LEFT: 172799.77
 STEP:  12 TIME =     0.02 SECS, INTEGRAL =      0.24 TIME LEFT: 172799.75
 STEP:  13 TIME =     0.02 SECS, INTEGRAL =      0.26 TIME LEFT: 172799.73
 STEP:  14 TIME =     0.02 SECS, INTEGRAL =      0.28 TIME LEFT: 172799.71
 STEP:  15 TIME =     0.02 SECS, INTEGRAL =      0.30 TIME LEFT: 172799.69
 STEP:  16 TIME =     0.02 SECS, INTEGRAL =      0.32 TIME LEFT: 172799.67
 STEP:  17 TIME =     0.02 SECS, INTEGRAL =      0.34 TIME LEFT: 172799.65
 STEP:  18 TIME =     0.02 SECS, INTEGRAL =      0.36 TIME LEFT: 172799.63
 STEP:  19 TIME =     0.02 SECS, INTEGRAL =      0.38 TIME LEFT: 172799.61
 STEP:  20 TIME =     0.02 SECS, INTEGRAL =      0.40 TIME LEFT: 172799.59
 STEP:  21 TIME =     0.02 SECS, INTEGRAL =      0.42 TIME LEFT: 172799.57
 STEP:  22 TIME =     0.02 SECS, INTEGRAL =      0.44 TIME LEFT: 172799.55
 STEP:  23 TIME =     0.02 SECS, INTEGRAL =      0.45 TIME LEFT: 172799.54
 STEP:  24 TIME =     0.02 SECS, INTEGRAL =      0.47 TIME LEFT: 172799.52
 STEP:  25 TIME =     0.02 SECS, INTEGRAL =      0.50 TIME LEFT: 172799.50
 STEP:  26 TIME =     0.02 SECS, INTEGRAL =      0.52 TIME LEFT: 172799.48
 STEP:  27 TIME =     0.02 SECS, INTEGRAL =      0.54 TIME LEFT: 172799.46
 STEP:  28 TIME =     0.02 SECS, INTEGRAL =      0.55 TIME LEFT: 172799.44
 STEP:  29 TIME =     0.02 SECS, INTEGRAL =      0.57 TIME LEFT: 172799.42
 STEP:  30 TIME =     0.02 SECS, INTEGRAL =      0.59 TIME LEFT: 172799.40
 STEP:  31 TIME =     0.02 SECS, INTEGRAL =      0.61 TIME LEFT: 172799.38
 STEP:  32 TIME =     0.02 SECS, INTEGRAL =      0.63 TIME LEFT: 172799.36
 STEP:  33 TIME =     0.02 SECS, INTEGRAL =      0.65 TIME LEFT: 172799.34
 STEP:  34 TIME =     0.02 SECS, INTEGRAL =      0.68 TIME LEFT: 172799.32
 STEP:  35 TIME =     0.02 SECS, INTEGRAL =      0.70 TIME LEFT: 172799.30
 STEP:  36 TIME =     0.02 SECS, INTEGRAL =      0.72 TIME LEFT: 172799.27
 STEP:  37 TIME =     0.02 SECS, INTEGRAL =      0.74 TIME LEFT: 172799.25
 STEP:  38 TIME =     0.02 SECS, INTEGRAL =      0.76 TIME LEFT: 172799.23
 STEP:  39 TIME =     0.02 SECS, INTEGRAL =      0.78 TIME LEFT: 172799.21
 STEP:  40 TIME =     0.02 SECS, INTEGRAL =      0.80 TIME LEFT: 172799.19
 STEP:  41 TIME =     0.02 SECS, INTEGRAL =      0.82 TIME LEFT: 172799.17
 STEP:  42 TIME =     0.02 SECS, INTEGRAL =      0.84 TIME LEFT: 172799.15
 STEP:  43 TIME =     0.02 SECS, INTEGRAL =      0.86 TIME LEFT: 172799.13
 STEP:  44 TIME =     0.02 SECS, INTEGRAL =      0.88 TIME LEFT: 172799.12
 STEP:  45 TIME =     0.02 SECS, INTEGRAL =      0.89 TIME LEFT: 172799.10
 STEP:  46 TIME =     0.02 SECS, INTEGRAL =      0.91 TIME LEFT: 172799.08
 STEP:  47 TIME =     0.02 SECS, INTEGRAL =      0.93 TIME LEFT: 172799.06
 STEP:  48 TIME =     0.02 SECS, INTEGRAL =      0.96 TIME LEFT: 172799.04
 STEP:  49 TIME =     0.02 SECS, INTEGRAL =      0.98 TIME LEFT: 172799.02
 STEP:  50 TIME =     0.02 SECS, INTEGRAL =      1.00 TIME LEFT: 172799.00
 STEP:  51 TIME =     0.02 SECS, INTEGRAL =      1.02 TIME LEFT: 172798.97
 STEP:  52 TIME =     0.02 SECS, INTEGRAL =      1.04 TIME LEFT: 172798.95
 STEP:  53 TIME =     0.02 SECS, INTEGRAL =      1.06 TIME LEFT: 172798.93
 STEP:  54 TIME =     0.02 SECS, INTEGRAL =      1.08 TIME LEFT: 172798.91
 STEP:  55 TIME =     0.02 SECS, INTEGRAL =      1.10 TIME LEFT: 172798.89
 STEP:  56 TIME =     0.02 SECS, INTEGRAL =      1.11 TIME LEFT: 172798.88
 STEP:  57 TIME =     0.02 SECS, INTEGRAL =      1.14 TIME LEFT: 172798.86
 STEP:  58 TIME =     0.02 SECS, INTEGRAL =      1.16 TIME LEFT: 172798.84
 STEP:  59 TIME =     0.02 SECS, INTEGRAL =      1.17 TIME LEFT: 172798.82
 STEP:  60 TIME =     0.02 SECS, INTEGRAL =      1.19 TIME LEFT: 172798.80
 STEP:  61 TIME =     0.02 SECS, INTEGRAL =      1.21 TIME LEFT: 172798.78
 STEP:  62 TIME =     0.02 SECS, INTEGRAL =      1.23 TIME LEFT: 172798.76
 STEP:  63 TIME =     0.02 SECS, INTEGRAL =      1.25 TIME LEFT: 172798.75

(To convert to Hartree/Bohr^2, multiply by (10^(-21) x N x a0^2)/(4.184 x 627.51) =  0.0642)


           FORCE MATRIX IN MILLIDYNES/ANGSTROM


                  C  1       C  2       C  3       C  4       C  5       C  6
 ------------------------------------------------------------------------------
     C    1  14.851435
     C    2   3.743353  14.588076
     C    3   0.601916   0.029260  14.706975
     C    4   4.343497   0.679411   4.984344  18.297066
     C    5   4.661186   0.640189   0.040345   0.683307  18.006315
     C    6   0.646327   4.956080   0.003063   0.050216   0.149530  17.996130
     C    7   0.837730   0.118283   0.008048   0.051640  10.293243   1.134779
     C    8   0.120532   0.865316   0.001215   0.010633   1.128310  10.287643
     C    9   0.764276   0.041222   0.844071  10.732286   0.069137   0.006256
     H   10   4.107948   0.429853   0.067207   0.433772   0.374180   0.012486
     H   11   0.448939   4.377455   0.002237   0.055340   0.011969   0.403837
     H   12   0.436210   4.460646   0.006638   0.016415   0.048640   0.438134
     H   13   0.025254   0.007861   4.689057   0.452018   0.001779   0.000930
     H   14   0.020693   0.002138   4.697318   0.447391   0.001736   0.000552
     H   15   0.043038   0.002080   4.739803   0.470287   0.007014   0.000591
     H   16   0.433652   0.040622   0.002452   0.033478   4.839983   0.013957
     H   17   0.043898   0.426456   0.000943   0.008579   0.016726   4.851766
     H   18   0.122425   0.006749   0.001592   0.013086   0.444746   0.047077
     H   19   0.005218   0.123101   0.000379   0.000833   0.047279   0.445764
     H   20   0.124166   0.017077   0.090758   0.476153   0.008160   0.002636
     H   21   0.089869   0.015390   0.131027   0.477761   0.018955   0.003642


                  C  7       C  8       C  9       H 10       H 11       H 12
 ------------------------------------------------------------------------------
     C    7  18.383869
     C    8   5.621157  18.377776
     C    9   0.006116   0.002271  18.045251
     H   10   0.035755   0.018090   0.045505   4.552666
     H   11   0.019660   0.034442   0.008346   0.044402   4.976503
     H   12   0.010136   0.047543   0.001945   0.035304   0.567812   5.052815
     H   13   0.000788   0.000464   0.037997   0.012168   0.000518   0.009006
     H   14   0.000646   0.000205   0.033320   0.024909   0.000344   0.000201
     H   15   0.001546   0.000264   0.048835   0.002259   0.000404   0.000379
     H   16   0.441332   0.126593   0.013628   0.015313   0.004758   0.007600
     H   17   0.126705   0.445277   0.001266   0.004351   0.016318   0.035165
     H   18   4.865119   0.434602   0.001451   0.016103   0.000796   0.001079
     H   19   0.434566   4.868900   0.000703   0.000844   0.017267   0.012955
     H   20   0.001441   0.000468   5.086551   0.009647   0.001257   0.000416
     H   21   0.003913   0.001240   5.079343   0.005104   0.004442   0.000689


                  H 13       H 14       H 15       H 16       H 17       H 18
 ------------------------------------------------------------------------------
     H   13   5.403900
     H   14   0.570414   5.415960
     H   15   0.560041   0.564239   5.459953
     H   16   0.000696   0.000751   0.000493   5.219601
     H   17   0.000230   0.000180   0.000187   0.009408   5.226168
     H   18   0.000149   0.000186   0.000341   0.066507   0.007866   5.232100
     H   19   0.000153   0.000110   0.000066   0.007706   0.066143   0.030582
     H   20   0.010774   0.012050   0.029852   0.001411   0.000611   0.000254
     H   21   0.017248   0.018204   0.002634   0.015258   0.000667   0.001112


                  H 19       H 20       H 21
 ------------------------------------------
     H   19   5.236994
     H   20   0.000190   5.475344
     H   21   0.000466   0.408105   5.463986


          HEAT OF FORMATION =      31.937263 KCALS/MOLE

          ZERO POINT ENERGY     113.770 KCAL/MOL


           NORMAL COORDINATE ANALYSIS (Total motion = 1 Angstrom)


   Root No.       1         2         3         4         5         6         7         8

                 1 A       2 A       3 A       4 A       5 A       6 A       7 A       8 A   

                  42.6      76.7     133.1     200.6     236.8     322.4     339.1     453.9
  
           1   -0.0139    0.0106   -0.0003   -0.0318    0.0187    0.0040   -0.0138    0.0050
           2   -0.0081   -0.0051   -0.0008   -0.0174    0.0068    0.0062   -0.0031    0.0020
           3   -0.0053   -0.0273   -0.0022   -0.0120   -0.0230   -0.0103    0.0054   -0.0244
           4   -0.0137    0.0100   -0.0001   -0.0315    0.0186    0.0030   -0.0116   -0.0008
           5    0.0063   -0.0098    0.0012    0.0112    0.0014   -0.0092   -0.0284    0.0037
           6    0.0257   -0.0496   -0.0070   -0.0009    0.0391    0.0022   -0.0017   -0.0055
           7    0.0610   -0.0021    0.0027    0.0281   -0.0136    0.0029   -0.0227   -0.0036
           8    0.0150   -0.0118   -0.0023   -0.0082   -0.0109   -0.0193    0.0601    0.0157
           9   -0.0048    0.0273    0.0032    0.0136    0.0003   -0.0008   -0.0376    0.0156
          10   -0.0063   -0.0031    0.0005   -0.0075    0.0086    0.0050   -0.0123    0.0050
          11   -0.0032    0.0058   -0.0001   -0.0044    0.0061   -0.0021    0.0190    0.0208
          12   -0.0025   -0.0008   -0.0012   -0.0068   -0.0194   -0.0289    0.0201    0.0081
          13    0.0082    0.0128   -0.0006   -0.0137    0.0146   -0.0122    0.0184    0.0096
          14   -0.0102   -0.0049   -0.0027   -0.0293    0.0078   -0.0064   -0.0215   -0.0013
          15   -0.0258   -0.0318    0.0043    0.0022   -0.0155    0.0498    0.0014   -0.0304
          16   -0.0077   -0.0041    0.0036    0.0010    0.0126   -0.0078    0.0069   -0.0164
          17    0.0092    0.0017    0.0031    0.0214   -0.0177   -0.0037   -0.0245    0.0064
          18    0.0262    0.0205   -0.0071   -0.0271   -0.0167    0.0441   -0.0013    0.0284
          19    0.0175    0.0047    0.0007   -0.0005   -0.0135    0.0076    0.0213   -0.0160
          20   -0.0044   -0.0063   -0.0017   -0.0194   -0.0037   -0.0007   -0.0225   -0.0117
          21   -0.0223    0.0096    0.0083    0.0351    0.0334   -0.0042    0.0091    0.0346
          22    0.0073   -0.0110    0.0035    0.0125   -0.0044    0.0187    0.0235    0.0134
          23    0.0041    0.0004    0.0018    0.0099   -0.0115   -0.0069   -0.0344   -0.0012
          24    0.0031    0.0508    0.0014    0.0041    0.0074   -0.0318    0.0023   -0.0399
          25   -0.0570   -0.0172   -0.0080    0.0319   -0.0323   -0.0153   -0.0061    0.0057
          26   -0.0114    0.0321    0.0017    0.0307    0.0217    0.0401    0.0416   -0.0237
          27    0.0035    0.0001   -0.0002   -0.0118   -0.0153   -0.0279    0.0182    0.0100
          28   -0.0371    0.0275    0.0010   -0.0440   -0.0084    0.0080   -0.0182   -0.0059
          29   -0.0191   -0.0192    0.0032   -0.0221    0.0042    0.0410   -0.0020   -0.0259
          30   -0.0121   -0.0198   -0.0021   -0.0153   -0.0305   -0.0109    0.0026   -0.0250
          31    0.0042   -0.0029   -0.0038   -0.0302    0.0658    0.0120   -0.0236    0.0125
          32    0.0187   -0.0699    0.0006    0.0442    0.0751   -0.0565   -0.0425   -0.0442
          33    0.0364   -0.0714   -0.0086    0.0087    0.0794   -0.0080   -0.0106   -0.0148
          34   -0.0350    0.0241    0.0008   -0.0541   -0.0123    0.0068    0.0030   -0.0044
          35    0.0037    0.0273    0.0025    0.0034   -0.0497    0.0176   -0.0244    0.0333
          36    0.0400   -0.0987   -0.0089    0.0204    0.1135   -0.0302   -0.0146   -0.0375
          37    0.0860    0.0035   -0.0993    0.0504   -0.0207    0.0049   -0.0330   -0.0089
          38   -0.0149   -0.0177   -0.1592   -0.0281   -0.0034   -0.0284    0.0973    0.0187
          39   -0.0263    0.0222    0.2223   -0.0082    0.0066    0.0009   -0.0419    0.0216
          40    0.0693    0.0076   -0.1803    0.0452   -0.0113    0.0081   -0.0345   -0.0047
          41    0.0541   -0.0315    0.0728   -0.0016   -0.0400   -0.0416    0.1025    0.0051
          42    0.0153    0.0344   -0.2032    0.0362   -0.0038    0.0003   -0.0424    0.0117
          43    0.0813   -0.0162    0.2709    0.0240   -0.0315   -0.0073   -0.0126   -0.0077
          44    0.0207   -0.0010    0.0719    0.0026   -0.0050   -0.0044    0.0264    0.0158
          45   -0.0055    0.0478   -0.0062    0.0301    0.0156    0.0237   -0.0900    0.0179
          46    0.0147    0.0266   -0.0017   -0.0128    0.0227   -0.0446    0.0240    0.0099
          47   -0.0180   -0.0043   -0.0053   -0.0490    0.0154   -0.0190   -0.0389   -0.0039
          48   -0.0428   -0.0650    0.0070   -0.0008   -0.0355    0.1288   -0.0137   -0.0315
          49   -0.0153   -0.0139    0.0062    0.0165    0.0313   -0.0321    0.0106   -0.0295
          50    0.0161    0.0097    0.0055    0.0392   -0.0348    0.0016   -0.0077    0.0096
          51    0.0463    0.0459   -0.0140   -0.0680   -0.0652    0.1081   -0.0109    0.0631
          52    0.0325    0.0121   -0.0001    0.0054   -0.0377   -0.0035    0.0179   -0.0627
          53   -0.0062   -0.0105   -0.0037   -0.0342   -0.0057    0.0006   -0.0210   -0.0261
          54   -0.0377    0.0126    0.0154    0.0713    0.0727    0.0069    0.0077    0.1428
          55    0.0124   -0.0287    0.0059    0.0383   -0.0021    0.0311    0.0315    0.0593
          56    0.0064    0.0054    0.0032    0.0197   -0.0148   -0.0114   -0.0333   -0.0021
          57    0.0030    0.1037    0.0025   -0.0036   -0.0096   -0.0727   -0.0086   -0.1279
          58   -0.0523   -0.0286   -0.0046    0.0761   -0.0671   -0.0237    0.0052   -0.0054
          59   -0.0057    0.0419    0.0053    0.0551    0.0251    0.0638    0.0556   -0.0579
          60    0.0090    0.0214    0.0031   -0.0025    0.0100    0.0107    0.0306   -0.0314
          61   -0.1065   -0.0182   -0.0190    0.0225   -0.0376   -0.0314   -0.0137    0.0233
          62   -0.0226    0.0455    0.0004    0.0370    0.0353    0.0611    0.0517   -0.0499
          63    0.0022   -0.0205   -0.0021   -0.0245   -0.0373   -0.0640    0.0012    0.0540


   Root No.       9        10        11        12        13        14        15        16

                 9 A      10 A      11 A      12 A      13 A      14 A      15 A      16 A   

                 513.4     552.4     556.2     593.6     633.2     744.5     792.1     809.5
  
           1   -0.0271    0.0060   -0.0176   -0.0018    0.0060   -0.0076   -0.0035   -0.0088
           2    0.0316    0.0019   -0.0149   -0.0194    0.0019    0.0033    0.0035   -0.0004
           3    0.0020   -0.0313    0.0072   -0.0408   -0.0104    0.0071    0.0198    0.0228
           4   -0.0271    0.0032   -0.0189    0.0154    0.0219   -0.0170    0.0040    0.0129
           5   -0.0282    0.0144   -0.0222   -0.0296    0.0021   -0.0054   -0.0006   -0.0051
           6    0.0032   -0.0073    0.0029    0.0019   -0.0034   -0.0123    0.0310    0.0009
           7    0.0009   -0.0050   -0.0015   -0.0047   -0.0087    0.0038   -0.0029   -0.0028
           8    0.0033    0.0224   -0.0049    0.0158    0.0014   -0.0113    0.0062    0.0117
           9    0.0289    0.0175   -0.0053    0.0061    0.0032   -0.0065    0.0027    0.0050
          10   -0.0165    0.0247    0.0731   -0.0268   -0.0423    0.0075   -0.0053   -0.0021
          11    0.0309    0.0351    0.0131    0.0038   -0.0081   -0.0090    0.0071    0.0108
          12   -0.0246   -0.0041   -0.0019    0.0078    0.0035    0.0061   -0.0089   -0.0112
          13    0.0130   -0.0003   -0.0305   -0.0533    0.0033    0.0099    0.0217   -0.0106
          14    0.0197   -0.0266   -0.0012   -0.0053    0.0075    0.0188   -0.0072   -0.0162
          15    0.0058    0.0229   -0.0128   -0.0104   -0.0037   -0.0142   -0.0148    0.0164
          16    0.0091   -0.0193    0.0242    0.0535    0.0100   -0.0039    0.0237    0.0340
          17   -0.0217    0.0042    0.0043   -0.0097   -0.0080   -0.0045    0.0005   -0.0021
          18   -0.0053   -0.0129    0.0032    0.0164    0.0060   -0.0201   -0.0006   -0.0116
          19    0.0237    0.0078    0.0014    0.0027   -0.0008    0.0136   -0.0072   -0.0218
          20    0.0241   -0.0295    0.0192    0.0297    0.0073    0.0233   -0.0254   -0.0243
          21    0.0063   -0.0214    0.0047   -0.0053    0.0004   -0.0010   -0.0272    0.0160
          22    0.0200   -0.0064    0.0067    0.0060    0.0000    0.0175   -0.0154    0.0017
          23   -0.0291   -0.0074    0.0166    0.0232   -0.0010   -0.0162    0.0222    0.0196
          24    0.0125    0.0101    0.0025    0.0036   -0.0031   -0.0134   -0.0058   -0.0296
          25    0.0005    0.0005   -0.0089    0.0037    0.0019    0.0018   -0.0028   -0.0036
          26   -0.0173   -0.0101   -0.0016   -0.0034   -0.0020   -0.0015    0.0035    0.0022
          27   -0.0265    0.0006    0.0084    0.0049   -0.0025    0.0084   -0.0120   -0.0150
          28   -0.0436    0.0039   -0.0394    0.0082    0.0341   -0.0220   -0.0528   -0.0026
          29    0.0535    0.0080   -0.0127   -0.0304   -0.0121   -0.0149   -0.0032    0.0316
          30   -0.0060   -0.0319   -0.0010   -0.0356    0.0006    0.0048    0.0027    0.0202
          31   -0.0437    0.0429   -0.0426    0.0546    0.0462   -0.0239   -0.0719   -0.0191
          32   -0.0477    0.0734   -0.0504    0.0029    0.0228    0.0659   -0.0940    0.0244
          33   -0.0093    0.0262   -0.0157    0.0282    0.0137    0.0067   -0.0273   -0.0020
          34   -0.0004   -0.0264   -0.0203   -0.0380    0.0098   -0.0269    0.0655    0.0239
          35   -0.0289   -0.0211    0.0061   -0.0372   -0.0142   -0.0469    0.0505   -0.0186
          36   -0.0112    0.0503   -0.0293    0.0391    0.0217    0.0407   -0.0629    0.0098
          37    0.0165   -0.0282   -0.0628    0.0171   -0.0033   -0.0009    0.0050    0.0001
          38   -0.0421    0.0430    0.0718   -0.0062   -0.0056   -0.0002   -0.0132   -0.0055
          39    0.0297    0.0400    0.0426   -0.0138   -0.0018   -0.0057    0.0013    0.0098
          40    0.0149   -0.0100   -0.0220    0.0015   -0.0055   -0.0001    0.0032    0.0030
          41   -0.0279   -0.0240   -0.0971    0.0620    0.0063   -0.0108   -0.0001   -0.0071
          42    0.0395    0.0008   -0.0516    0.0241    0.0090   -0.0115    0.0090    0.0082
          43   -0.0033   -0.0293   -0.0587    0.0199   -0.0084    0.0023   -0.0022   -0.0080
          44    0.0393    0.0248   -0.0234    0.0156    0.0033   -0.0206    0.0216    0.0312
          45    0.0823    0.0313   -0.0073   -0.0048    0.0057   -0.0188    0.0241    0.0345
          46    0.0234   -0.0330   -0.0251   -0.0852   -0.0073   -0.0242   -0.0297    0.0724
          47   -0.0055   -0.0434   -0.0115   -0.0316    0.0038   -0.0019   -0.0082    0.0198
          48   -0.0228    0.1027   -0.0259    0.0671    0.0212    0.0677    0.1122   -0.1856
          49    0.0233   -0.0328    0.0363    0.0495   -0.0002   -0.0699    0.0412   -0.0406
          50    0.0041    0.0064    0.0158   -0.0169   -0.0214    0.0337   -0.0349   -0.0155
          51   -0.0436    0.0241   -0.0303    0.0265    0.0337    0.1540   -0.0465    0.1872
          52    0.0187    0.0192    0.0240    0.0236   -0.0174   -0.0682   -0.0591    0.0315
          53    0.0383   -0.0315    0.0089    0.0085    0.0067    0.0144   -0.0519   -0.0246
          54   -0.0313   -0.0314    0.0036    0.0284    0.0253    0.1409    0.1241   -0.0592
          55    0.0086   -0.0144    0.0016   -0.0410   -0.0170   -0.0566   -0.0487   -0.0461
          56   -0.0376    0.0078    0.0090    0.0056   -0.0067   -0.0105    0.0277    0.0269
          57   -0.0032    0.0874   -0.0192    0.0206    0.0061    0.1454    0.0786    0.0902
          58    0.0098   -0.0011    0.0270   -0.0417    0.3263   -0.0160    0.0007   -0.0053
          59   -0.0525   -0.0432    0.0207   -0.0378    0.0963    0.0096   -0.0057   -0.0124
          60   -0.0816   -0.0448    0.0192   -0.0169   -0.0526    0.0349   -0.0278   -0.0359
          61    0.0181   -0.0247   -0.1524    0.0948   -0.2531    0.0022    0.0013    0.0038
          62   -0.0515   -0.0526   -0.0368    0.0052   -0.0902    0.0136   -0.0048   -0.0049
          63    0.0289    0.0536    0.0092    0.0243    0.0359   -0.0131    0.0011   -0.0029


   Root No.      17        18        19        20        21        22        23        24

                17 A      18 A      19 A      20 A      21 A      22 A      23 A      24 A   

                 936.2     945.9     952.1     964.7     978.1     997.3    1022.5    1025.7
  
           1   -0.0014    0.0069    0.0103   -0.0012    0.0004   -0.0074   -0.0013   -0.0119
           2   -0.0034   -0.0004    0.0044   -0.0007   -0.0014    0.0063   -0.0094   -0.0058
           3   -0.0147   -0.0112   -0.0318    0.0083   -0.0050   -0.0071    0.0227   -0.0118
           4    0.0223   -0.0185   -0.0208    0.0068   -0.0028    0.0060    0.0021    0.0040
           5    0.0386   -0.0165   -0.0145    0.0039    0.0010    0.0061    0.0014    0.0211
           6    0.0354   -0.0007    0.0093   -0.0050    0.0025    0.0024   -0.0121   -0.0084
           7    0.0015    0.0112   -0.0057    0.0070    0.0312    0.0075    0.0117    0.0099
           8   -0.0091   -0.0342    0.0019    0.0014    0.0145   -0.0073    0.0082    0.0033
           9   -0.0004   -0.0081    0.0116   -0.0035   -0.0036    0.0335    0.0209   -0.0085
          10    0.0003   -0.0012    0.0029   -0.0030   -0.0166    0.0017   -0.0139   -0.0149
          11   -0.0011    0.0015   -0.0063    0.0009   -0.0048   -0.0089   -0.0075   -0.0024
          12    0.0031    0.0077    0.0035   -0.0005    0.0015   -0.0044   -0.0082    0.0049
          13   -0.0286    0.0217    0.0162   -0.0261    0.0082   -0.0031    0.0036    0.0124
          14   -0.0046    0.0091    0.0083   -0.0094    0.0036   -0.0032    0.0026    0.0028
          15   -0.0101    0.0121    0.0192    0.0182   -0.0022    0.0111   -0.0194    0.0234
          16   -0.0165    0.0071   -0.0008   -0.0182    0.0055    0.0055   -0.0037    0.0200
          17   -0.0064    0.0044    0.0064    0.0020   -0.0015   -0.0035   -0.0001   -0.0107
          18   -0.0178    0.0034    0.0073    0.0205   -0.0008   -0.0114    0.0224    0.0076
          19    0.0067   -0.0093   -0.0085    0.0166   -0.0051    0.0089   -0.0083    0.0025
          20    0.0185   -0.0069   -0.0046    0.0081   -0.0017    0.0033   -0.0017    0.0027
          21    0.0242    0.0020    0.0054   -0.0264    0.0075   -0.0152    0.0166   -0.0080
          22    0.0193   -0.0041    0.0049    0.0112   -0.0005   -0.0095    0.0099   -0.0063
          23   -0.0313    0.0127    0.0079   -0.0089    0.0003    0.0015   -0.0040   -0.0064
          24   -0.0142   -0.0080   -0.0252   -0.0123   -0.0017    0.0157   -0.0166    0.0041
          25   -0.0028   -0.0157    0.0079   -0.0077   -0.0313   -0.0036    0.0143    0.0201
          26    0.0089    0.0409   -0.0210    0.0053   -0.0165   -0.0075    0.0070    0.0048
          27    0.0050    0.0132    0.0055   -0.0008    0.0032   -0.0114   -0.0265    0.0044
          28   -0.0516   -0.0079   -0.0198    0.0788   -0.0043   -0.0549    0.0631   -0.0800
          29   -0.0276    0.0043    0.0269    0.0308   -0.0293    0.0668   -0.0466   -0.0710
          30   -0.0306   -0.0150   -0.0428    0.0323   -0.0036   -0.0297    0.0481   -0.0286
          31   -0.0160   -0.0033    0.0302    0.0549   -0.0059   -0.0175   -0.0096   -0.0126
          32   -0.0868   -0.0170   -0.0754    0.0011   -0.0068    0.0029    0.0555    0.0423
          33   -0.0185    0.0053    0.0112    0.0135   -0.0010   -0.0081   -0.0004   -0.0093
          34    0.0846   -0.0530   -0.0688   -0.0022   -0.0153    0.0298   -0.0062   -0.0744
          35    0.1129   -0.0101    0.0262   -0.0015    0.0144    0.0040   -0.0188    0.0770
          36   -0.0828    0.0099   -0.0120    0.0079   -0.0066   -0.0090    0.0164   -0.0301
          37   -0.0000   -0.0033    0.0010   -0.0114   -0.0659   -0.0408   -0.0450   -0.0127
          38    0.0071    0.0198    0.0167    0.0142    0.1063    0.1310    0.1097    0.0102
          39   -0.0066   -0.0161   -0.0039    0.0157    0.0865    0.0358    0.0525    0.0187
          40   -0.0040   -0.0096   -0.0068    0.0012   -0.0031   -0.0290   -0.0154    0.0039
          41    0.0125   -0.0017    0.0594   -0.0409   -0.1501    0.1007    0.0216   -0.0682
          42   -0.0024   -0.0275    0.0242   -0.0205   -0.0829    0.0162   -0.0074   -0.0330
          43    0.0076    0.0173    0.0122   -0.0120   -0.0562    0.0158   -0.0082   -0.0192
          44   -0.0293   -0.0956   -0.0160    0.0040    0.0078   -0.1053   -0.0401    0.0134
          45   -0.0310   -0.0954   -0.0220    0.0084    0.0240   -0.1087   -0.0398    0.0184
          46   -0.0314    0.0259    0.0360    0.0406   -0.0073    0.0198   -0.0282    0.0363
          47   -0.0451    0.0397    0.0409   -0.0040    0.0107   -0.0179    0.0069   -0.0041
          48   -0.0079    0.0044   -0.0273   -0.1460    0.0364   -0.0464    0.0592   -0.0367
          49   -0.0237    0.0109    0.0266    0.0358    0.0011   -0.0169    0.0280    0.0201
          50   -0.0356    0.0265    0.0332   -0.0025   -0.0009   -0.0264   -0.0014   -0.0521
          51    0.0008   -0.0071   -0.0661   -0.1223    0.0105    0.0478   -0.0610    0.0062
          52    0.0489   -0.0200   -0.0187   -0.0401    0.0011   -0.0196    0.0176   -0.0751
          53    0.0299    0.0119    0.0184   -0.0260    0.0126   -0.0098    0.0097    0.0335
          54   -0.0694   -0.0386   -0.0486    0.1552   -0.0439    0.0639   -0.0544    0.0067
          55   -0.0393   -0.0145   -0.0476   -0.0233   -0.0104    0.0125   -0.0279   -0.0736
          56   -0.0291    0.0165    0.0207   -0.0007   -0.0033   -0.0099   -0.0033   -0.0495
          57    0.1085    0.0231    0.1201    0.0859    0.0022   -0.0707    0.0571   -0.0435
          58    0.0045    0.0235    0.0104    0.0174    0.1267    0.0166   -0.0780   -0.0798
          59   -0.0144   -0.0621    0.0350   -0.0066    0.0517    0.0053   -0.0383   -0.0227
          60   -0.0320   -0.1552    0.0843   -0.0327    0.0078   -0.0070   -0.0408    0.0249
          61    0.0100    0.0548   -0.0286    0.0355    0.1707    0.0113   -0.0617   -0.0610
          62   -0.0157   -0.0603    0.0234    0.0005    0.0652    0.0157   -0.0128   -0.0210
          63    0.0459    0.1874   -0.0725    0.0214   -0.0447   -0.0424   -0.0280    0.0144


   Root No.      25        26        27        28        29        30        31        32

                25 A      26 A      27 A      28 A      29 A      30 A      31 A      32 A   

                1033.3    1046.5    1083.4    1086.5    1107.7    1144.0    1156.9    1183.1
  
           1    0.0263   -0.0088   -0.0138    0.0012   -0.0338    0.0049    0.0047    0.0220
           2   -0.0306   -0.0057    0.0158    0.0129    0.0057    0.0026    0.0052   -0.0464
           3    0.0055    0.0102    0.0128   -0.0119    0.0275    0.0064    0.0114    0.0119
           4   -0.0132    0.0083   -0.0080    0.0039    0.0300   -0.0025    0.0076    0.0077
           5    0.0049    0.0142    0.0183    0.0109   -0.0014    0.0034    0.0020   -0.0100
           6    0.0150   -0.0233   -0.0016   -0.0001   -0.0194   -0.0105   -0.0044   -0.0036
           7   -0.0106   -0.0180   -0.0022    0.0055   -0.0005    0.0018    0.0009   -0.0044
           8    0.0137   -0.0045   -0.0085   -0.0059   -0.0025   -0.0006    0.0014    0.0253
           9    0.0092    0.0046    0.0004   -0.0043    0.0022   -0.0007    0.0005    0.0011
          10    0.0086    0.0299    0.0092   -0.0080    0.0036   -0.0044   -0.0025    0.0041
          11    0.0009    0.0086    0.0037   -0.0004    0.0009   -0.0015   -0.0033   -0.0410
          12   -0.0089   -0.0053   -0.0004    0.0048   -0.0018    0.0009   -0.0002   -0.0019
          13   -0.0100    0.0049    0.0004   -0.0204   -0.0033   -0.0071   -0.0009    0.0066
          14    0.0036   -0.0006   -0.0057   -0.0033    0.0055    0.0063   -0.0053   -0.0049
          15    0.0086    0.0012   -0.0233   -0.0112   -0.0049   -0.0028   -0.0003   -0.0080
          16    0.0069    0.0051    0.0235    0.0181    0.0027   -0.0043   -0.0006   -0.0177
          17    0.0004   -0.0056   -0.0107   -0.0031    0.0038   -0.0105    0.0037    0.0105
          18   -0.0143    0.0287   -0.0021    0.0179   -0.0045   -0.0002   -0.0013   -0.0048
          19   -0.0046   -0.0016   -0.0076   -0.0233   -0.0141    0.0031   -0.0027    0.0135
          20    0.0020   -0.0005   -0.0122   -0.0200   -0.0093   -0.0015   -0.0043    0.0159
          21   -0.0130    0.0063    0.0017   -0.0123   -0.0069    0.0001    0.0002    0.0101
          22    0.0102    0.0035    0.0005    0.0243    0.0119    0.0021   -0.0008   -0.0032
          23   -0.0173   -0.0054   -0.0127   -0.0212   -0.0073   -0.0057   -0.0038    0.0069
          24    0.0180   -0.0106    0.0033    0.0096    0.0067   -0.0022   -0.0002   -0.0033
          25   -0.0101   -0.0254   -0.0046    0.0067   -0.0033    0.0020    0.0003   -0.0024
          26    0.0017   -0.0070   -0.0021   -0.0016    0.0007    0.0009    0.0017    0.0129
          27   -0.0185   -0.0010    0.0045    0.0113   -0.0036    0.0015   -0.0016   -0.0047
          28    0.0675   -0.0882    0.1432   -0.0309   -0.1474   -0.0897   -0.0956   -0.1109
          29   -0.1171   -0.0478    0.1682    0.1302   -0.0470    0.0298   -0.0179    0.2305
          30    0.0284   -0.0136    0.0534   -0.0351   -0.0059   -0.0276   -0.0208   -0.0595
          31   -0.0344   -0.0563    0.0837   -0.1026    0.2389    0.0186    0.0880   -0.0022
          32   -0.0145    0.1150   -0.0056    0.0836   -0.0846    0.0148   -0.0399    0.0049
          33   -0.0001   -0.0202    0.0275   -0.0226    0.0407    0.0011    0.0148   -0.0040
          34   -0.0786   -0.0106   -0.1657    0.0661   -0.0458   -0.0987    0.0533   -0.0436
          35    0.0793   -0.0020    0.1314   -0.0150    0.0119    0.0503   -0.0323    0.0091
          36   -0.0318    0.0053   -0.0403   -0.0017    0.0049   -0.0133    0.0116    0.0009
          37    0.0024    0.0295    0.0096   -0.0004   -0.0005   -0.0015   -0.0032   -0.0211
          38    0.0023   -0.0469   -0.0129   -0.0017    0.0029    0.0021    0.0048    0.0221
          39   -0.0017   -0.0404   -0.0131    0.0009   -0.0002    0.0026    0.0047    0.0312
          40   -0.0007   -0.0001   -0.0006   -0.0002   -0.0016   -0.0002   -0.0001    0.0065
          41    0.0557    0.0843    0.0158   -0.0293    0.0097   -0.0081   -0.0017    0.0193
          42    0.0315    0.0471    0.0079   -0.0168    0.0042   -0.0045   -0.0008    0.0193
          43    0.0076    0.0266    0.0103   -0.0052    0.0018   -0.0033   -0.0034   -0.0288
          44    0.0235   -0.0010   -0.0142   -0.0097   -0.0085   -0.0002    0.0032    0.0891
          45    0.0136   -0.0097   -0.0125   -0.0045   -0.0069    0.0021    0.0047    0.0955
          46    0.0018    0.0010   -0.0246   -0.0258   -0.0156   -0.0140   -0.0013   -0.0009
          47    0.1235   -0.0111   -0.0643    0.1086    0.0224    0.2358    0.0375   -0.0054
          48   -0.0136    0.0098    0.0343    0.0037    0.0213    0.0296    0.0048    0.0118
          49   -0.0131    0.0372    0.0132    0.0337    0.0043   -0.0056    0.0044   -0.0170
          50    0.0867   -0.0490    0.0023    0.1006    0.0338   -0.1281    0.2602   -0.0188
          51    0.0382   -0.0565    0.0244   -0.0168   -0.0026   -0.0000   -0.0138   -0.0107
          52   -0.0709   -0.0178   -0.0004   -0.0756   -0.1046    0.2195    0.0954   -0.0648
          53    0.0251    0.0164   -0.0131    0.0084    0.0418   -0.1252   -0.0610    0.0632
          54    0.0111   -0.0234   -0.0122   -0.0305   -0.0362    0.0758    0.0309   -0.0181
          55    0.0349   -0.0671   -0.0724    0.0695    0.1431    0.0380   -0.2030   -0.0283
          56   -0.0155   -0.0337   -0.0552    0.0025    0.0634    0.0135   -0.1147   -0.0042
          57   -0.0187    0.0086   -0.0278    0.0291    0.0516    0.0182   -0.0776   -0.0080
          58    0.0279    0.0912    0.0162   -0.0109   -0.0015   -0.0044   -0.0022   -0.0017
          59   -0.0080    0.0278    0.0116    0.0064   -0.0030   -0.0023   -0.0037   -0.0259
          60   -0.0576   -0.0204    0.0126    0.0353   -0.0107    0.0009   -0.0082   -0.0601
          61    0.0138    0.0791    0.0193   -0.0135    0.0107   -0.0076   -0.0029    0.0015
          62    0.0060    0.0268    0.0052   -0.0075    0.0049   -0.0037   -0.0012   -0.0167
          63   -0.0195   -0.0140    0.0034    0.0147   -0.0050    0.0048    0.0012    0.0381


   Root No.      33        34        35        36        37        38        39        40

                33 A      34 A      35 A      36 A      37 A      38 A      39 A      40 A   

                1221.3    1318.4    1328.8    1345.4    1380.8    1388.1    1396.6    1409.7
  
           1   -0.0274   -0.0264    0.0482   -0.0049   -0.0266    0.0078   -0.0000   -0.0059
           2   -0.0105   -0.0067    0.0282   -0.0144    0.0069    0.0214    0.0056    0.0318
           3   -0.0088   -0.0110    0.0203    0.0100   -0.0083    0.0040   -0.0002   -0.0037
           4   -0.0138    0.0005   -0.0174    0.0345    0.0483    0.0023    0.0024    0.0158
           5    0.0116    0.0057    0.0034   -0.0251    0.0121   -0.0318   -0.0050   -0.0231
           6   -0.0012    0.0018   -0.0078    0.0077   -0.0002    0.0076    0.0011    0.0066
           7   -0.0014   -0.0003    0.0031    0.0006    0.0014    0.0046   -0.0372    0.0096
           8   -0.0013   -0.0040   -0.0058    0.0011   -0.0084   -0.0102   -0.0112   -0.0318
           9   -0.0001   -0.0063   -0.0009    0.0134   -0.0183   -0.0296   -0.0016   -0.0016
          10    0.0051    0.0092   -0.0088   -0.0124    0.0032   -0.0058   -0.0009    0.0014
          11    0.0047   -0.0213    0.0010    0.0319    0.0002    0.0113   -0.0021   -0.0057
          12   -0.0002   -0.0169   -0.0119   -0.0112    0.0040    0.0036    0.0010    0.0044
          13    0.0028    0.0115   -0.0227    0.0005    0.0025   -0.0085   -0.0015   -0.0072
          14   -0.0168    0.0099   -0.0093   -0.0152   -0.0013   -0.0159   -0.0030   -0.0113
          15   -0.0035    0.0061   -0.0092   -0.0036    0.0007   -0.0053   -0.0011   -0.0037
          16   -0.0004    0.0054    0.0003   -0.0182   -0.0078   -0.0099   -0.0019   -0.0095
          17    0.0181   -0.0102    0.0174    0.0030    0.0023    0.0053    0.0009    0.0068
          18   -0.0039    0.0028   -0.0018   -0.0059   -0.0020   -0.0046   -0.0008   -0.0044
          19    0.0155   -0.0041   -0.0060    0.0219    0.0038    0.0158    0.0029    0.0110
          20   -0.0069    0.0044   -0.0117    0.0044   -0.0017   -0.0046   -0.0010   -0.0070
          21    0.0066   -0.0012   -0.0042    0.0101    0.0015    0.0058    0.0010    0.0034
          22    0.0157   -0.0084    0.0232   -0.0110   -0.0015   -0.0015   -0.0003    0.0019
          23    0.0082   -0.0024   -0.0013    0.0096   -0.0007    0.0092    0.0016    0.0067
          24    0.0068   -0.0034    0.0099   -0.0055   -0.0009   -0.0009   -0.0002    0.0005
          25   -0.0007   -0.0033    0.0003    0.0007    0.0001    0.0015    0.0000    0.0010
          26   -0.0017    0.0033    0.0002   -0.0068    0.0002   -0.0009    0.0004    0.0012
          27    0.0021   -0.0105   -0.0116   -0.0120    0.0069    0.0055    0.0016    0.0106
          28    0.0711    0.0501   -0.0645   -0.0007    0.0387   -0.0161   -0.0059    0.0081
          29    0.0191   -0.0223   -0.0423    0.0203   -0.0021   -0.0212   -0.0002   -0.0414
          30    0.0217    0.0162   -0.0115    0.0073    0.0143   -0.0002   -0.0017    0.0074
          31    0.0700    0.0163   -0.0116   -0.0462   -0.1448    0.0261   -0.0017   -0.0245
          32   -0.0618    0.0229   -0.0698    0.0351   -0.1486    0.1071    0.0121    0.0427
          33    0.0123    0.0108   -0.0209   -0.0073   -0.1012    0.0454    0.0034    0.0065
          34    0.1058    0.0480   -0.0613   -0.0624   -0.1478    0.0155   -0.0028   -0.0302
          35   -0.0692    0.0088   -0.0456    0.0415   -0.0661    0.0685    0.0079    0.0344
          36    0.0240   -0.0236    0.0622   -0.0153    0.1623   -0.0966   -0.0095   -0.0299
          37    0.0041   -0.0486   -0.0166    0.0493   -0.0636   -0.1061   -0.0261    0.0215
          38   -0.0064    0.0615    0.0296   -0.0237   -0.0044   -0.0409    0.2166    0.1237
          39   -0.0060    0.0421    0.0134   -0.0558    0.0850    0.1602   -0.0838   -0.0905
          40   -0.0007    0.0148    0.0016   -0.0341    0.0610    0.1118    0.1156   -0.0931
          41    0.0010    0.0808    0.0251   -0.0517    0.0378    0.0424   -0.1867    0.1038
          42    0.0005    0.0430    0.0078   -0.0533    0.0788    0.1361    0.1093   -0.0909
          43    0.0029   -0.0093   -0.0004    0.0131   -0.0065   -0.0202    0.3714   -0.0272
          44   -0.0046    0.0552    0.0041   -0.0574    0.0080   -0.0228    0.1040    0.0916
          45   -0.0062    0.0691    0.0104   -0.0693    0.0118   -0.0227   -0.0116    0.1499
          46   -0.0051    0.0123   -0.0205   -0.0020    0.0010   -0.0097   -0.0019   -0.0082
          47    0.1797    0.0161   -0.0508    0.0564    0.0321    0.0307    0.0072    0.0314
          48    0.0275    0.0045   -0.0203    0.0089    0.0055    0.0001    0.0003    0.0000
          49   -0.0063    0.0067   -0.0022   -0.0178   -0.0058   -0.0116   -0.0020   -0.0104
          50   -0.1199    0.0354   -0.0891    0.0451    0.0346   -0.0039    0.0008   -0.0006
          51    0.0120    0.0011    0.0047   -0.0118   -0.0066   -0.0042   -0.0010   -0.0045
          52   -0.0865    0.0342   -0.0391   -0.0330    0.0005   -0.0358   -0.0062   -0.0254
          53    0.0520   -0.0171    0.0049    0.0372    0.0002    0.0253    0.0043    0.0137
          54   -0.0283    0.0125   -0.0161   -0.0075    0.0006   -0.0124   -0.0022   -0.0099
          55   -0.1051    0.0284   -0.0419   -0.0162   -0.0089   -0.0212   -0.0038   -0.0222
          56   -0.0583    0.0177   -0.0386    0.0092   -0.0049    0.0000   -0.0000   -0.0056
          57   -0.0399    0.0105   -0.0152   -0.0069   -0.0047   -0.0082   -0.0016   -0.0090
          58   -0.0021   -0.0143   -0.0052   -0.0103    0.0013    0.0030    0.0018    0.0058
          59    0.0013    0.0815    0.0681    0.0711   -0.0198   -0.0092   -0.0055   -0.0328
          60    0.0077    0.1224    0.0974    0.1129   -0.0244   -0.0095   -0.0082   -0.0428
          61    0.0053    0.0491    0.0215    0.0220   -0.0057   -0.0095   -0.0031   -0.0123
          62    0.0013   -0.0860   -0.0598   -0.0468    0.0180    0.0146    0.0037    0.0241
          63    0.0003    0.1516    0.0933    0.0632   -0.0233   -0.0217   -0.0050   -0.0312


   Root No.      41        42        43        44        45        46        47        48

                41 A      42 A      43 A      44 A      45 A      46 A      47 A      48 A   

                1444.3    1467.5    1842.6    1856.9    1874.8    2836.3    2939.8    3021.5
  
           1   -0.0286    0.0107   -0.0015   -0.0025   -0.0055    0.0219    0.0011    0.0008
           2   -0.0090   -0.0736   -0.0147   -0.0195    0.0176   -0.0060   -0.0003    0.0001
           3   -0.0134    0.0129   -0.0049   -0.0051   -0.0173   -0.0651   -0.0029    0.0002
           4    0.0355   -0.0053    0.0018   -0.0042   -0.0011    0.0008    0.0040    0.0216
           5   -0.0472    0.0086   -0.0164    0.0204   -0.0016    0.0012   -0.0120    0.0334
           6    0.0148   -0.0021    0.0027   -0.0022    0.0009    0.0043   -0.0566   -0.0010
           7   -0.0046    0.0140    0.0002    0.0002    0.0030    0.0001   -0.0003    0.0012
           8    0.0170   -0.0584   -0.0009   -0.0019   -0.0182    0.0004   -0.0000    0.0002
           9    0.0076   -0.0298   -0.0016   -0.0027   -0.0211    0.0000   -0.0002    0.0005
          10    0.0061   -0.0284    0.0008    0.0029    0.0237   -0.0001    0.0003    0.0002
          11   -0.0177    0.0878   -0.0016    0.0003    0.0106    0.0002   -0.0001   -0.0000
          12   -0.0003    0.0008    0.0183    0.0281    0.2124   -0.0009   -0.0000    0.0001
          13    0.0090    0.0120   -0.0548   -0.0455    0.0133   -0.0003    0.0001    0.0003
          14    0.0437    0.0226    0.1205    0.1145   -0.0314   -0.0015    0.0001   -0.0001
          15    0.0096    0.0074   -0.0038   -0.0018    0.0027   -0.0002   -0.0001    0.0002
          16   -0.0213    0.0006    0.0559   -0.0437    0.0038   -0.0000    0.0008   -0.0045
          17    0.0556    0.0096    0.1262   -0.1137    0.0092   -0.0001    0.0006    0.0003
          18   -0.0119    0.0004    0.0121   -0.0092    0.0006   -0.0001    0.0002   -0.0017
          19   -0.0523   -0.0236    0.1061    0.0606   -0.0194   -0.0005    0.0001    0.0001
          20   -0.0131    0.0082   -0.0982   -0.0992    0.0247    0.0005   -0.0000   -0.0001
          21   -0.0227   -0.0080    0.0281    0.0114   -0.0047   -0.0004    0.0001    0.0000
          22    0.0608    0.0124   -0.1085    0.0582   -0.0016    0.0002   -0.0002   -0.0001
          23   -0.0058   -0.0078   -0.1008    0.0971   -0.0086    0.0000   -0.0001   -0.0001
          24    0.0245    0.0051   -0.0354    0.0174   -0.0001    0.0002   -0.0003   -0.0000
          25   -0.0015    0.0045   -0.0018   -0.0027   -0.0194    0.0002    0.0001    0.0001
          26    0.0019   -0.0121   -0.0005   -0.0008   -0.0052   -0.0001   -0.0000   -0.0001
          27   -0.0022    0.0057   -0.0157   -0.0236   -0.1714    0.0006   -0.0000   -0.0001
          28    0.0251   -0.0191   -0.0080   -0.0072   -0.0144   -0.2699   -0.0157    0.0018
          29   -0.0060    0.0791    0.0062    0.0132    0.0421    0.0744    0.0031    0.0003
          30    0.0047   -0.0115   -0.0037   -0.0054   -0.0184    0.7897    0.0324   -0.0027
          31   -0.0301    0.0299    0.0041   -0.0017   -0.0014    0.0086   -0.1803   -0.1183
          32    0.0596   -0.0178   -0.0037   -0.0008    0.0004    0.0095   -0.1297   -0.0698
          33    0.0141    0.0047    0.0020   -0.0039    0.0004   -0.0336    0.4544    0.3445
          34   -0.0140    0.0338    0.0201   -0.0005   -0.0002   -0.0058    0.1292   -0.1492
          35    0.0373   -0.0183   -0.0271    0.0183    0.0003   -0.0229    0.2682   -0.3298
          36   -0.0484    0.0067    0.0076   -0.0044   -0.0010   -0.0204    0.2278   -0.3306
          37    0.0137   -0.0524    0.0005    0.0009    0.0075   -0.0010    0.0032   -0.0104
          38   -0.0322    0.0942   -0.0015   -0.0030   -0.0232    0.0007    0.0014   -0.0037
          39    0.0002    0.0087   -0.0012   -0.0020   -0.0154   -0.0010    0.0023   -0.0074
          40    0.0039    0.0031    0.0004    0.0006    0.0045   -0.0017    0.0003   -0.0029
          41   -0.0331    0.0934   -0.0023   -0.0028   -0.0185    0.0009    0.0002   -0.0008
          42    0.0013    0.0088   -0.0010   -0.0014   -0.0109    0.0008   -0.0005    0.0030
          43    0.0018    0.0043   -0.0002   -0.0005   -0.0031   -0.0006   -0.0001   -0.0001
          44   -0.0136    0.0290    0.0029    0.0039    0.0253    0.0025   -0.0003    0.0022
          45   -0.0297    0.0727    0.0037    0.0055    0.0422   -0.0017    0.0002   -0.0014
          46    0.0103    0.0139   -0.0700   -0.0602    0.0181    0.0026    0.0014   -0.0076
          47   -0.0667   -0.0548   -0.0166   -0.0337    0.0088   -0.0000    0.0001   -0.0001
          48   -0.0060    0.0014   -0.0332   -0.0317    0.0089   -0.0016    0.0003   -0.0031
          49   -0.0244    0.0006    0.0713   -0.0583    0.0053    0.0003   -0.0088    0.0504
          50   -0.0866   -0.0171   -0.0209    0.0362   -0.0053    0.0002   -0.0017    0.0027
          51   -0.0032    0.0019    0.0336   -0.0276    0.0023   -0.0001   -0.0049    0.0182
          52    0.0435    0.0331   -0.0225   -0.0750    0.0157    0.0012    0.0003    0.0007
          53   -0.0726   -0.0245   -0.0474   -0.0415    0.0102    0.0020    0.0005    0.0014
          54    0.0107    0.0131   -0.0185   -0.0383    0.0068   -0.0005    0.0001    0.0005
          55   -0.0718    0.0018    0.0267   -0.0753    0.0108    0.0002    0.0005    0.0009
          56   -0.0824   -0.0152   -0.0512    0.0443   -0.0035   -0.0002   -0.0003   -0.0032
          57   -0.0275    0.0013    0.0154   -0.0336    0.0045    0.0001   -0.0006    0.0004
          58   -0.0024    0.0003   -0.0036   -0.0062   -0.0416    0.0014    0.0002   -0.0001
          59    0.0007    0.0083    0.0110    0.0166    0.1220   -0.0022   -0.0005    0.0000
          60   -0.0024    0.0348   -0.0018   -0.0023   -0.0215    0.0021    0.0003   -0.0001
          61    0.0068   -0.0123    0.0032    0.0055    0.0373   -0.0002    0.0002    0.0001
          62   -0.0072    0.0239   -0.0123   -0.0176   -0.1222   -0.0006    0.0006    0.0005
          63    0.0139   -0.0514   -0.0008   -0.0023   -0.0225    0.0002    0.0006    0.0004


   Root No.      49        50        51        52        53        54        55        56

                49 A      50 A      51 A      52 A      53 A      54 A      55 A      56 A   

                3054.1    3057.2    3065.9    3071.2    3075.7    3080.8    3136.2    3139.6
  
           1   -0.0001    0.0002   -0.0000   -0.0001   -0.0001   -0.0002   -0.0000   -0.0001
           2   -0.0002   -0.0001   -0.0001    0.0001    0.0003    0.0004    0.0001    0.0001
           3   -0.0001    0.0000   -0.0001    0.0001    0.0001    0.0000   -0.0002   -0.0006
           4   -0.0001   -0.0012    0.0005   -0.0006   -0.0002    0.0009   -0.0001   -0.0000
           5   -0.0002   -0.0018    0.0008   -0.0011   -0.0003    0.0015   -0.0000    0.0000
           6   -0.0001   -0.0005    0.0003   -0.0002   -0.0001    0.0003    0.0001   -0.0000
           7   -0.0001   -0.0003   -0.0537    0.0003    0.0057   -0.0001    0.0003    0.0002
           8    0.0000   -0.0001   -0.0132    0.0003   -0.0254   -0.0001   -0.0008   -0.0003
           9   -0.0000   -0.0000   -0.0007   -0.0004    0.0417    0.0001    0.0016   -0.0005
          10   -0.0001    0.0000   -0.0001   -0.0000    0.0000   -0.0000    0.0008   -0.0002
          11   -0.0002    0.0001   -0.0000   -0.0001    0.0001   -0.0001   -0.0001   -0.0007
          12   -0.0000   -0.0000   -0.0000   -0.0000    0.0005    0.0000    0.0062   -0.0037
          13   -0.0255    0.0153   -0.0003   -0.0193   -0.0003   -0.0134    0.0002   -0.0001
          14    0.0012   -0.0010    0.0000    0.0034    0.0000    0.0028    0.0001    0.0001
          15   -0.0103    0.0061   -0.0001   -0.0075   -0.0001   -0.0051   -0.0000   -0.0001
          16   -0.0106   -0.0265   -0.0001   -0.0179   -0.0003    0.0173    0.0000   -0.0000
          17   -0.0000   -0.0004   -0.0000   -0.0023   -0.0000    0.0029    0.0000   -0.0000
          18   -0.0040   -0.0100   -0.0000   -0.0066   -0.0001    0.0064   -0.0000   -0.0000
          19    0.0101   -0.0033   -0.0001   -0.0068   -0.0001   -0.0077   -0.0000    0.0000
          20    0.0207   -0.0055   -0.0002   -0.0211   -0.0002   -0.0206   -0.0000   -0.0000
          21    0.0070   -0.0021   -0.0001   -0.0058   -0.0000   -0.0060   -0.0000   -0.0000
          22    0.0057    0.0093   -0.0002   -0.0048   -0.0001    0.0090    0.0000   -0.0000
          23   -0.0125   -0.0188    0.0005    0.0162    0.0003   -0.0247   -0.0000    0.0000
          24    0.0030    0.0049   -0.0001   -0.0030   -0.0001    0.0051    0.0000   -0.0000
          25   -0.0000    0.0000   -0.0002   -0.0000    0.0000   -0.0000    0.0060    0.0221
          26   -0.0000    0.0000   -0.0001   -0.0000   -0.0000   -0.0000   -0.0356   -0.0580
          27   -0.0001    0.0001    0.0000   -0.0001    0.0005   -0.0000   -0.0453    0.0263
          28   -0.0007    0.0001   -0.0010   -0.0002   -0.0001    0.0000   -0.0002   -0.0005
          29   -0.0002    0.0001    0.0003    0.0000    0.0014    0.0001    0.0005    0.0002
          30   -0.0003    0.0008    0.0010   -0.0010   -0.0011   -0.0009   -0.0005    0.0017
          31    0.0004    0.0038   -0.0015    0.0023    0.0006   -0.0026    0.0002   -0.0001
          32    0.0005    0.0028   -0.0009    0.0016    0.0003   -0.0017    0.0002   -0.0001
          33   -0.0023   -0.0139    0.0049   -0.0082   -0.0018    0.0091   -0.0013   -0.0001
          34    0.0015    0.0074   -0.0036    0.0042    0.0014   -0.0049    0.0000    0.0001
          35    0.0047    0.0209   -0.0090    0.0117    0.0036   -0.0133    0.0001    0.0001
[...]
 REDUCED MASS        0.4091         C  3 -- C  4          +4.8% ( 19.1%)      0.2%
 EFFECTIVE MASS      1.5870
 FORCE CONSTANT      0.4702

 VIBRATION         40   40A           ATOM PAIR      ENERGY CONTRIBUTION    RADIAL
 FREQUENCY          1409.74         C  3 -- H 15         +15.7% ( 46.3%)      9.8%
 TRANSITION DIPOLE   0.1421         C  3 -- H 14         +14.6% ( 44.6%)      0.1%
 TRAVEL (Ang.)       0.3539         C  3 -- H 13         +13.3% ( 42.5%)      0.0%
 REDUCED MASS        0.3819         C  1 -- C  2          +8.6% ( 34.2%)     13.1%
 EFFECTIVE MASS      4.1432
 FORCE CONSTANT      0.4472

 VIBRATION         41   41A           ATOM PAIR      ENERGY CONTRIBUTION    RADIAL
 FREQUENCY          1444.35         C  7 -- C  8         +16.4% ( 61.0%)     99.5%
 TRANSITION DIPOLE   0.1096         C  2 -- C  6         +14.0% ( 56.5%)     99.3%
 TRAVEL (Ang.)       0.1786         C  6 -- C  8         +10.2% ( 48.2%)      0.3%
 REDUCED MASS        1.4640         C  8 -- H 19          +7.7% ( 41.8%)      7.1%
 EFFECTIVE MASS     10.1421
 FORCE CONSTANT      1.7994

 VIBRATION         42   42A           ATOM PAIR      ENERGY CONTRIBUTION    RADIAL
 FREQUENCY          1467.48         C  1 -- C  4         +21.0% ( 69.2%)     76.7%
 TRANSITION DIPOLE   0.1133         C  3 -- C  4         +19.9% ( 67.4%)     87.3%
 TRAVEL (Ang.)       0.1355         C  4 -- C  9         +10.0% ( 47.7%)      0.3%
 REDUCED MASS        2.5012         C  1 -- C  5          +8.6% ( 44.4%)     72.3%
 EFFECTIVE MASS     10.0769
 FORCE CONSTANT      3.1735

 VIBRATION         43   43A           ATOM PAIR      ENERGY CONTRIBUTION    RADIAL
 FREQUENCY          1842.56         C  6 -- C  8         +22.6% ( 70.8%)     99.0%
 TRANSITION DIPOLE   0.3232         C  5 -- C  7         +21.0% ( 68.2%)     98.8%
 TRAVEL (Ang.)       0.1137         C  7 -- C  8         +16.5% ( 60.4%)     99.0%
 REDUCED MASS        2.8332         C  8 -- H 19          +7.4% ( 40.4%)      2.0%
 EFFECTIVE MASS     11.9496
 FORCE CONSTANT      5.6672

 VIBRATION         44   44A           ATOM PAIR      ENERGY CONTRIBUTION    RADIAL
 FREQUENCY          1856.87         C  5 -- C  7         +22.2% ( 69.0%)     99.5%
 TRANSITION DIPOLE   0.3603         C  6 -- C  8         +21.5% ( 67.9%)     99.3%
 TRAVEL (Ang.)       0.1188         C  7 -- C  8         +12.2% ( 51.1%)      0.0%
 REDUCED MASS        2.5709         C  1 -- C  5          +7.6% ( 40.3%)     51.0%
 EFFECTIVE MASS     11.7776
 FORCE CONSTANT      5.2228

 VIBRATION         45   45A           ATOM PAIR      ENERGY CONTRIBUTION    RADIAL
 FREQUENCY          1874.81         C  4 -- C  9         +43.6% ( 97.2%)    100.0%
 TRANSITION DIPOLE   0.2523         C  3 -- C  4         +16.7% ( 60.1%)     37.1%
 TRAVEL (Ang.)       0.0829         C  1 -- C  4         +16.5% ( 59.8%)     34.4%
 REDUCED MASS        5.2335         C  9 -- H 21          +9.7% ( 46.0%)     11.7%
 EFFECTIVE MASS     11.8272
 FORCE CONSTANT     10.8382

 VIBRATION         46   46A           ATOM PAIR      ENERGY CONTRIBUTION    RADIAL
 FREQUENCY          2836.32         C  1 -- H 10         +96.6% ( 99.8%)    100.0%
 TRANSITION DIPOLE   0.0887         C  1 -- C  2          +1.0% ( 10.4%)      8.4%
 TRAVEL (Ang.)       0.1604         C  1 -- C  5          +1.0% ( 10.2%)      5.7%
 REDUCED MASS        0.9236         C  1 -- C  4          +1.0% ( 10.2%)     10.0%
 EFFECTIVE MASS      1.4421
 FORCE CONSTANT      4.3778

 VIBRATION         47   47A           ATOM PAIR      ENERGY CONTRIBUTION    RADIAL
 FREQUENCY          2939.78         C  2 -- H 11         +61.8% ( 81.5%)     97.7%
 TRANSITION DIPOLE   0.0595         C  2 -- H 12         +35.7% ( 62.0%)     94.6%
 TRAVEL (Ang.)       0.2046         C  2 -- C  6          +1.1% ( 10.9%)      0.0%
 REDUCED MASS        0.5480         C  1 -- C  2          +1.1% ( 10.8%)      0.3%
 EFFECTIVE MASS      1.5325
 FORCE CONSTANT      2.7905

 VIBRATION         48   48A           ATOM PAIR      ENERGY CONTRIBUTION    RADIAL
 FREQUENCY          3021.47         C  2 -- H 12         +63.0% ( 78.3%)     99.0%
 TRANSITION DIPOLE   0.0847         C  2 -- H 11         +34.8% ( 58.2%)     95.3%
 TRAVEL (Ang.)       0.2093         C  6 -- H 17          +0.8% (  9.0%)    100.0%
 REDUCED MASS        0.5093         C  2 -- C  6          +0.7% (  8.0%)     20.0%
 EFFECTIVE MASS      1.2835
 FORCE CONSTANT      2.7393

 VIBRATION         49   49A           ATOM PAIR      ENERGY CONTRIBUTION    RADIAL
 FREQUENCY          3054.07         C  5 -- H 16         +44.2% ( 67.5%)    100.0%
 TRANSITION DIPOLE   0.2659         C  7 -- H 18         +34.5% ( 59.7%)    100.0%
 TRAVEL (Ang.)       0.2604         C  8 -- H 19         +11.4% ( 34.3%)    100.0%
 REDUCED MASS        0.3257         C  6 -- H 17          +7.4% ( 27.6%)    100.0%
 EFFECTIVE MASS      1.4695
 FORCE CONSTANT      1.7901

 VIBRATION         50   50A           ATOM PAIR      ENERGY CONTRIBUTION    RADIAL
 FREQUENCY          3057.23         C  6 -- H 17         +48.7% ( 70.8%)    100.0%
 TRANSITION DIPOLE   0.2868         C  8 -- H 19         +29.0% ( 54.7%)    100.0%
 TRAVEL (Ang.)       0.2544         C  5 -- H 16         +16.3% ( 41.0%)    100.0%
 REDUCED MASS        0.3407         C  7 -- H 18          +3.1% ( 17.8%)     99.8%
 EFFECTIVE MASS      1.4595
 FORCE CONSTANT      1.8764

 VIBRATION         51   51A           ATOM PAIR      ENERGY CONTRIBUTION    RADIAL
 FREQUENCY          3065.92         C  3 -- H 13         +53.7% ( 75.6%)     97.6%
 TRANSITION DIPOLE   0.0356         C  3 -- H 14         +44.2% ( 68.6%)     96.3%
 TRAVEL (Ang.)       0.2072         C  3 -- H 15          +1.0% ( 10.5%)      3.4%
 REDUCED MASS        0.5122         C  3 -- C  4          +1.0% ( 10.2%)      0.0%
 EFFECTIVE MASS      1.5023
 FORCE CONSTANT      2.8366

 VIBRATION         52   52A           ATOM PAIR      ENERGY CONTRIBUTION    RADIAL
 FREQUENCY          3071.21         C  7 -- H 18         +31.0% ( 56.6%)     99.9%
 TRANSITION DIPOLE   0.4122         C  5 -- H 16         +25.7% ( 51.6%)     99.9%
 TRAVEL (Ang.)       0.3011         C  6 -- H 17         +22.2% ( 47.9%)     99.9%
 REDUCED MASS        0.2422         C  8 -- H 19         +17.3% ( 42.2%)     99.8%
 EFFECTIVE MASS      1.5760
 FORCE CONSTANT      1.3462

 VIBRATION         53   53A           ATOM PAIR      ENERGY CONTRIBUTION    RADIAL
 FREQUENCY          3075.75         C  3 -- H 15         +59.8% ( 79.8%)     98.7%
 TRANSITION DIPOLE   0.0502         C  3 -- H 14         +23.0% ( 49.5%)     88.8%
 TRAVEL (Ang.)       0.2165         C  3 -- H 13         +16.1% ( 41.4%)     82.9%
 REDUCED MASS        0.4676         C  3 -- C  4          +1.1% ( 10.6%)      0.0%
 EFFECTIVE MASS      1.5119
 FORCE CONSTANT      2.6064

 VIBRATION         54   54A           ATOM PAIR      ENERGY CONTRIBUTION    RADIAL
 FREQUENCY          3080.76         C  8 -- H 19         +39.3% ( 63.5%)    100.0%
 TRANSITION DIPOLE   0.3296         C  7 -- H 18         +28.3% ( 54.0%)    100.0%
 TRAVEL (Ang.)       0.2800         C  6 -- H 17         +17.9% ( 42.9%)     99.8%
 REDUCED MASS        0.2792         C  5 -- H 16         +10.6% ( 33.0%)     99.8%
 EFFECTIVE MASS      1.6096
 FORCE CONSTANT      1.5612

 VIBRATION         55   55A           ATOM PAIR      ENERGY CONTRIBUTION    RADIAL
 FREQUENCY          3136.21         C  9 -- H 21         +91.6% ( 96.3%)     99.6%
 TRANSITION DIPOLE   0.2818         C  9 -- H 20          +6.8% ( 26.3%)     47.3%
 TRAVEL (Ang.)       0.1624         C  4 -- C  9          +1.5% ( 12.2%)     67.5%
 REDUCED MASS        0.8151
 EFFECTIVE MASS      1.4434
 FORCE CONSTANT      4.7235

 VIBRATION         56   56A           ATOM PAIR      ENERGY CONTRIBUTION    RADIAL
 FREQUENCY          3139.56         C  9 -- H 20         +90.6% ( 97.0%)     99.8%
 TRANSITION DIPOLE   0.2257         C  9 -- H 21          +7.9% ( 28.6%)     74.6%
 TRAVEL (Ang.)       0.1601         C  4 -- C  9          +1.4% ( 11.9%)     20.1%
 REDUCED MASS        0.8383
 EFFECTIVE MASS      1.5507
 FORCE CONSTANT      4.8683

 VIBRATION         57   57A           ATOM PAIR      ENERGY CONTRIBUTION    RADIAL
 FREQUENCY          3166.01         C  3 -- H 15         +39.0% ( 60.2%)     97.8%
 TRANSITION DIPOLE   0.0566         C  3 -- H 14         +31.7% ( 54.3%)     96.8%
 TRAVEL (Ang.)       0.2537         C  3 -- H 13         +28.8% ( 51.7%)     96.2%
 REDUCED MASS        0.3309         C  3 -- C  4          +0.3% (  5.4%)     98.9%
 EFFECTIVE MASS      1.1399
 FORCE CONSTANT      1.9545

      SYMMETRY NUMBER FOR POINT-GROUP C1  =  1


          SYSTEM IS A GROUND STATE



 InChI=1S/C9H12/c1-8(2)9-6-4-3-5-7-9/h3-6,9H,1,7H2,2H3


          MOLECULE IS NOT LINEAR

          THERE ARE 57 GENUINE VIBRATIONS IN THIS SYSTEM
          THIS THERMODYNAMICS CALCULATION IS LIMITED TO
          MOLECULES WHICH HAVE NO INTERNAL ROTATIONS




                    CALCULATED THERMODYNAMIC PROPERTIES
                                          *
   TEMP. (K)   PARTITION FUNCTION   H.O.F.    ENTHALPY  HEAT CAPACITY ENTROPY
                                   KCAL/MOL   CAL/MOLE    CAL/K/MOL  CAL/K/MOL


 298.00  VIB.     0.2619D+03                  3858.5198    28.3027    24.0125
         ROT.     0.4453D+06                   888.2803     2.9808    28.8272
         INT.     0.1166D+09                  4746.8001    31.2836    52.8397
         TRA.     0.1274D+28                  1480.4672     4.9680    40.2640
         TOT.                       31.937    6227.2673    36.2516    93.1037

 200.00  VIB.     0.3268D+02                  1644.2292    17.1619    15.1498
         ROT.     0.2448D+06                   596.1613     2.9808    27.6385
         INT.     0.7999D+07                  2240.3905    20.1427    42.7883
         TRA.     0.7004D+27                   993.6021     4.9680    38.2829
         TOT.                       28.944    3233.9926    25.1107    81.0712

 210.00  VIB.     0.4020D+02                  1821.0485    18.2067    16.0123
         ROT.     0.2634D+06                   625.9693     2.9808    27.7840
         INT.     0.1059D+08                  2447.0178    21.1875    43.7963
         TRA.     0.7536D+27                  1043.2822     4.9680    38.5253
         TOT.                       29.200    3490.3000    26.1555    82.3216

 220.00  VIB.     0.4951D+02                  2008.4558    19.2792    16.8839
         ROT.     0.2824D+06                   655.7774     2.9808    27.9226
         INT.     0.1398D+08                  2664.2332    22.2600    44.8065
         TRA.     0.8081D+27                  1092.9623     4.9680    38.7564
         TOT.                       29.467    3757.1955    27.2280    83.5630

 230.00  VIB.     0.6105D+02                  2206.7181    20.3773    17.7650
         ROT.     0.3019D+06                   685.5855     2.9808    28.0551
         INT.     0.1843D+08                  2892.3035    23.3581    45.8202
         TRA.     0.8638D+27                  1142.6424     4.9680    38.9773
         TOT.                       29.745    4034.9460    28.3262    84.7974

 240.00  VIB.     0.7535D+02                  2416.0798    21.4986    18.6559
         ROT.     0.3218D+06                   715.3935     2.9808    28.1820
         INT.     0.2425D+08                  3131.4733    24.4795    46.8379
         TRA.     0.9207D+27                  1192.3226     4.9680    39.1887
         TOT.                       30.034    4323.7959    29.4475    86.0266

 250.00  VIB.     0.9311D+02                  2636.7587    22.6403    19.5566
         ROT.     0.3421D+06                   745.2016     2.9808    28.3037
         INT.     0.3186D+08                  3381.9603    25.6211    47.8603
         TRA.     0.9789D+27                  1242.0027     4.9680    39.3915
         TOT.                       30.334    4623.9630    30.5891    87.2518

 260.00  VIB.     0.1152D+03                  2868.9427    23.7991    20.4671
         ROT.     0.3629D+06                   775.0097     2.9808    28.4206
         INT.     0.4180D+08                  3643.9523    26.7799    48.8877
         TRA.     0.1038D+28                  1291.6828     4.9680    39.5863
         TOT.                       30.646    4935.6351    31.7479    88.4740

 270.00  VIB.     0.1427D+03                  3112.7878    24.9720    21.3872
         ROT.     0.3840D+06                   804.8177     2.9808    28.5331
         INT.     0.5481D+08                  3917.6056    27.9528    49.9203
         TRA.     0.1099D+28                  1341.3629     4.9680    39.7738
         TOT.                       30.969    5258.9684    32.9208    89.6942

 280.00  VIB.     0.1771D+03                  3368.4179    26.1555    22.3168
         ROT.     0.4055D+06                   834.6258     2.9808    28.6415
         INT.     0.7180D+08                  4203.0436    29.1364    50.9583
         TRA.     0.1160D+28                  1391.0430     4.9680    39.9545
         TOT.                       31.304    5594.0866    34.1044    90.9128

 290.00  VIB.     0.2199D+03                  3635.9237    27.3466    23.2554
         ROT.     0.4275D+06                   864.4339     2.9808    28.7461
         INT.     0.9401D+08                  4500.3576    30.3274    52.0015
         TRA.     0.1223D+28                  1440.7231     4.9680    40.1289
         TOT.                       31.651    5941.0807    35.2954    92.1303

 300.00  VIB.     0.2736D+03                  3915.3646    28.5420    24.2026
         ROT.     0.4497D+06                   894.2419     2.9808    28.8471
         INT.     0.1230D+09                  4809.6065    31.5228    53.0497
         TRA.     0.1287D+28                  1490.4032     4.9680    40.2973
         TOT.                       32.010    6300.0097    36.4908    93.3470

 310.00  VIB.     0.3408D+03                  4206.7689    29.7388    25.1580
         ROT.     0.4724D+06                   924.0500     2.9808    28.9449
         INT.     0.1610D+09                  5130.8189    32.7196    54.1029
         TRA.     0.1352D+28                  1540.0833     4.9680    40.4602
         TOT.                       32.381    6670.9022    37.6877    94.5631

 320.00  VIB.     0.4250D+03                  4510.1365    30.9342    26.1211
         ROT.     0.4955D+06                   953.8580     2.9808    29.0395
         INT.     0.2106D+09                  5463.9946    33.9150    55.1606
         TRA.     0.1418D+28                  1589.7634     4.9680    40.6179
         TOT.                       32.764    7053.7580    38.8830    95.7785

 330.00  VIB.     0.5308D+03                  4825.4401    32.1256    27.0912
         ROT.     0.5189D+06                   983.6661     2.9808    29.1312
         INT.     0.2754D+09                  5809.1062    35.1064    56.2224
         TRA.     0.1485D+28                  1639.4435     4.9680    40.7708
         TOT.                       33.159    7448.5497    40.0744    96.9932

 340.00  VIB.     0.6639D+03                  5152.6280    33.3107    28.0679
         ROT.     0.5426D+06                  1013.4742     2.9808    29.2202
         INT.     0.3602D+09                  6166.1022    36.2915    57.2881
         TRA.     0.1553D+28                  1689.1236     4.9680    40.9191
         TOT.                       33.565    7855.2258    41.2595    98.2072

 350.00  VIB.     0.8314D+03                  5491.6261    34.4873    29.0505
         ROT.     0.5667D+06                  1043.2822     2.9808    29.3066
         INT.     0.4712D+09                  6534.9083    37.4681    58.3571
         TRA.     0.1622D+28                  1738.8037     4.9680    41.0631
         TOT.                       33.984    8273.7120    42.4362    99.4202

 360.00  VIB.     0.1042D+04                  5842.3404    35.6537    30.0384
         ROT.     0.5912D+06                  1073.0903     2.9808    29.3906
         INT.     0.6163D+09                  6915.4307    38.6345    59.4290
         TRA.     0.1692D+28                  1788.4838     4.9680    41.2031
         TOT.                       34.414    8703.9146    43.6025   100.6320

 370.00  VIB.     0.1309D+04                  6204.6595    36.8080    31.0310
         ROT.     0.6160D+06                  1102.8984     2.9808    29.4723
         INT.     0.8061D+09                  7307.5579    39.7888    60.5033
         TRA.     0.1762D+28                  1838.1639     4.9680    41.3392
         TOT.                       34.856    9145.7218    44.7569   101.8425

 380.00  VIB.     0.1645D+04                  6578.4566    37.9490    32.0278
         ROT.     0.6412D+06                  1132.7064     2.9808    29.5518
         INT.     0.1055D+10                  7711.1630    40.9299    61.5796
         TRA.     0.1834D+28                  1887.8440     4.9680    41.4717
         TOT.                       35.309    9599.0071    45.8979   103.0512

 390.00  VIB.     0.2070D+04                  6963.5918    39.0755    33.0281
         ROT.     0.6666D+06                  1162.5145     2.9808    29.6292
         INT.     0.1380D+10                  8126.1063    42.0563    62.6573
         TRA.     0.1907D+28                  1937.5242     4.9680    41.6007
         TOT.                       35.774   10063.6305    47.0243   104.2581

 400.00  VIB.     0.2608D+04                  7359.9142    40.1863    34.0315
         ROT.     0.6924D+06                  1192.3226     2.9808    29.7047
         INT.     0.1806D+10                  8552.2368    43.1671    63.7362
         TRA.     0.1981D+28                  1987.2043     4.9680    41.7265
         TOT.                       36.249   10539.4411    48.1352   105.4627

   *: NOTE: HEATS OF FORMATION ARE RELATIVE TO THE
            ELEMENTS IN THEIR STANDARD STATE AT 298K
              (=  Standard Enthalpy of Formation).

            Hvib:  Zero-point energy is not included.
                   frequencies of less than zero cm-1 are not included.
            Hrot = (3/2)RT
            Htra = (3/2)RT + pV = (5/2)RT

            Heat capacity is Cp, not Cv

          For more information, see: HTTP://OpenMOPAC.net/Manual/thermochemistry.html


           FORCE CONSTANT IN CARTESIAN COORDINATES (Millidynes/A)

    ATOM   CHEMICAL       X               Y               Z
   NUMBER   SYMBOL  FORCE CONSTANT  FORCE CONSTANT  FORCE CONSTANT

      1       C        7.948348        9.472336        8.218749
      2       C        8.072735        9.216874        7.907941
      3       C        8.035815        8.858146        8.548040
      4       C        3.822513        8.786681       15.214263
      5       C       10.202347       13.155046        3.591030
      6       C       10.358844       13.192189        3.424177
      7       C       10.365910       13.804658        3.463382
      8       C       10.337615       13.891244        3.390988
      9       C        2.821339        8.563407       15.191534
     10       H        1.065353        0.737069        4.023992
     11       H        1.196677        0.873366        4.154346
     12       H        1.163566        2.708392        2.469155
     13       H        3.655195        0.966582        2.031866
     14       H        3.424270        0.833794        2.404696
     15       H        0.911267        3.482005        2.383928
     16       H        4.469858        0.759810        1.030045
     17       H        4.557171        0.763215        0.943223
     18       H        1.401300        4.088077        0.775429
     19       H        1.418925        4.236471        0.616085
     20       H        0.857936        3.574894        2.028068
     21       H        0.560917        3.817705        2.062470

 **********************
 *                    *
 * JOB ENDED NORMALLY *
 *                    *
 **********************



 TOTAL JOB TIME:             3.44 SECONDS

 == MOPAC DONE ==
