 *******************************************************************************
 **                                                                           **
 **                              MOPAC v23.1.2                                **
 **                                                                           **
 *******************************************************************************
 **          Digital Object Identifier (DOI): 10.5281/zenodo.6511958          **
 **    Visit the DOI location for information on how to cite this program.    **
 *******************************************************************************

                              PM3 CALCULATION RESULTS

 *******************************************************************************
 *  CALCULATION DONE: (MAX THREADS = 1)              Tue Jun  3 16:31:53 2025  *
 *  PM3        - The PM3 Hamiltonian to be used
 *  PRECISE    - TIGHTER CRITERIA TO BE USED
 *  NOSYM      - POINT-GROUP SYMMETRY SET TO C1
 *  THREADS=1  - MULTI-THREADING NOT USED
 *  T=         - A TIME OF 172800.0 SECONDS REQUESTED
 *  DUMP=N     - RESTART FILE WRITTEN EVERY 7200.0 SECONDS REQUESTED
 *******************************************************************************
pm3  precise nosym THREADS=1
 InChI=1S/C10H10/c1-2-6-10-8-4-3-7-9(10)5-1/h1-2,5-8H,3-4H2

   ATOM   CHEMICAL          X               Y               Z
  NUMBER   SYMBOL      (ANGSTROMS)     (ANGSTROMS)     (ANGSTROMS)

     1       C         -2.07120000  *   1.00760000  *   0.47600000  *
     2       C         -2.31800000  *  -0.35720000  *  -0.17530000  *
     3       C          0.34240000  *   0.66780000  *   0.00300000  *
     4       C          0.13150000  *  -0.73810000  *  -0.03540000  *
     5       C         -0.69090000  *   1.51710000  *   0.16180000  *
     6       C         -1.11460000  *  -1.24960000  *  -0.03810000  *
     7       C          1.65200000  *   1.17110000  *  -0.09950000  *
     8       C          1.24150000  *  -1.59990000  *  -0.09870000  *
     9       C          2.73960000  *   0.29920000  *  -0.18680000  *
    10       C          2.53590000  *  -1.08090000  *  -0.17460000  *
    11       H         -2.16850000  *   0.91160000  *   1.57890000  *
    12       H         -2.83050000  *   1.73650000  *   0.12070000  *
    13       H         -2.52980000  *  -0.21540000  *  -1.25710000  *
    14       H         -3.20090000  *  -0.84270000  *   0.29250000  *
    15       H         -0.52480000  *   2.58830000  *   0.19340000  *
    16       H         -1.27050000  *  -2.32220000  *  -0.07040000  *
    17       H          1.83930000  *   2.23890000  *  -0.08850000  *
    18       H          3.74470000  *   0.69530000  *  -0.25350000  *
    19       H          1.10930000  *  -2.67580000  *  -0.11340000  *
    20       H          3.38350000  *  -1.75150000  *  -0.23480000  *



          CARTESIAN COORDINATES 

    NO.       ATOM           X           Y           Z

     1         C         -2.0712      1.0076      0.4760
     2         C         -2.3180     -0.3572     -0.1753
     3         C          0.3424      0.6678      0.0030
     4         C          0.1315     -0.7381     -0.0354
     5         C         -0.6909      1.5171      0.1618
     6         C         -1.1146     -1.2496     -0.0381
     7         C          1.6520      1.1711     -0.0995
     8         C          1.2415     -1.5999     -0.0987
     9         C          2.7396      0.2992     -0.1868
    10         C          2.5359     -1.0809     -0.1746
    11         H         -2.1685      0.9116      1.5789
    12         H         -2.8305      1.7365      0.1207
    13         H         -2.5298     -0.2154     -1.2571
    14         H         -3.2009     -0.8427      0.2925
    15         H         -0.5248      2.5883      0.1934
    16         H         -1.2705     -2.3222     -0.0704
    17         H          1.8393      2.2389     -0.0885
    18         H          3.7447      0.6953     -0.2535
    19         H          1.1093     -2.6758     -0.1134
    20         H          3.3835     -1.7515     -0.2348

  H: (PM3): J. J. P. STEWART, J. COMP. CHEM. 10, 209 (1989).
  C: (PM3): J. J. P. STEWART, J. COMP. CHEM. 10, 209 (1989).

           Empirical Formula: C10 H10  =    20 atoms



      MOLECULAR POINT GROUP   :   C1  


      RHF CALCULATION, NO. OF DOUBLY OCCUPIED LEVELS = 25


          Geometry optimization using EF

          DIAGONAL MATRIX USED AS START HESSIAN

 CYCLE:     1 TIME:   0.008 TIME LEFT:  2.00D  GRAD.:   199.691 HEAT:  56.70963
 CYCLE:     2 TIME:   0.012 TIME LEFT:  2.00D  GRAD.:   121.487 HEAT:  50.85264
 CYCLE:     3 TIME:   0.008 TIME LEFT:  2.00D  GRAD.:   100.526 HEAT:  50.45673
 CYCLE:     4 TIME:   0.012 TIME LEFT:  2.00D  GRAD.:    38.654 HEAT:  48.39377
 CYCLE:     5 TIME:   0.012 TIME LEFT:  2.00D  GRAD.:    30.199 HEAT:  48.10661
 CYCLE:     6 TIME:   0.008 TIME LEFT:  2.00D  GRAD.:    25.828 HEAT:  48.02076
 CYCLE:     7 TIME:   0.004 TIME LEFT:  2.00D  GRAD.:    29.625 HEAT:  47.91285
 CYCLE:     8 TIME:   0.008 TIME LEFT:  2.00D  GRAD.:    27.012 HEAT:  47.87307
 CYCLE:     9 TIME:   0.012 TIME LEFT:  2.00D  GRAD.:    14.183 HEAT:  47.71668
 CYCLE:    10 TIME:   0.008 TIME LEFT:  2.00D  GRAD.:    14.718 HEAT:  47.67990
 CYCLE:    11 TIME:   0.004 TIME LEFT:  2.00D  GRAD.:    10.915 HEAT:  47.59995
 CYCLE:    12 TIME:   0.016 TIME LEFT:  2.00D  GRAD.:    10.060 HEAT:  47.57379
 CYCLE:    13 TIME:   0.004 TIME LEFT:  2.00D  GRAD.:     6.548 HEAT:  47.54202
 CYCLE:    14 TIME:   0.008 TIME LEFT:  2.00D  GRAD.:     9.771 HEAT:  47.52071
 CYCLE:    15 TIME:   0.008 TIME LEFT:  2.00D  GRAD.:     7.376 HEAT:  47.49152
 CYCLE:    16 TIME:   0.004 TIME LEFT:  2.00D  GRAD.:     8.903 HEAT:  47.46574
 CYCLE:    17 TIME:   0.008 TIME LEFT:  2.00D  GRAD.:     8.169 HEAT:  47.44126
 CYCLE:    18 TIME:   0.008 TIME LEFT:  2.00D  GRAD.:    10.912 HEAT:  47.43619
 CYCLE:    19 TIME:   0.008 TIME LEFT:  2.00D  GRAD.:     9.706 HEAT:  47.41762
 CYCLE:    20 TIME:   0.008 TIME LEFT:  2.00D  GRAD.:     8.327 HEAT:  47.39914
 CYCLE:    21 TIME:   0.004 TIME LEFT:  2.00D  GRAD.:     5.268 HEAT:  47.37206
 CYCLE:    22 TIME:   0.008 TIME LEFT:  2.00D  GRAD.:     7.108 HEAT:  47.35626
 CYCLE:    23 TIME:   0.008 TIME LEFT:  2.00D  GRAD.:     5.140 HEAT:  47.32986
 CYCLE:    24 TIME:   0.008 TIME LEFT:  2.00D  GRAD.:     5.273 HEAT:  47.31583
 CYCLE:    25 TIME:   0.004 TIME LEFT:  2.00D  GRAD.:     5.267 HEAT:  47.31223
 CYCLE:    26 TIME:   0.008 TIME LEFT:  2.00D  GRAD.:     1.856 HEAT:  47.30362
 CYCLE:    27 TIME:   0.008 TIME LEFT:  2.00D  GRAD.:     2.867 HEAT:  47.30140
 CYCLE:    28 TIME:   0.004 TIME LEFT:  2.00D  GRAD.:     1.454 HEAT:  47.29640
 CYCLE:    29 TIME:   0.008 TIME LEFT:  2.00D  GRAD.:     1.751 HEAT:  47.29265
 CYCLE:    30 TIME:   0.008 TIME LEFT:  2.00D  GRAD.:     1.507 HEAT:  47.29057
 CYCLE:    31 TIME:   0.004 TIME LEFT:  2.00D  GRAD.:     1.314 HEAT:  47.28894
 CYCLE:    32 TIME:   0.008 TIME LEFT:  2.00D  GRAD.:     1.283 HEAT:  47.28539
 CYCLE:    33 TIME:   0.008 TIME LEFT:  2.00D  GRAD.:     1.777 HEAT:  47.28196
 CYCLE:    34 TIME:   0.008 TIME LEFT:  2.00D  GRAD.:     1.787 HEAT:  47.27614
 CYCLE:    35 TIME:   0.008 TIME LEFT:  2.00D  GRAD.:     1.775 HEAT:  47.26956
 CYCLE:    36 TIME:   0.004 TIME LEFT:  2.00D  GRAD.:     1.975 HEAT:  47.26151
 CYCLE:    37 TIME:   0.008 TIME LEFT:  2.00D  GRAD.:     2.011 HEAT:  47.25574
 CYCLE:    38 TIME:   0.004 TIME LEFT:  2.00D  GRAD.:     1.598 HEAT:  47.25098
 CYCLE:    39 TIME:   0.008 TIME LEFT:  2.00D  GRAD.:     1.541 HEAT:  47.24708
 CYCLE:    40 TIME:   0.008 TIME LEFT:  2.00D  GRAD.:     1.064 HEAT:  47.24449
 CYCLE:    41 TIME:   0.008 TIME LEFT:  2.00D  GRAD.:     0.605 HEAT:  47.24321
 CYCLE:    42 TIME:   0.004 TIME LEFT:  2.00D  GRAD.:     0.361 HEAT:  47.24251
 CYCLE:    43 TIME:   0.008 TIME LEFT:  2.00D  GRAD.:     0.293 HEAT:  47.24228
 CYCLE:    44 TIME:   0.008 TIME LEFT:  2.00D  GRAD.:     0.233 HEAT:  47.24212
 CYCLE:    45 TIME:   0.008 TIME LEFT:  2.00D  GRAD.:     0.210 HEAT:  47.24198
 CYCLE:    46 TIME:   0.004 TIME LEFT:  2.00D  GRAD.:     0.167 HEAT:  47.24184
 CYCLE:    47 TIME:   0.008 TIME LEFT:  2.00D  GRAD.:     0.125 HEAT:  47.24177
 CYCLE:    48 TIME:   0.008 TIME LEFT:  2.00D  GRAD.:     0.126 HEAT:  47.24174
 CYCLE:    49 TIME:   0.004 TIME LEFT:  2.00D  GRAD.:     0.125 HEAT:  47.24171
 CYCLE:    50 TIME:   0.008 TIME LEFT:  2.00D  GRAD.:     0.079 HEAT:  47.24169
 CYCLE:    51 TIME:   0.004 TIME LEFT:  2.00D  GRAD.:     0.054 HEAT:  47.24168
 CYCLE:    52 TIME:   0.008 TIME LEFT:  2.00D  GRAD.:     0.042 HEAT:  47.24167

     GRADIENT =  0.04153 IS LESS THAN CUTOFF =  0.05000



 -------------------------------------------------------------------------------
 pm3  precise nosym THREADS=1
 InChI=1S/C10H10/c1-2-6-10-8-4-3-7-9(10)5-1/h1-2,5-8H,3-4H2



     GEOMETRY OPTIMISED USING EIGENVECTOR FOLLOWING (EF).     
     SCF FIELD WAS ACHIEVED                                   


                              PM3 CALCULATION
                                                       MOPAC v23.1.2 MacOS
                                                       Tue Jun  3 16:31:53 2025




          FINAL HEAT OF FORMATION =         47.24167 KCAL/MOL =     197.65916 KJ/MOL


          COSMO AREA              =        170.31 SQUARE ANGSTROMS
          COSMO VOLUME            =        170.38 CUBIC ANGSTROMS

          GRADIENT NORM           =          0.04153          =       0.00929 PER ATOM
          IONIZATION POTENTIAL    =          8.056555 EV
          HOMO LUMO ENERGIES (EV) =         -8.057 -0.692
          NO. OF FILLED LEVELS    =         25
          MOLECULAR WEIGHT        =        130.1890         POINT GROUP:  C1  

          MOLECULAR DIMENSIONS (Angstroms)

            Atom       Atom       Distance
            H    18    H    14     7.12966
            H    19    H    15     5.55336
            H    11    H    13     2.65743


          SCF CALCULATIONS        =         59

          WALL-CLOCK TIME         =      0.398 SECONDS
          COMPUTATION TIME        =      0.248 SECONDS




   ATOM   CHEMICAL          X               Y               Z
  NUMBER   SYMBOL      (ANGSTROMS)     (ANGSTROMS)     (ANGSTROMS)

     1       C         -2.08364283  *   1.02702005  *   0.42393361  *
     2       C         -2.32834399  *  -0.37317031  *  -0.12209234  *
     3       C          0.34209390  *   0.68715974  *   0.02368897  *
     4       C          0.12285250  *  -0.75619734  *  -0.05494025  *
     5       C         -0.69823250  *   1.52099184  *   0.22941187  *
     6       C         -1.13163774  *  -1.24995881  *  -0.10328382  *
     7       C          1.70569756  *   1.17634882  *  -0.09966902  *
     8       C          1.29098025  *  -1.62043257  *  -0.10532086  *
     9       C          2.74365044  *   0.32362139  *  -0.18983520  *
    10       C          2.53313630  *  -1.10547897  *  -0.17231608  *
    11       H         -2.29332181  *   1.05968134  *   1.51356632  *
    12       H         -2.80029532  *   1.73522651  *  -0.03679502  *
    13       H         -2.68057191  *  -0.32234852  *  -1.17361741  *
    14       H         -3.15159429  *  -0.85312236  *   0.44299706  *
    15       H         -0.54485631  *   2.60405708  *   0.30105144  *
    16       H         -1.30862069  *  -2.32956020  *  -0.17262299  *
    17       H          1.85615310  *   2.26182643  *  -0.10726629  *
    18       H          3.77209101  *   0.68868778  *  -0.27638727  *
    19       H          1.12156178  *  -2.70310279  *  -0.09607927  *
    20       H          3.41433295  *  -1.75350356  *  -0.21730094  *

                             CARTESIAN COORDINATES

   1    C       -2.083642832     1.027020052     0.423933612
   2    C       -2.328343990    -0.373170308    -0.122092343
   3    C        0.342093902     0.687159736     0.023688971
   4    C        0.122852498    -0.756197339    -0.054940250
   5    C       -0.698232497     1.520991839     0.229411873
   6    C       -1.131637735    -1.249958807    -0.103283824
   7    C        1.705697561     1.176348818    -0.099669016
   8    C        1.290980251    -1.620432566    -0.105320856
   9    C        2.743650436     0.323621388    -0.189835202
  10    C        2.533136298    -1.105478969    -0.172316077
  11    H       -2.293321808     1.059681338     1.513566316
  12    H       -2.800295325     1.735226512    -0.036795024
  13    H       -2.680571910    -0.322348522    -1.173617408
  14    H       -3.151594286    -0.853122357     0.442997058
  15    H       -0.544856314     2.604057077     0.301051436
  16    H       -1.308620694    -2.329560200    -0.172622995
  17    H        1.856153096     2.261826430    -0.107266289
  18    H        3.772091009     0.688687782    -0.276387274
  19    H        1.121561776    -2.703102793    -0.096079269
  20    H        3.414332951    -1.753503558    -0.217300938


           Empirical Formula: C10 H10  =    20 atoms



      MOLECULAR POINT GROUP   :   C1  


                  EIGENVALUES  
 -40.96563 -35.93247 -31.72229 -28.99697 -27.50774 -22.30511 -22.14967 -20.94879
 -17.61428 -17.59866 -17.01502 -16.09964 -15.11325 -15.01792 -14.48932 -14.39748
 -13.66736 -13.03834 -13.02571 -12.52851 -12.32148 -11.67032 -10.49041 -10.36915
  -8.05656  -0.69185   1.25531   1.26101   2.95511   3.14823   3.21799   3.42302
   3.44390   3.54044   3.67587   3.78461   3.94120   3.94474   4.12386   4.53731
   4.56885   4.62447   4.67179   4.98731   5.34365   5.47137   5.67028   5.74255
   6.40424   6.44731


              NET ATOMIC CHARGES AND DIPOLE CONTRIBUTIONS

  ATOM NO.   TYPE          CHARGE      No. of ELECS.   s-Pop       p-Pop       
    1          C          -0.056250        4.0562     1.14503     2.91122
    2          C          -0.056275        4.0563     1.14504     2.91124
    3          C          -0.045977        4.0460     1.16213     2.88384
    4          C          -0.045959        4.0460     1.16213     2.88383
    5          C          -0.123632        4.1236     1.19602     2.92761
    6          C          -0.123625        4.1236     1.19602     2.92761
    7          C          -0.085231        4.0852     1.17951     2.90572
    8          C          -0.085221        4.0852     1.17951     2.90571
    9          C          -0.103744        4.1037     1.17955     2.92419
   10          C          -0.103762        4.1038     1.17956     2.92421
   11          H           0.056117        0.9439     0.94388
   12          H           0.054602        0.9454     0.94540
   13          H           0.056108        0.9439     0.94389
   14          H           0.054607        0.9454     0.94539
   15          H           0.101980        0.8980     0.89802
   16          H           0.101985        0.8980     0.89802
   17          H           0.101178        0.8988     0.89882
   18          H           0.100962        0.8990     0.89904
   19          H           0.101175        0.8988     0.89882
   20          H           0.100962        0.8990     0.89904
 DIPOLE           X         Y         Z       TOTAL
 POINT-CHG.    -0.558     0.083     0.038     0.565
 HYBRID        -0.017     0.003     0.001     0.017
 SUM           -0.575     0.085     0.039     0.582


          ATOMIC ORBITAL ELECTRON POPULATIONS

     Atom    s        px        py        pz   
    1  C   1.14503   0.94900   0.95841   1.00381
    2  C   1.14504   0.95981   0.94606   1.00537
    3  C   1.16213   0.93771   0.93117   1.01497
    4  C   1.16213   0.93846   0.92988   1.01549
    5  C   1.19602   0.94882   0.98121   0.99759
    6  C   1.19602   0.94423   0.98473   0.99865
    7  C   1.17951   0.92852   0.97807   0.99914
    8  C   1.17951   0.93386   0.97233   0.99953
    9  C   1.17955   0.97683   0.94185   1.00551
   10  C   1.17956   0.96725   0.95128   1.00567
   11  H   0.94388
   12  H   0.94540
   13  H   0.94389
   14  H   0.94539
   15  H   0.89802
   16  H   0.89802
   17  H   0.89882
   18  H   0.89904
   19  H   0.89882
   20  H   0.89904
 *******************************************************************************
 **                                                                           **
 **                              MOPAC v23.1.2                                **
 **                                                                           **
 *******************************************************************************
 **          Digital Object Identifier (DOI): 10.5281/zenodo.6511958          **
 **    Visit the DOI location for information on how to cite this program.    **
 *******************************************************************************

                              PM3 CALCULATION RESULTS

 *******************************************************************************
 *  CALCULATION DONE: (MAX THREADS = 1)              Tue Jun  3 16:31:53 2025  *
 *  PM3        - The PM3 Hamiltonian to be used
 *  OLDGEO     - PREVIOUS GEOMETRY TO BE USED
 *  PRECISE    - TIGHTER CRITERIA TO BE USED
 *  NOSYM      - POINT-GROUP SYMMETRY SET TO C1
 *  THREADS=1  - MULTI-THREADING NOT USED
 *  T=         - A TIME OF 172800.0 SECONDS REQUESTED
 *  DUMP=N     - RESTART FILE WRITTEN EVERY 7200.0 SECONDS REQUESTED
 *  THERMO     - THERMODYNAMIC QUANTITIES TO BE CALCULATED
 *******************************************************************************
oldgeo thermo nosym precise THREADS=1  pm3
 InChI=1S/C10H10/c1-2-6-10-8-4-3-7-9(10)5-1/h1-2,5-8H,3-4H2

   ATOM   CHEMICAL          X               Y               Z
  NUMBER   SYMBOL      (ANGSTROMS)     (ANGSTROMS)     (ANGSTROMS)

     1       C         -2.08364283  *   1.02702005  *   0.42393361  *
     2       C         -2.32834399  *  -0.37317031  *  -0.12209234  *
     3       C          0.34209390  *   0.68715974  *   0.02368897  *
     4       C          0.12285250  *  -0.75619734  *  -0.05494025  *
     5       C         -0.69823250  *   1.52099184  *   0.22941187  *
     6       C         -1.13163774  *  -1.24995881  *  -0.10328382  *
     7       C          1.70569756  *   1.17634882  *  -0.09966902  *
     8       C          1.29098025  *  -1.62043257  *  -0.10532086  *
     9       C          2.74365044  *   0.32362139  *  -0.18983520  *
    10       C          2.53313630  *  -1.10547897  *  -0.17231608  *
    11       H         -2.29332181  *   1.05968134  *   1.51356632  *
    12       H         -2.80029532  *   1.73522651  *  -0.03679502  *
    13       H         -2.68057191  *  -0.32234852  *  -1.17361741  *
    14       H         -3.15159429  *  -0.85312236  *   0.44299706  *
    15       H         -0.54485631  *   2.60405708  *   0.30105144  *
    16       H         -1.30862069  *  -2.32956020  *  -0.17262299  *
    17       H          1.85615310  *   2.26182643  *  -0.10726629  *
    18       H          3.77209101  *   0.68868778  *  -0.27638727  *
    19       H          1.12156178  *  -2.70310279  *  -0.09607927  *
    20       H          3.41433295  *  -1.75350356  *  -0.21730094  *



          CARTESIAN COORDINATES 

    NO.       ATOM           X           Y           Z

     1         C         -2.0836      1.0270      0.4239
     2         C         -2.3283     -0.3732     -0.1221
     3         C          0.3421      0.6872      0.0237
     4         C          0.1229     -0.7562     -0.0549
     5         C         -0.6982      1.5210      0.2294
     6         C         -1.1316     -1.2500     -0.1033
     7         C          1.7057      1.1763     -0.0997
     8         C          1.2910     -1.6204     -0.1053
     9         C          2.7437      0.3236     -0.1898
    10         C          2.5331     -1.1055     -0.1723
    11         H         -2.2933      1.0597      1.5136
    12         H         -2.8003      1.7352     -0.0368
    13         H         -2.6806     -0.3223     -1.1736
    14         H         -3.1516     -0.8531      0.4430
    15         H         -0.5449      2.6041      0.3011
    16         H         -1.3086     -2.3296     -0.1726
    17         H          1.8562      2.2618     -0.1073
    18         H          3.7721      0.6887     -0.2764
    19         H          1.1216     -2.7031     -0.0961
    20         H          3.4143     -1.7535     -0.2173

  H: (PM3): J. J. P. STEWART, J. COMP. CHEM. 10, 209 (1989).
  C: (PM3): J. J. P. STEWART, J. COMP. CHEM. 10, 209 (1989).

           Empirical Formula: C10 H10  =    20 atoms



      MOLECULAR POINT GROUP   :   C1  


      RHF CALCULATION, NO. OF DOUBLY OCCUPIED LEVELS = 25



          HEAT OF FORMATION =      47.241673 KCALS/MOLE


          CARTESIAN COORDINATE DERIVATIVES

   NUMBER  ATOM         X            Y            Z

     1       C     -0.005869     0.007167     0.011565
     2       C      0.002516     0.007826    -0.006730
     3       C     -0.004044    -0.001430    -0.000058
     4       C      0.001582    -0.005639    -0.005870
     5       C      0.000789     0.003916     0.004875
     6       C     -0.003586     0.004749     0.004660
     7       C     -0.003363    -0.000810     0.000949
     8       C     -0.003969     0.007554     0.001256
     9       C     -0.007118     0.000374    -0.004192
    10       C      0.008601    -0.001146    -0.001794
    11       H     -0.001288    -0.011833    -0.007961
    12       H      0.012738     0.000893     0.003566
    13       H     -0.001437     0.001826     0.003539
    14       H     -0.002694    -0.010374    -0.010154
    15       H     -0.006192     0.008154    -0.000115
    16       H      0.001809    -0.006910     0.005034
    17       H      0.005881    -0.010849     0.004415
    18       H      0.007800    -0.001102    -0.003569
    19       H     -0.003745     0.009138     0.000168
    20       H      0.001590    -0.001505     0.000413



          GRADIENT NORM =   0.04356

          MOLECULAR WEIGHT =  130.19



          ROTATIONAL CONSTANTS IN CM(-1)

          A =    0.09807909   B =    0.03896456   C =    0.02838250



           PRINCIPAL MOMENTS OF INERTIA IN UNITS OF 10**(-40)*GRAM-CM**2

          A =      285.4100   B =      718.4157   C =      986.2679


          ORIENTATION OF MOLECULE IN FORCE CALCULATION

    NO.       ATOM         X         Y         Z

     1          C      -0.7616   -2.4379   -0.2223
     2          C       0.7611   -2.4379   -0.2223
     3          C      -0.6954    0.0431   -0.2223
     4          C       0.6953    0.0020    0.2270
     5          C      -1.3687   -1.1035   -0.4500
     6          C       1.3683   -1.1670    0.2439
     7          C      -1.3201    1.3459   -0.3848
     8          C       1.3204    1.2539    0.6219
     9          C      -0.6705    2.4747   -0.0438
    10          C       0.6712    2.4260    0.4895
    11          H      -1.1487   -2.8129    0.7482
    12          H      -1.1324   -3.1514   -0.9845
    13          H       1.1480   -2.6300   -1.2449
    14          H       1.1321   -3.2782    0.3972
    15          H      -2.4150   -1.0855   -0.7766
    16          H       2.4143   -1.2089    0.5689
    17          H      -2.3397    1.3727   -0.7856
    18          H      -1.1404    3.4567   -0.1590
    19          H       2.3398    1.2079    1.0212
    20          H       1.1416    3.3710    0.7795


    FIRST DERIVATIVES WILL BE USED IN THE CALCULATION OF SECOND DERIVATIVES

          ESTIMATED TIME TO COMPLETE CALCULATION =        1.88 SECONDS

    FOR POINT-GROUP C1   THERE ARE   1 UNIQUE SYMMETRY FUNCTIONS.

 STEP:   1 TIME =     0.02 SECS, INTEGRAL =      0.02 TIME LEFT: 172799.97
 STEP:   2 TIME =     0.02 SECS, INTEGRAL =      0.04 TIME LEFT: 172799.95
 STEP:   3 TIME =     0.02 SECS, INTEGRAL =      0.06 TIME LEFT: 172799.93
 STEP:   4 TIME =     0.02 SECS, INTEGRAL =      0.08 TIME LEFT: 172799.91
 STEP:   5 TIME =     0.02 SECS, INTEGRAL =      0.10 TIME LEFT: 172799.89
 STEP:   6 TIME =     0.02 SECS, INTEGRAL =      0.12 TIME LEFT: 172799.87
 STEP:   7 TIME =     0.02 SECS, INTEGRAL =      0.14 TIME LEFT: 172799.85
 STEP:   8 TIME =     0.02 SECS, INTEGRAL =      0.16 TIME LEFT: 172799.83
 STEP:   9 TIME =     0.02 SECS, INTEGRAL =      0.18 TIME LEFT: 172799.81
 STEP:  10 TIME =     0.02 SECS, INTEGRAL =      0.21 TIME LEFT: 172799.79
 STEP:  11 TIME =     0.02 SECS, INTEGRAL =      0.23 TIME LEFT: 172799.76
 STEP:  12 TIME =     0.02 SECS, INTEGRAL =      0.25 TIME LEFT: 172799.74
 STEP:  13 TIME =     0.02 SECS, INTEGRAL =      0.27 TIME LEFT: 172799.72
 STEP:  14 TIME =     0.02 SECS, INTEGRAL =      0.30 TIME LEFT: 172799.70
 STEP:  15 TIME =     0.02 SECS, INTEGRAL =      0.32 TIME LEFT: 172799.67
 STEP:  16 TIME =     0.02 SECS, INTEGRAL =      0.34 TIME LEFT: 172799.65
 STEP:  17 TIME =     0.02 SECS, INTEGRAL =      0.36 TIME LEFT: 172799.63
 STEP:  18 TIME =     0.02 SECS, INTEGRAL =      0.39 TIME LEFT: 172799.61
 STEP:  19 TIME =     0.02 SECS, INTEGRAL =      0.41 TIME LEFT: 172799.59
 STEP:  20 TIME =     0.02 SECS, INTEGRAL =      0.43 TIME LEFT: 172799.57
 STEP:  21 TIME =     0.02 SECS, INTEGRAL =      0.45 TIME LEFT: 172799.54
 STEP:  22 TIME =     0.02 SECS, INTEGRAL =      0.47 TIME LEFT: 172799.52
 STEP:  23 TIME =     0.02 SECS, INTEGRAL =      0.49 TIME LEFT: 172799.50
 STEP:  24 TIME =     0.02 SECS, INTEGRAL =      0.51 TIME LEFT: 172799.48
 STEP:  25 TIME =     0.02 SECS, INTEGRAL =      0.54 TIME LEFT: 172799.46
 STEP:  26 TIME =     0.02 SECS, INTEGRAL =      0.55 TIME LEFT: 172799.44
 STEP:  27 TIME =     0.02 SECS, INTEGRAL =      0.58 TIME LEFT: 172799.41
 STEP:  28 TIME =     0.02 SECS, INTEGRAL =      0.60 TIME LEFT: 172799.39
 STEP:  29 TIME =     0.02 SECS, INTEGRAL =      0.62 TIME LEFT: 172799.37
 STEP:  30 TIME =     0.02 SECS, INTEGRAL =      0.64 TIME LEFT: 172799.35
 STEP:  31 TIME =     0.02 SECS, INTEGRAL =      0.66 TIME LEFT: 172799.33
 STEP:  32 TIME =     0.02 SECS, INTEGRAL =      0.68 TIME LEFT: 172799.31
 STEP:  33 TIME =     0.02 SECS, INTEGRAL =      0.70 TIME LEFT: 172799.29
 STEP:  34 TIME =     0.02 SECS, INTEGRAL =      0.72 TIME LEFT: 172799.27
 STEP:  35 TIME =     0.02 SECS, INTEGRAL =      0.74 TIME LEFT: 172799.25
 STEP:  36 TIME =     0.02 SECS, INTEGRAL =      0.76 TIME LEFT: 172799.23
 STEP:  37 TIME =     0.02 SECS, INTEGRAL =      0.78 TIME LEFT: 172799.21
 STEP:  38 TIME =     0.02 SECS, INTEGRAL =      0.80 TIME LEFT: 172799.19
 STEP:  39 TIME =     0.02 SECS, INTEGRAL =      0.82 TIME LEFT: 172799.17
 STEP:  40 TIME =     0.02 SECS, INTEGRAL =      0.84 TIME LEFT: 172799.15
 STEP:  41 TIME =     0.02 SECS, INTEGRAL =      0.86 TIME LEFT: 172799.13
 STEP:  42 TIME =     0.02 SECS, INTEGRAL =      0.88 TIME LEFT: 172799.11
 STEP:  43 TIME =     0.02 SECS, INTEGRAL =      0.90 TIME LEFT: 172799.09
 STEP:  44 TIME =     0.02 SECS, INTEGRAL =      0.92 TIME LEFT: 172799.07
 STEP:  45 TIME =     0.02 SECS, INTEGRAL =      0.94 TIME LEFT: 172799.05
 STEP:  46 TIME =     0.02 SECS, INTEGRAL =      0.96 TIME LEFT: 172799.03
 STEP:  47 TIME =     0.02 SECS, INTEGRAL =      0.98 TIME LEFT: 172799.01
 STEP:  48 TIME =     0.02 SECS, INTEGRAL =      1.01 TIME LEFT: 172798.98
 STEP:  49 TIME =     0.02 SECS, INTEGRAL =      1.03 TIME LEFT: 172798.96
 STEP:  50 TIME =     0.02 SECS, INTEGRAL =      1.05 TIME LEFT: 172798.95
 STEP:  51 TIME =     0.02 SECS, INTEGRAL =      1.07 TIME LEFT: 172798.93
 STEP:  52 TIME =     0.02 SECS, INTEGRAL =      1.09 TIME LEFT: 172798.91
 STEP:  53 TIME =     0.02 SECS, INTEGRAL =      1.10 TIME LEFT: 172798.89
 STEP:  54 TIME =     0.02 SECS, INTEGRAL =      1.12 TIME LEFT: 172798.87
 STEP:  55 TIME =     0.02 SECS, INTEGRAL =      1.14 TIME LEFT: 172798.85
 STEP:  56 TIME =     0.02 SECS, INTEGRAL =      1.16 TIME LEFT: 172798.83
 STEP:  57 TIME =     0.02 SECS, INTEGRAL =      1.18 TIME LEFT: 172798.81
 STEP:  58 TIME =     0.02 SECS, INTEGRAL =      1.20 TIME LEFT: 172798.79
 STEP:  59 TIME =     0.02 SECS, INTEGRAL =      1.22 TIME LEFT: 172798.77
 STEP:  60 TIME =     0.02 SECS, INTEGRAL =      1.24 TIME LEFT: 172798.75

(To convert to Hartree/Bohr^2, multiply by (10^(-21) x N x a0^2)/(4.184 x 627.51) =  0.0642)


           FORCE MATRIX IN MILLIDYNES/ANGSTROM


                  C  1       C  2       C  3       C  4       C  5       C  6
 ------------------------------------------------------------------------------
     C    1  14.678504
     C    2   4.133341  14.675769
     C    3   0.859461   0.104710  19.085271
     C    4   0.104798   0.859591   5.275622  19.075619
     C    5   5.034114   0.649870   9.509002   1.050559  17.787772
     C    6   0.650169   5.032857   1.048449   9.507068   0.181012  17.785130
     C    7   0.133974   0.009600   5.441397   0.705970   1.138423   0.093348
     C    8   0.009572   0.134032   0.706717   5.441549   0.093399   1.138221
     C    9   0.025266   0.015813   1.181487   0.285167   0.216702   0.124512
     C   10   0.015548   0.025107   0.282289   1.180035   0.123121   0.214305
     H   11   4.374596   0.439230   0.035728   0.016131   0.400524   0.013143
     H   12   4.457482   0.430317   0.045461   0.008569   0.432894   0.047097
     H   13   0.438964   4.374405   0.016027   0.035692   0.013084   0.400422
     H   14   0.430216   4.457306   0.008486   0.045543   0.047283   0.432730
     H   15   0.425508   0.044099   0.454193   0.112906   4.811501   0.015696
     H   16   0.044080   0.425548   0.112826   0.454263   0.015669   4.811378
     H   17   0.003074   0.002236   0.441574   0.046520   0.039610   0.007655
     H   18   0.010281   0.000443   0.119442   0.004091   0.007690   0.001321
     H   19   0.002252   0.003041   0.046497   0.441591   0.007735   0.039527
     H   20   0.000442   0.010178   0.004073   0.119695   0.001323   0.007789


                  C  7       C  8       C  9       C 10       H 11       H 12
 ------------------------------------------------------------------------------
     C    7  18.247324
     C    8   0.327737  18.247397
     C    9   9.732944   1.274801  18.124938
     C   10   1.271786   9.735333   5.681287  18.134133
     H   11   0.021263   0.001673   0.004399   0.003346   4.966412
     H   12   0.015964   0.001145   0.002709   0.001513   0.577507   5.049364
     H   13   0.001639   0.021223   0.003378   0.004310   0.044543   0.033348
     H   14   0.001138   0.015791   0.001504   0.002663   0.033361   0.020094
     H   15   0.075944   0.008221   0.005596   0.005664   0.018764   0.035806
     H   16   0.008237   0.075857   0.005690   0.005585   0.005436   0.007878
     H   17   4.819539   0.011544   0.441810   0.121285   0.000809   0.000587
     H   18   0.439918   0.050328   4.860518   0.435897   0.001735   0.001277
     H   19   0.011561   4.819506   0.121409   0.441731   0.000411   0.000233
     H   20   0.050384   0.440240   0.435959   4.860545   0.000152   0.000087


                  H 13       H 14       H 15       H 16       H 17       H 18
 ------------------------------------------------------------------------------
     H   13   4.966255
     H   14   0.577022   5.049526
     H   15   0.005421   0.007872   5.194026
     H   16   0.018787   0.035876   0.010419   5.194238
     H   17   0.000414   0.000229   0.027103   0.003372   5.194793
     H   18   0.000159   0.000082   0.004584   0.000790   0.062915   5.225002
     H   19   0.000811   0.000577   0.003374   0.027067   0.009183   0.007372
     H   20   0.001737   0.001246   0.000782   0.004580   0.007372   0.031451


                  H 19       H 20
 ------------------------------
     H   19   5.194722
     H   20   0.062862   5.224846


          HEAT OF FORMATION =      47.241673 KCALS/MOLE

          ZERO POINT ENERGY     105.478 KCAL/MOL


           NORMAL COORDINATE ANALYSIS (Total motion = 1 Angstrom)


   Root No.       1         2         3         4         5         6         7         8

                 1 A       2 A       3 A       4 A       5 A       6 A       7 A       8 A   

                  85.9     149.6     216.3     259.3     378.3     418.8     456.2     483.4
  
           1    0.0002   -0.0085   -0.0011   -0.0015   -0.0354   -0.0014    0.0009   -0.0308
           2    0.0032    0.0066   -0.0045   -0.0046    0.0064   -0.0113   -0.0013   -0.0413
           3    0.0465    0.0345   -0.0189   -0.0133   -0.0078   -0.0047   -0.0007    0.0014
           4   -0.0003   -0.0085    0.0009   -0.0015   -0.0354   -0.0014   -0.0011   -0.0308
           5    0.0114   -0.0128   -0.0079    0.0073   -0.0049    0.0119   -0.0009    0.0404
           6   -0.0449    0.0330    0.0178   -0.0129   -0.0088   -0.0025    0.0005    0.0089
           7    0.0009    0.0135   -0.0040    0.0121    0.0471   -0.0270   -0.0087    0.0009
           8   -0.0014    0.0043    0.0008    0.0007   -0.0050   -0.0121   -0.0017   -0.0388
           9   -0.0043   -0.0411    0.0139   -0.0183    0.0258    0.0542    0.0253   -0.0281
          10   -0.0009    0.0135    0.0044    0.0120    0.0472   -0.0272    0.0083    0.0008
          11   -0.0022    0.0032    0.0034    0.0025    0.0002    0.0022    0.0033    0.0432
          12    0.0037   -0.0411   -0.0143   -0.0178    0.0261    0.0559   -0.0250   -0.0203
          13   -0.0044    0.0074   -0.0111   -0.0098    0.0171   -0.0068    0.0057   -0.0159
          14   -0.0028    0.0041    0.0003    0.0011    0.0209   -0.0130   -0.0019   -0.0387
          15    0.0175   -0.0219    0.0415    0.0451   -0.0036   -0.0095   -0.0199   -0.0129
          16    0.0045    0.0072    0.0110   -0.0099    0.0171   -0.0068   -0.0060   -0.0158
          17    0.0004   -0.0002    0.0077   -0.0094   -0.0200    0.0146   -0.0049    0.0405
          18   -0.0181   -0.0216   -0.0401    0.0450   -0.0072   -0.0074    0.0191   -0.0059
          19    0.0124    0.0071    0.0068    0.0104    0.0090    0.0225   -0.0129    0.0194
          20    0.0002    0.0035    0.0027   -0.0012   -0.0309   -0.0014   -0.0018   -0.0340
          21   -0.0338   -0.0227   -0.0162   -0.0272    0.0016   -0.0416    0.0381    0.0140
          22   -0.0123    0.0072   -0.0065    0.0105    0.0091    0.0223    0.0132    0.0193
          23   -0.0059    0.0007   -0.0002    0.0060    0.0301    0.0088    0.0054    0.0308
          24    0.0332   -0.0235    0.0158   -0.0266    0.0070   -0.0402   -0.0380    0.0204
          25    0.0086   -0.0165    0.0090   -0.0091   -0.0283    0.0031    0.0184    0.0304
          26   -0.0012   -0.0024    0.0033   -0.0025   -0.0102   -0.0080    0.0053   -0.0349
          27   -0.0221    0.0418   -0.0228    0.0132   -0.0104    0.0207   -0.0452    0.0044
          28   -0.0087   -0.0163   -0.0093   -0.0090   -0.0283    0.0033   -0.0180    0.0307
          29   -0.0052   -0.0051   -0.0009    0.0000    0.0119    0.0042   -0.0025    0.0336
          30    0.0219    0.0410    0.0236    0.0130   -0.0083    0.0213    0.0458    0.0099
          31    0.0592   -0.0115   -0.0253   -0.0027   -0.0499    0.0014    0.0019   -0.0416
          32    0.0509    0.0590   -0.0720   -0.0655    0.0097   -0.0189    0.0309   -0.0644
          33    0.0885    0.0539   -0.0551   -0.0378   -0.0124   -0.0068    0.0127   -0.0124
          34   -0.0429   -0.0194    0.0195    0.0072   -0.0490    0.0111   -0.0019    0.0088
          35   -0.0346   -0.0258    0.0452    0.0378    0.0195   -0.0157   -0.0244   -0.0499
          36    0.1033    0.0704   -0.0763   -0.0581   -0.0137   -0.0067    0.0230   -0.0111
          37   -0.0590   -0.0112    0.0249   -0.0036   -0.0499    0.0014   -0.0020   -0.0416
          38    0.0649   -0.0675   -0.0798    0.0733   -0.0072    0.0193    0.0334    0.0653
          39   -0.0771    0.0425    0.0408   -0.0265   -0.0140   -0.0031   -0.0068   -0.0004
          40    0.0425   -0.0196   -0.0194    0.0078   -0.0490    0.0110    0.0022    0.0088
          41   -0.0148    0.0123    0.0299   -0.0273   -0.0167    0.0170   -0.0191    0.0512
          42   -0.1066    0.0740    0.0824   -0.0662   -0.0171   -0.0032   -0.0270   -0.0017
          43   -0.0040    0.0101   -0.0242   -0.0335    0.0258    0.0216    0.0140   -0.0181
          44   -0.0074    0.0036    0.0023    0.0055    0.0653   -0.0149   -0.0025   -0.0255
          45    0.0170   -0.0304    0.0826    0.1204   -0.0310   -0.0996   -0.0461   -0.0059
          46    0.0042    0.0098    0.0237   -0.0340    0.0257    0.0218   -0.0142   -0.0179
          47   -0.0040    0.0019    0.0167   -0.0277   -0.0587    0.0329   -0.0101    0.0263
          48   -0.0190   -0.0295   -0.0788    0.1191   -0.0420   -0.0960    0.0444   -0.0017
          49    0.0246    0.0160    0.0172    0.0225    0.0107    0.0727   -0.0214    0.0034
          50    0.0022    0.0062    0.0037   -0.0028   -0.0713    0.0152   -0.0033   -0.0133
          51   -0.0646   -0.0451   -0.0426   -0.0580   -0.0067   -0.1682    0.0597    0.0556
          52    0.0183   -0.0315    0.0243   -0.0185   -0.0524    0.0083    0.0675   -0.0010
          53    0.0008   -0.0045    0.0062   -0.0049   -0.0236   -0.0078    0.0143   -0.0493
          54   -0.0445    0.0842   -0.0605    0.0307   -0.0232    0.0001   -0.1685    0.0063
          55   -0.0246    0.0164   -0.0167    0.0227    0.0108    0.0726    0.0221    0.0031
          56   -0.0095    0.0022   -0.0038    0.0132    0.0714    0.0152    0.0074    0.0030
          57    0.0639   -0.0466    0.0413   -0.0571    0.0063   -0.1678   -0.0604    0.0580
          58   -0.0185   -0.0310   -0.0250   -0.0181   -0.0526    0.0090   -0.0674   -0.0001
          59   -0.0072   -0.0105   -0.0048   -0.0006    0.0274    0.0077   -0.0156    0.0477
          60    0.0444    0.0826    0.0618    0.0300   -0.0180   -0.0001    0.1685    0.0127


   Root No.       9        10        11        12        13        14        15        16

                 9 A      10 A      11 A      12 A      13 A      14 A      15 A      16 A   

                 506.2     609.4     669.6     713.7     757.0     803.9     817.5     854.8
  
           1   -0.0029    0.0074   -0.0131   -0.0001    0.0071   -0.0134    0.0019    0.0106
           2    0.0615   -0.0221   -0.0239    0.0009    0.0112   -0.0317   -0.0045    0.0209
           3   -0.0042    0.0052    0.0188   -0.0022   -0.0015   -0.0229   -0.0174    0.0080
           4    0.0029   -0.0074   -0.0132    0.0002    0.0071   -0.0134   -0.0017   -0.0107
           5    0.0597   -0.0209    0.0201    0.0006   -0.0107    0.0351   -0.0080    0.0221
           6    0.0153   -0.0092    0.0227    0.0023   -0.0035   -0.0162    0.0165   -0.0040
           7   -0.0035    0.0003    0.0020   -0.0255   -0.0057    0.0044   -0.0024    0.0313
           8   -0.0038    0.0462    0.0096   -0.0030   -0.0016   -0.0042    0.0017    0.0043
           9   -0.0004    0.0020   -0.0020    0.0769    0.0115    0.0092   -0.0014    0.0011
          10    0.0035   -0.0003    0.0020    0.0253   -0.0057    0.0046    0.0023   -0.0313
          11   -0.0039    0.0458   -0.0091    0.0109   -0.0005    0.0025    0.0013    0.0045
          12   -0.0003    0.0063   -0.0037   -0.0761    0.0116    0.0097    0.0016   -0.0003
          13   -0.0424    0.0648    0.0224   -0.0029   -0.0117    0.0097    0.0042    0.0469
          14    0.0285    0.0075   -0.0048   -0.0001    0.0041   -0.0149   -0.0021    0.0124
          15   -0.0071    0.0171    0.0013   -0.0026    0.0079    0.0010   -0.0158    0.0098
          16    0.0424   -0.0649    0.0223    0.0029   -0.0117    0.0097   -0.0043   -0.0468
          17    0.0267    0.0104    0.0045   -0.0005   -0.0054    0.0144   -0.0051    0.0140
          18    0.0121   -0.0155    0.0021    0.0026    0.0071    0.0040    0.0152   -0.0076
          19   -0.0319   -0.0697   -0.0054    0.0008    0.0091    0.0136   -0.0111    0.0356
          20   -0.0315    0.0086    0.0190   -0.0008   -0.0041    0.0141    0.0036   -0.0308
          21   -0.0105   -0.0256   -0.0030   -0.0052   -0.0221   -0.0004    0.0077    0.0244
          22    0.0319    0.0697   -0.0053   -0.0009    0.0092    0.0139    0.0109   -0.0355
          23   -0.0329    0.0039   -0.0182   -0.0018    0.0080   -0.0137    0.0050   -0.0259
          24    0.0046    0.0268   -0.0064    0.0050   -0.0210   -0.0029   -0.0070   -0.0296
          25   -0.0003   -0.0048   -0.0066   -0.0099    0.0093   -0.0132   -0.0053   -0.0003
          26   -0.0574   -0.0371    0.0217   -0.0037   -0.0070    0.0342   -0.0003   -0.0112
          27   -0.0074   -0.0059   -0.0034    0.0231   -0.0154   -0.0084    0.0114    0.0101
          28    0.0003    0.0048   -0.0066    0.0099    0.0093   -0.0132    0.0056    0.0002
          29   -0.0577   -0.0375   -0.0207    0.0005    0.0096   -0.0321    0.0022   -0.0093
          30   -0.0031   -0.0008   -0.0072   -0.0234   -0.0139   -0.0145   -0.0111   -0.0120
          31   -0.0089    0.0012   -0.0713   -0.0037    0.0210    0.0467   -0.0022   -0.0048
          32    0.0590   -0.0328   -0.1146    0.0141    0.0055    0.0474    0.0688    0.0067
          33   -0.0076   -0.0015   -0.0421    0.0017    0.0016    0.0352    0.0108   -0.0042
          34    0.0253   -0.0234    0.0464    0.0056   -0.0033   -0.0457   -0.0044   -0.0054
          35    0.0530    0.0078    0.0286   -0.0113    0.0201   -0.1123   -0.0537    0.0620
          36   -0.0092   -0.0084   -0.0633    0.0070   -0.0042    0.0704    0.0330   -0.0219
          37    0.0088   -0.0011   -0.0715    0.0038    0.0211    0.0468    0.0017    0.0046
          38    0.0567   -0.0328    0.1205    0.0142   -0.0059   -0.0516    0.0704    0.0056
          39    0.0182   -0.0044   -0.0207    0.0009    0.0006    0.0262    0.0015    0.0054
          40   -0.0252    0.0233    0.0466   -0.0054   -0.0033   -0.0458    0.0050    0.0053
          41    0.0504    0.0060   -0.0165   -0.0097   -0.0189    0.0964   -0.0479    0.0572
          42    0.0186    0.0098   -0.0677   -0.0089   -0.0076    0.0888   -0.0433    0.0330
          43   -0.0468    0.0722    0.0457    0.0392    0.0077   -0.0099   -0.0479    0.0428
          44    0.0340    0.0028   -0.0019    0.0013   -0.0008    0.0014   -0.0054    0.0427
          45    0.0079   -0.0087   -0.0733   -0.1370   -0.0543    0.0652    0.1503    0.0291
          46    0.0470   -0.0725    0.0457   -0.0392    0.0076   -0.0089    0.0482   -0.0431
          47    0.0350    0.0011    0.0151   -0.0232    0.0105   -0.0127    0.0220    0.0470
          48   -0.0020    0.0097   -0.0717    0.1347   -0.0529    0.0609   -0.1496   -0.0195
          49   -0.0343   -0.0718   -0.0167    0.0669   -0.0447    0.0064    0.0295    0.0640
          50   -0.0322    0.0093    0.0136    0.0064   -0.0108   -0.0036    0.0142   -0.0765
          51   -0.0042   -0.0184    0.0260   -0.1725    0.1142    0.0176   -0.0952   -0.0487
          52    0.0206    0.0390    0.0043   -0.0097   -0.0776   -0.0132    0.0207   -0.0176
          53   -0.0476   -0.0136    0.0313   -0.0037   -0.0260    0.0426    0.0067   -0.0301
          54   -0.0060    0.0122    0.0332    0.0231    0.1772    0.0595   -0.0369   -0.0636
          55    0.0344    0.0718   -0.0166   -0.0668   -0.0447    0.0062   -0.0298   -0.0641
          56   -0.0325    0.0058   -0.0180   -0.0250   -0.0099    0.0005   -0.0033   -0.0839
          57   -0.0018    0.0198    0.0230    0.1704    0.1143    0.0191    0.0960    0.0345
          58   -0.0205   -0.0390    0.0043    0.0100   -0.0779   -0.0135   -0.0206    0.0173
          59   -0.0479   -0.0110   -0.0368    0.0005   -0.0061   -0.0525    0.0007   -0.0413
          60   -0.0028   -0.0144    0.0271   -0.0237    0.1789    0.0511    0.0371    0.0576


   Root No.      17        18        19        20        21        22        23        24

                17 A      18 A      19 A      20 A      21 A      22 A      23 A      24 A   

                 873.6     890.5     905.5     973.9     982.8     998.9    1017.8    1068.9
  
           1    0.0042    0.0148    0.0026    0.0003   -0.0307    0.0214   -0.0126   -0.0046
           2    0.0022    0.0146    0.0067    0.0003   -0.0217    0.0114   -0.0049   -0.0076
           3   -0.0163    0.0114    0.0138    0.0014   -0.0221   -0.0119    0.0205    0.0152
           4   -0.0042    0.0147    0.0027    0.0004    0.0307   -0.0214    0.0126   -0.0047
           5   -0.0009   -0.0165   -0.0091   -0.0007   -0.0254    0.0090   -0.0012    0.0047
           6    0.0165    0.0088    0.0124    0.0015    0.0178    0.0138   -0.0210    0.0164
           7   -0.0013    0.0050   -0.0061   -0.0041    0.0114   -0.0036   -0.0059    0.0026
           8    0.0019   -0.0190   -0.0022   -0.0002    0.0054   -0.0013   -0.0008    0.0019
           9    0.0296   -0.0095    0.0146    0.0130   -0.0039    0.0006    0.0198    0.0064
          10    0.0013    0.0051   -0.0060   -0.0041   -0.0113    0.0036    0.0059    0.0026
          11    0.0072    0.0204   -0.0005   -0.0021    0.0046   -0.0013    0.0028   -0.0031
          12   -0.0288   -0.0061    0.0147    0.0128    0.0048   -0.0009   -0.0196    0.0059
          13    0.0149   -0.0452    0.0055    0.0030   -0.0108    0.0037    0.0020   -0.0035
          14    0.0025   -0.0003    0.0006   -0.0002    0.0166   -0.0095    0.0045    0.0102
          15   -0.0036   -0.0060   -0.0339   -0.0099    0.0176    0.0145   -0.0291   -0.0269
          16   -0.0149   -0.0453    0.0057    0.0031    0.0108   -0.0037   -0.0019   -0.0034
          17    0.0018    0.0013    0.0055    0.0021    0.0195   -0.0068   -0.0007   -0.0052
          18    0.0040   -0.0058   -0.0334   -0.0099   -0.0142   -0.0160    0.0294   -0.0283
          19    0.0162    0.0472    0.0041    0.0143    0.0062    0.0067    0.0077   -0.0030
          20   -0.0054   -0.0049   -0.0016    0.0027   -0.0035    0.0022    0.0012    0.0008
          21   -0.0173    0.0199    0.0044   -0.0364   -0.0043   -0.0200   -0.0194   -0.0024
          22   -0.0164    0.0472    0.0042    0.0143   -0.0063   -0.0069   -0.0077   -0.0030
          23   -0.0083    0.0012    0.0008    0.0039   -0.0042   -0.0015   -0.0023   -0.0003
          24    0.0159    0.0205    0.0047   -0.0362    0.0038    0.0202    0.0193   -0.0025
          25    0.0086   -0.0273    0.0016   -0.0100   -0.0041   -0.0118   -0.0074    0.0005
          26   -0.0015    0.0410    0.0033   -0.0014   -0.0057    0.0004   -0.0027   -0.0030
          27   -0.0191   -0.0034   -0.0099    0.0242    0.0128    0.0273    0.0199    0.0005
          28   -0.0084   -0.0273    0.0016   -0.0099    0.0041    0.0119    0.0074    0.0005
          29   -0.0047   -0.0397   -0.0015   -0.0029   -0.0032    0.0054    0.0008    0.0028
          30    0.0186   -0.0107   -0.0103    0.0239   -0.0138   -0.0269   -0.0201    0.0010
          31   -0.0069    0.0170   -0.0825   -0.0274   -0.0298    0.0048    0.0075    0.1973
          32    0.0718   -0.0305    0.0008    0.0099    0.0567    0.0563   -0.0804   -0.1565
          33    0.0074   -0.0072   -0.0238   -0.0061    0.0088   -0.0001   -0.0018    0.0392
          34   -0.0036    0.0558    0.0570    0.0170   -0.0921    0.0671   -0.0452   -0.0710
          35   -0.0360    0.0306    0.0173   -0.0056   -0.0498   -0.0363    0.0578    0.0490
          36    0.0249   -0.0232   -0.0243   -0.0017    0.0364    0.0106   -0.0232   -0.0036
          37    0.0068    0.0170   -0.0826   -0.0273    0.0299   -0.0048   -0.0074    0.1972
          38    0.0721    0.0322    0.0037   -0.0081    0.0575    0.0554   -0.0795    0.1471
          39    0.0057   -0.0015   -0.0236   -0.0078    0.0017    0.0103   -0.0128    0.0670
          40    0.0038    0.0559    0.0570    0.0174    0.0922   -0.0668    0.0447   -0.0705
          41   -0.0311   -0.0263   -0.0129    0.0053   -0.0423   -0.0335    0.0521   -0.0471
          42   -0.0312   -0.0288   -0.0273   -0.0010   -0.0449   -0.0169    0.0331   -0.0123
          43   -0.0054   -0.0278   -0.0530   -0.0167    0.0124    0.0164   -0.0294   -0.0259
          44    0.0118   -0.0204   -0.0121   -0.0045    0.1174   -0.0686    0.0334    0.0652
          45    0.0630   -0.0643    0.1515    0.0525   -0.0529   -0.0271    0.0708    0.0482
          46    0.0054   -0.0277   -0.0529   -0.0168   -0.0122   -0.0164    0.0294   -0.0259
          47    0.0229    0.0318   -0.0157   -0.0047    0.1059   -0.0725    0.0460   -0.0732
          48   -0.0596   -0.0603    0.1513    0.0530    0.0728    0.0140   -0.0634    0.0357
          49   -0.0278    0.0476    0.0175   -0.0658   -0.0064   -0.0302   -0.0260   -0.0056
          50   -0.0268   -0.0475   -0.0048   -0.0110   -0.0115   -0.0061   -0.0002    0.0066
          51    0.0938    0.0174   -0.0299    0.1665    0.0272    0.0736    0.0661    0.0039
          52   -0.0483   -0.0264   -0.0324    0.0482    0.0178    0.0393    0.0284    0.0005
          53   -0.0155    0.0375   -0.0044    0.0099   -0.0037    0.0097    0.0044   -0.0033
          54    0.0979   -0.0407    0.0631   -0.1173   -0.0548   -0.1035   -0.0648   -0.0016
          55    0.0276    0.0476    0.0176   -0.0656    0.0068    0.0304    0.0261   -0.0056
          56   -0.0095    0.0434    0.0103   -0.0192   -0.0063    0.0071    0.0116   -0.0068
          57   -0.0971    0.0256   -0.0283    0.1652   -0.0298   -0.0739   -0.0651    0.0027
          58    0.0485   -0.0263   -0.0326    0.0481   -0.0182   -0.0395   -0.0285    0.0003
          59    0.0025   -0.0296   -0.0068    0.0112   -0.0134   -0.0089   -0.0073    0.0036
          60   -0.0989   -0.0467    0.0627   -0.1162    0.0540    0.1039    0.0646   -0.0011


   Root No.      25        26        27        28        29        30        31        32

                25 A      26 A      27 A      28 A      29 A      30 A      31 A      32 A   

                1072.2    1083.4    1107.5    1128.2    1142.3    1157.4    1179.7    1234.3
  
           1    0.0053    0.0041   -0.0194    0.0004   -0.0113   -0.0017   -0.0087    0.0154
           2   -0.0154    0.0029   -0.0057    0.0055    0.0059    0.0001   -0.0029    0.0104
           3    0.0001   -0.0001    0.0355    0.0011    0.0012   -0.0003   -0.0022    0.0007
           4    0.0054   -0.0041    0.0193    0.0005    0.0114    0.0017   -0.0087   -0.0157
           5    0.0151    0.0028    0.0008   -0.0057    0.0061    0.0000    0.0032    0.0102
           6    0.0026    0.0006   -0.0360    0.0001   -0.0002    0.0004   -0.0017    0.0011
           7    0.0162   -0.0015    0.0024    0.0123   -0.0077    0.0089   -0.0042    0.0005
           8    0.0094   -0.0024    0.0002   -0.0127   -0.0067   -0.0033    0.0224   -0.0294
           9    0.0044    0.0002    0.0019    0.0029   -0.0028    0.0021   -0.0007   -0.0006
          10    0.0162    0.0014   -0.0025    0.0125    0.0078   -0.0088   -0.0042    0.0001
          11   -0.0100   -0.0024    0.0005    0.0120   -0.0071   -0.0028   -0.0219   -0.0290
          12    0.0026   -0.0007   -0.0018    0.0052    0.0015   -0.0027   -0.0047   -0.0045
          13   -0.0260    0.0076    0.0026   -0.0091    0.0060   -0.0028    0.0008    0.0090
          14    0.0268   -0.0020   -0.0012   -0.0043   -0.0129    0.0009    0.0141   -0.0278
          15   -0.0010    0.0033    0.0009   -0.0033    0.0037   -0.0009   -0.0007    0.0037
          16   -0.0260   -0.0075   -0.0025   -0.0091   -0.0060    0.0026    0.0008   -0.0092
          17   -0.0261   -0.0013   -0.0009    0.0048   -0.0120    0.0007   -0.0138   -0.0269
          18   -0.0057   -0.0036   -0.0012   -0.0025   -0.0059    0.0010   -0.0032   -0.0088
          19   -0.0126    0.0210   -0.0015   -0.0184   -0.0021   -0.0006    0.0020   -0.0166
          20    0.0022    0.0026    0.0005   -0.0091    0.0013    0.0015    0.0075    0.0011
          21   -0.0037    0.0084   -0.0010   -0.0077   -0.0008   -0.0003    0.0014   -0.0069
          22   -0.0127   -0.0209    0.0016   -0.0185    0.0021    0.0004    0.0020    0.0165
          23   -0.0015    0.0040    0.0003    0.0104    0.0011    0.0015   -0.0076   -0.0000
          24   -0.0040   -0.0078    0.0011   -0.0059    0.0010    0.0004    0.0000    0.0069
          25    0.0035    0.0348   -0.0012   -0.0001   -0.0013   -0.0002    0.0110   -0.0175
          26   -0.0092   -0.0271    0.0010    0.0002    0.0037    0.0068   -0.0018    0.0165
          27    0.0002    0.0125   -0.0002   -0.0006   -0.0003    0.0007    0.0043   -0.0058
          28    0.0034   -0.0349    0.0011   -0.0003    0.0013    0.0003    0.0110    0.0172
          29    0.0089   -0.0245    0.0009   -0.0002    0.0036    0.0067    0.0010    0.0154
          30    0.0018   -0.0171    0.0003   -0.0007    0.0009    0.0006    0.0046    0.0086
          31    0.0042   -0.0046   -0.2311    0.0028   -0.1090    0.0033    0.0238    0.0130
          32   -0.0232    0.0129    0.0387    0.0025    0.0968   -0.0041   -0.0324    0.0563
          33   -0.0044    0.0002   -0.0315    0.0005   -0.0046    0.0001    0.0007    0.0140
          34    0.1798    0.0043    0.1528   -0.0028   -0.1406   -0.0023    0.0193    0.0013
          35   -0.1404    0.0062   -0.0544    0.0157    0.1078   -0.0013   -0.0385    0.0616
          36    0.0332   -0.0027   -0.0029   -0.0064   -0.0280    0.0011    0.0153   -0.0343
          37    0.0046    0.0043    0.2314    0.0033    0.1086   -0.0031    0.0239   -0.0122
          38    0.0225    0.0125    0.0326   -0.0022    0.0939   -0.0038    0.0318    0.0586
          39   -0.0001    0.0021    0.0380    0.0002    0.0220   -0.0008    0.0066   -0.0034
          40    0.1791   -0.0045   -0.1536   -0.0027    0.1411    0.0024    0.0196   -0.0002
          41    0.1320    0.0056   -0.0545   -0.0141    0.1014   -0.0009    0.0354    0.0552
          42    0.0584    0.0038   -0.0072   -0.0091    0.0474   -0.0012    0.0222    0.0454
          43   -0.0193    0.0098   -0.0020   -0.0105    0.0054   -0.0032   -0.0024    0.0144
          44    0.1208    0.0241    0.0392   -0.0270   -0.1140   -0.0137   -0.1285    0.1712
          45   -0.0143    0.0015    0.0184   -0.0031   -0.0050   -0.0020    0.0003    0.0013
          46   -0.0191   -0.0096    0.0021   -0.0106   -0.0054    0.0030   -0.0024   -0.0146
          47   -0.1154    0.0243    0.0423    0.0271   -0.1135   -0.0125    0.1262    0.1735
          48   -0.0362    0.0029   -0.0108    0.0017   -0.0159   -0.0003    0.0235    0.0305
          49   -0.0119    0.0253   -0.0023   -0.0191   -0.0020   -0.0008    0.0014   -0.0191
          50    0.0058    0.2039   -0.0038   -0.1374    0.0093   -0.1882   -0.1496    0.0355
          51   -0.0071    0.0218    0.0003   -0.0171   -0.0005   -0.0123   -0.0096   -0.0037
          52    0.0101    0.1455    0.0009    0.2059    0.0015    0.2198   -0.0535    0.0104
          53   -0.0058    0.0304    0.0021    0.1087    0.0057    0.1250   -0.0372    0.0344
          54    0.0050    0.0599    0.0001    0.0906    0.0012    0.0968   -0.0244    0.0071
          55   -0.0119   -0.0252    0.0024   -0.0192    0.0020    0.0005    0.0015    0.0191
          56   -0.0041    0.2045   -0.0037    0.1414    0.0086   -0.1835    0.1498    0.0300
          57   -0.0081    0.0153   -0.0009    0.0083    0.0021   -0.0215    0.0176    0.0095
          58    0.0099   -0.1460   -0.0011    0.2084   -0.0017   -0.2168   -0.0522   -0.0092
          59    0.0048    0.0412    0.0022   -0.1253    0.0060    0.1389    0.0403    0.0345
          60    0.0059   -0.0540    0.0002    0.0708   -0.0003   -0.0721   -0.0169   -0.0005


   Root No.      33        34        35        36        37        38        39        40

                33 A      34 A      35 A      36 A      37 A      38 A      39 A      40 A   

                1237.0    1356.0    1374.4    1377.2    1404.6    1416.8    1438.5    1580.5
  
           1    0.0113   -0.0365   -0.0227    0.0090   -0.0505   -0.0131    0.0389    0.0101
           2   -0.0075    0.0112    0.0331   -0.0268   -0.0031    0.0521   -0.0315   -0.0052
           3    0.0020   -0.0007   -0.0088    0.0049   -0.0019   -0.0053    0.0078    0.0021
           4    0.0109   -0.0365    0.0225    0.0094    0.0505   -0.0130   -0.0388   -0.0101
           5    0.0073   -0.0109    0.0307    0.0259   -0.0033   -0.0503   -0.0296   -0.0047
           6    0.0033   -0.0028    0.0145    0.0098    0.0013   -0.0147   -0.0134   -0.0030
           7   -0.0219   -0.0112    0.0105    0.0364    0.0098    0.0153    0.0253    0.1177
           8    0.0015   -0.0040   -0.0139   -0.0182   -0.0032   -0.0354    0.0052   -0.0661
           9   -0.0072   -0.0035    0.0034    0.0106    0.0036    0.0035    0.0084    0.0365
          10   -0.0219   -0.0112   -0.0110    0.0363   -0.0099    0.0153   -0.0252   -0.1176
          11   -0.0009    0.0046   -0.0132    0.0158   -0.0026    0.0342    0.0066   -0.0583
          12   -0.0075   -0.0027   -0.0060    0.0137   -0.0042    0.0098   -0.0073   -0.0479
          13    0.0056    0.0185    0.0151   -0.0236    0.0095    0.0071   -0.0171   -0.0087
          14   -0.0110   -0.0127   -0.0060   -0.0040    0.0025   -0.0310    0.0382    0.0218
          15    0.0025    0.0055    0.0045   -0.0079    0.0019    0.0029   -0.0050   -0.0026
          16    0.0054    0.0186   -0.0148   -0.0238   -0.0095    0.0071    0.0170    0.0087
          17    0.0097    0.0115   -0.0051    0.0053    0.0028    0.0300    0.0366    0.0209
          18    0.0043    0.0078   -0.0055   -0.0071   -0.0014    0.0085    0.0118    0.0066
          19    0.0034    0.0032   -0.0056   -0.0257   -0.0017   -0.0212    0.0014   -0.0378
          20    0.0065   -0.0016   -0.0131    0.0256   -0.0091    0.0216   -0.0345    0.0557
          21    0.0013    0.0010   -0.0032   -0.0082   -0.0012   -0.0071   -0.0016   -0.0110
          22    0.0039    0.0032    0.0059   -0.0257    0.0018   -0.0212   -0.0015    0.0377
          23   -0.0066    0.0014   -0.0132   -0.0239   -0.0091   -0.0200   -0.0342    0.0528
          24    0.0003    0.0012    0.0009   -0.0127   -0.0004   -0.0109   -0.0047    0.0208
          25    0.0084   -0.0003   -0.0221    0.0151   -0.0137    0.0152   -0.0478    0.0454
          26    0.0051    0.0021    0.0105    0.0094    0.0047    0.0156    0.0096   -0.0003
          27    0.0039    0.0001   -0.0081    0.0067   -0.0052    0.0072   -0.0184    0.0179
          28    0.0088   -0.0003    0.0219    0.0154    0.0137    0.0152    0.0478   -0.0454
          29   -0.0053   -0.0021    0.0090   -0.0103    0.0037   -0.0166    0.0061    0.0029
          30    0.0031   -0.0003    0.0098    0.0050    0.0059    0.0043    0.0199   -0.0176
          31   -0.0292    0.1252   -0.0219   -0.0009    0.1040    0.0048   -0.0322   -0.0069
          32    0.0290    0.0988   -0.1038    0.0855    0.0668   -0.0891    0.0261    0.0034
          33   -0.0010    0.0826   -0.0499    0.0359    0.0734   -0.0432    0.0000   -0.0016
          34   -0.0315    0.1639   -0.0393   -0.0184    0.1014    0.0278   -0.0147   -0.0070
          35    0.0295    0.0470   -0.0798    0.0760    0.0317   -0.0618    0.0205    0.0069
          36   -0.0100   -0.1125    0.0921   -0.0680   -0.0925    0.0706   -0.0145   -0.0003
          37   -0.0295    0.1251    0.0222   -0.0007   -0.1041    0.0044    0.0321    0.0068
          38   -0.0268   -0.1119   -0.1102   -0.0919    0.0790    0.0957    0.0257    0.0030
          39   -0.0064    0.0632    0.0301    0.0200   -0.0600   -0.0265    0.0047    0.0022
          40   -0.0316    0.1638    0.0396   -0.0181   -0.1014    0.0276    0.0147    0.0069
          41   -0.0258   -0.0256   -0.0611   -0.0633    0.0143    0.0481    0.0175    0.0068
          42   -0.0141   -0.1189   -0.1044   -0.0820    0.0967    0.0810    0.0180    0.0016
          43    0.0089    0.0193    0.0162   -0.0263    0.0082    0.0087   -0.0182   -0.0066
          44    0.1690    0.0115   -0.0332   -0.0314   -0.0560    0.0212   -0.0440   -0.0780
          45    0.0017    0.0084    0.0048   -0.0085    0.0042    0.0026   -0.0053   -0.0041
          46    0.0085    0.0194   -0.0159   -0.0265   -0.0082    0.0087    0.0181    0.0065
          47   -0.1621   -0.0128   -0.0321    0.0320   -0.0543   -0.0214   -0.0441   -0.0774
          48   -0.0281    0.0062   -0.0108   -0.0028   -0.0143   -0.0013   -0.0027   -0.0101
          49    0.0013    0.0031   -0.0061   -0.0276   -0.0016   -0.0237    0.0018   -0.0392
          50   -0.1416   -0.0092    0.0638   -0.0121    0.0404   -0.0243    0.1055    0.0037
          51   -0.0071    0.0010    0.0019   -0.0121    0.0018   -0.0105    0.0073   -0.0147
          52   -0.0319    0.0008    0.0162   -0.0627    0.0098   -0.0568    0.0344   -0.0444
          53   -0.0168    0.0028    0.0338   -0.0310    0.0187   -0.0210    0.0574   -0.0498
          54   -0.0142    0.0006    0.0093   -0.0276    0.0054   -0.0244    0.0183   -0.0219
          55    0.0018    0.0031    0.0065   -0.0275    0.0016   -0.0237   -0.0018    0.0391
          56    0.1415    0.0088    0.0629    0.0149    0.0400    0.0259    0.1051    0.0010
          57    0.0188    0.0027    0.0098   -0.0096    0.0055   -0.0060    0.0118    0.0152
          58   -0.0319    0.0008   -0.0154   -0.0628   -0.0095   -0.0568   -0.0342    0.0442
          59    0.0199   -0.0029    0.0345    0.0359    0.0193    0.0251    0.0597   -0.0529
          60   -0.0109    0.0001   -0.0028   -0.0217   -0.0018   -0.0202   -0.0077    0.0126


   Root No.      41        42        43        44        45        46        47        48

                41 A      42 A      43 A      44 A      45 A      46 A      47 A      48 A   

                1792.3    1829.3    1835.3    1881.6    2929.2    2942.5    3019.3    3025.2
  
           1   -0.0006    0.0031    0.0037    0.0036   -0.0021    0.0019    0.0116   -0.0105
           2   -0.0014   -0.0123   -0.0151   -0.0149    0.0035   -0.0037    0.0170   -0.0165
           3    0.0000    0.0007    0.0016    0.0006    0.0302   -0.0303    0.0007   -0.0012
           4    0.0006    0.0031   -0.0036    0.0036    0.0021    0.0019    0.0117    0.0105
           5   -0.0015    0.0123   -0.0142    0.0145    0.0090    0.0091   -0.0170   -0.0163
           6   -0.0003    0.0030   -0.0042    0.0033   -0.0292   -0.0290   -0.0024   -0.0018
           7   -0.0206   -0.0263   -0.0801   -0.0355    0.0001   -0.0000    0.0001    0.0000
           8   -0.0461   -0.0361   -0.1001   -0.1138    0.0001   -0.0001   -0.0002    0.0001
           9   -0.0080   -0.0088   -0.0269   -0.0145    0.0002   -0.0001    0.0000   -0.0000
          10    0.0208   -0.0278    0.0793   -0.0353   -0.0001   -0.0000    0.0001   -0.0000
          11   -0.0471    0.0390   -0.1026    0.1144    0.0001    0.0001    0.0002    0.0001
          12   -0.0004   -0.0023    0.0083    0.0063   -0.0002   -0.0001    0.0001    0.0000
          13    0.0162    0.0180    0.0449    0.0331   -0.0003    0.0004   -0.0029    0.0040
          14    0.0261    0.0571    0.1104    0.0916   -0.0004    0.0003    0.0003   -0.0002
          15    0.0051    0.0060    0.0145    0.0113   -0.0001    0.0000   -0.0009    0.0013
          16   -0.0164    0.0188   -0.0444    0.0330    0.0003    0.0004   -0.0029   -0.0040
          17    0.0272   -0.0595    0.1097   -0.0919   -0.0004   -0.0003   -0.0002    0.0001
          18   -0.0002   -0.0045    0.0056   -0.0054    0.0000   -0.0000   -0.0009   -0.0013
          19    0.0464   -0.0337   -0.0193    0.0148   -0.0000    0.0000   -0.0000    0.0001
          20    0.1158   -0.0896   -0.0224    0.0661   -0.0000    0.0000    0.0000   -0.0000
          21    0.0263   -0.0198   -0.0093    0.0101    0.0000   -0.0000   -0.0000    0.0000
          22   -0.0459   -0.0345    0.0183    0.0148    0.0000    0.0000   -0.0000   -0.0001
          23    0.1176    0.0931   -0.0209   -0.0670   -0.0000   -0.0000   -0.0000   -0.0000
          24   -0.0050   -0.0035    0.0050   -0.0019   -0.0000   -0.0000   -0.0000   -0.0000
          25   -0.0941    0.0468    0.0359   -0.0239    0.0000   -0.0000   -0.0000    0.0000
          26   -0.0853    0.0818    0.0322   -0.0379    0.0000   -0.0000    0.0000    0.0000
          27   -0.0436    0.0248    0.0167   -0.0124    0.0000   -0.0000   -0.0000    0.0000
          28    0.0937    0.0483   -0.0344   -0.0240   -0.0000   -0.0000   -0.0000   -0.0000
          29   -0.0908   -0.0864    0.0322    0.0396    0.0000    0.0000   -0.0000    0.0000
          30    0.0275    0.0101   -0.0103   -0.0054   -0.0000   -0.0000   -0.0000   -0.0000
          31    0.0009   -0.0002    0.0036    0.0001    0.0916   -0.0948   -0.0597    0.0572
          32   -0.0021    0.0006   -0.0048    0.0001    0.0907   -0.0895   -0.0527    0.0492
          33   -0.0013    0.0026    0.0010    0.0014   -0.2347    0.2302    0.1754   -0.1659
          34    0.0045   -0.0014    0.0157   -0.0006   -0.0668    0.0708   -0.0753    0.0765
          35   -0.0069   -0.0081   -0.0220   -0.0126   -0.1286    0.1321   -0.1523    0.1484
          36    0.0037    0.0002    0.0046    0.0033   -0.1304    0.1335   -0.1827    0.1790
          37   -0.0008   -0.0001   -0.0035    0.0000   -0.0919   -0.0944   -0.0600   -0.0568
          38   -0.0022   -0.0009   -0.0045   -0.0004    0.0467    0.0460    0.0199    0.0180
          39    0.0009    0.0024   -0.0018    0.0014    0.2484    0.2418    0.1831    0.1709
          40   -0.0045   -0.0011   -0.0157   -0.0007    0.0671    0.0705   -0.0759   -0.0760
          41   -0.0061    0.0084   -0.0206    0.0118   -0.1507   -0.1535    0.1843    0.1774
          42   -0.0049    0.0019   -0.0085    0.0056    0.1051    0.1067   -0.1530   -0.1481
          43    0.0213    0.0235    0.0585    0.0465    0.0043   -0.0037    0.0303   -0.0474
          44   -0.0075   -0.0186   -0.0242   -0.0349    0.0005   -0.0007    0.0011   -0.0005
          45    0.0070    0.0084    0.0212    0.0158    0.0021   -0.0022    0.0092   -0.0145
          46   -0.0216    0.0246   -0.0579    0.0464   -0.0043   -0.0037    0.0305    0.0470
          47   -0.0063    0.0172   -0.0196    0.0314    0.0009    0.0011   -0.0028   -0.0031
          48   -0.0084    0.0121   -0.0249    0.0219   -0.0020   -0.0020    0.0089    0.0141
          49    0.0599   -0.0480   -0.0293    0.0203    0.0001   -0.0001   -0.0001   -0.0008
          50   -0.0326    0.0248   -0.0206   -0.0364    0.0000    0.0000   -0.0001    0.0002
          51    0.0241   -0.0175   -0.0119    0.0074    0.0000   -0.0000   -0.0000   -0.0003
          52    0.0225   -0.0682   -0.0115    0.0280   -0.0000    0.0000    0.0002   -0.0000
          53   -0.0420    0.0375    0.0156   -0.0172    0.0001   -0.0000   -0.0004    0.0001
          54    0.0069   -0.0246   -0.0031    0.0104   -0.0000    0.0000    0.0001   -0.0000
          55   -0.0594   -0.0491    0.0279    0.0204   -0.0001   -0.0001   -0.0001    0.0008
          56   -0.0273   -0.0210   -0.0230    0.0344    0.0000   -0.0000    0.0001    0.0001
          57   -0.0292   -0.0220    0.0073    0.0139   -0.0000   -0.0000   -0.0000    0.0003
          58   -0.0217   -0.0687    0.0095    0.0281    0.0000    0.0000    0.0002    0.0000
          59   -0.0395   -0.0329    0.0138    0.0151    0.0001    0.0000    0.0004    0.0001
          60   -0.0139   -0.0311    0.0049    0.0134    0.0000    0.0000    0.0001    0.0000


   Root No.      49        50        51        52        53        54

                49 A      50 A      51 A      52 A      53 A      54 A   

                3048.1    3049.7    3052.9    3054.4    3065.2    3076.0
  
           1   -0.0001   -0.0004   -0.0012    0.0020   -0.0000   -0.0000
           2   -0.0002   -0.0006   -0.0020    0.0031   -0.0000   -0.0000
           3   -0.0001   -0.0001   -0.0004    0.0006   -0.0000   -0.0000
           4   -0.0001    0.0004   -0.0011   -0.0020   -0.0000    0.0000
           5    0.0003   -0.0006    0.0019    0.0032    0.0001   -0.0000
           6   -0.0000    0.0000   -0.0000   -0.0000   -0.0000    0.0000
           7    0.0003   -0.0001    0.0011   -0.0005    0.0000    0.0002
           8    0.0002   -0.0001    0.0019   -0.0020    0.0005    0.0007
           9    0.0001   -0.0000    0.0004   -0.0002    0.0000    0.0001
          10    0.0003    0.0001    0.0011    0.0006    0.0000   -0.0002
          11   -0.0003   -0.0001   -0.0018   -0.0020   -0.0005    0.0007
          12    0.0001    0.0000    0.0000   -0.0001   -0.0001    0.0000
          13   -0.0038   -0.0045   -0.0282    0.0254   -0.0011   -0.0005
          14   -0.0001    0.0000   -0.0013    0.0011   -0.0002   -0.0003
          15   -0.0012   -0.0014   -0.0088    0.0080   -0.0004   -0.0001
          16   -0.0038    0.0044   -0.0273   -0.0262   -0.0011    0.0005
          17    0.0003   -0.0002    0.0028    0.0026    0.0003   -0.0003
          18   -0.0012    0.0014   -0.0082   -0.0079   -0.0003    0.0001
          19   -0.0190   -0.0213    0.0027   -0.0039    0.0157    0.0134
          20    0.0002    0.0002   -0.0003    0.0002    0.0017    0.0020
          21   -0.0075   -0.0084    0.0011   -0.0015    0.0063    0.0054
          22   -0.0194    0.0210    0.0026    0.0040    0.0157   -0.0134
          23    0.0012   -0.0013    0.0001   -0.0001   -0.0028    0.0030
          24   -0.0075    0.0082    0.0010    0.0016    0.0059   -0.0050
          25    0.0065    0.0053   -0.0016    0.0012    0.0079    0.0106
          26   -0.0124   -0.0092    0.0033   -0.0020   -0.0218   -0.0255
          27    0.0017    0.0014   -0.0004    0.0003    0.0016    0.0023
          28    0.0066   -0.0052   -0.0015   -0.0012    0.0079   -0.0106
          29    0.0120   -0.0086   -0.0030   -0.0020    0.0212   -0.0246
          30    0.0039   -0.0030   -0.0009   -0.0007    0.0055   -0.0069
          31    0.0005    0.0015    0.0047   -0.0077    0.0001   -0.0000
          32    0.0006    0.0014    0.0053   -0.0075    0.0002    0.0000
          33   -0.0021   -0.0047   -0.0172    0.0250   -0.0005   -0.0001
          34    0.0010    0.0024    0.0083   -0.0123    0.0002    0.0001
          35    0.0026    0.0053    0.0207   -0.0280    0.0007    0.0002
          36    0.0028    0.0059    0.0220   -0.0312    0.0007    0.0002
          37    0.0005   -0.0014    0.0045    0.0078    0.0001    0.0000
          38   -0.0003    0.0005   -0.0020   -0.0029   -0.0001    0.0000
          39   -0.0022    0.0048   -0.0170   -0.0264   -0.0005    0.0001
          40    0.0010   -0.0023    0.0079    0.0125    0.0002   -0.0001
          41   -0.0031    0.0062   -0.0232   -0.0339   -0.0008    0.0002
          42    0.0023   -0.0048    0.0170    0.0260    0.0005   -0.0002
          43    0.0430    0.0511    0.3239   -0.2910    0.0128    0.0047
          44   -0.0002   -0.0003   -0.0063    0.0058   -0.0007   -0.0005
          45    0.0135    0.0160    0.1015   -0.0912    0.0040    0.0015
          46    0.0434   -0.0497    0.3144    0.3001    0.0128   -0.0046
          47   -0.0023    0.0026   -0.0120   -0.0113   -0.0000   -0.0002
          48    0.0134   -0.0154    0.0982    0.0938    0.0041   -0.0015
          49    0.2207    0.2478   -0.0332    0.0457   -0.1720   -0.1382
          50   -0.0082   -0.0088    0.0005   -0.0008    0.0039    0.0028
          51    0.0866    0.0973   -0.0130    0.0179   -0.0677   -0.0544
          52   -0.0729   -0.0586    0.0185   -0.0130   -0.1090   -0.1311
          53    0.1511    0.1171   -0.0386    0.0259    0.2324    0.2709
          54   -0.0180   -0.0148    0.0045   -0.0033   -0.0264   -0.0324
          55    0.2243   -0.2445   -0.0309   -0.0463   -0.1720    0.1381
          56   -0.0078    0.0088    0.0018    0.0025    0.0084   -0.0070
          57    0.0882   -0.0961   -0.0120   -0.0181   -0.0674    0.0541
          58   -0.0739    0.0576    0.0179    0.0134   -0.1092    0.1313
          59   -0.1471    0.1103    0.0359    0.0257   -0.2239    0.2604
          60   -0.0454    0.0349    0.0110    0.0081   -0.0678    0.0806


           MASS-WEIGHTED COORDINATE ANALYSIS (NORMAL COORDINATES)


   Root No.       1         2         3         4         5         6         7         8

                 1 A       2 A       3 A       4 A       5 A       6 A       7 A       8 A   

                  85.9     149.6     216.3     259.3     378.3     418.8     456.2     483.4
  
           1    0.0016   -0.0657   -0.0098   -0.0127   -0.2668   -0.0096    0.0069   -0.1984
           2    0.0263    0.0508   -0.0417   -0.0402    0.0480   -0.0768   -0.0096   -0.2660
           3    0.3846    0.2673   -0.1737   -0.1153   -0.0587   -0.0316   -0.0054    0.0088
           4   -0.0023   -0.0657    0.0086   -0.0129   -0.2669   -0.0096   -0.0082   -0.1982
           5    0.0945   -0.0989   -0.0725    0.0629   -0.0367    0.0811   -0.0065    0.2601
           6   -0.3711    0.2559    0.1639   -0.1116   -0.0663   -0.0170    0.0039    0.0570
           7    0.0078    0.1044   -0.0370    0.1046    0.3551   -0.1833   -0.0659    0.0058
           8   -0.0118    0.0330    0.0073    0.0058   -0.0375   -0.0826   -0.0128   -0.2499
           9   -0.0353   -0.3181    0.1281   -0.1584    0.1948    0.3686    0.1918   -0.1808
          10   -0.0074    0.1045    0.0402    0.1043    0.3559   -0.1849    0.0630    0.0052
          11   -0.0178    0.0248    0.0312    0.0219    0.0017    0.0147    0.0252    0.2781
          12    0.0308   -0.3185   -0.1313   -0.1542    0.1968    0.3800   -0.1894   -0.1304
          13   -0.0366    0.0570   -0.1022   -0.0849    0.1292   -0.0460    0.0435   -0.1025
          14   -0.0233    0.0317    0.0032    0.0093    0.1579   -0.0881   -0.0144   -0.2493
          15    0.1446   -0.1693    0.3816    0.3914   -0.0274   -0.0648   -0.1505   -0.0832
          16    0.0374    0.0560    0.1012   -0.0863    0.1288   -0.0463   -0.0457   -0.1018
          17    0.0037   -0.0013    0.0706   -0.0814   -0.1505    0.0990   -0.0372    0.2605
          18   -0.1500   -0.1673   -0.3686    0.3899   -0.0543   -0.0501    0.1450   -0.0380
          19    0.1023    0.0547    0.0621    0.0903    0.0682    0.1527   -0.0976    0.1249
          20    0.0014    0.0275    0.0245   -0.0104   -0.2327   -0.0096   -0.0137   -0.2188
          21   -0.2794   -0.1761   -0.1488   -0.2357    0.0118   -0.2826    0.2887    0.0901
          22   -0.1022    0.0561   -0.0599    0.0909    0.0688    0.1517    0.1000    0.1239
          23   -0.0490    0.0053   -0.0014    0.0523    0.2271    0.0597    0.0406    0.1985
          24    0.2746   -0.1818    0.1449   -0.2310    0.0531   -0.2736   -0.2879    0.1310
          25    0.0715   -0.1281    0.0826   -0.0792   -0.2136    0.0211    0.1398    0.1958
          26   -0.0097   -0.0183    0.0303   -0.0213   -0.0771   -0.0544    0.0405   -0.2248
          27   -0.1831    0.3235   -0.2097    0.1146   -0.0785    0.1407   -0.3426    0.0280
          28   -0.0721   -0.1265   -0.0851   -0.0776   -0.2134    0.0224   -0.1364    0.1974
          29   -0.0428   -0.0394   -0.0079    0.0003    0.0899    0.0284   -0.0189    0.2163
          30    0.1808    0.3179    0.2169    0.1130   -0.0625    0.1451    0.3468    0.0638
          31    0.1418   -0.0258   -0.0674   -0.0069   -0.1090    0.0027    0.0042   -0.0776
          32    0.1221    0.1325   -0.1918   -0.1644    0.0213   -0.0373    0.0678   -0.1201
          33    0.2120    0.1209   -0.1466   -0.0951   -0.0271   -0.0135    0.0278   -0.0230
          34   -0.1028   -0.0435    0.0518    0.0180   -0.1071    0.0218   -0.0042    0.0164
          35   -0.0829   -0.0580    0.1203    0.0950    0.0426   -0.0309   -0.0537   -0.0930
          36    0.2476    0.1580   -0.2033   -0.1459   -0.0299   -0.0132    0.0505   -0.0207
          37   -0.1415   -0.0251    0.0664   -0.0090   -0.1089    0.0029   -0.0044   -0.0776
          38    0.1555   -0.1515   -0.2125    0.1840   -0.0157    0.0380    0.0734    0.1218
          39   -0.1847    0.0954    0.1086   -0.0667   -0.0305   -0.0061   -0.0149   -0.0007
          40    0.1018   -0.0439   -0.0517    0.0196   -0.1070    0.0217    0.0049    0.0164
          41   -0.0355    0.0276    0.0797   -0.0685   -0.0365    0.0334   -0.0419    0.0954
          42   -0.2556    0.1661    0.2195   -0.1664   -0.0373   -0.0063   -0.0593   -0.0032
          43   -0.0095    0.0226   -0.0645   -0.0842    0.0564    0.0426    0.0308   -0.0337
          44   -0.0176    0.0080    0.0061    0.0139    0.1426   -0.0293   -0.0055   -0.0476
          45    0.0407   -0.0683    0.2198    0.3025   -0.0677   -0.1962   -0.1013   -0.0110
          46    0.0102    0.0220    0.0632   -0.0854    0.0562    0.0429   -0.0311   -0.0333
          47   -0.0097    0.0042    0.0445   -0.0695   -0.1282    0.0648   -0.0222    0.0490
          48   -0.0455   -0.0662   -0.2098    0.2991   -0.0918   -0.1891    0.0975   -0.0032
          49    0.0589    0.0358    0.0458    0.0565    0.0234    0.1433   -0.0471    0.0064
          50    0.0053    0.0139    0.0098   -0.0071   -0.1558    0.0299   -0.0073   -0.0248
          51   -0.1548   -0.1013   -0.1134   -0.1458   -0.0147   -0.3314    0.1310    0.1037
          52    0.0439   -0.0706    0.0647   -0.0466   -0.1144    0.0163    0.1482   -0.0018
          53    0.0019   -0.0101    0.0164   -0.0124   -0.0516   -0.0154    0.0314   -0.0919
          54   -0.1065    0.1890   -0.1610    0.0772   -0.0507    0.0001   -0.3699    0.0117
          55   -0.0589    0.0368   -0.0445    0.0571    0.0235    0.1431    0.0486    0.0058
          56   -0.0228    0.0049   -0.0101    0.0333    0.1560    0.0300    0.0162    0.0056
          57    0.1530   -0.1045    0.1100   -0.1433    0.0137   -0.3306   -0.1327    0.1081
          58   -0.0443   -0.0696   -0.0664   -0.0454   -0.1150    0.0178   -0.1479   -0.0003
          59   -0.0173   -0.0236   -0.0128   -0.0015    0.0599    0.0153   -0.0343    0.0888
          60    0.1065    0.1854    0.1646    0.0754   -0.0392   -0.0003    0.3700    0.0236


   Root No.       9        10        11        12        13        14        15        16

                 9 A      10 A      11 A      12 A      13 A      14 A      15 A      16 A   

                 506.2     609.4     669.6     713.7     757.0     803.9     817.5     854.8
  
           1   -0.0180    0.0423   -0.1218   -0.0006    0.0628   -0.1145    0.0194    0.0776
           2    0.3777   -0.1257   -0.2220    0.0060    0.0998   -0.2704   -0.0454    0.1530
           3   -0.0255    0.0298    0.1746   -0.0144   -0.0130   -0.1948   -0.1773    0.0584
           4    0.0179   -0.0420   -0.1220    0.0010    0.0628   -0.1145   -0.0177   -0.0782
           5    0.3668   -0.1185    0.1865    0.0038   -0.0955    0.2992   -0.0810    0.1618
           6    0.0938   -0.0521    0.2110    0.0152   -0.0312   -0.1385    0.1678   -0.0295
           7   -0.0217    0.0018    0.0186   -0.1649   -0.0509    0.0378   -0.0244    0.2294
           8   -0.0236    0.2622    0.0891   -0.0195   -0.0143   -0.0355    0.0174    0.0318
           9   -0.0026    0.0115   -0.0185    0.4981    0.1022    0.0782   -0.0140    0.0081
          10    0.0216   -0.0017    0.0186    0.1641   -0.0507    0.0391    0.0236   -0.2291
          11   -0.0237    0.2602   -0.0840    0.0707   -0.0044    0.0213    0.0135    0.0329
          12   -0.0019    0.0356   -0.0343   -0.4929    0.1030    0.0824    0.0160   -0.0019
          13   -0.2602    0.3680    0.2080   -0.0191   -0.1039    0.0824    0.0431    0.3436
          14    0.1748    0.0424   -0.0445   -0.0006    0.0361   -0.1271   -0.0212    0.0905
          15   -0.0435    0.0969    0.0118   -0.0171    0.0706    0.0088   -0.1610    0.0714
          16    0.2605   -0.3684    0.2069    0.0190   -0.1037    0.0827   -0.0439   -0.3427
          17    0.1641    0.0593    0.0414   -0.0032   -0.0484    0.1227   -0.0523    0.1025
          18    0.0741   -0.0879    0.0198    0.0167    0.0628    0.0338    0.1546   -0.0553
          19   -0.1961   -0.3958   -0.0499    0.0054    0.0813    0.1160   -0.1132    0.2604
          20   -0.1933    0.0491    0.1765   -0.0052   -0.0366    0.1205    0.0362   -0.2257
          21   -0.0645   -0.1454   -0.0281   -0.0339   -0.1964   -0.0031    0.0782    0.1785
          22    0.1960    0.3958   -0.0496   -0.0057    0.0816    0.1183    0.1104   -0.2598
          23   -0.2019    0.0222   -0.1684   -0.0117    0.0713   -0.1169    0.0512   -0.1899
          24    0.0284    0.1521   -0.0592    0.0321   -0.1868   -0.0245   -0.0709   -0.2166
[...]
 FORCE CONSTANT      0.7961

 VIBRATION         37   37A           ATOM PAIR      ENERGY CONTRIBUTION    RADIAL
 FREQUENCY          1404.59         C  1 -- C  2         +19.6% ( 56.7%)     99.9%
 TRANSITION DIPOLE   0.1319         C  2 -- H 13         +13.0% ( 46.2%)      3.2%
 TRAVEL (Ang.)       0.2325         C  1 -- H 11         +13.0% ( 46.2%)      3.2%
 REDUCED MASS        0.8882         C  2 -- H 14         +12.6% ( 45.5%)      4.3%
 EFFECTIVE MASS      5.6568         C  1 -- H 12         +12.6% ( 45.5%)      4.3%
 FORCE CONSTANT      1.0324

 VIBRATION         38   38A           ATOM PAIR      ENERGY CONTRIBUTION    RADIAL
 FREQUENCY          1416.81         C  1 -- C  2          +9.8% ( 47.3%)      0.0%
 TRANSITION DIPOLE   0.0473         C  1 -- C  5          +9.3% ( 46.1%)     96.2%
 TRAVEL (Ang.)       0.2229         C  2 -- C  6          +9.3% ( 46.1%)     96.1%
 REDUCED MASS        0.9575         C  4 -- C  8          +7.0% ( 40.1%)     98.4%
 EFFECTIVE MASS      9.3378
 FORCE CONSTANT      1.1325

 VIBRATION         39   39A           ATOM PAIR      ENERGY CONTRIBUTION    RADIAL
 FREQUENCY          1438.55         C  9 -- C 10         +12.2% ( 53.1%)    100.0%
 TRANSITION DIPOLE   0.1559         C  1 -- C  5          +8.4% ( 44.0%)     94.0%
 TRAVEL (Ang.)       0.2166         C  2 -- C  6          +8.3% ( 44.0%)     94.1%
 REDUCED MASS        0.9987         C  1 -- C  2          +7.5% ( 41.7%)     93.0%
 EFFECTIVE MASS     10.1173
 FORCE CONSTANT      1.2177

 VIBRATION         40   40A           ATOM PAIR      ENERGY CONTRIBUTION    RADIAL
 FREQUENCY          1580.52         C  3 -- C  4         +26.8% ( 76.6%)     99.9%
 TRANSITION DIPOLE   0.0407         C  3 -- C  7         +16.2% ( 59.6%)     79.6%
 TRAVEL (Ang.)       0.1181         C  4 -- C  8         +16.2% ( 59.5%)     79.6%
 REDUCED MASS        3.0588         C  3 -- C  5         +10.5% ( 47.9%)      0.1%
 EFFECTIVE MASS     11.6016         C  4 -- C  6         +10.5% ( 47.8%)      0.1%
 FORCE CONSTANT      4.5021

 VIBRATION         41   41A           ATOM PAIR      ENERGY CONTRIBUTION    RADIAL
 FREQUENCY          1792.31         C  7 -- C  9         +19.7% ( 67.5%)     99.2%
 TRANSITION DIPOLE   0.4338         C  8 -- C 10         +19.3% ( 66.9%)     99.2%
 TRAVEL (Ang.)       0.1251         C  9 -- C 10         +14.3% ( 57.5%)    100.0%
 REDUCED MASS        2.4056         C  3 -- C  7          +7.7% ( 42.2%)     39.7%
 EFFECTIVE MASS     11.9658
 FORCE CONSTANT      4.5530

 VIBRATION         42   42A           ATOM PAIR      ENERGY CONTRIBUTION    RADIAL
 FREQUENCY          1829.34         C  8 -- C 10         +17.8% ( 61.5%)     99.4%
 TRANSITION DIPOLE   0.0814         C  7 -- C  9         +17.1% ( 60.4%)     99.3%
 TRAVEL (Ang.)       0.1439         C  9 -- C 10         +10.5% ( 47.3%)      0.0%
 REDUCED MASS        1.7807         C  4 -- C  8          +6.1% ( 36.0%)     63.3%
 EFFECTIVE MASS     11.8224
 FORCE CONSTANT      3.5111

 VIBRATION         43   43A           ATOM PAIR      ENERGY CONTRIBUTION    RADIAL
 FREQUENCY          1835.32         C  3 -- C  5         +20.2% ( 66.8%)    100.0%
 TRANSITION DIPOLE   0.5420         C  4 -- C  6         +19.8% ( 66.1%)    100.0%
 TRAVEL (Ang.)       0.1240         C  3 -- C  4         +14.5% ( 56.5%)     99.1%
 REDUCED MASS        2.3908         C  3 -- C  7          +7.0% ( 39.3%)     17.2%
 EFFECTIVE MASS     11.9300
 FORCE CONSTANT      4.7448

 VIBRATION         44   44A           ATOM PAIR      ENERGY CONTRIBUTION    RADIAL
 FREQUENCY          1881.57         C  3 -- C  5         +16.5% ( 59.9%)     95.6%
 TRANSITION DIPOLE   0.7260         C  4 -- C  6         +16.5% ( 59.8%)     95.5%
 TRAVEL (Ang.)       0.1354         C  3 -- C  4         +13.6% ( 54.2%)      0.0%
 REDUCED MASS        1.9539         C  3 -- C  7          +9.7% ( 45.9%)     52.7%
 EFFECTIVE MASS     11.8714
 FORCE CONSTANT      4.0756

 VIBRATION         45   45A           ATOM PAIR      ENERGY CONTRIBUTION    RADIAL
 FREQUENCY          2929.22         C  2 -- H 13         +31.4% ( 58.3%)     97.6%
 TRANSITION DIPOLE   0.0207         C  1 -- H 11         +31.2% ( 58.1%)     97.6%
 TRAVEL (Ang.)       0.2878         C  2 -- H 14         +17.6% ( 43.6%)     94.3%
 REDUCED MASS        0.2780         C  1 -- H 12         +17.5% ( 43.5%)     94.3%
 EFFECTIVE MASS      1.5439
 FORCE CONSTANT      1.4053

 VIBRATION         46   46A           ATOM PAIR      ENERGY CONTRIBUTION    RADIAL
 FREQUENCY          2942.52         C  1 -- H 11         +30.6% ( 57.3%)     97.7%
 TRANSITION DIPOLE   0.0430         C  2 -- H 13         +30.4% ( 57.0%)     97.7%
 TRAVEL (Ang.)       0.2895         C  1 -- H 12         +18.5% ( 44.5%)     94.9%
 REDUCED MASS        0.2733         C  2 -- H 14         +18.3% ( 44.3%)     94.9%
 EFFECTIVE MASS      1.5226
 FORCE CONSTANT      1.3944

 VIBRATION         47   47A           ATOM PAIR      ENERGY CONTRIBUTION    RADIAL
 FREQUENCY          3019.26         C  2 -- H 14         +31.2% ( 55.1%)     98.9%
 TRANSITION DIPOLE   0.0337         C  1 -- H 12         +30.7% ( 54.7%)     98.9%
 TRAVEL (Ang.)       0.2979         C  2 -- H 13         +17.9% ( 41.8%)     95.6%
 REDUCED MASS        0.2516         C  1 -- H 11         +17.7% ( 41.5%)     95.6%
 EFFECTIVE MASS      1.2896
 FORCE CONSTANT      1.3514

 VIBRATION         48   48A           ATOM PAIR      ENERGY CONTRIBUTION    RADIAL
 FREQUENCY          3025.17         C  1 -- H 12         +31.4% ( 55.3%)     99.1%
 TRANSITION DIPOLE   0.0990         C  2 -- H 14         +31.1% ( 54.9%)     99.1%
 TRAVEL (Ang.)       0.3000         C  1 -- H 11         +16.8% ( 40.4%)     95.4%
 REDUCED MASS        0.2476         C  2 -- H 13         +16.6% ( 40.1%)     95.4%
 EFFECTIVE MASS      1.2836
 FORCE CONSTANT      1.3352

 VIBRATION         49   49A           ATOM PAIR      ENERGY CONTRIBUTION    RADIAL
 FREQUENCY          3048.14         C  8 -- H 19         +32.1% ( 57.6%)    100.0%
 TRANSITION DIPOLE   0.3680         C  7 -- H 17         +31.1% ( 56.7%)    100.0%
 TRAVEL (Ang.)       0.2996         C 10 -- H 20         +16.1% ( 40.8%)    100.0%
 REDUCED MASS        0.2464         C  9 -- H 18         +15.8% ( 40.3%)    100.0%
 EFFECTIVE MASS      1.4841
 FORCE CONSTANT      1.3488

 VIBRATION         50   50A           ATOM PAIR      ENERGY CONTRIBUTION    RADIAL
 FREQUENCY          3049.65         C  7 -- H 17         +38.4% ( 62.9%)    100.0%
 TRANSITION DIPOLE   0.2660         C  8 -- H 19         +37.4% ( 62.1%)    100.0%
 TRAVEL (Ang.)       0.2716         C  9 -- H 18          +9.4% ( 31.1%)     99.9%
 REDUCED MASS        0.2998         C 10 -- H 20          +9.0% ( 30.5%)     99.9%
 EFFECTIVE MASS      1.4765
 FORCE CONSTANT      1.6426

 VIBRATION         51   51A           ATOM PAIR      ENERGY CONTRIBUTION    RADIAL
 FREQUENCY          3052.87         C  5 -- H 15         +48.2% ( 70.4%)    100.0%
 TRANSITION DIPOLE   0.4749         C  6 -- H 16         +45.5% ( 68.4%)    100.0%
 TRAVEL (Ang.)       0.2260         C  9 -- H 18          +0.8% (  8.9%)    100.0%
 REDUCED MASS        0.4325         C  3 -- C  5          +0.7% (  8.8%)     37.4%
 EFFECTIVE MASS      1.5081
 FORCE CONSTANT      2.3747

 VIBRATION         52   52A           ATOM PAIR      ENERGY CONTRIBUTION    RADIAL
 FREQUENCY          3054.42         C  6 -- H 16         +47.2% ( 69.6%)    100.0%
 TRANSITION DIPOLE   0.1165         C  5 -- H 15         +44.4% ( 67.5%)    100.0%
 TRAVEL (Ang.)       0.2312         C  8 -- H 19          +1.2% ( 11.0%)    100.0%
 REDUCED MASS        0.4131         C  7 -- H 17          +1.1% ( 10.8%)    100.0%
 EFFECTIVE MASS      1.5120
 FORCE CONSTANT      2.2707

 VIBRATION         53   53A           ATOM PAIR      ENERGY CONTRIBUTION    RADIAL
 FREQUENCY          3065.25         C 10 -- H 20         +31.9% ( 57.4%)     99.9%
 TRANSITION DIPOLE   0.3217         C  9 -- H 18         +31.8% ( 57.3%)     99.9%
 TRAVEL (Ang.)       0.2933         C  8 -- H 19         +16.3% ( 41.0%)     99.9%
 REDUCED MASS        0.2558         C  7 -- H 17         +16.3% ( 41.0%)     99.9%
 EFFECTIVE MASS      1.5677
 FORCE CONSTANT      1.4161

 VIBRATION         54   54A           ATOM PAIR      ENERGY CONTRIBUTION    RADIAL
 FREQUENCY          3076.00         C  9 -- H 18         +38.8% ( 63.2%)    100.0%
 TRANSITION DIPOLE   0.4345         C 10 -- H 20         +38.8% ( 63.1%)    100.0%
 TRAVEL (Ang.)       0.2622         C  7 -- H 17          +9.4% ( 31.1%)     99.8%
 REDUCED MASS        0.3189         C  8 -- H 19          +9.4% ( 31.1%)     99.8%
 EFFECTIVE MASS      1.5978
 FORCE CONSTANT      1.7779

      SYMMETRY NUMBER FOR POINT-GROUP C1  =  1


          SYSTEM IS A GROUND STATE



 InChI=1S/C10H10/c1-2-6-10-8-4-3-7-9(10)5-1/h1-2,5-8H,3-4H2


          MOLECULE IS NOT LINEAR

          THERE ARE 54 GENUINE VIBRATIONS IN THIS SYSTEM
          THIS THERMODYNAMICS CALCULATION IS LIMITED TO
          MOLECULES WHICH HAVE NO INTERNAL ROTATIONS




                    CALCULATED THERMODYNAMIC PROPERTIES
                                          *
   TEMP. (K)   PARTITION FUNCTION   H.O.F.    ENTHALPY  HEAT CAPACITY ENTROPY
                                   KCAL/MOL   CAL/MOLE    CAL/K/MOL  CAL/K/MOL


 298.00  VIB.     0.3238D+02                  3157.7202    25.8633    17.5072
         ROT.     0.5073D+06                   888.2803     2.9808    29.0864
         INT.     0.1643D+08                  4046.0005    28.8441    46.5936
         TRA.     0.1436D+28                  1480.4672     4.9680    40.5022
         TOT.                       47.242    5526.4677    33.8121    87.0958

 200.00  VIB.     0.6433D+01                  1191.9137    14.5032     9.6587
         ROT.     0.2789D+06                   596.1613     2.9808    27.8977
         INT.     0.1794D+07                  1788.0750    17.4840    37.5564
         TRA.     0.7896D+27                   993.6021     4.9680    38.5210
         TOT.                       44.497    2781.6771    22.4520    76.0774

 210.00  VIB.     0.7486D+01                  1342.2822    15.5754    10.3921
         ROT.     0.3001D+06                   625.9693     2.9808    28.0432
         INT.     0.2247D+07                  1968.2515    18.5562    38.4353
         TRA.     0.8496D+27                  1043.2822     4.9680    38.7634
         TOT.                       44.727    3011.5338    23.5242    77.1987

 220.00  VIB.     0.8739D+01                  1503.5151    16.6756    11.1419
         ROT.     0.3218D+06                   655.7774     2.9808    28.1818
         INT.     0.2812D+07                  2159.2925    19.6564    39.3238
         TRA.     0.9110D+27                  1092.9623     4.9680    38.9945
         TOT.                       44.967    3252.2548    24.6244    78.3183

 230.00  VIB.     0.1023D+02                  1675.8786    17.8010    11.9080
         ROT.     0.3440D+06                   685.5855     2.9808    28.3143
         INT.     0.3520D+07                  2361.4640    20.7818    40.2223
         TRA.     0.9738D+27                  1142.6424     4.9680    39.2154
         TOT.                       45.219    3504.1065    25.7498    79.4377

 240.00  VIB.     0.1202D+02                  1859.6087    18.9484    12.6897
         ROT.     0.3667D+06                   715.3935     2.9808    28.4412
         INT.     0.4407D+07                  2575.0022    21.9292    41.1309
         TRA.     0.1038D+28                  1192.3226     4.9680    39.4268
         TOT.                       45.483    3767.3248    26.8972    80.5577

 250.00  VIB.     0.1416D+02                  2054.9090    20.1145    13.4868
         ROT.     0.3898D+06                   745.2016     2.9808    28.5629
         INT.     0.5520D+07                  2800.1106    23.0953    42.0497
         TRA.     0.1103D+28                  1242.0027     4.9680    39.6296
         TOT.                       45.757    4042.1132    28.0633    81.6793

 260.00  VIB.     0.1673D+02                  2261.9487    21.2957    14.2987
         ROT.     0.4134D+06                   775.0097     2.9808    28.6798
         INT.     0.6918D+07                  3036.9584    24.2765    42.9785
         TRA.     0.1170D+28                  1291.6828     4.9680    39.8245
         TOT.                       46.044    4328.6412    29.2445    82.8029

 270.00  VIB.     0.1983D+02                  2480.8627    22.4887    15.1247
         ROT.     0.4375D+06                   804.8177     2.9808    28.7923
         INT.     0.8677D+07                  3285.6804    25.4695    43.9170
         TRA.     0.1239D+28                  1341.3629     4.9680    40.0120
         TOT.                       46.342    4627.0433    30.4375    83.9290

 280.00  VIB.     0.2357D+02                  2711.7512    23.6901    15.9643
         ROT.     0.4620D+06                   834.6258     2.9808    28.9007
         INT.     0.1089D+08                  3546.3770    26.6709    44.8650
         TRA.     0.1308D+28                  1391.0430     4.9680    40.1926
         TOT.                       46.653    4937.4200    31.6389    85.0576

 290.00  VIB.     0.2809D+02                  2954.6814    24.8965    16.8166
         ROT.     0.4870D+06                   864.4339     2.9808    29.0053
         INT.     0.1368D+08                  3819.1152    27.8773    45.8219
         TRA.     0.1379D+28                  1440.7231     4.9680    40.3670
         TOT.                       46.975    5259.8383    32.8453    86.1889

 300.00  VIB.     0.3357D+02                  3209.6885    26.1050    17.6810
         ROT.     0.5124D+06                   894.2419     2.9808    29.1063
         INT.     0.1720D+08                  4103.9304    29.0858    46.7874
         TRA.     0.1451D+28                  1490.4032     4.9680    40.5354
         TOT.                       47.310    5594.3336    34.0538    87.3228

 310.00  VIB.     0.4022D+02                  3476.7779    27.3125    18.5567
         ROT.     0.5382D+06                   924.0500     2.9808    29.2041
         INT.     0.2165D+08                  4400.8279    30.2933    47.7608
         TRA.     0.1524D+28                  1540.0833     4.9680    40.6983
         TOT.                       47.656    5940.9112    35.2614    88.4591

 320.00  VIB.     0.4831D+02                  3755.9274    28.5166    19.4429
         ROT.     0.5645D+06                   953.8580     2.9808    29.2987
         INT.     0.2727D+08                  4709.7855    31.4974    48.7416
         TRA.     0.1598D+28                  1589.7634     4.9680    40.8560
         TOT.                       48.015    6299.5489    36.4654    89.5976

 330.00  VIB.     0.5817D+02                  4047.0893    29.7146    20.3387
         ROT.     0.5912D+06                   983.6661     2.9808    29.3904
         INT.     0.3439D+08                  5030.7554    32.6954    49.7292
         TRA.     0.1674D+28                  1639.4435     4.9680    41.0089
         TOT.                       48.385    6670.1989    37.6634    90.7381

 340.00  VIB.     0.7022D+02                  4350.1929    30.9046    21.2435
         ROT.     0.6182D+06                  1013.4742     2.9808    29.4794
         INT.     0.4341D+08                  5363.6671    33.8854    50.7229
         TRA.     0.1750D+28                  1689.1236     4.9680    41.1572
         TOT.                       48.768    7052.7907    38.8534    91.8801

 350.00  VIB.     0.8495D+02                  4665.1472    32.0845    22.1564
         ROT.     0.6457D+06                  1043.2822     2.9808    29.5658
         INT.     0.5486D+08                  5708.4294    35.0653    51.7222
         TRA.     0.1828D+28                  1738.8037     4.9680    41.3012
         TOT.                       49.162    7447.2332    40.0333    93.0235

 360.00  VIB.     0.1030D+03                  4991.8428    33.2526    23.0766
         ROT.     0.6736D+06                  1073.0903     2.9808    29.6498
         INT.     0.6939D+08                  6064.9331    36.2334    52.7265
         TRA.     0.1907D+28                  1788.4838     4.9680    41.4412
         TOT.                       49.569    7853.4170    41.2014    94.1676

 370.00  VIB.     0.1252D+03                  5330.1547    34.4075    24.0035
         ROT.     0.7018D+06                  1102.8984     2.9808    29.7315
         INT.     0.8786D+08                  6433.0531    37.3883    53.7350
         TRA.     0.1987D+28                  1838.1639     4.9680    41.5773
         TOT.                       49.986    8271.2170    42.3563    95.3123

 380.00  VIB.     0.1524D+03                  5679.9442    35.5479    24.9363
         ROT.     0.7305D+06                  1132.7064     2.9808    29.8110
         INT.     0.1113D+09                  6812.6506    38.5287    54.7472
         TRA.     0.2068D+28                  1887.8440     4.9680    41.7098
         TOT.                       50.416    8700.4946    43.4967    96.4570

 390.00  VIB.     0.1860D+03                  6041.0608    36.6728    25.8742
         ROT.     0.7595D+06                  1162.5145     2.9808    29.8884
         INT.     0.1412D+09                  7203.5753    39.6536    55.7626
         TRA.     0.2150D+28                  1937.5242     4.9680    41.8388
         TOT.                       50.856    9141.0994    44.6216    97.6015

 400.00  VIB.     0.2273D+03                  6413.3446    37.7812    26.8167
         ROT.     0.7889D+06                  1192.3226     2.9808    29.9639
         INT.     0.1793D+09                  7605.6672    40.7620    56.7806
         TRA.     0.2233D+28                  1987.2043     4.9680    41.9646
         TOT.                       51.308    9592.8714    45.7300    98.7452

   *: NOTE: HEATS OF FORMATION ARE RELATIVE TO THE
            ELEMENTS IN THEIR STANDARD STATE AT 298K
              (=  Standard Enthalpy of Formation).

            Hvib:  Zero-point energy is not included.
                   frequencies of less than zero cm-1 are not included.
            Hrot = (3/2)RT
            Htra = (3/2)RT + pV = (5/2)RT

            Heat capacity is Cp, not Cv

          For more information, see: HTTP://OpenMOPAC.net/Manual/thermochemistry.html


           FORCE CONSTANT IN CARTESIAN COORDINATES (Millidynes/A)

    ATOM   CHEMICAL       X               Y               Z
   NUMBER   SYMBOL  FORCE CONSTANT  FORCE CONSTANT  FORCE CONSTANT

      1       C        8.408624        9.115308        7.843653
      2       C        8.408590        9.128912        7.824702
      3       C       11.075799       14.477108        3.355949
      4       C       11.056671       14.393504        3.439719
      5       C       10.394225       13.236772        3.127890
      6       C       10.389016       13.150790        3.216374
      7       C       10.419539       13.354987        3.646805
      8       C       10.416246       13.555042        3.452373
      9       C       10.200628       13.529839        3.611914
     10       C       10.215261       13.689270        3.453775
     11       H        1.170368        1.053614        3.973976
     12       H        1.171527        2.352096        2.805547
     13       H        1.169847        0.723720        4.304551
     14       H        1.172055        3.055843        2.102523
     15       H        4.693480        0.789407        0.760382
     16       H        4.691937        0.781278        0.770087
     17       H        4.480467        0.785514        0.983290
     18       H        1.519048        4.290650        0.452122
     19       H        4.479400        0.783330        0.986284
     20       H        1.520716        4.025445        0.714836

 **********************
 *                    *
 * JOB ENDED NORMALLY *
 *                    *
 **********************



 TOTAL JOB TIME:             2.17 SECONDS

 == MOPAC DONE ==
