 *******************************************************************************
 **                                                                           **
 **                              MOPAC v23.1.2                                **
 **                                                                           **
 *******************************************************************************
 **          Digital Object Identifier (DOI): 10.5281/zenodo.6511958          **
 **    Visit the DOI location for information on how to cite this program.    **
 *******************************************************************************

                              PM3 CALCULATION RESULTS

 *******************************************************************************
 *  CALCULATION DONE: (MAX THREADS = 1)              Tue Jun  3 16:40:58 2025  *
 *  PM3        - The PM3 Hamiltonian to be used
 *  PRECISE    - TIGHTER CRITERIA TO BE USED
 *  NOSYM      - POINT-GROUP SYMMETRY SET TO C1
 *  THREADS=1  - MULTI-THREADING NOT USED
 *  T=         - A TIME OF 172800.0 SECONDS REQUESTED
 *  DUMP=N     - RESTART FILE WRITTEN EVERY 7200.0 SECONDS REQUESTED
 *******************************************************************************
pm3  precise nosym THREADS=1
 InChI=1S/C12H20/c1-3-5-6-7-8-12-10-9-11(12)4-2/h5-6,9-12H,3-4,7-8H2,1-2H3

   ATOM   CHEMICAL          X               Y               Z
  NUMBER   SYMBOL      (ANGSTROMS)     (ANGSTROMS)     (ANGSTROMS)

     1       C         -2.34100000  *  -0.53380000  *   0.45210000  *
     2       C         -1.72560000  *  -0.88420000  *  -0.81160000  *
     3       C         -0.18630000  *  -0.84320000  *  -0.82090000  *
     4       C         -3.49870000  *   0.47690000  *   0.35660000  *
     5       C          0.33180000  *   0.59870000  *  -0.89470000  *
     6       C          4.10560000  *   0.36990000  *  -0.04780000  *
     7       C         -2.98400000  *   1.89830000  *   0.14590000  *
     8       C          4.77300000  *  -0.03550000  *   1.26240000  *
     9       C         -2.84560000  *  -1.93880000  *   0.56540000  *
    10       C         -2.23810000  *  -2.28090000  *  -0.64310000  *
    11       C          2.60660000  *   0.31490000  *   0.06160000  *
    12       C          1.83240000  *   0.63320000  *  -0.98560000  *
    13       H         -1.63210000  *  -0.29950000  *   1.27890000  *
    14       H         -2.17480000  *  -0.40310000  *  -1.71030000  *
    15       H          0.22200000  *  -1.34800000  *   0.08360000  *
    16       H          0.17500000  *  -1.40100000  *  -1.71290000  *
    17       H         -4.19320000  *   0.21110000  *  -0.47150000  *
    18       H         -4.07670000  *   0.44940000  *   1.30580000  *
    19       H          4.41890000  *   1.40380000  *  -0.30950000  *
    20       H          4.44190000  *  -0.31800000  *  -0.85360000  *
    21       H         -0.08860000  *   1.09220000  *  -1.79770000  *
    22       H          0.00380000  *   1.17500000  *  -0.00280000  *
    23       H          5.87640000  *   0.01480000  *   1.14870000  *
    24       H          4.49050000  *  -1.07550000  *   1.53290000  *
    25       H          4.46800000  *   0.65300000  *   2.07930000  *
    26       H         -2.44830000  *   1.97760000  *  -0.82320000  *
    27       H         -3.84030000  *   2.60500000  *   0.13350000  *
    28       H         -2.29760000  *   2.18650000  *   0.97030000  *
    29       H          2.14420000  *   0.01600000  *   0.99960000  *
    30       H          2.28980000  *   0.95270000  *  -1.91830000  *
    31       H         -3.43790000  *  -2.47680000  *   1.29770000  *
    32       H         -2.17130000  *  -3.19080000  *  -1.22980000  *



          CARTESIAN COORDINATES 

    NO.       ATOM           X           Y           Z

     1         C         -2.3410     -0.5338      0.4521
     2         C         -1.7256     -0.8842     -0.8116
     3         C         -0.1863     -0.8432     -0.8209
     4         C         -3.4987      0.4769      0.3566
     5         C          0.3318      0.5987     -0.8947
     6         C          4.1056      0.3699     -0.0478
     7         C         -2.9840      1.8983      0.1459
     8         C          4.7730     -0.0355      1.2624
     9         C         -2.8456     -1.9388      0.5654
    10         C         -2.2381     -2.2809     -0.6431
    11         C          2.6066      0.3149      0.0616
    12         C          1.8324      0.6332     -0.9856
    13         H         -1.6321     -0.2995      1.2789
    14         H         -2.1748     -0.4031     -1.7103
    15         H          0.2220     -1.3480      0.0836
    16         H          0.1750     -1.4010     -1.7129
    17         H         -4.1932      0.2111     -0.4715
    18         H         -4.0767      0.4494      1.3058
    19         H          4.4189      1.4038     -0.3095
    20         H          4.4419     -0.3180     -0.8536
    21         H         -0.0886      1.0922     -1.7977
    22         H          0.0038      1.1750     -0.0028
    23         H          5.8764      0.0148      1.1487
    24         H          4.4905     -1.0755      1.5329
    25         H          4.4680      0.6530      2.0793
    26         H         -2.4483      1.9776     -0.8232
    27         H         -3.8403      2.6050      0.1335
    28         H         -2.2976      2.1865      0.9703
    29         H          2.1442      0.0160      0.9996
    30         H          2.2898      0.9527     -1.9183
    31         H         -3.4379     -2.4768      1.2977
    32         H         -2.1713     -3.1908     -1.2298

  H: (PM3): J. J. P. STEWART, J. COMP. CHEM. 10, 209 (1989).
  C: (PM3): J. J. P. STEWART, J. COMP. CHEM. 10, 209 (1989).

           Empirical Formula: C12 H20  =    32 atoms



      MOLECULAR POINT GROUP   :   C1  


      RHF CALCULATION, NO. OF DOUBLY OCCUPIED LEVELS = 34


          Geometry optimization using EF

          DIAGONAL MATRIX USED AS START HESSIAN

 CYCLE:     1 TIME:   0.012 TIME LEFT:  2.00D  GRAD.:   214.530 HEAT:  31.88465
 CYCLE:     2 TIME:   0.020 TIME LEFT:  2.00D  GRAD.:    73.207 HEAT:  22.39200
 CYCLE:     3 TIME:   0.016 TIME LEFT:  2.00D  GRAD.:    67.493 HEAT:  21.32575
 CYCLE:     4 TIME:   0.012 TIME LEFT:  2.00D  GRAD.:    60.252 HEAT:  20.92675
 CYCLE:     5 TIME:   0.012 TIME LEFT:  2.00D  GRAD.:    50.020 HEAT:  20.47239
 CYCLE:     6 TIME:   0.008 TIME LEFT:  2.00D  GRAD.:    52.859 HEAT:  20.26418
 CYCLE:     7 TIME:   0.020 TIME LEFT:  2.00D  GRAD.:    34.548 HEAT:  19.79904
 CYCLE:     8 TIME:   0.020 TIME LEFT:  2.00D  GRAD.:    15.849 HEAT:  19.57273
 CYCLE:     9 TIME:   0.012 TIME LEFT:  2.00D  GRAD.:    14.868 HEAT:  19.47975
 CYCLE:    10 TIME:   0.012 TIME LEFT:  2.00D  GRAD.:    16.641 HEAT:  19.37187
 CYCLE:    11 TIME:   0.008 TIME LEFT:  2.00D  GRAD.:    24.745 HEAT:  19.36874
 CYCLE:    12 TIME:   0.020 TIME LEFT:  2.00D  GRAD.:    10.738 HEAT:  19.24023
 CYCLE:    13 TIME:   0.020 TIME LEFT:  2.00D  GRAD.:    10.013 HEAT:  19.21761
 CYCLE:    14 TIME:   0.008 TIME LEFT:  2.00D  GRAD.:     9.593 HEAT:  19.20475
 CYCLE:    15 TIME:   0.012 TIME LEFT:  2.00D  GRAD.:    11.379 HEAT:  19.19510
 CYCLE:    16 TIME:   0.012 TIME LEFT:  2.00D  GRAD.:     9.325 HEAT:  19.18388
 CYCLE:    17 TIME:   0.012 TIME LEFT:  2.00D  GRAD.:     9.654 HEAT:  19.16980
 CYCLE:    18 TIME:   0.020 TIME LEFT:  2.00D  GRAD.:     4.212 HEAT:  19.14886
 CYCLE:    19 TIME:   0.016 TIME LEFT:  2.00D  GRAD.:     3.829 HEAT:  19.14271
 CYCLE:    20 TIME:   0.012 TIME LEFT:  2.00D  GRAD.:     3.015 HEAT:  19.13451
 CYCLE:    21 TIME:   0.020 TIME LEFT:  2.00D  GRAD.:     9.971 HEAT:  19.13242
 CYCLE:    22 TIME:   0.012 TIME LEFT:  2.00D  GRAD.:     5.574 HEAT:  19.11326
 CYCLE:    23 TIME:   0.016 TIME LEFT:  2.00D  GRAD.:     4.489 HEAT:  19.10831
 CYCLE:    24 TIME:   0.012 TIME LEFT:  2.00D  GRAD.:     4.937 HEAT:  19.10785
 CYCLE:    25 TIME:   0.012 TIME LEFT:  2.00D  GRAD.:     5.226 HEAT:  19.10448
 CYCLE:    26 TIME:   0.012 TIME LEFT:  2.00D  GRAD.:     3.095 HEAT:  19.09922
 CYCLE:    27 TIME:   0.012 TIME LEFT:  2.00D  GRAD.:     4.709 HEAT:  19.09954
 CYCLE:    28 TIME:   0.008 TIME LEFT:  2.00D  GRAD.:     2.601 HEAT:  19.09344
 CYCLE:    29 TIME:   0.012 TIME LEFT:  2.00D  GRAD.:     6.536 HEAT:  19.09793
 CYCLE:    30 TIME:   0.012 TIME LEFT:  2.00D  GRAD.:     2.673 HEAT:  19.08627
 CYCLE:    31 TIME:   0.012 TIME LEFT:  2.00D  GRAD.:     4.353 HEAT:  19.08513
 CYCLE:    32 TIME:   0.008 TIME LEFT:  2.00D  GRAD.:     2.376 HEAT:  19.07468
 CYCLE:    33 TIME:   0.016 TIME LEFT:  2.00D  GRAD.:     4.771 HEAT:  19.06829
 CYCLE:    34 TIME:   0.008 TIME LEFT:  2.00D  GRAD.:     3.992 HEAT:  19.05674
 CYCLE:    35 TIME:   0.012 TIME LEFT:  2.00D  GRAD.:     4.499 HEAT:  19.05349
 CYCLE:    36 TIME:   0.008 TIME LEFT:  2.00D  GRAD.:     2.982 HEAT:  19.04545
 CYCLE:    37 TIME:   0.012 TIME LEFT:  2.00D  GRAD.:     3.207 HEAT:  19.04248
 CYCLE:    38 TIME:   0.012 TIME LEFT:  2.00D  GRAD.:     3.210 HEAT:  19.03840
 CYCLE:    39 TIME:   0.012 TIME LEFT:  2.00D  GRAD.:     2.523 HEAT:  19.03211
 CYCLE:    40 TIME:   0.012 TIME LEFT:  2.00D  GRAD.:     3.142 HEAT:  19.02869
 CYCLE:    41 TIME:   0.008 TIME LEFT:  2.00D  GRAD.:     2.138 HEAT:  19.02252
 CYCLE:    42 TIME:   0.012 TIME LEFT:  2.00D  GRAD.:     1.972 HEAT:  19.01828
 CYCLE:    43 TIME:   0.012 TIME LEFT:  2.00D  GRAD.:     2.720 HEAT:  19.01206
 CYCLE:    44 TIME:   0.012 TIME LEFT:  2.00D  GRAD.:     2.586 HEAT:  19.00376
 CYCLE:    45 TIME:   0.012 TIME LEFT:  2.00D  GRAD.:     2.416 HEAT:  18.99772
 CYCLE:    46 TIME:   0.012 TIME LEFT:  2.00D  GRAD.:     3.044 HEAT:  18.98579
 CYCLE:    47 TIME:   0.012 TIME LEFT:  2.00D  GRAD.:     3.623 HEAT:  18.97055
 CYCLE:    48 TIME:   0.012 TIME LEFT:  2.00D  GRAD.:     3.101 HEAT:  18.95613
 CYCLE:    49 TIME:   0.012 TIME LEFT:  2.00D  GRAD.:     2.049 HEAT:  18.94821
 CYCLE:    50 TIME:   0.012 TIME LEFT:  2.00D  GRAD.:     2.172 HEAT:  18.94085
 CYCLE:    51 TIME:   0.012 TIME LEFT:  2.00D  GRAD.:     2.851 HEAT:  18.93169
 CYCLE:    52 TIME:   0.012 TIME LEFT:  2.00D  GRAD.:     3.342 HEAT:  18.92492
 CYCLE:    53 TIME:   0.012 TIME LEFT:  2.00D  GRAD.:     1.868 HEAT:  18.91577
 CYCLE:    54 TIME:   0.012 TIME LEFT:  2.00D  GRAD.:     1.882 HEAT:  18.90688
 CYCLE:    55 TIME:   0.012 TIME LEFT:  2.00D  GRAD.:     2.606 HEAT:  18.89629
 CYCLE:    56 TIME:   0.012 TIME LEFT:  2.00D  GRAD.:     2.716 HEAT:  18.88607
 CYCLE:    57 TIME:   0.012 TIME LEFT:  2.00D  GRAD.:     3.071 HEAT:  18.87276
 CYCLE:    58 TIME:   0.012 TIME LEFT:  2.00D  GRAD.:     3.025 HEAT:  18.85606
 CYCLE:    59 TIME:   0.012 TIME LEFT:  2.00D  GRAD.:     3.366 HEAT:  18.83857
 CYCLE:    60 TIME:   0.012 TIME LEFT:  2.00D  GRAD.:     4.171 HEAT:  18.80394
 CYCLE:    61 TIME:   0.012 TIME LEFT:  2.00D  GRAD.:     6.668 HEAT:  18.77124
 CYCLE:    62 TIME:   0.012 TIME LEFT:  2.00D  GRAD.:     6.252 HEAT:  18.72315
 CYCLE:    63 TIME:   0.012 TIME LEFT:  2.00D  GRAD.:    11.656 HEAT:  18.69342
 CYCLE:    64 TIME:   0.012 TIME LEFT:  2.00D  GRAD.:     5.265 HEAT:  18.61829
 CYCLE:    65 TIME:   0.008 TIME LEFT:  2.00D  GRAD.:     4.388 HEAT:  18.57383
 CYCLE:    66 TIME:   0.016 TIME LEFT:  2.00D  GRAD.:     8.433 HEAT:  18.50353
 CYCLE:    67 TIME:   0.012 TIME LEFT:  2.00D  GRAD.:     5.072 HEAT:  18.46240
 CYCLE:    68 TIME:   0.008 TIME LEFT:  2.00D  GRAD.:     4.503 HEAT:  18.43563
 CYCLE:    69 TIME:   0.012 TIME LEFT:  2.00D  GRAD.:     7.817 HEAT:  18.40594
 CYCLE:    70 TIME:   0.012 TIME LEFT:  2.00D  GRAD.:     5.779 HEAT:  18.37842
 CYCLE:    71 TIME:   0.012 TIME LEFT:  2.00D  GRAD.:     3.617 HEAT:  18.34172
 CYCLE:    72 TIME:   0.012 TIME LEFT:  2.00D  GRAD.:     5.362 HEAT:  18.30499
 CYCLE:    73 TIME:   0.012 TIME LEFT:  2.00D  GRAD.:     5.458 HEAT:  18.26404
 CYCLE:    74 TIME:   0.012 TIME LEFT:  2.00D  GRAD.:     4.931 HEAT:  18.22963
 CYCLE:    75 TIME:   0.012 TIME LEFT:  2.00D  GRAD.:     3.315 HEAT:  18.19882
 CYCLE:    76 TIME:   0.012 TIME LEFT:  2.00D  GRAD.:     3.623 HEAT:  18.17884
 CYCLE:    77 TIME:   0.012 TIME LEFT:  2.00D  GRAD.:     3.017 HEAT:  18.15846
 CYCLE:    78 TIME:   0.008 TIME LEFT:  2.00D  GRAD.:     3.119 HEAT:  18.14210
 CYCLE:    79 TIME:   0.012 TIME LEFT:  2.00D  GRAD.:     3.238 HEAT:  18.12891
 CYCLE:    80 TIME:   0.012 TIME LEFT:  2.00D  GRAD.:     3.003 HEAT:  18.11549
 CYCLE:    81 TIME:   0.012 TIME LEFT:  2.00D  GRAD.:     3.266 HEAT:  18.09625
 CYCLE:    82 TIME:   0.012 TIME LEFT:  2.00D  GRAD.:     3.157 HEAT:  18.07686
 CYCLE:    83 TIME:   0.012 TIME LEFT:  2.00D  GRAD.:     3.394 HEAT:  18.06292
 CYCLE:    84 TIME:   0.008 TIME LEFT:  2.00D  GRAD.:     2.699 HEAT:  18.04922
 CYCLE:    85 TIME:   0.012 TIME LEFT:  2.00D  GRAD.:     2.499 HEAT:  18.03653
 CYCLE:    86 TIME:   0.012 TIME LEFT:  2.00D  GRAD.:     2.261 HEAT:  18.02178
 CYCLE:    87 TIME:   0.012 TIME LEFT:  2.00D  GRAD.:     2.311 HEAT:  18.01028
 CYCLE:    88 TIME:   0.012 TIME LEFT:  2.00D  GRAD.:     2.443 HEAT:  17.99801
 CYCLE:    89 TIME:   0.012 TIME LEFT:  2.00D  GRAD.:     2.680 HEAT:  17.98839
 CYCLE:    90 TIME:   0.012 TIME LEFT:  2.00D  GRAD.:     2.782 HEAT:  17.97742
 CYCLE:    91 TIME:   0.012 TIME LEFT:  2.00D  GRAD.:     2.344 HEAT:  17.96529
 CYCLE:    92 TIME:   0.012 TIME LEFT:  2.00D  GRAD.:     1.836 HEAT:  17.95259
 CYCLE:    93 TIME:   0.008 TIME LEFT:  2.00D  GRAD.:     1.547 HEAT:  17.94526
 CYCLE:    94 TIME:   0.012 TIME LEFT:  2.00D  GRAD.:     1.377 HEAT:  17.93829
 CYCLE:    95 TIME:   0.012 TIME LEFT:  2.00D  GRAD.:     1.296 HEAT:  17.93439
 CYCLE:    96 TIME:   0.012 TIME LEFT:  2.00D  GRAD.:     1.244 HEAT:  17.93143
 CYCLE:    97 TIME:   0.012 TIME LEFT:  2.00D  GRAD.:     1.014 HEAT:  17.92878
 CYCLE:    98 TIME:   0.012 TIME LEFT:  2.00D  GRAD.:     1.032 HEAT:  17.92623
 CYCLE:    99 TIME:   0.012 TIME LEFT:  2.00D  GRAD.:     0.906 HEAT:  17.92405
 CYCLE:   100 TIME:   0.008 TIME LEFT:  2.00D  GRAD.:     0.969 HEAT:  17.92237
 CYCLE:   101 TIME:   0.012 TIME LEFT:  2.00D  GRAD.:     0.709 HEAT:  17.92121
 CYCLE:   102 TIME:   0.012 TIME LEFT:  2.00D  GRAD.:     0.641 HEAT:  17.92025
 CYCLE:   103 TIME:   0.012 TIME LEFT:  2.00D  GRAD.:     0.628 HEAT:  17.91941
 CYCLE:   104 TIME:   0.016 TIME LEFT:  2.00D  GRAD.:     0.544 HEAT:  17.91875
 CYCLE:   105 TIME:   0.012 TIME LEFT:  2.00D  GRAD.:     0.509 HEAT:  17.91808
 CYCLE:   106 TIME:   0.008 TIME LEFT:  2.00D  GRAD.:     0.551 HEAT:  17.91728
 CYCLE:   107 TIME:   0.012 TIME LEFT:  2.00D  GRAD.:     0.545 HEAT:  17.91653
 CYCLE:   108 TIME:   0.012 TIME LEFT:  2.00D  GRAD.:     0.493 HEAT:  17.91590
 CYCLE:   109 TIME:   0.008 TIME LEFT:  2.00D  GRAD.:     0.419 HEAT:  17.91542
 CYCLE:   110 TIME:   0.012 TIME LEFT:  2.00D  GRAD.:     0.375 HEAT:  17.91496
 CYCLE:   111 TIME:   0.012 TIME LEFT:  2.00D  GRAD.:     0.393 HEAT:  17.91452
 CYCLE:   112 TIME:   0.008 TIME LEFT:  2.00D  GRAD.:     0.369 HEAT:  17.91415
 CYCLE:   113 TIME:   0.012 TIME LEFT:  2.00D  GRAD.:     0.346 HEAT:  17.91384
 CYCLE:   114 TIME:   0.008 TIME LEFT:  2.00D  GRAD.:     0.347 HEAT:  17.91351
 CYCLE:   115 TIME:   0.012 TIME LEFT:  2.00D  GRAD.:     0.392 HEAT:  17.91311
 CYCLE:   116 TIME:   0.008 TIME LEFT:  2.00D  GRAD.:     0.456 HEAT:  17.91263
 CYCLE:   117 TIME:   0.012 TIME LEFT:  2.00D  GRAD.:     0.502 HEAT:  17.91210
 CYCLE:   118 TIME:   0.012 TIME LEFT:  2.00D  GRAD.:     0.620 HEAT:  17.91126
 CYCLE:   119 TIME:   0.008 TIME LEFT:  2.00D  GRAD.:     0.643 HEAT:  17.91049
 CYCLE:   120 TIME:   0.012 TIME LEFT:  2.00D  GRAD.:     0.988 HEAT:  17.90821
 CYCLE:   121 TIME:   0.012 TIME LEFT:  2.00D  GRAD.:     0.859 HEAT:  17.90729
 CYCLE:   122 TIME:   0.012 TIME LEFT:  2.00D  GRAD.:     1.244 HEAT:  17.90480
 CYCLE:   123 TIME:   0.008 TIME LEFT:  2.00D  GRAD.:     0.928 HEAT:  17.90348
 CYCLE:   124 TIME:   0.012 TIME LEFT:  2.00D  GRAD.:     0.663 HEAT:  17.90161
 CYCLE:   125 TIME:   0.008 TIME LEFT:  2.00D  GRAD.:     0.763 HEAT:  17.89977
 CYCLE:   126 TIME:   0.012 TIME LEFT:  2.00D  GRAD.:     0.756 HEAT:  17.89898
 CYCLE:   127 TIME:   0.012 TIME LEFT:  2.00D  GRAD.:     0.781 HEAT:  17.89801
 CYCLE:   128 TIME:   0.008 TIME LEFT:  2.00D  GRAD.:     0.725 HEAT:  17.89746
 CYCLE:   129 TIME:   0.012 TIME LEFT:  2.00D  GRAD.:     1.014 HEAT:  17.89613
 CYCLE:   130 TIME:   0.008 TIME LEFT:  2.00D  GRAD.:     0.902 HEAT:  17.89534
 CYCLE:   131 TIME:   0.012 TIME LEFT:  2.00D  GRAD.:     1.130 HEAT:  17.89172
 CYCLE:   132 TIME:   0.012 TIME LEFT:  2.00D  GRAD.:     1.049 HEAT:  17.88988
 CYCLE:   133 TIME:   0.008 TIME LEFT:  2.00D  GRAD.:     1.157 HEAT:  17.88673
 CYCLE:   134 TIME:   0.012 TIME LEFT:  2.00D  GRAD.:     0.998 HEAT:  17.88394
 CYCLE:   135 TIME:   0.012 TIME LEFT:  2.00D  GRAD.:     1.829 HEAT:  17.88053
 CYCLE:   136 TIME:   0.012 TIME LEFT:  2.00D  GRAD.:     1.085 HEAT:  17.87913
 CYCLE:   137 TIME:   0.008 TIME LEFT:  2.00D  GRAD.:     0.767 HEAT:  17.87756
 CYCLE:   138 TIME:   0.012 TIME LEFT:  2.00D  GRAD.:     1.103 HEAT:  17.87612
 CYCLE:   139 TIME:   0.012 TIME LEFT:  2.00D  GRAD.:     0.899 HEAT:  17.87510
 CYCLE:   140 TIME:   0.012 TIME LEFT:  2.00D  GRAD.:     0.766 HEAT:  17.87362
 CYCLE:   141 TIME:   0.008 TIME LEFT:  2.00D  GRAD.:     0.759 HEAT:  17.87296
 CYCLE:   142 TIME:   0.012 TIME LEFT:  2.00D  GRAD.:     0.600 HEAT:  17.87226
 CYCLE:   143 TIME:   0.012 TIME LEFT:  2.00D  GRAD.:     0.607 HEAT:  17.87176
 CYCLE:   144 TIME:   0.008 TIME LEFT:  2.00D  GRAD.:     0.811 HEAT:  17.87089
 CYCLE:   145 TIME:   0.012 TIME LEFT:  2.00D  GRAD.:     0.630 HEAT:  17.87020
 CYCLE:   146 TIME:   0.012 TIME LEFT:  2.00D  GRAD.:     0.586 HEAT:  17.86918
 CYCLE:   147 TIME:   0.008 TIME LEFT:  2.00D  GRAD.:     0.556 HEAT:  17.86831
 CYCLE:   148 TIME:   0.012 TIME LEFT:  2.00D  GRAD.:     0.565 HEAT:  17.86739
 CYCLE:   149 TIME:   0.008 TIME LEFT:  2.00D  GRAD.:     0.601 HEAT:  17.86640
 CYCLE:   150 TIME:   0.012 TIME LEFT:  2.00D  GRAD.:     0.672 HEAT:  17.86539
 CYCLE:   151 TIME:   0.012 TIME LEFT:  2.00D  GRAD.:     1.000 HEAT:  17.86460
 CYCLE:   152 TIME:   0.008 TIME LEFT:  2.00D  GRAD.:     0.630 HEAT:  17.86362
 CYCLE:   153 TIME:   0.012 TIME LEFT:  2.00D  GRAD.:     0.516 HEAT:  17.86269
 CYCLE:   154 TIME:   0.012 TIME LEFT:  2.00D  GRAD.:     0.618 HEAT:  17.86164
 CYCLE:   155 TIME:   0.008 TIME LEFT:  2.00D  GRAD.:     0.739 HEAT:  17.86060
 CYCLE:   156 TIME:   0.012 TIME LEFT:  2.00D  GRAD.:     1.112 HEAT:  17.85876
 CYCLE:   157 TIME:   0.008 TIME LEFT:  2.00D  GRAD.:     0.774 HEAT:  17.85710
 CYCLE:   158 TIME:   0.012 TIME LEFT:  2.00D  GRAD.:     0.581 HEAT:  17.85587
 CYCLE:   159 TIME:   0.012 TIME LEFT:  2.00D  GRAD.:     0.525 HEAT:  17.85522
 CYCLE:   160 TIME:   0.008 TIME LEFT:  2.00D  GRAD.:     0.412 HEAT:  17.85472
 CYCLE:   161 TIME:   0.012 TIME LEFT:  2.00D  GRAD.:     0.291 HEAT:  17.85427
 CYCLE:   162 TIME:   0.008 TIME LEFT:  2.00D  GRAD.:     0.259 HEAT:  17.85412
 CYCLE:   163 TIME:   0.012 TIME LEFT:  2.00D  GRAD.:     0.215 HEAT:  17.85401
 CYCLE:   164 TIME:   0.012 TIME LEFT:  2.00D  GRAD.:     0.191 HEAT:  17.85393
 CYCLE:   165 TIME:   0.008 TIME LEFT:  2.00D  GRAD.:     0.213 HEAT:  17.85383
 CYCLE:   166 TIME:   0.012 TIME LEFT:  2.00D  GRAD.:     0.202 HEAT:  17.85380
 CYCLE:   167 TIME:   0.008 TIME LEFT:  2.00D  GRAD.:     0.250 HEAT:  17.85375
 CYCLE:   168 TIME:   0.012 TIME LEFT:  2.00D  GRAD.:     0.137 HEAT:  17.85370
 CYCLE:   169 TIME:   0.008 TIME LEFT:  2.00D  GRAD.:     0.117 HEAT:  17.85367
 CYCLE:   170 TIME:   0.012 TIME LEFT:  2.00D  GRAD.:     0.108 HEAT:  17.85366
 CYCLE:   171 TIME:   0.012 TIME LEFT:  2.00D  GRAD.:     0.113 HEAT:  17.85363
 CYCLE:   172 TIME:   0.008 TIME LEFT:  2.00D  GRAD.:     0.155 HEAT:  17.85360
 CYCLE:   173 TIME:   0.012 TIME LEFT:  2.00D  GRAD.:     0.187 HEAT:  17.85354
 CYCLE:   174 TIME:   0.008 TIME LEFT:  2.00D  GRAD.:     0.229 HEAT:  17.85340
 CYCLE:   175 TIME:   0.016 TIME LEFT:  2.00D  GRAD.:     0.322 HEAT:  17.85320
 CYCLE:   176 TIME:   0.008 TIME LEFT:  2.00D  GRAD.:     0.272 HEAT:  17.85305
 CYCLE:   177 TIME:   0.012 TIME LEFT:  2.00D  GRAD.:     0.190 HEAT:  17.85285
 CYCLE:   178 TIME:   0.012 TIME LEFT:  2.00D  GRAD.:     0.139 HEAT:  17.85279
 CYCLE:   179 TIME:   0.012 TIME LEFT:  2.00D  GRAD.:     0.115 HEAT:  17.85270
 CYCLE:   180 TIME:   0.008 TIME LEFT:  2.00D  GRAD.:     0.101 HEAT:  17.85267
 CYCLE:   181 TIME:   0.012 TIME LEFT:  2.00D  GRAD.:     0.078 HEAT:  17.85265
 CYCLE:   182 TIME:   0.012 TIME LEFT:  2.00D  GRAD.:     0.061 HEAT:  17.85264
 CYCLE:   183 TIME:   0.012 TIME LEFT:  2.00D  GRAD.:     0.197 HEAT:  17.85268
 CYCLE:   184 TIME:   0.008 TIME LEFT:  2.00D  GRAD.:     0.048 HEAT:  17.85263

     GRADIENT =  0.04809 IS LESS THAN CUTOFF =  0.05000



 -------------------------------------------------------------------------------
 pm3  precise nosym THREADS=1
 InChI=1S/C12H20/c1-3-5-6-7-8-12-10-9-11(12)4-2/h5-6,9-12H,3-4,7-8H2,1-2H3



     GEOMETRY OPTIMISED USING EIGENVECTOR FOLLOWING (EF).     
     SCF FIELD WAS ACHIEVED                                   


                              PM3 CALCULATION
                                                       MOPAC v23.1.2 MacOS
                                                       Tue Jun  3 16:41:00 2025




          FINAL HEAT OF FORMATION =         17.85263 KCAL/MOL =      74.69541 KJ/MOL


          COSMO AREA              =        241.43 SQUARE ANGSTROMS
          COSMO VOLUME            =        250.73 CUBIC ANGSTROMS

          GRADIENT NORM           =          0.04809          =       0.00850 PER ATOM
          IONIZATION POTENTIAL    =          9.731855 EV
          HOMO LUMO ENERGIES (EV) =         -9.732  1.012
          NO. OF FILLED LEVELS    =         34
          MOLECULAR WEIGHT        =        164.2900         POINT GROUP:  C1  

          MOLECULAR DIMENSIONS (Angstroms)

            Atom       Atom       Distance
            H    31    H    23    10.09968
            H    27    H    32     6.17982
            H    24    H    21     3.91312


          SCF CALCULATIONS        =        195

          WALL-CLOCK TIME         =      2.094 SECONDS
          COMPUTATION TIME        =      1.625 SECONDS




   ATOM   CHEMICAL          X               Y               Z
  NUMBER   SYMBOL      (ANGSTROMS)     (ANGSTROMS)     (ANGSTROMS)

     1       C         -2.47370684  *  -0.61576715  *   0.45472580  *
     2       C         -1.77849383  *  -0.95614814  *  -0.92900421  *
     3       C         -0.27329318  *  -1.08764820  *  -0.90562426  *
     4       C         -3.40642483  *   0.57341280  *   0.45801555  *
     5       C          0.40126651  *   0.27535234  *  -0.83800672  *
     6       C          4.17129297  *   0.64431649  *  -0.07143540  *
     7       C         -2.64553029  *   1.88051094  *   0.45813060  *
     8       C          4.75865543  *   0.29226998  *   1.27847761  *
     9       C         -3.15334876  *  -1.97237124  *   0.30998904  *
    10       C         -2.54344726  *  -2.27236106  *  -0.85252763  *
    11       C          2.68815828  *   0.74468997  *  -0.00654431  *
    12       C          1.88200209  *   0.14328714  *  -0.88216796  *
    13       H         -1.75796506  *  -0.56446539  *   1.30242653  *
    14       H         -2.11023713  *  -0.29637136  *  -1.75861274  *
    15       H          0.04679158  *  -1.70949320  *  -0.04614852  *
    16       H          0.05621630  *  -1.63559205  *  -1.81092981  *
    17       H         -4.08531003  *   0.53013945  *  -0.41682018  *
    18       H         -4.06232470  *   0.51238704  *   1.34875693  *
    19       H          4.57116349  *   1.61781068  *  -0.42046760  *
    20       H          4.49001264  *  -0.09933627  *  -0.82919825  *
    21       H          0.07606218  *   0.90764778  *  -1.69008939  *
    22       H          0.06644472  *   0.81311831  *   0.07466445  *
    23       H          5.85438444  *   0.24890966  *   1.23507150  *
    24       H          4.40444430  *  -0.68537552  *   1.63001976  *
    25       H          4.48879662  *   1.03127681  *   2.04462098  *
    26       H         -2.02025473  *   1.97989207  *  -0.44117337  *
    27       H         -3.32741239  *   2.73954835  *   0.48405392  *
    28       H         -1.97718788  *   1.96165624  *   1.32623129  *
    29       H          2.28432366  *   1.35656847  *   0.81044149  *
    30       H          2.28517532  *  -0.47855484  *  -1.69197419  *
    31       H         -3.87196870  *  -2.45737132  *   0.95655739  *
    32       H         -2.54078692  *  -3.11318425  *  -1.53274631  *

                             CARTESIAN COORDINATES

   1    C       -2.473706842    -0.615767145     0.454725799
   2    C       -1.778493829    -0.956148141    -0.929004207
   3    C       -0.273293175    -1.087648201    -0.905624261
   4    C       -3.406424827     0.573412803     0.458015548
   5    C        0.401266510     0.275352336    -0.838006722
   6    C        4.171292970     0.644316492    -0.071435399
   7    C       -2.645530293     1.880510936     0.458130601
   8    C        4.758655433     0.292269975     1.278477608
   9    C       -3.153348758    -1.972371240     0.309989045
  10    C       -2.543447264    -2.272361058    -0.852527634
  11    C        2.688158278     0.744689972    -0.006544306
  12    C        1.882002087     0.143287137    -0.882167964
  13    H       -1.757965057    -0.564465394     1.302426535
  14    H       -2.110237134    -0.296371363    -1.758612736
  15    H        0.046791576    -1.709493199    -0.046148518
  16    H        0.056216296    -1.635592048    -1.810929807
  17    H       -4.085310027     0.530139452    -0.416820179
  18    H       -4.062324702     0.512387043     1.348756931
  19    H        4.571163486     1.617810683    -0.420467604
  20    H        4.490012640    -0.099336274    -0.829198251
  21    H        0.076062177     0.907647781    -1.690089394
  22    H        0.066444722     0.813118313     0.074664449
  23    H        5.854384440     0.248909661     1.235071505
  24    H        4.404444299    -0.685375520     1.630019764
  25    H        4.488796618     1.031276815     2.044620983
  26    H       -2.020254734     1.979892065    -0.441173368
  27    H       -3.327412392     2.739548348     0.484053916
  28    H       -1.977187878     1.961656238     1.326231290
  29    H        2.284323663     1.356568466     0.810441490
  30    H        2.285175322    -0.478554837    -1.691974188
  31    H       -3.871968704    -2.457371317     0.956557389
  32    H       -2.540786919    -3.113184247    -1.532746312


           Empirical Formula: C12 H20  =    32 atoms



      MOLECULAR POINT GROUP   :   C1  


                  EIGENVALUES  
 -41.52241 -37.69849 -34.21984 -32.95076 -28.71724 -24.82762 -24.46911 -21.85872
 -21.25395 -20.61477 -19.61764 -17.98785 -17.26637 -16.33814 -15.93150 -15.69125
 -15.12568 -14.80486 -14.68102 -14.42570 -13.98241 -13.63977 -13.27560 -13.02808
 -12.67842 -12.55880 -12.13563 -12.04411 -11.95608 -11.84999 -11.45083 -11.11082
  -9.91852  -9.73186   1.01205   1.11867   3.12869   3.17908   3.26790   3.43729
   3.68985   3.78002   3.78572   3.85312   3.88304   3.95856   3.97814   4.06800
   4.10214   4.13442   4.23179   4.30372   4.35599   4.38836   4.43809   4.59857
   4.72782   4.75059   4.85779   4.89968   4.91148   4.96057   5.02852   5.21352
   5.28396   5.72566   5.98800   6.18026


              NET ATOMIC CHARGES AND DIPOLE CONTRIBUTIONS

  ATOM NO.   TYPE          CHARGE      No. of ELECS.   s-Pop       p-Pop       
    1          C          -0.071720        4.0717     1.19266     2.87906
    2          C          -0.071041        4.0710     1.19233     2.87871
    3          C          -0.085584        4.0856     1.15732     2.92827
    4          C          -0.085273        4.0853     1.15395     2.93132
    5          C          -0.070344        4.0703     1.15078     2.91956
    6          C          -0.061056        4.0611     1.14565     2.91541
    7          C          -0.114045        4.1140     1.13950     2.97455
    8          C          -0.105815        4.1058     1.13766     2.96815
    9          C          -0.157823        4.1578     1.22010     2.93773
   10          C          -0.158252        4.1583     1.22006     2.93820
   11          C          -0.151196        4.1512     1.19747     2.95372
   12          C          -0.150834        4.1508     1.19657     2.95427
   13          H           0.082528        0.9175     0.91747
   14          H           0.081458        0.9185     0.91854
   15          H           0.058040        0.9420     0.94196
   16          H           0.052766        0.9472     0.94723
   17          H           0.053327        0.9467     0.94667
   18          H           0.050679        0.9493     0.94932
   19          H           0.052477        0.9475     0.94752
   20          H           0.051019        0.9490     0.94898
   21          H           0.055497        0.9445     0.94450
   22          H           0.058746        0.9413     0.94125
   23          H           0.036543        0.9635     0.96346
   24          H           0.040108        0.9599     0.95989
   25          H           0.037680        0.9623     0.96232
   26          H           0.041823        0.9582     0.95818
   27          H           0.038376        0.9616     0.96162
   28          H           0.038477        0.9615     0.96152
   29          H           0.101613        0.8984     0.89839
   30          H           0.101528        0.8985     0.89847
   31          H           0.125113        0.8749     0.87489
   32          H           0.125186        0.8748     0.87481
 DIPOLE           X         Y         Z       TOTAL
 POINT-CHG.     0.086     0.196     0.015     0.214
 HYBRID        -0.026    -0.051    -0.004     0.057
 SUM            0.060     0.145     0.011     0.158


          ATOMIC ORBITAL ELECTRON POPULATIONS

     Atom    s        px        py        pz   
    1  C   1.19266   0.97221   0.93338   0.97347
    2  C   1.19233   0.94550   0.96008   0.97313
    3  C   1.15732   0.93871   0.96700   1.02256
    4  C   1.15395   0.97160   0.94061   1.01910
    5  C   1.15078   0.93122   0.96829   1.02004
    6  C   1.14565   0.93406   1.00969   0.97166
    7  C   1.13950   0.99764   0.96520   1.01171
    8  C   1.13766   0.99588   1.00872   0.96356
    9  C   1.22010   0.99317   0.96970   0.97486
   10  C   1.22006   0.98684   0.97560   0.97575
   11  C   1.19747   0.95913   1.00259   0.99200
   12  C   1.19657   0.95753   1.00407   0.99266
   13  H   0.91747
   14  H   0.91854
   15  H   0.94196
   16  H   0.94723
   17  H   0.94667
   18  H   0.94932
   19  H   0.94752
   20  H   0.94898
   21  H   0.94450
   22  H   0.94125
   23  H   0.96346
   24  H   0.95989
   25  H   0.96232
   26  H   0.95818
   27  H   0.96162
   28  H   0.96152
   29  H   0.89839
   30  H   0.89847
   31  H   0.87489
   32  H   0.87481
 *******************************************************************************
 **                                                                           **
 **                              MOPAC v23.1.2                                **
 **                                                                           **
 *******************************************************************************
 **          Digital Object Identifier (DOI): 10.5281/zenodo.6511958          **
 **    Visit the DOI location for information on how to cite this program.    **
 *******************************************************************************

                              PM3 CALCULATION RESULTS

 *******************************************************************************
 *  CALCULATION DONE: (MAX THREADS = 1)              Tue Jun  3 16:41:00 2025  *
 *  PM3        - The PM3 Hamiltonian to be used
 *  OLDGEO     - PREVIOUS GEOMETRY TO BE USED
 *  PRECISE    - TIGHTER CRITERIA TO BE USED
 *  NOSYM      - POINT-GROUP SYMMETRY SET TO C1
 *  THREADS=1  - MULTI-THREADING NOT USED
 *  T=         - A TIME OF 172800.0 SECONDS REQUESTED
 *  DUMP=N     - RESTART FILE WRITTEN EVERY 7200.0 SECONDS REQUESTED
 *  THERMO     - THERMODYNAMIC QUANTITIES TO BE CALCULATED
 *******************************************************************************
oldgeo thermo nosym precise THREADS=1  pm3
 InChI=1S/C12H20/c1-3-5-6-7-8-12-10-9-11(12)4-2/h5-6,9-12H,3-4,7-8H2,1-2H3

   ATOM   CHEMICAL          X               Y               Z
  NUMBER   SYMBOL      (ANGSTROMS)     (ANGSTROMS)     (ANGSTROMS)

     1       C         -2.47370684  *  -0.61576715  *   0.45472580  *
     2       C         -1.77849383  *  -0.95614814  *  -0.92900421  *
     3       C         -0.27329318  *  -1.08764820  *  -0.90562426  *
     4       C         -3.40642483  *   0.57341280  *   0.45801555  *
     5       C          0.40126651  *   0.27535234  *  -0.83800672  *
     6       C          4.17129297  *   0.64431649  *  -0.07143540  *
     7       C         -2.64553029  *   1.88051094  *   0.45813060  *
     8       C          4.75865543  *   0.29226998  *   1.27847761  *
     9       C         -3.15334876  *  -1.97237124  *   0.30998904  *
    10       C         -2.54344726  *  -2.27236106  *  -0.85252763  *
    11       C          2.68815828  *   0.74468997  *  -0.00654431  *
    12       C          1.88200209  *   0.14328714  *  -0.88216796  *
    13       H         -1.75796506  *  -0.56446539  *   1.30242653  *
    14       H         -2.11023713  *  -0.29637136  *  -1.75861274  *
    15       H          0.04679158  *  -1.70949320  *  -0.04614852  *
    16       H          0.05621630  *  -1.63559205  *  -1.81092981  *
    17       H         -4.08531003  *   0.53013945  *  -0.41682018  *
    18       H         -4.06232470  *   0.51238704  *   1.34875693  *
    19       H          4.57116349  *   1.61781068  *  -0.42046760  *
    20       H          4.49001264  *  -0.09933627  *  -0.82919825  *
    21       H          0.07606218  *   0.90764778  *  -1.69008939  *
    22       H          0.06644472  *   0.81311831  *   0.07466445  *
    23       H          5.85438444  *   0.24890966  *   1.23507150  *
    24       H          4.40444430  *  -0.68537552  *   1.63001976  *
    25       H          4.48879662  *   1.03127681  *   2.04462098  *
    26       H         -2.02025473  *   1.97989207  *  -0.44117337  *
    27       H         -3.32741239  *   2.73954835  *   0.48405392  *
    28       H         -1.97718788  *   1.96165624  *   1.32623129  *
    29       H          2.28432366  *   1.35656847  *   0.81044149  *
    30       H          2.28517532  *  -0.47855484  *  -1.69197419  *
    31       H         -3.87196870  *  -2.45737132  *   0.95655739  *
    32       H         -2.54078692  *  -3.11318425  *  -1.53274631  *



          CARTESIAN COORDINATES 

    NO.       ATOM           X           Y           Z

     1         C         -2.4737     -0.6158      0.4547
     2         C         -1.7785     -0.9561     -0.9290
     3         C         -0.2733     -1.0876     -0.9056
     4         C         -3.4064      0.5734      0.4580
     5         C          0.4013      0.2754     -0.8380
     6         C          4.1713      0.6443     -0.0714
     7         C         -2.6455      1.8805      0.4581
     8         C          4.7587      0.2923      1.2785
     9         C         -3.1533     -1.9724      0.3100
    10         C         -2.5434     -2.2724     -0.8525
    11         C          2.6882      0.7447     -0.0065
    12         C          1.8820      0.1433     -0.8822
    13         H         -1.7580     -0.5645      1.3024
    14         H         -2.1102     -0.2964     -1.7586
    15         H          0.0468     -1.7095     -0.0461
    16         H          0.0562     -1.6356     -1.8109
    17         H         -4.0853      0.5301     -0.4168
    18         H         -4.0623      0.5124      1.3488
    19         H          4.5712      1.6178     -0.4205
    20         H          4.4900     -0.0993     -0.8292
    21         H          0.0761      0.9076     -1.6901
    22         H          0.0664      0.8131      0.0747
    23         H          5.8544      0.2489      1.2351
    24         H          4.4044     -0.6854      1.6300
    25         H          4.4888      1.0313      2.0446
    26         H         -2.0203      1.9799     -0.4412
    27         H         -3.3274      2.7395      0.4841
    28         H         -1.9772      1.9617      1.3262
    29         H          2.2843      1.3566      0.8104
    30         H          2.2852     -0.4786     -1.6920
    31         H         -3.8720     -2.4574      0.9566
    32         H         -2.5408     -3.1132     -1.5327

  H: (PM3): J. J. P. STEWART, J. COMP. CHEM. 10, 209 (1989).
  C: (PM3): J. J. P. STEWART, J. COMP. CHEM. 10, 209 (1989).

           Empirical Formula: C12 H20  =    32 atoms



      MOLECULAR POINT GROUP   :   C1  


      RHF CALCULATION, NO. OF DOUBLY OCCUPIED LEVELS = 34



          HEAT OF FORMATION =      17.852632 KCALS/MOLE


          CARTESIAN COORDINATE DERIVATIVES

   NUMBER  ATOM         X            Y            Z

     1       C      0.002909    -0.001319    -0.000779
     2       C     -0.001632    -0.001554    -0.001714
     3       C     -0.003023    -0.002338     0.001515
     4       C     -0.001414    -0.001128    -0.002285
     5       C     -0.002570    -0.001796     0.003744
     6       C     -0.001568    -0.010965    -0.004477
     7       C      0.001468     0.000311     0.002619
     8       C      0.003363     0.006497    -0.004667
     9       C     -0.001321    -0.000535     0.001091
    10       C     -0.002656    -0.005224    -0.003735
    11       C      0.006179    -0.019648     0.007766
    12       C     -0.005964     0.019266    -0.005668
    13       H     -0.001113    -0.002731     0.002850
    14       H     -0.000337     0.000093    -0.002586
    15       H      0.000106    -0.002443    -0.000679
    16       H     -0.001776     0.004691     0.003222
    17       H     -0.002986    -0.000828    -0.001044
    18       H      0.003988     0.005757    -0.002615
    19       H     -0.004206    -0.005171    -0.008430
    20       H      0.004300     0.001308    -0.001229
    21       H      0.000300     0.004766     0.005070
    22       H      0.003035     0.004208     0.001431
    23       H      0.001345     0.004132    -0.003558
    24       H      0.005199     0.008616     0.009950
    25       H     -0.009287     0.002087    -0.000678
    26       H      0.004836     0.010185     0.003469
    27       H      0.002620    -0.001751     0.001238
    28       H     -0.002192    -0.006315    -0.003792
    29       H      0.007138    -0.000437     0.007676
    30       H     -0.005523    -0.004151    -0.003663
    31       H     -0.001331    -0.003949    -0.000378
    32       H      0.002112     0.000368     0.000334



          GRADIENT NORM =   0.04840

          MOLECULAR WEIGHT =  164.29



          ROTATIONAL CONSTANTS IN CM(-1)

          A =    0.05396974   B =    0.01149540   C =    0.01047033



           PRINCIPAL MOMENTS OF INERTIA IN UNITS OF 10**(-40)*GRAM-CM**2

          A =      518.6750   B =     2435.1260   C =     2673.5317


          ORIENTATION OF MOLECULE IN FORCE CALCULATION

    NO.       ATOM         X         Y         Z

     1          C      -1.4086   -1.8254    0.7645
     2          C       0.1769   -1.8254    0.7645
     3          C       0.8447   -0.4699    0.7645
     4          C      -2.0758   -2.6477   -0.3138
     5          C       0.7889    0.1756   -0.6130
     6          C       1.6937    3.8935   -1.1564
     7          C      -2.0229   -1.9557   -1.6576
     8          C       0.8487    5.0195   -0.6001
     9          C      -1.2891   -2.5099    2.1212
    10          C       0.0573   -2.4869    2.1326
    11          C       0.9652    2.5969   -1.1106
    12          C       1.5050    1.4791   -0.6235
    13          H      -1.8456   -0.8057    0.8172
    14          H       0.6138   -2.4873   -0.0130
    15          H       0.3685    0.1953    1.5119
    16          H       1.8969   -0.5848    1.0933
    17          H      -1.6007   -3.6465   -0.3829
    18          H      -3.1277   -2.8366   -0.0218
    19          H       1.9647    4.1036   -2.2108
    20          H       2.6544    3.8332   -0.6066
    21          H       1.2542   -0.4908   -1.3687
    22          H      -0.2699    0.2890   -0.9299
    23          H       1.3764    5.9797   -0.6630
    24          H       0.5965    4.8513    0.4549
    25          H      -0.0969    5.1272   -1.1479
    26          H      -0.9852   -1.7978   -1.9860
    27          H      -2.5289   -2.5465   -2.4312
    28          H      -2.5048   -0.9690   -1.6259
    29          H      -0.0562    2.6065   -1.5125
    30          H       2.5220    1.4721   -0.2104
    31          H      -2.0644   -2.8677    2.7850
    32          H       0.8326   -2.7961    2.8203


    FIRST DERIVATIVES WILL BE USED IN THE CALCULATION OF SECOND DERIVATIVES

          ESTIMATED TIME TO COMPLETE CALCULATION =        4.50 SECONDS

    FOR POINT-GROUP C1   THERE ARE   1 UNIQUE SYMMETRY FUNCTIONS.

 STEP:   1 TIME =     0.04 SECS, INTEGRAL =      0.04 TIME LEFT: 172799.95
 STEP:   2 TIME =     0.04 SECS, INTEGRAL =      0.08 TIME LEFT: 172799.91
 STEP:   3 TIME =     0.04 SECS, INTEGRAL =      0.12 TIME LEFT: 172799.87
 STEP:   4 TIME =     0.04 SECS, INTEGRAL =      0.15 TIME LEFT: 172799.84
 STEP:   5 TIME =     0.04 SECS, INTEGRAL =      0.19 TIME LEFT: 172799.80
 STEP:   6 TIME =     0.04 SECS, INTEGRAL =      0.23 TIME LEFT: 172799.76
 STEP:   7 TIME =     0.04 SECS, INTEGRAL =      0.27 TIME LEFT: 172799.72
 STEP:   8 TIME =     0.04 SECS, INTEGRAL =      0.30 TIME LEFT: 172799.68
 STEP:   9 TIME =     0.04 SECS, INTEGRAL =      0.34 TIME LEFT: 172799.65
 STEP:  10 TIME =     0.04 SECS, INTEGRAL =      0.38 TIME LEFT: 172799.61
 STEP:  11 TIME =     0.04 SECS, INTEGRAL =      0.41 TIME LEFT: 172799.57
 STEP:  12 TIME =     0.04 SECS, INTEGRAL =      0.45 TIME LEFT: 172799.54
 STEP:  13 TIME =     0.04 SECS, INTEGRAL =      0.49 TIME LEFT: 172799.50
 STEP:  14 TIME =     0.04 SECS, INTEGRAL =      0.52 TIME LEFT: 172799.46
 STEP:  15 TIME =     0.04 SECS, INTEGRAL =      0.56 TIME LEFT: 172799.43
 STEP:  16 TIME =     0.04 SECS, INTEGRAL =      0.59 TIME LEFT: 172799.39
 STEP:  17 TIME =     0.04 SECS, INTEGRAL =      0.63 TIME LEFT: 172799.36
 STEP:  18 TIME =     0.04 SECS, INTEGRAL =      0.67 TIME LEFT: 172799.32
 STEP:  19 TIME =     0.04 SECS, INTEGRAL =      0.71 TIME LEFT: 172799.27
 STEP:  20 TIME =     0.04 SECS, INTEGRAL =      0.75 TIME LEFT: 172799.23
 STEP:  21 TIME =     0.04 SECS, INTEGRAL =      0.79 TIME LEFT: 172799.20
 STEP:  22 TIME =     0.04 SECS, INTEGRAL =      0.83 TIME LEFT: 172799.16
 STEP:  23 TIME =     0.04 SECS, INTEGRAL =      0.86 TIME LEFT: 172799.12
 STEP:  24 TIME =     0.04 SECS, INTEGRAL =      0.90 TIME LEFT: 172799.09
 STEP:  25 TIME =     0.04 SECS, INTEGRAL =      0.94 TIME LEFT: 172799.05
 STEP:  26 TIME =     0.04 SECS, INTEGRAL =      0.98 TIME LEFT: 172799.01
 STEP:  27 TIME =     0.04 SECS, INTEGRAL =      1.02 TIME LEFT: 172798.97
 STEP:  28 TIME =     0.04 SECS, INTEGRAL =      1.05 TIME LEFT: 172798.94
 STEP:  29 TIME =     0.04 SECS, INTEGRAL =      1.09 TIME LEFT: 172798.90
 STEP:  30 TIME =     0.04 SECS, INTEGRAL =      1.13 TIME LEFT: 172798.86
 STEP:  31 TIME =     0.04 SECS, INTEGRAL =      1.16 TIME LEFT: 172798.82
 STEP:  32 TIME =     0.04 SECS, INTEGRAL =      1.20 TIME LEFT: 172798.79
 STEP:  33 TIME =     0.04 SECS, INTEGRAL =      1.24 TIME LEFT: 172798.75
 STEP:  34 TIME =     0.04 SECS, INTEGRAL =      1.28 TIME LEFT: 172798.71
 STEP:  35 TIME =     0.04 SECS, INTEGRAL =      1.31 TIME LEFT: 172798.68
 STEP:  36 TIME =     0.04 SECS, INTEGRAL =      1.36 TIME LEFT: 172798.63
 STEP:  37 TIME =     0.04 SECS, INTEGRAL =      1.39 TIME LEFT: 172798.59
 STEP:  38 TIME =     0.04 SECS, INTEGRAL =      1.43 TIME LEFT: 172798.56
 STEP:  39 TIME =     0.04 SECS, INTEGRAL =      1.47 TIME LEFT: 172798.52
 STEP:  40 TIME =     0.04 SECS, INTEGRAL =      1.50 TIME LEFT: 172798.48
 STEP:  41 TIME =     0.04 SECS, INTEGRAL =      1.54 TIME LEFT: 172798.45
 STEP:  42 TIME =     0.04 SECS, INTEGRAL =      1.58 TIME LEFT: 172798.41
 STEP:  43 TIME =     0.04 SECS, INTEGRAL =      1.62 TIME LEFT: 172798.37
 STEP:  44 TIME =     0.04 SECS, INTEGRAL =      1.66 TIME LEFT: 172798.33
 STEP:  45 TIME =     0.04 SECS, INTEGRAL =      1.70 TIME LEFT: 172798.29
 STEP:  46 TIME =     0.04 SECS, INTEGRAL =      1.74 TIME LEFT: 172798.25
 STEP:  47 TIME =     0.04 SECS, INTEGRAL =      1.78 TIME LEFT: 172798.21
 STEP:  48 TIME =     0.04 SECS, INTEGRAL =      1.82 TIME LEFT: 172798.17
 STEP:  49 TIME =     0.04 SECS, INTEGRAL =      1.86 TIME LEFT: 172798.13
 STEP:  50 TIME =     0.04 SECS, INTEGRAL =      1.89 TIME LEFT: 172798.10
 STEP:  51 TIME =     0.04 SECS, INTEGRAL =      1.93 TIME LEFT: 172798.06
 STEP:  52 TIME =     0.04 SECS, INTEGRAL =      1.96 TIME LEFT: 172798.02
 STEP:  53 TIME =     0.04 SECS, INTEGRAL =      2.01 TIME LEFT: 172797.98
 STEP:  54 TIME =     0.04 SECS, INTEGRAL =      2.05 TIME LEFT: 172797.94
 STEP:  55 TIME =     0.04 SECS, INTEGRAL =      2.09 TIME LEFT: 172797.90
 STEP:  56 TIME =     0.04 SECS, INTEGRAL =      2.12 TIME LEFT: 172797.86
 STEP:  57 TIME =     0.04 SECS, INTEGRAL =      2.16 TIME LEFT: 172797.82
 STEP:  58 TIME =     0.04 SECS, INTEGRAL =      2.20 TIME LEFT: 172797.79
 STEP:  59 TIME =     0.04 SECS, INTEGRAL =      2.24 TIME LEFT: 172797.75
 STEP:  60 TIME =     0.04 SECS, INTEGRAL =      2.28 TIME LEFT: 172797.71
 STEP:  61 TIME =     0.04 SECS, INTEGRAL =      2.31 TIME LEFT: 172797.68
 STEP:  62 TIME =     0.04 SECS, INTEGRAL =      2.35 TIME LEFT: 172797.64
 STEP:  63 TIME =     0.04 SECS, INTEGRAL =      2.38 TIME LEFT: 172797.61
 STEP:  64 TIME =     0.04 SECS, INTEGRAL =      2.42 TIME LEFT: 172797.57
 STEP:  65 TIME =     0.04 SECS, INTEGRAL =      2.46 TIME LEFT: 172797.53
 STEP:  66 TIME =     0.04 SECS, INTEGRAL =      2.50 TIME LEFT: 172797.49
 STEP:  67 TIME =     0.04 SECS, INTEGRAL =      2.54 TIME LEFT: 172797.45
 STEP:  68 TIME =     0.04 SECS, INTEGRAL =      2.57 TIME LEFT: 172797.42
 STEP:  69 TIME =     0.04 SECS, INTEGRAL =      2.61 TIME LEFT: 172797.38
 STEP:  70 TIME =     0.04 SECS, INTEGRAL =      2.66 TIME LEFT: 172797.33
 STEP:  71 TIME =     0.04 SECS, INTEGRAL =      2.70 TIME LEFT: 172797.29
 STEP:  72 TIME =     0.04 SECS, INTEGRAL =      2.73 TIME LEFT: 172797.25
 STEP:  73 TIME =     0.04 SECS, INTEGRAL =      2.77 TIME LEFT: 172797.21
 STEP:  74 TIME =     0.04 SECS, INTEGRAL =      2.82 TIME LEFT: 172797.17
 STEP:  75 TIME =     0.04 SECS, INTEGRAL =      2.86 TIME LEFT: 172797.13
 STEP:  76 TIME =     0.04 SECS, INTEGRAL =      2.89 TIME LEFT: 172797.10
 STEP:  77 TIME =     0.04 SECS, INTEGRAL =      2.93 TIME LEFT: 172797.06
 STEP:  78 TIME =     0.04 SECS, INTEGRAL =      2.97 TIME LEFT: 172797.02
 STEP:  79 TIME =     0.04 SECS, INTEGRAL =      3.01 TIME LEFT: 172796.98
 STEP:  80 TIME =     0.04 SECS, INTEGRAL =      3.05 TIME LEFT: 172796.94
 STEP:  81 TIME =     0.04 SECS, INTEGRAL =      3.09 TIME LEFT: 172796.90
 STEP:  82 TIME =     0.04 SECS, INTEGRAL =      3.12 TIME LEFT: 172796.86
 STEP:  83 TIME =     0.04 SECS, INTEGRAL =      3.16 TIME LEFT: 172796.83
 STEP:  84 TIME =     0.04 SECS, INTEGRAL =      3.20 TIME LEFT: 172796.79
 STEP:  85 TIME =     0.04 SECS, INTEGRAL =      3.23 TIME LEFT: 172796.75
 STEP:  86 TIME =     0.04 SECS, INTEGRAL =      3.27 TIME LEFT: 172796.71
 STEP:  87 TIME =     0.04 SECS, INTEGRAL =      3.32 TIME LEFT: 172796.67
 STEP:  88 TIME =     0.04 SECS, INTEGRAL =      3.36 TIME LEFT: 172796.63
 STEP:  89 TIME =     0.04 SECS, INTEGRAL =      3.40 TIME LEFT: 172796.59
 STEP:  90 TIME =     0.04 SECS, INTEGRAL =      3.44 TIME LEFT: 172796.55
 STEP:  91 TIME =     0.04 SECS, INTEGRAL =      3.47 TIME LEFT: 172796.52
 STEP:  92 TIME =     0.04 SECS, INTEGRAL =      3.52 TIME LEFT: 172796.47
 STEP:  93 TIME =     0.04 SECS, INTEGRAL =      3.55 TIME LEFT: 172796.43
 STEP:  94 TIME =     0.04 SECS, INTEGRAL =      3.59 TIME LEFT: 172796.39
 STEP:  95 TIME =     0.04 SECS, INTEGRAL =      3.63 TIME LEFT: 172796.36
 STEP:  96 TIME =     0.04 SECS, INTEGRAL =      3.67 TIME LEFT: 172796.32

(To convert to Hartree/Bohr^2, multiply by (10^(-21) x N x a0^2)/(4.184 x 627.51) =  0.0642)


           FORCE MATRIX IN MILLIDYNES/ANGSTROM


                  C  1       C  2       C  3       C  4       C  5       C  6
 ------------------------------------------------------------------------------
     C    1  14.327041
     C    2   2.592730  14.329663
     C    3   0.480888   4.388173  14.451568
     C    4   4.383874   0.481086   0.029900  14.508640
     C    5   0.029764   0.654955   4.108143   0.001961  14.646375
     C    6   0.000376   0.003437   0.019590   0.000360   0.146771  14.690892
     C    7   0.669590   0.027506   0.001564   4.459812   0.019687   0.000244
     C    8   0.000207   0.001098   0.003809   0.000145   0.019383   4.412419
     C    9   3.927318   2.229361   0.048760   0.549802   0.007787   0.000314
     C   10   2.229792   3.925999   0.549942   0.048412   0.049102   0.000777
     C   11   0.000993   0.007668   0.040471   0.000398   0.827943   4.964294
     C   12   0.002079   0.054987   0.697664   0.000969   4.982953   0.822855
     H   13   4.399890   0.422778   0.024955   0.435117   0.008671   0.000205
     H   14   0.422445   4.396971   0.435390   0.025177   0.030008   0.000176
     H   15   0.020682   0.450043   4.463440   0.001236   0.441254   0.000680
     H   16   0.043353   0.432467   4.447224   0.005706   0.448850   0.000618
     H   17   0.450573   0.020867   0.001173   4.455156   0.000358   0.000100
     H   18   0.432495   0.043745   0.005827   4.462984   0.000628   0.000094
     H   19   0.000139   0.000246   0.002370   0.000118   0.020544   4.419950
     H   20   0.000074   0.000128   0.000447   0.000078   0.003300   4.440815
     H   21   0.002388   0.030324   0.453607   0.000720   4.388573   0.020463
     H   22   0.006847   0.025778   0.440022   0.003022   4.368636   0.003405
     H   23   0.000065   0.000285   0.000807   0.000060   0.003237   0.450056
     H   24   0.000045   0.000104   0.000225   0.000043   0.000798   0.461208
     H   25   0.000033   0.000100   0.000162   0.000042   0.000678   0.464758
     H   26   0.019490   0.006201   0.002276   0.462796   0.008110   0.000205
     H   27   0.052616   0.001886   0.000341   0.450743   0.001357   0.000081
     H   28   0.025459   0.002393   0.000726   0.464370   0.005320   0.000111
     H   29   0.000375   0.001935   0.008578   0.000465   0.084765   0.431052
     H   30   0.000504   0.001899   0.027558   0.000224   0.430683   0.085241
     H   31   0.341160   0.117856   0.017010   0.010774   0.002653   0.000156
     H   32   0.117356   0.341434   0.010609   0.016846   0.002015   0.000145


                  C  7       C  8       C  9       C 10       C 11       C 12
 ------------------------------------------------------------------------------
     C    7  14.349201
     C    8   0.000141  14.347923
     C    9   0.049894   0.000268  18.377096
     C   10   0.008451   0.000516  10.392975  18.376209
     C   11   0.000304   0.715972   0.000694   0.001368  18.188229
     C   12   0.001673   0.041613   0.001793   0.011215  10.695350  18.198269
     H   13   0.027708   0.000117   0.413516   0.043034   0.000387   0.000903
     H   14   0.007526   0.000111   0.043136   0.413596   0.000640   0.001827
     H   15   0.000405   0.000258   0.003072   0.015391   0.002363   0.020183
     H   16   0.000438   0.000186   0.003434   0.015905   0.001849   0.033140
     H   17   0.436964   0.000037   0.015641   0.003023   0.000133   0.000250
     H   18   0.440840   0.000042   0.015855   0.003499   0.000111   0.000450
     H   19   0.000114   0.446225   0.000169   0.000216   0.409303   0.031278
     H   20   0.000057   0.435076   0.000073   0.000163   0.460560   0.050108
     H   21   0.005055   0.002091   0.000789   0.001534   0.031218   0.410522
     H   22   0.006120   0.000615   0.001002   0.001634   0.049311   0.459052
     H   23   0.000051   4.749446   0.000093   0.000149   0.052455   0.007088
     H   24   0.000040   4.746390   0.000095   0.000124   0.015889   0.002386
     H   25   0.000031   4.724605   0.000060   0.000089   0.027471   0.001998
     H   26   4.673600   0.000150   0.001591   0.000974   0.000236   0.000826
     H   27   4.761291   0.000044   0.008982   0.001392   0.000083   0.000455
     H   28   4.710834   0.000082   0.001462   0.000839   0.000176   0.000539
     H   29   0.000406   0.026220   0.000500   0.000655   4.761382   0.469291
     H   30   0.000376   0.008768   0.000362   0.001141   0.469291   4.759199
     H   31   0.002383   0.000142   5.277291   0.422801   0.000166   0.001260
     H   32   0.002659   0.000178   0.422802   5.277277   0.000383   0.001258


                  H 13       H 14       H 15       H 16       H 17       H 18
 ------------------------------------------------------------------------------
     H   13   4.919845
     H   14   0.022621   4.917417
     H   15   0.021659   0.043048   5.072213
     H   16   0.002462   0.024102   0.569179   5.059018
     H   17   0.043170   0.021722   0.000486   0.000392   5.066244
     H   18   0.024639   0.002444   0.000433   0.001281   0.570544   5.068563
     H   19   0.000080   0.000075   0.000216   0.000138   0.000033   0.000035
     H   20   0.000060   0.000049   0.000154   0.000187   0.000019   0.000024
     H   21   0.000584   0.024349   0.046726   0.022110   0.000229   0.000214
     H   22   0.011064   0.001999   0.025283   0.046116   0.000353   0.000341
     H   23   0.000050   0.000039   0.000087   0.000065   0.000018   0.000015
     H   24   0.000058   0.000040   0.000070   0.000039   0.000012   0.000011
     H   25   0.000047   0.000022   0.000046   0.000046   0.000009   0.000008
     H   26   0.001999   0.008789   0.000283   0.000268   0.025355   0.049120
     H   27   0.001990   0.000536   0.000152   0.000112   0.029508   0.029403
     H   28   0.021035   0.000569   0.000258   0.000194   0.048244   0.023256
     H   29   0.000344   0.000190   0.000505   0.000612   0.000133   0.000128
     H   30   0.000343   0.000692   0.002583   0.023196   0.000054   0.000115
     H   31   0.005805   0.014670   0.001312   0.001177   0.002077   0.004054
     H   32   0.014687   0.005805   0.002099   0.004098   0.001309   0.001177


                  H 19       H 20       H 21       H 22       H 23       H 24
 ------------------------------------------------------------------------------
     H   19   5.017856
     H   20   0.567095   5.052117
     H   21   0.003563   0.000783   4.993766
     H   22   0.000877   0.000491   0.566407   4.981239
     H   23   0.028654   0.030111   0.000272   0.000160   5.487299
     H   24   0.049395   0.024662   0.000214   0.000179   0.574595   5.484480
     H   25   0.023667   0.047918   0.000141   0.000212   0.573688   0.578255
     H   26   0.000111   0.000035   0.007905   0.020745   0.000054   0.000035
     H   27   0.000033   0.000017   0.000307   0.000685   0.000013   0.000012
     H   28   0.000056   0.000035   0.000300   0.007971   0.000029   0.000028
     H   29   0.017319   0.039093   0.009982   0.030038   0.002067   0.002629
     H   30   0.010080   0.030095   0.017244   0.038385   0.001733   0.000493
     H   31   0.000087   0.000048   0.000219   0.000489   0.000044   0.000055
     H   32   0.000098   0.000069   0.000636   0.000588   0.000048   0.000068


                  H 25       H 26       H 27       H 28       H 29       H 30
 ------------------------------------------------------------------------------
     H   25   5.470029
     H   26   0.000031   5.408570
     H   27   0.000011   0.564846   5.491795
     H   28   0.000026   0.579465   0.569620   5.454068
     H   29   0.020343   0.000254   0.000109   0.000160   5.142871
     H   30   0.000604   0.000260   0.000139   0.000171   0.106173   5.141427
     H   31   0.000034   0.000616   0.000586   0.000662   0.000193   0.000281
     H   32   0.000048   0.000433   0.000626   0.000208   0.000207   0.000483


                  H 31       H 32
 ------------------------------
     H   31   5.662827
     H   32   0.031246   5.662924


          HEAT OF FORMATION =      17.852632 KCALS/MOLE

          ZERO POINT ENERGY     179.801 KCAL/MOL


           NORMAL COORDINATE ANALYSIS (Total motion = 1 Angstrom)


   Root No.       1         2         3         4         5         6         7         8

                 1 A       2 A       3 A       4 A       5 A       6 A       7 A       8 A   

                  27.8      32.5      64.0      72.4      88.3     104.9     132.6     183.9
  
           1   -0.0004   -0.0041   -0.0021    0.0053   -0.0111    0.0095   -0.0038    0.0023
           2    0.0087   -0.0194    0.0019    0.0077    0.0047    0.0068    0.0042    0.0035
           3   -0.0051    0.0008   -0.0027    0.0007    0.0110   -0.0135   -0.0044   -0.0029
           4   -0.0004   -0.0042   -0.0021    0.0052   -0.0111    0.0098   -0.0031    0.0028
           5    0.0069    0.0060   -0.0014   -0.0110    0.0013   -0.0125   -0.0012   -0.0000
           6    0.0020    0.0025   -0.0097    0.0029   -0.0133   -0.0052   -0.0081   -0.0002
           7    0.0011   -0.0245    0.0014    0.0190   -0.0087    0.0260    0.0028    0.0033
           8    0.0060    0.0160   -0.0033   -0.0178    0.0002   -0.0203   -0.0030    0.0006
           9   -0.0121    0.0051   -0.0180   -0.0004   -0.0065   -0.0034    0.0081    0.0102
          10    0.0038    0.0109   -0.0074   -0.0016   -0.0273    0.0061   -0.0117   -0.0026
          11   -0.0055   -0.0272   -0.0112    0.0176    0.0083   -0.0100   -0.0028    0.0015
          12    0.0032   -0.0025    0.0104   -0.0026    0.0181    0.0011    0.0053    0.0014
          13    0.0043   -0.0336   -0.0021   -0.0237   -0.0020   -0.0117    0.0280    0.0196
          14   -0.0083    0.0184   -0.0033   -0.0000    0.0090    0.0106    0.0004   -0.0043
          15   -0.0190    0.0066   -0.0179    0.0096   -0.0027    0.0130    0.0094    0.0074
          16   -0.0116    0.0163    0.0102   -0.0098    0.0089    0.0058   -0.0119   -0.0132
          17   -0.0021    0.0038    0.0026   -0.0067    0.0078    0.0048    0.0062   -0.0017
          18   -0.0054   -0.0124    0.0386   -0.0074    0.0014   -0.0016   -0.0177   -0.0179
          19    0.0111    0.0005   -0.0070    0.0350    0.0287   -0.0245   -0.0121   -0.0073
          20   -0.0242   -0.0211   -0.0310    0.0067   -0.0266   -0.0194   -0.0209   -0.0075
          21   -0.0062    0.0003    0.0004   -0.0069    0.0025   -0.0047   -0.0036   -0.0031
          22    0.0091    0.0447   -0.0013    0.0108   -0.0026    0.0008    0.0074    0.0134
          23   -0.0151    0.0178    0.0216    0.0094   -0.0041   -0.0022    0.0152    0.0089
          24    0.0526    0.0023   -0.0176   -0.0089    0.0085    0.0053   -0.0071   -0.0005
          25   -0.0073    0.0053    0.0022   -0.0047    0.0082   -0.0062   -0.0026   -0.0011
          26    0.0270   -0.0208    0.0161    0.0058   -0.0036    0.0278    0.0026    0.0002
          27    0.0047   -0.0007    0.0041    0.0005    0.0053   -0.0016   -0.0052   -0.0042
          28   -0.0073    0.0050    0.0024   -0.0044    0.0085   -0.0059   -0.0024   -0.0010
          29    0.0251    0.0013    0.0101   -0.0092   -0.0108    0.0029   -0.0106   -0.0077
          30    0.0102    0.0010   -0.0035    0.0029   -0.0174    0.0013   -0.0126   -0.0043
          31   -0.0089   -0.0043   -0.0008   -0.0214    0.0122    0.0058   -0.0038   -0.0171
          32   -0.0036    0.0157    0.0085    0.0007    0.0050    0.0041    0.0033    0.0010
          33   -0.0030   -0.0011    0.0316    0.0163   -0.0224   -0.0164    0.0224    0.0092
          34    0.0037   -0.0170    0.0069   -0.0156   -0.0058   -0.0140    0.0132   -0.0017
          35   -0.0080    0.0092   -0.0080   -0.0049    0.0114    0.0121    0.0091    0.0069
          36   -0.0273   -0.0019   -0.0147   -0.0027    0.0122    0.0238    0.0177    0.0065
          37    0.0005   -0.0205   -0.0003    0.0172   -0.0084    0.0199   -0.0010    0.0047
          38    0.0099   -0.0265    0.0031    0.0128    0.0052    0.0123    0.0052    0.0045
          39   -0.0210    0.0030   -0.0134    0.0012    0.0200   -0.0351   -0.0076   -0.0039
          40    0.0024    0.0068   -0.0064   -0.0017   -0.0236    0.0070   -0.0065    0.0034
          41   -0.0036    0.0138   -0.0070   -0.0167    0.0086   -0.0206    0.0052    0.0046
          42    0.0125    0.0019   -0.0072    0.0038   -0.0265    0.0006   -0.0153   -0.0036
          43    0.0005   -0.0336    0.0072    0.0505   -0.0092    0.0587   -0.0074   -0.0080
          44    0.0147    0.0076   -0.0004   -0.0234   -0.0026   -0.0300   -0.0039    0.0011
          45   -0.0201    0.0068   -0.0167    0.0246   -0.0043    0.0262    0.0022    0.0025
          46    0.0004   -0.0228    0.0027    0.0291   -0.0099    0.0355   -0.0031   -0.0012
          47    0.0087    0.0298   -0.0060   -0.0316   -0.0042   -0.0398   -0.0077    0.0027
          48   -0.0091    0.0048   -0.0229   -0.0380   -0.0040   -0.0403    0.0252    0.0247
          49    0.0029    0.0282   -0.0110   -0.0264   -0.0687    0.0198   -0.0182   -0.0059
          50   -0.0070   -0.0187   -0.0139    0.0048   -0.0136   -0.0036   -0.0067   -0.0003
          51    0.0193   -0.0057    0.0242    0.0109    0.0510    0.0015    0.0161    0.0049
          52    0.0021    0.0138   -0.0075   -0.0105   -0.0408    0.0131   -0.0120   -0.0021
          53   -0.0002   -0.0464   -0.0033    0.0468    0.0604   -0.0236    0.0072    0.0062
          54    0.0007   -0.0043    0.0150   -0.0158    0.0029    0.0178    0.0108    0.0069
          55   -0.0539    0.0021    0.0547   -0.0227    0.0195    0.0114   -0.0513   -0.0385
          56    0.0206   -0.0002   -0.0194   -0.0219    0.0236    0.0154   -0.0107   -0.0085
          57   -0.0116   -0.0168    0.0455   -0.0138    0.0073    0.0020   -0.0314   -0.0258
          58    0.0104    0.0245   -0.0125   -0.0026    0.0031    0.0028    0.0086    0.0008
          59   -0.0126   -0.0123    0.0043   -0.0105    0.0045    0.0009    0.0177   -0.0070
          60   -0.0449   -0.0286    0.0785   -0.0205    0.0111    0.0032   -0.0523   -0.0427
          61    0.0065   -0.0501   -0.0097   -0.0547    0.0061   -0.0304    0.0525    0.0453
          62   -0.0155    0.0138   -0.0052    0.0051    0.0157    0.0279    0.0064   -0.0005
          63   -0.0112    0.0002   -0.0207   -0.0143   -0.0037   -0.0138    0.0192    0.0197
          64    0.0051   -0.0358   -0.0027   -0.0339    0.0000   -0.0198    0.0334    0.0235
          65   -0.0118    0.0308    0.0037    0.0110    0.0069    0.0164   -0.0132   -0.0246
          66   -0.0229    0.0189   -0.0131    0.0470   -0.0099    0.0423   -0.0137   -0.0131
          67    0.0070    0.0594    0.0122    0.0201   -0.0058   -0.0001   -0.0160    0.0909
          68   -0.0138    0.0091    0.0146    0.0029   -0.0009   -0.0008    0.0226   -0.0244
          69    0.0562   -0.0071   -0.0116   -0.0297    0.0300    0.0193   -0.0920    0.1404
          70    0.0476    0.0605   -0.0488    0.0255   -0.0149   -0.0059    0.0903   -0.1055
          71   -0.0404    0.0220    0.0431    0.0259   -0.0216   -0.0143    0.0600   -0.0691
          72    0.0578    0.0068   -0.0255   -0.0028    0.0028    0.0018    0.0197   -0.0412
          73   -0.0109    0.0368    0.0235    0.0034    0.0038    0.0042   -0.0360    0.0770
          74   -0.0020    0.0332    0.0230    0.0124    0.0003    0.0023   -0.0288    0.1277
          75    0.0897    0.0190   -0.0603    0.0045   -0.0015    0.0002    0.0592   -0.0865
          76    0.0128   -0.0017   -0.0068    0.0436    0.0418   -0.0314   -0.0122   -0.0088
          77   -0.0292    0.0029   -0.0312   -0.0239   -0.0773    0.0154   -0.0219   -0.0264
          78   -0.0030    0.0047    0.0009    0.0052    0.0194   -0.0098   -0.0041   -0.0164
          79    0.0148    0.0161   -0.0026    0.0288    0.0194   -0.0065   -0.0092   -0.0264
          80   -0.0348   -0.0291   -0.0445    0.0152   -0.0240   -0.0440   -0.0331   -0.0041
          81   -0.0006   -0.0038    0.0078   -0.0092    0.0066    0.0024    0.0038    0.0068
          82    0.0113   -0.0209   -0.0111    0.0617    0.0697   -0.0598   -0.0152    0.0092
          83   -0.0236   -0.0316   -0.0325    0.0202   -0.0055   -0.0366   -0.0221    0.0006
          84   -0.0224    0.0023   -0.0152   -0.0199   -0.0306   -0.0108   -0.0175   -0.0035
          85   -0.0185   -0.0075   -0.0134   -0.0335    0.0295    0.0228   -0.0120   -0.0239
          86   -0.0000    0.0302    0.0260    0.0100   -0.0014   -0.0023   -0.0080   -0.0023
          87    0.0217    0.0077    0.0643    0.0473   -0.0665   -0.0598    0.0425    0.0274
          88    0.0137   -0.0135    0.0206   -0.0037   -0.0228   -0.0308    0.0175    0.0032
          89   -0.0114   -0.0036   -0.0252   -0.0139    0.0191    0.0204    0.0173    0.0184
          90   -0.0519   -0.0103   -0.0486   -0.0322    0.0546    0.0656    0.0068   -0.0050
          91   -0.0107    0.0104    0.0043   -0.0099    0.0177   -0.0146   -0.0024   -0.0031
          92    0.0372   -0.0353    0.0264    0.0145   -0.0041    0.0525    0.0079    0.0021
          93    0.0062   -0.0026    0.0120   -0.0008    0.0161    0.0018   -0.0020   -0.0056
          94   -0.0107    0.0092    0.0048   -0.0092    0.0187   -0.0134   -0.0016   -0.0028
          95    0.0332    0.0125    0.0131   -0.0181   -0.0206   -0.0026   -0.0221   -0.0163
          96    0.0177    0.0013   -0.0049    0.0043   -0.0333    0.0073   -0.0187   -0.0062


   Root No.       9        10        11        12        13        14        15        16

                 9 A      10 A      11 A      12 A      13 A      14 A      15 A      16 A   

                 195.6     220.8     250.4     278.6     296.6     343.4     401.8     434.0
  
           1   -0.0070    0.0030    0.0167   -0.0107    0.0130   -0.0223   -0.0098    0.0131
           2    0.0089    0.0051    0.0230   -0.0022   -0.0238    0.0141   -0.0173    0.0055
           3    0.0059   -0.0055   -0.0075    0.0002   -0.0147    0.0086   -0.0147   -0.0173
           4   -0.0064    0.0034    0.0150   -0.0130    0.0137   -0.0220   -0.0030    0.0150
           5    0.0056    0.0086    0.0069   -0.0113   -0.0125    0.0362    0.0037    0.0049
           6   -0.0028    0.0019   -0.0054   -0.0233   -0.0098   -0.0091   -0.0150   -0.0009
           7    0.0013    0.0018   -0.0186   -0.0222   -0.0155    0.0219    0.0152    0.0051
           8    0.0023    0.0104    0.0212   -0.0081   -0.0003    0.0068   -0.0002    0.0108
           9    0.0051    0.0159    0.0225   -0.0093   -0.0037   -0.0048    0.0290   -0.0092
          10   -0.0036   -0.0008    0.0098    0.0173   -0.0308    0.0104   -0.0226   -0.0079
          11    0.0070    0.0001    0.0168   -0.0224    0.0075    0.0000   -0.0255   -0.0159
          12    0.0048   -0.0000    0.0019   -0.0015   -0.0110   -0.0030   -0.0041    0.0185
          13   -0.0044   -0.0183   -0.0116   -0.0072   -0.0096    0.0013    0.0142    0.0021
          14    0.0069    0.0175   -0.0085    0.0049    0.0041    0.0023    0.0029    0.0081
          15    0.0076    0.0205    0.0096   -0.0013    0.0034    0.0010    0.0321   -0.0105
          16   -0.0005    0.0065    0.0011   -0.0010   -0.0003   -0.0016   -0.0050    0.0188
          17    0.0018    0.0065   -0.0233   -0.0008   -0.0083   -0.0249   -0.0059   -0.0070
          18   -0.0085   -0.0105    0.0143   -0.0103   -0.0073    0.0034    0.0103   -0.0052
          19    0.0079   -0.0118   -0.0058    0.0171   -0.0059    0.0002    0.0049    0.0076
          20   -0.0003   -0.0146   -0.0058    0.0166    0.0057   -0.0049    0.0071    0.0027
          21    0.0019   -0.0075   -0.0102    0.0172   -0.0128   -0.0059    0.0137    0.0348
          22   -0.0096   -0.0178    0.0059   -0.0038   -0.0019    0.0042    0.0037   -0.0011
          23   -0.0086   -0.0155   -0.0137   -0.0067   -0.0123   -0.0205    0.0039   -0.0263
          24   -0.0001   -0.0002   -0.0012   -0.0025   -0.0033   -0.0040    0.0028   -0.0047
          25   -0.0003   -0.0008    0.0125    0.0025    0.0208    0.0096    0.0035   -0.0140
          26   -0.0032   -0.0029    0.0235    0.0367    0.0046   -0.0128    0.0113   -0.0044
          27   -0.0005   -0.0090   -0.0061    0.0177   -0.0002   -0.0054   -0.0045   -0.0295
          28   -0.0001   -0.0009    0.0134    0.0038    0.0200    0.0088    0.0032   -0.0144
          29   -0.0114   -0.0043   -0.0154   -0.0043    0.0390    0.0306    0.0147   -0.0015
          30   -0.0110   -0.0052   -0.0187   -0.0191    0.0141   -0.0148   -0.0135   -0.0038
          31    0.0091    0.0222   -0.0173    0.0078    0.0035   -0.0145   -0.0142   -0.0126
          32   -0.0021   -0.0002   -0.0125   -0.0032   -0.0069   -0.0128   -0.0031    0.0136
          33    0.0060    0.0091   -0.0029    0.0172    0.0200    0.0146   -0.0236    0.0150
          34    0.0167    0.0263   -0.0185    0.0077    0.0028   -0.0045    0.0045   -0.0125
          35   -0.0047   -0.0066   -0.0100   -0.0027   -0.0036   -0.0014    0.0040    0.0130
          36   -0.0084   -0.0109    0.0013    0.0174    0.0255    0.0236   -0.0250    0.0073
          37   -0.0087    0.0013    0.0225   -0.0161    0.0249   -0.0484   -0.0155    0.0207
          38    0.0073    0.0042    0.0260   -0.0033   -0.0170    0.0005   -0.0187    0.0098
          39    0.0101   -0.0045   -0.0157   -0.0233   -0.0107    0.0284   -0.0263   -0.0301
          40   -0.0133    0.0073    0.0222   -0.0189    0.0292   -0.0415    0.0012    0.0275
          41    0.0122    0.0163    0.0277   -0.0032   -0.0215    0.0357    0.0140    0.0021
          42   -0.0127   -0.0025   -0.0183   -0.0329    0.0085   -0.0220   -0.0207    0.0089
          43    0.0092    0.0092   -0.0601   -0.0360   -0.0404    0.0724    0.0210   -0.0019
          44    0.0005    0.0014    0.0137   -0.0172   -0.0124    0.0202   -0.0111    0.0116
          45    0.0115    0.0283    0.0031   -0.0096   -0.0078    0.0147    0.0416   -0.0142
          46    0.0026    0.0057   -0.0246   -0.0257   -0.0179    0.0283    0.0126    0.0062
          47   -0.0055    0.0087    0.0576   -0.0042    0.0216   -0.0400   -0.0205    0.0244
          48   -0.0019    0.0023    0.0529    0.0035    0.0124   -0.0393    0.0298   -0.0079
          49   -0.0017   -0.0033    0.0094    0.0520   -0.0831    0.0437   -0.0369   -0.0225
          50    0.0070   -0.0014    0.0159   -0.0050   -0.0164    0.0149   -0.0311   -0.0227
          51    0.0133    0.0053    0.0103   -0.0148   -0.0138    0.0012   -0.0105    0.0234
          52   -0.0058    0.0008    0.0123    0.0214   -0.0395    0.0140   -0.0264   -0.0074
          53    0.0067    0.0045    0.0203   -0.0633    0.0636   -0.0358   -0.0119    0.0023
          54   -0.0035    0.0094    0.0135   -0.0157   -0.0049   -0.0138   -0.0096    0.0323
          55   -0.0149   -0.0122    0.0282   -0.0270   -0.0224    0.0004    0.0332    0.0199
          56    0.0030    0.0103   -0.0259   -0.0085   -0.0189   -0.0378    0.0062   -0.0155
          57   -0.0119   -0.0143    0.0208   -0.0185   -0.0151    0.0014    0.0228   -0.0062
          58    0.0060    0.0141   -0.0117    0.0115    0.0105   -0.0018   -0.0229    0.0184
          59    0.0118    0.0252   -0.0376    0.0121    0.0023   -0.0292   -0.0258   -0.0091
          60   -0.0192   -0.0227    0.0357   -0.0313   -0.0254    0.0037    0.0410   -0.0050
          61   -0.0298   -0.0700    0.0020   -0.0100   -0.0123   -0.0021    0.0019    0.0220
          62   -0.0016    0.0003   -0.0190    0.0089    0.0079    0.0124   -0.0107    0.0203
          63   -0.0007    0.0035    0.0269   -0.0065   -0.0016   -0.0100    0.0359   -0.0089
          64   -0.0076   -0.0262   -0.0086   -0.0042   -0.0077   -0.0024    0.0085    0.0045
          65    0.0281    0.0516   -0.0209    0.0199    0.0157   -0.0002   -0.0024   -0.0049
          66    0.0258    0.0572   -0.0049   -0.0068    0.0004    0.0116    0.0477   -0.0222
          67   -0.0080   -0.0349    0.0049   -0.0035   -0.0020    0.0078    0.0122   -0.0282
          68   -0.0076   -0.0049   -0.0147   -0.0060   -0.0117   -0.0230   -0.0014   -0.0117
          69    0.0307    0.0222   -0.0255    0.0133    0.0076   -0.0078   -0.0100    0.0045
          70   -0.0297   -0.0261    0.0155   -0.0112   -0.0078    0.0021    0.0070   -0.0011
          71   -0.0317   -0.0390    0.0078   -0.0205   -0.0218   -0.0155    0.0184   -0.0432
          72   -0.0085   -0.0058    0.0045   -0.0064   -0.0062   -0.0037    0.0059   -0.0070
          73    0.0007   -0.0143    0.0010   -0.0001    0.0010    0.0053    0.0025   -0.0027
          74    0.0037   -0.0230   -0.0254   -0.0000   -0.0083   -0.0203    0.0063   -0.0491
          75   -0.0155   -0.0081    0.0050   -0.0077   -0.0077   -0.0061    0.0057   -0.0073
          76    0.0125   -0.0154   -0.0101    0.0174    0.0009   -0.0030    0.0142    0.0147
          77    0.1305   -0.0822    0.0005    0.0074    0.0187   -0.0122    0.0085    0.0067
          78    0.0781   -0.0507   -0.0203    0.0130    0.0148   -0.0196    0.0428    0.0578
          79    0.1445   -0.0823   -0.0034   -0.0016    0.0231   -0.0127    0.0166    0.0183
          80   -0.0756    0.0114   -0.0274    0.0531   -0.0033   -0.0056    0.0386    0.0250
          81   -0.0301    0.0187    0.0045    0.0021   -0.0249    0.0029   -0.0171    0.0120
          82   -0.1239    0.0531   -0.0183    0.0373   -0.0201    0.0064    0.0144    0.0118
          83   -0.0638    0.0169   -0.0116    0.0257   -0.0008   -0.0020    0.0116    0.0048
          84   -0.0448    0.0041   -0.0261    0.0539   -0.0287   -0.0043    0.0354    0.0525
          85   -0.0017    0.0059   -0.0132    0.0036    0.0016   -0.0123   -0.0172   -0.0207
          86   -0.0021    0.0020   -0.0058   -0.0085   -0.0127   -0.0182    0.0002    0.0303
          87    0.0323    0.0486   -0.0119    0.0264    0.0237    0.0095   -0.0138    0.0361
          88    0.0270    0.0426   -0.0200    0.0073   -0.0001   -0.0100    0.0168   -0.0078
          89   -0.0159   -0.0309   -0.0053   -0.0116   -0.0097    0.0063    0.0183    0.0139
          90   -0.0351   -0.0536    0.0061    0.0170    0.0317    0.0373   -0.0546   -0.0036
          91    0.0029   -0.0031    0.0089    0.0098    0.0246    0.0282    0.0104   -0.0311
          92   -0.0064   -0.0085    0.0448    0.0854    0.0088   -0.0564    0.0276   -0.0252
          93    0.0016   -0.0148    0.0010    0.0523    0.0065   -0.0076    0.0123   -0.0605
          94    0.0035   -0.0032    0.0122    0.0140    0.0223    0.0267    0.0089   -0.0314
          95   -0.0262   -0.0121   -0.0493   -0.0188    0.0982    0.0544    0.0356   -0.0129
          96   -0.0217   -0.0061   -0.0327   -0.0372    0.0383   -0.0242   -0.0104    0.0099


   Root No.      17        18        19        20        21        22        23        24

                17 A      18 A      19 A      20 A      21 A      22 A      23 A      24 A   

                 453.8     545.0     576.1     765.8     770.5     804.9     816.9     852.8
  
           1   -0.0083    0.0044   -0.0042    0.0191   -0.0133    0.0087    0.0005   -0.0004
           2   -0.0100   -0.0102   -0.0239   -0.0160   -0.0025   -0.0064   -0.0026   -0.0232
           3    0.0113    0.0070   -0.0043    0.0008    0.0097    0.0003    0.0016    0.0138
           4   -0.0079    0.0029    0.0075   -0.0077    0.0184   -0.0100    0.0001    0.0273
           5   -0.0082   -0.0074    0.0300    0.0067   -0.0037    0.0043    0.0045   -0.0084
           6    0.0026    0.0068    0.0276   -0.0120   -0.0052   -0.0059   -0.0010   -0.0227
           7    0.0017   -0.0083    0.0219   -0.0050    0.0239    0.0047    0.0081    0.0156
           8   -0.0089    0.0063    0.0311    0.0116    0.0041   -0.0042   -0.0011    0.0118
           9    0.0051   -0.0238    0.0002    0.0041    0.0007    0.0004   -0.0022   -0.0008
          10    0.0013    0.0016   -0.0216    0.0205   -0.0079    0.0190    0.0074    0.0014
          11    0.0066    0.0033   -0.0203    0.0069    0.0052   -0.0044   -0.0021    0.0085
          12   -0.0128   -0.0030   -0.0173    0.0052    0.0018   -0.0012   -0.0007    0.0044
          13    0.0122    0.0140   -0.0057   -0.0057    0.0089    0.0101    0.0013   -0.0130
          14    0.0023    0.0483   -0.0053    0.0042   -0.0070   -0.0061   -0.0102    0.0100
          15    0.0074   -0.0048   -0.0197   -0.0008   -0.0072   -0.0006   -0.0035    0.0047
          16    0.0314   -0.0168   -0.0006   -0.0013    0.0032    0.0045   -0.0058   -0.0029
          17    0.0048   -0.0290   -0.0003   -0.0016    0.0004   -0.0005    0.0091   -0.0034
          18   -0.0083    0.0097    0.0002    0.0014    0.0032    0.0073   -0.0263    0.0020
          19   -0.0045   -0.0025   -0.0041    0.0033   -0.0011    0.0038    0.0018    0.0008
          20   -0.0003   -0.0010    0.0030    0.0004   -0.0006   -0.0001   -0.0003    0.0039
          21   -0.0211   -0.0074   -0.0104    0.0060   -0.0002   -0.0000    0.0000    0.0013
          22   -0.0033    0.0077   -0.0004   -0.0003    0.0009    0.0014   -0.0026   -0.0018
          23   -0.0262   -0.0151    0.0003   -0.0003   -0.0011   -0.0013    0.0064   -0.0010
          24   -0.0038   -0.0014   -0.0008    0.0002   -0.0004    0.0007   -0.0046    0.0014
          25    0.0051   -0.0066    0.0023   -0.0134   -0.0079   -0.0060   -0.0037   -0.0238
          26    0.0036   -0.0010    0.0146   -0.0197   -0.0105    0.0029   -0.0010    0.0008
          27    0.0230    0.0146    0.0167    0.0010   -0.0012    0.0114    0.0033    0.0269
          28    0.0054   -0.0062    0.0031   -0.0132   -0.0081   -0.0059   -0.0036   -0.0240
          29   -0.0059   -0.0163   -0.0238   -0.0122   -0.0057    0.0102    0.0031    0.0254
          30    0.0055    0.0117    0.0015   -0.0143   -0.0124   -0.0024   -0.0046   -0.0222
          31   -0.0154   -0.0286    0.0062    0.0029   -0.0039   -0.0051    0.0028    0.0094
          32    0.0288   -0.0105   -0.0022   -0.0018    0.0036    0.0039   -0.0038   -0.0046
          33    0.0062   -0.0114    0.0098    0.0001    0.0054    0.0035   -0.0002   -0.0046
          34   -0.0205    0.0395   -0.0046    0.0002   -0.0030   -0.0022   -0.0014   -0.0040
          35    0.0197    0.0297   -0.0064   -0.0019    0.0002    0.0005   -0.0038   -0.0025
          36   -0.0116    0.0030    0.0077   -0.0004   -0.0030   -0.0067    0.0138    0.0061
          37   -0.0109    0.0090   -0.0238    0.0154   -0.0143   -0.0023   -0.0090    0.0214
          38   -0.0115   -0.0079   -0.0312   -0.0173   -0.0053   -0.0096   -0.0066   -0.0145
          39    0.0161    0.0053   -0.0230    0.0207    0.0389   -0.0138    0.0024    0.0191
          40   -0.0149    0.0073    0.0256   -0.0003    0.0134   -0.0168   -0.0038    0.0546
          41   -0.0069   -0.0124    0.0479    0.0398    0.0024    0.0019    0.0054   -0.0107
          42   -0.0023    0.0141    0.0217   -0.0367   -0.0118   -0.0084   -0.0041   -0.0038
          43    0.0043   -0.0163    0.0660    0.0535   -0.0624   -0.0285   -0.0241   -0.0063
          44   -0.0109    0.0006    0.0635    0.0156    0.0072    0.0052    0.0107   -0.0260
          45    0.0082   -0.0233   -0.0023    0.0353   -0.0540   -0.0275   -0.0318    0.0187
          46   -0.0001   -0.0086    0.0338    0.0078    0.0054   -0.0112   -0.0017    0.0274
          47   -0.0187    0.0140    0.0195   -0.0300    0.0744   -0.0014    0.0197    0.0651
          48    0.0071   -0.0206   -0.0390   -0.0472    0.0781    0.0482    0.0337   -0.0176
          49    0.0053   -0.0072   -0.0553   -0.0402    0.0377   -0.0664   -0.0275    0.0148
[...]
 REDUCED MASS        0.1944         C  4 -- H 18         +13.8% ( 38.3%)     96.3%
 EFFECTIVE MASS      1.4834
 FORCE CONSTANT      0.9970

 VIBRATION         75   75A           ATOM PAIR      ENERGY CONTRIBUTION    RADIAL
 FREQUENCY          2957.30         C  4 -- H 17         +20.4% ( 46.7%)     96.6%
 TRANSITION DIPOLE   0.0354         C  4 -- H 18         +20.2% ( 46.5%)     96.5%
 TRAVEL (Ang.)       0.3513         C  3 -- H 16         +19.5% ( 45.6%)     96.9%
 REDUCED MASS        0.1848         C  3 -- H 15         +17.0% ( 42.5%)     96.2%
 EFFECTIVE MASS      1.5143         C  1 -- H 13         +15.0% ( 40.0%)    100.0%
 FORCE CONSTANT      0.9521

 VIBRATION         76   76A           ATOM PAIR      ENERGY CONTRIBUTION    RADIAL
 FREQUENCY          2958.88         C  2 -- H 14         +21.5% ( 47.6%)    100.0%
 TRANSITION DIPOLE   0.1223         C  1 -- H 13         +19.2% ( 45.0%)    100.0%
 TRAVEL (Ang.)       0.3617         C  3 -- H 16         +18.7% ( 44.5%)     96.8%
 REDUCED MASS        0.1742         C  3 -- H 15         +16.8% ( 42.2%)     96.4%
 EFFECTIVE MASS      1.4915         C  4 -- H 17         +10.1% ( 32.6%)     96.8%
 FORCE CONSTANT      0.8984

 VIBRATION         77   77A           ATOM PAIR      ENERGY CONTRIBUTION    RADIAL
 FREQUENCY          3009.42         C  5 -- H 21         +54.2% ( 72.5%)     98.3%
 TRANSITION DIPOLE   0.0514         C  5 -- H 22         +43.7% ( 65.1%)     97.2%
 TRAVEL (Ang.)       0.2159         C  3 -- C  5          +0.6% (  7.9%)     29.8%
 REDUCED MASS        0.4806         C  5 -- C 12          +0.6% (  7.8%)     31.4%
 EFFECTIVE MASS      1.2757
 FORCE CONSTANT      2.5647

 VIBRATION         78   78A           ATOM PAIR      ENERGY CONTRIBUTION    RADIAL
 FREQUENCY          3024.26         C  6 -- H 20         +51.4% ( 70.8%)     98.1%
 TRANSITION DIPOLE   0.0395         C  6 -- H 19         +44.5% ( 65.8%)     97.3%
 TRAVEL (Ang.)       0.2197         C 11 -- H 29          +1.6% ( 12.4%)     99.8%
 REDUCED MASS        0.4619         C  6 -- C 11          +0.7% (  8.1%)     29.3%
 EFFECTIVE MASS      1.2851
 FORCE CONSTANT      2.4888

 VIBRATION         79   79A           ATOM PAIR      ENERGY CONTRIBUTION    RADIAL
 FREQUENCY          3033.25         C  3 -- H 15         +50.0% ( 69.7%)     98.0%
 TRANSITION DIPOLE   0.0936         C  3 -- H 16         +44.9% ( 66.1%)     97.4%
 TRAVEL (Ang.)       0.2222         C 12 -- H 30          +2.0% ( 14.1%)    100.0%
 REDUCED MASS        0.4501         C 11 -- H 29          +0.9% (  9.4%)    100.0%
 EFFECTIVE MASS      1.2763
 FORCE CONSTANT      2.4402

 VIBRATION         80   80A           ATOM PAIR      ENERGY CONTRIBUTION    RADIAL
 FREQUENCY          3034.06         C  4 -- H 18         +50.0% ( 69.7%)     97.9%
 TRANSITION DIPOLE   0.0363         C  4 -- H 17         +47.6% ( 68.0%)     97.5%
 TRAVEL (Ang.)       0.2166         C  4 -- C  7          +0.6% (  7.8%)     25.9%
 REDUCED MASS        0.4736         C  1 -- C  4          +0.6% (  7.7%)     29.5%
 EFFECTIVE MASS      1.2757
 FORCE CONSTANT      2.5689

 VIBRATION         81   81A           ATOM PAIR      ENERGY CONTRIBUTION    RADIAL
 FREQUENCY          3035.47         C 12 -- H 30         +61.5% ( 79.2%)    100.0%
 TRANSITION DIPOLE   0.3245         C 11 -- H 29         +33.6% ( 58.5%)    100.0%
 TRAVEL (Ang.)       0.2162         C  3 -- H 16          +1.4% ( 11.8%)     97.7%
 REDUCED MASS        0.4751         C  3 -- H 15          +1.4% ( 11.8%)     97.7%
 EFFECTIVE MASS      1.4312
 FORCE CONSTANT      2.5793

 VIBRATION         82   82A           ATOM PAIR      ENERGY CONTRIBUTION    RADIAL
 FREQUENCY          3037.43         C 11 -- H 29         +60.8% ( 79.3%)     99.9%
 TRANSITION DIPOLE   0.0459         C 12 -- H 30         +33.1% ( 58.5%)     99.9%
 TRAVEL (Ang.)       0.2150         C 11 -- C 12          +2.1% ( 14.9%)     39.9%
 REDUCED MASS        0.4805         C  6 -- H 20          +1.6% ( 13.0%)     99.5%
 EFFECTIVE MASS      1.5797
 FORCE CONSTANT      2.6117

 VIBRATION         83   83A           ATOM PAIR      ENERGY CONTRIBUTION    RADIAL
 FREQUENCY          3065.96         C  7 -- H 26         +64.9% ( 83.1%)     98.6%
 TRANSITION DIPOLE   0.0293         C  7 -- H 28         +30.7% ( 57.1%)     93.3%
 TRAVEL (Ang.)       0.2013         C  7 -- H 27          +3.1% ( 18.0%)     39.3%
 REDUCED MASS        0.5426         C  4 -- C  7          +1.0% ( 10.2%)      0.0%
 EFFECTIVE MASS      1.4997
 FORCE CONSTANT      3.0053

 VIBRATION         84   84A           ATOM PAIR      ENERGY CONTRIBUTION    RADIAL
 FREQUENCY          3081.22         C  8 -- H 25         +64.3% ( 82.7%)     98.7%
 TRANSITION DIPOLE   0.0093         C  8 -- H 24         +27.8% ( 54.4%)     91.9%
 TRAVEL (Ang.)       0.2046         C  8 -- H 23          +6.7% ( 26.6%)     63.5%
 REDUCED MASS        0.5226         C  6 -- C  8          +1.0% ( 10.2%)      0.0%
 EFFECTIVE MASS      1.5011
 FORCE CONSTANT      2.9233

 VIBRATION         85   85A           ATOM PAIR      ENERGY CONTRIBUTION    RADIAL
 FREQUENCY          3084.03         C  7 -- H 27         +55.3% ( 76.6%)     98.3%
 TRANSITION DIPOLE   0.0045         C  7 -- H 28         +35.3% ( 61.3%)     94.1%
 TRAVEL (Ang.)       0.2168         C  7 -- H 26          +7.8% ( 28.8%)     66.8%
 REDUCED MASS        0.4650         C  4 -- C  7          +1.0% ( 10.3%)      0.0%
 EFFECTIVE MASS      1.5027
 FORCE CONSTANT      2.6057

 VIBRATION         86   86A           ATOM PAIR      ENERGY CONTRIBUTION    RADIAL
 FREQUENCY          3085.86         C  8 -- H 23         +58.0% ( 78.5%)     98.2%
 TRANSITION DIPOLE   0.0124         C  8 -- H 24         +37.0% ( 62.8%)     94.7%
 TRAVEL (Ang.)       0.2085         C  8 -- H 25          +3.6% ( 19.6%)     43.0%
 REDUCED MASS        0.5028         C  6 -- C  8          +1.0% ( 10.3%)      0.1%
 EFFECTIVE MASS      1.5040
 FORCE CONSTANT      2.8211

 VIBRATION         87   87A           ATOM PAIR      ENERGY CONTRIBUTION    RADIAL
 FREQUENCY          3174.18         C  7 -- H 27         +41.6% ( 62.1%)     98.1%
 TRANSITION DIPOLE   0.0155         C  7 -- H 28         +33.0% ( 55.3%)     96.9%
 TRAVEL (Ang.)       0.2508         C  7 -- H 26         +25.1% ( 48.3%)     95.3%
 REDUCED MASS        0.3378         C  4 -- C  7          +0.3% (  5.2%)     96.8%
 EFFECTIVE MASS      1.1398
 FORCE CONSTANT      2.0055

 VIBRATION         88   88A           ATOM PAIR      ENERGY CONTRIBUTION    RADIAL
 FREQUENCY          3183.02         C  8 -- H 24         +34.4% ( 56.5%)     97.3%
 TRANSITION DIPOLE   0.0211         C  8 -- H 23         +34.4% ( 56.4%)     97.3%
 TRAVEL (Ang.)       0.2543         C  8 -- H 25         +30.9% ( 53.4%)     96.7%
 REDUCED MASS        0.3277         C  6 -- C  8          +0.3% (  5.1%)     99.8%
 EFFECTIVE MASS      1.1360
 FORCE CONSTANT      1.9562

 VIBRATION         89   89A           ATOM PAIR      ENERGY CONTRIBUTION    RADIAL
 FREQUENCY          3193.48         C  9 -- H 31         +48.0% ( 70.9%)    100.0%
 TRANSITION DIPOLE   0.4683         C 10 -- H 32         +47.8% ( 70.8%)    100.0%
 TRAVEL (Ang.)       0.2131         C  9 -- C 10          +1.1% ( 10.5%)      0.0%
 REDUCED MASS        0.4649         C  2 -- C  9          +0.8% (  9.1%)     99.9%
 EFFECTIVE MASS      1.4626
 FORCE CONSTANT      2.7933

 VIBRATION         90   90A           ATOM PAIR      ENERGY CONTRIBUTION    RADIAL
 FREQUENCY          3213.93         C 10 -- H 32         +46.4% ( 70.5%)     99.9%
 TRANSITION DIPOLE   0.3905         C  9 -- H 31         +46.2% ( 70.4%)     99.9%
 TRAVEL (Ang.)       0.2112         C  9 -- C 10          +3.0% ( 18.0%)    100.0%
 REDUCED MASS        0.4704         C  1 -- C 10          +1.1% ( 10.8%)     98.2%
 EFFECTIVE MASS      1.7371
 FORCE CONSTANT      2.8630

      SYMMETRY NUMBER FOR POINT-GROUP C1  =  1


          SYSTEM IS A GROUND STATE



 InChI=1S/C12H20/c1-3-5-6-7-8-12-10-9-11(12)4-2/h5-6,9-12H,3-4,7-8H2,1-2H3


          MOLECULE IS NOT LINEAR

          THERE ARE 90 GENUINE VIBRATIONS IN THIS SYSTEM
          THIS THERMODYNAMICS CALCULATION IS LIMITED TO
          MOLECULES WHICH HAVE NO INTERNAL ROTATIONS




                    CALCULATED THERMODYNAMIC PROPERTIES
                                          *
   TEMP. (K)   PARTITION FUNCTION   H.O.F.    ENTHALPY  HEAT CAPACITY ENTROPY
                                   KCAL/MOL   CAL/MOLE    CAL/K/MOL  CAL/K/MOL


 298.00  VIB.     0.3306D+06                  7186.5215    46.1480    49.3704
         ROT.     0.2073D+07                   888.2803     2.9808    31.8837
         INT.     0.6853D+12                  8074.8018    49.1288    81.2541
         TRA.     0.2036D+28                  1480.4672     4.9680    41.1956
         TOT.                       17.853    9555.2689    54.0968   122.4497

 200.00  VIB.     0.5534D+04                  3438.8997    30.9706    34.3214
         ROT.     0.1140D+07                   596.1613     2.9808    30.6950
         INT.     0.6307D+10                  4035.0610    33.9514    65.0164
         TRA.     0.1119D+28                   993.6021     4.9680    39.2145
         TOT.                       13.326    5028.6631    38.9194   104.2309

 210.00  VIB.     0.8511D+04                  3755.3553    32.3283    35.8651
         ROT.     0.1226D+07                   625.9693     2.9808    30.8404
         INT.     0.1044D+11                  4381.3246    35.3091    66.7056
         TRA.     0.1204D+28                  1043.2822     4.9680    39.4569
         TOT.                       13.722    5424.6069    40.2771   106.1625

 220.00  VIB.     0.1304D+05                  4085.6253    33.7338    37.4013
         ROT.     0.1315D+07                   655.7774     2.9808    30.9791
         INT.     0.1715D+11                  4741.4027    36.7146    68.3804
         TRA.     0.1291D+28                  1092.9623     4.9680    39.6880
         TOT.                       14.132    5834.3650    41.6826   108.0684

 230.00  VIB.     0.1991D+05                  4430.1917    35.1876    38.9327
         ROT.     0.1406D+07                   685.5855     2.9808    31.1116
         INT.     0.2798D+11                  5115.7772    38.1684    70.0443
         TRA.     0.1380D+28                  1142.6424     4.9680    39.9088
         TOT.                       14.556    6258.4197    43.1364   109.9532

 240.00  VIB.     0.3029D+05                  4789.5340    36.6886    40.4618
         ROT.     0.1498D+07                   715.3935     2.9808    31.2385
         INT.     0.4539D+11                  5504.9276    39.6694    71.7003
         TRA.     0.1471D+28                  1192.3226     4.9680    40.1203
         TOT.                       14.995    6697.2501    44.6374   111.8206

 250.00  VIB.     0.4597D+05                  5164.1133    38.2344    41.9907
         ROT.     0.1593D+07                   745.2016     2.9808    31.3602
         INT.     0.7323D+11                  5909.3149    41.2153    73.3509
         TRA.     0.1564D+28                  1242.0027     4.9680    40.3231
         TOT.                       15.449    7151.3176    46.1833   113.6740

 260.00  VIB.     0.6959D+05                  5554.3607    39.8216    43.5211
         ROT.     0.1689D+07                   775.0097     2.9808    31.4771
         INT.     0.1176D+12                  6329.3703    42.8024    74.9982
         TRA.     0.1659D+28                  1291.6828     4.9680    40.5179
         TOT.                       15.918    7621.0531    47.7704   115.5161

 270.00  VIB.     0.1051D+06                  5960.6679    41.4457    45.0543
         ROT.     0.1788D+07                   804.8177     2.9808    31.5896
         INT.     0.1879D+12                  6765.4856    44.4265    76.6439
         TRA.     0.1756D+28                  1341.3629     4.9680    40.7054
         TOT.                       16.404    8106.8485    49.3945   117.3493

 280.00  VIB.     0.1585D+06                  6383.3811    43.1019    46.5914
         ROT.     0.1888D+07                   834.6258     2.9808    31.6980
         INT.     0.2992D+12                  7218.0069    46.0827    78.2894
         TRA.     0.1854D+28                  1391.0430     4.9680    40.8861
         TOT.                       16.906    8609.0499    51.0508   119.1755

 290.00  VIB.     0.2386D+06                  6822.7969    44.7853    48.1332
         ROT.     0.1990D+07                   864.4339     2.9808    31.8026
         INT.     0.4748D+12                  7687.2307    47.7661    79.9358
         TRA.     0.1954D+28                  1440.7231     4.9680    41.0604
         TOT.                       17.425    9127.9538    52.7341   120.9962

 300.00  VIB.     0.3586D+06                  7279.1598    46.4905    49.6802
         ROT.     0.2094D+07                   894.2419     2.9808    31.9036
         INT.     0.7509D+12                  8173.4017    49.4713    81.5838
         TRA.     0.2056D+28                  1490.4032     4.9680    41.2289
         TOT.                       17.961    9663.8049    54.4393   122.8127

 310.00  VIB.     0.5385D+06                  7752.6623    48.2123    51.2327
         ROT.     0.2199D+07                   924.0500     2.9808    32.0014
         INT.     0.1184D+13                  8676.7122    51.1932    83.2340
         TRA.     0.2160D+28                  1540.0833     4.9680    41.3918
         TOT.                       18.514   10216.7955    56.1612   124.6258

 320.00  VIB.     0.8077D+06                  8243.4454    49.9458    52.7907
         ROT.     0.2307D+07                   953.8580     2.9808    32.0960
         INT.     0.1863D+13                  9197.3034    52.9266    84.8867
         TRA.     0.2265D+28                  1589.7634     4.9680    41.5495
         TOT.                       19.084   10787.0668    57.8946   126.4362

 330.00  VIB.     0.1211D+07                  8751.6007    51.6860    54.3542
         ROT.     0.2416D+07                   983.6661     2.9808    32.1877
         INT.     0.2925D+13                  9735.2668    54.6668    86.5420
         TRA.     0.2372D+28                  1639.4435     4.9680    41.7024
         TOT.                       19.672   11374.7104    59.6348   128.2443

 340.00  VIB.     0.1814D+07                  9277.1733    53.4285    55.9231
         ROT.     0.2526D+07                  1013.4742     2.9808    32.2767
         INT.     0.4582D+13                 10290.6475    56.4093    88.1998
         TRA.     0.2481D+28                  1689.1236     4.9680    41.8507
         TOT.                       20.277   11979.7711    61.3773   130.0505

 350.00  VIB.     0.2715D+07                  9820.1646    55.1691    57.4970
         ROT.     0.2639D+07                  1043.2822     2.9808    32.3631
         INT.     0.7165D+13                 10863.4468    58.1499    89.8601
         TRA.     0.2591D+28                  1738.8037     4.9680    41.9947
         TOT.                       20.900   12602.2506    63.1179   131.8548

 360.00  VIB.     0.4064D+07                 10380.5359    56.9039    59.0755
         ROT.     0.2752D+07                  1073.0903     2.9808    32.4471
         INT.     0.1119D+14                 11453.6262    59.8847    91.5226
         TRA.     0.2703D+28                  1788.4838     4.9680    42.1347
         TOT.                       21.539   13242.1101    64.8527   133.6572

 370.00  VIB.     0.6081D+07                 10958.2125    58.6296    60.6581
         ROT.     0.2868D+07                  1102.8984     2.9808    32.5288
         INT.     0.1744D+14                 12061.1109    61.6104    93.1869
         TRA.     0.2817D+28                  1838.1639     4.9680    42.2708
         TOT.                       22.197   13899.2748    66.5784   135.4577

 380.00  VIB.     0.9096D+07                 11553.0872    60.3431    62.2445
         ROT.     0.2985D+07                  1132.7064     2.9808    32.6082
         INT.     0.2715D+14                 12685.7936    63.3239    94.8527
         TRA.     0.2932D+28                  1887.8440     4.9680    42.4033
         TOT.                       22.871   14573.6377    68.2919   137.2560

 390.00  VIB.     0.1360D+08                 12165.0240    62.0416    63.8339
         ROT.     0.3104D+07                  1162.5145     2.9808    32.6857
         INT.     0.4222D+14                 13327.5385    65.0224    96.5196
         TRA.     0.3048D+28                  1937.5242     4.9680    42.5323
         TOT.                       23.562   15265.0626    69.9904   139.0519

 400.00  VIB.     0.2034D+08                 12793.8620    63.7229    65.4259
         ROT.     0.3224D+07                  1192.3226     2.9808    32.7611
         INT.     0.6558D+14                 13986.1845    66.7037    98.1870
         TRA.     0.3166D+28                  1987.2043     4.9680    42.6581
         TOT.                       24.271   15973.3888    71.6718   140.8451

   *: NOTE: HEATS OF FORMATION ARE RELATIVE TO THE
            ELEMENTS IN THEIR STANDARD STATE AT 298K
              (=  Standard Enthalpy of Formation).

            Hvib:  Zero-point energy is not included.
                   frequencies of less than zero cm-1 are not included.
            Hrot = (3/2)RT
            Htra = (3/2)RT + pV = (5/2)RT

            Heat capacity is Cp, not Cv

          For more information, see: HTTP://OpenMOPAC.net/Manual/thermochemistry.html


           FORCE CONSTANT IN CARTESIAN COORDINATES (Millidynes/A)

    ATOM   CHEMICAL       X               Y               Z
   NUMBER   SYMBOL  FORCE CONSTANT  FORCE CONSTANT  FORCE CONSTANT

      1       C        7.203829        8.487935        8.492137
      2       C        7.208163        8.516477        8.464959
      3       C        8.325983        8.474266        8.226066
      4       C        8.309794        8.390852        8.427906
      5       C        8.457251        8.906653        7.948979
      6       C        8.576483        8.829520        8.010421
      7       C        8.203304        8.250282        8.395755
      8       C        8.225318        8.418988        8.204626
      9       C       15.248421        3.637569        7.672866
     10       C       15.247955        3.530213        7.778050
     11       C        9.257753       13.556955        4.348166
     12       C        9.179955       13.481041        4.521498
     13       H        1.379965        4.143152        0.692989
     14       H        1.378075        2.160218        2.675425
     15       H        1.566984        2.242787        2.583220
     16       H        4.565722        0.766900        1.039204
     17       H        1.562059        4.088110        0.742721
     18       H        4.581276        0.781866        1.004508
     19       H        0.883273        0.819827        4.572409
     20       H        3.797575        0.777665        1.821728
     21       H        1.502205        2.168044        2.594942
     22       H        4.519518        0.820031        1.002806
     23       H        1.871910        4.220609        0.697580
     24       H        0.909220        0.840063        5.032316
     25       H        4.117557        0.743532        1.921565
     26       H        4.867737        0.774904        1.081275
     27       H        1.692482        2.141185        2.956225
     28       H        1.604849        4.419911        0.740068
     29       H        4.442333        0.768396        1.002694
     30       H        4.409656        0.766607        1.037279
     31       H        3.190337        0.941423        2.448893
     32       H        3.190830        0.798634        2.591222

 **********************
 *                    *
 * JOB ENDED NORMALLY *
 *                    *
 **********************



 TOTAL JOB TIME:             8.05 SECONDS

 == MOPAC DONE ==
