 *******************************************************************************
 **                                                                           **
 **                              MOPAC v23.1.2                                **
 **                                                                           **
 *******************************************************************************
 **          Digital Object Identifier (DOI): 10.5281/zenodo.6511958          **
 **    Visit the DOI location for information on how to cite this program.    **
 *******************************************************************************

                              PM3 CALCULATION RESULTS

 *******************************************************************************
 *  CALCULATION DONE: (MAX THREADS = 1)              Tue Jun  3 16:34:42 2025  *
 *  PM3        - The PM3 Hamiltonian to be used
 *  PRECISE    - TIGHTER CRITERIA TO BE USED
 *  NOSYM      - POINT-GROUP SYMMETRY SET TO C1
 *  THREADS=1  - MULTI-THREADING NOT USED
 *  T=         - A TIME OF 172800.0 SECONDS REQUESTED
 *  DUMP=N     - RESTART FILE WRITTEN EVERY 7200.0 SECONDS REQUESTED
 *******************************************************************************
pm3  precise nosym THREADS=1
 InChI=1S/C7H8/c1-2-7-5-3-4-6-7/h3-4H,1,5-6H2

   ATOM   CHEMICAL          X               Y               Z
  NUMBER   SYMBOL      (ANGSTROMS)     (ANGSTROMS)     (ANGSTROMS)

     1       C         -0.35890000  *  -1.28060000  *   0.10540000  *
     2       C         -0.66490000  *   1.14700000  *   0.43570000  *
     3       C          0.31160000  *   0.04070000  *   0.24350000  *
     4       C         -1.79500000  *  -0.89950000  *   0.22640000  *
     5       C         -1.96000000  *   0.40950000  *   0.40450000  *
     6       C          2.89670000  *   0.37800000  *   0.15850000  *
     7       C          1.60590000  *   0.20960000  *   0.20090000  *
     8       H         -0.06500000  *  -1.96610000  *   0.92850000  *
     9       H         -0.15560000  *  -1.73000000  *  -0.88990000  *
    10       H         -0.51970000  *   1.64190000  *   1.41950000  *
    11       H         -0.61030000  *   1.87790000  *  -0.39890000  *
    12       H         -2.61810000  *  -1.60460000  *   0.17590000  *
    13       H         -2.93130000  *   0.88040000  *   0.51400000  *
    14       H          3.38540000  *   0.57400000  *  -0.78600000  *
    15       H          3.47920000  *   0.32190000  *   1.06780000  *



          CARTESIAN COORDINATES 

    NO.       ATOM           X           Y           Z

     1         C         -0.3589     -1.2806      0.1054
     2         C         -0.6649      1.1470      0.4357
     3         C          0.3116      0.0407      0.2435
     4         C         -1.7950     -0.8995      0.2264
     5         C         -1.9600      0.4095      0.4045
     6         C          2.8967      0.3780      0.1585
     7         C          1.6059      0.2096      0.2009
     8         H         -0.0650     -1.9661      0.9285
     9         H         -0.1556     -1.7300     -0.8899
    10         H         -0.5197      1.6419      1.4195
    11         H         -0.6103      1.8779     -0.3989
    12         H         -2.6181     -1.6046      0.1759
    13         H         -2.9313      0.8804      0.5140
    14         H          3.3854      0.5740     -0.7860
    15         H          3.4792      0.3219      1.0678

  H: (PM3): J. J. P. STEWART, J. COMP. CHEM. 10, 209 (1989).
  C: (PM3): J. J. P. STEWART, J. COMP. CHEM. 10, 209 (1989).

           Empirical Formula: C7 H8  =    15 atoms



      MOLECULAR POINT GROUP   :   C1  


      RHF CALCULATION, NO. OF DOUBLY OCCUPIED LEVELS = 18


          Geometry optimization using EF

          DIAGONAL MATRIX USED AS START HESSIAN

 CYCLE:     1 TIME:   0.008 TIME LEFT:  2.00D  GRAD.:    61.193 HEAT:  58.57127
 CYCLE:     2 TIME:   0.004 TIME LEFT:  2.00D  GRAD.:    79.331 HEAT:  58.33333
 CYCLE:     3 TIME:   0.008 TIME LEFT:  2.00D  GRAD.:    81.818 HEAT:  57.76652
 CYCLE:     4 TIME:   0.004 TIME LEFT:  2.00D  GRAD.:    72.121 HEAT:  57.55314
 CYCLE:     5 TIME:   0.004 TIME LEFT:  2.00D  GRAD.:    27.781 HEAT:  56.72330
 CYCLE:     6 TIME:   0.004 TIME LEFT:  2.00D  GRAD.:    23.738 HEAT:  56.51234
 CYCLE:     7 TIME:   0.008 TIME LEFT:  2.00D  GRAD.:    22.894 HEAT:  56.40632
 CYCLE:     8 TIME:   0.004 TIME LEFT:  2.00D  GRAD.:    27.504 HEAT:  56.37922
 CYCLE:     9 TIME:   0.004 TIME LEFT:  2.00D  GRAD.:    10.459 HEAT:  56.25078
 CYCLE:    10 TIME:   0.008 TIME LEFT:  2.00D  GRAD.:     7.773 HEAT:  56.21701
 CYCLE:    11 TIME:   0.004 TIME LEFT:  2.00D  GRAD.:     8.299 HEAT:  56.19259
 CYCLE:    12 TIME:   0.008 TIME LEFT:  2.00D  GRAD.:     6.331 HEAT:  56.16413
 CYCLE:    13 TIME:   0.004 TIME LEFT:  2.00D  GRAD.:     4.449 HEAT:  56.15425
 CYCLE:    14 TIME:   0.008 TIME LEFT:  2.00D  GRAD.:     3.734 HEAT:  56.14945
 CYCLE:    15 TIME:   0.004 TIME LEFT:  2.00D  GRAD.:     4.464 HEAT:  56.14755
 CYCLE:    16 TIME:   0.008 TIME LEFT:  2.00D  GRAD.:     4.520 HEAT:  56.14495
 CYCLE:    17 TIME:   0.004 TIME LEFT:  2.00D  GRAD.:     6.642 HEAT:  56.14831
 CYCLE:    18 TIME:   0.004 TIME LEFT:  2.00D  GRAD.:     4.104 HEAT:  56.14297
 CYCLE:    19 TIME:   0.008 TIME LEFT:  2.00D  GRAD.:     2.880 HEAT:  56.13895
 CYCLE:    20 TIME:   0.004 TIME LEFT:  2.00D  GRAD.:     1.219 HEAT:  56.13667
 CYCLE:    21 TIME:   0.004 TIME LEFT:  2.00D  GRAD.:     1.119 HEAT:  56.13629
 CYCLE:    22 TIME:   0.004 TIME LEFT:  2.00D  GRAD.:     0.284 HEAT:  56.13585
 CYCLE:    23 TIME:   0.004 TIME LEFT:  2.00D  GRAD.:     0.200 HEAT:  56.13577
 CYCLE:    24 TIME:   0.004 TIME LEFT:  2.00D  GRAD.:     0.190 HEAT:  56.13569
 CYCLE:    25 TIME:   0.008 TIME LEFT:  2.00D  GRAD.:     0.129 HEAT:  56.13566
 CYCLE:    26 TIME:   0.004 TIME LEFT:  2.00D  GRAD.:     0.082 HEAT:  56.13565
 CYCLE:    27 TIME:   0.004 TIME LEFT:  2.00D  GRAD.:     0.101 HEAT:  56.13564
 CYCLE:    28 TIME:   0.004 TIME LEFT:  2.00D  GRAD.:     0.076 HEAT:  56.13563
 CYCLE:    29 TIME:   0.004 TIME LEFT:  2.00D  GRAD.:     0.072 HEAT:  56.13561
 CYCLE:    30 TIME:   0.008 TIME LEFT:  2.00D  GRAD.:     0.083 HEAT:  56.13558
 CYCLE:    31 TIME:   0.004 TIME LEFT:  2.00D  GRAD.:     0.064 HEAT:  56.13557
 CYCLE:    32 TIME:   0.004 TIME LEFT:  2.00D  GRAD.:     0.075 HEAT:  56.13556
 CYCLE:    33 TIME:   0.004 TIME LEFT:  2.00D  GRAD.:     0.047 HEAT:  56.13556

     GRADIENT =  0.04703 IS LESS THAN CUTOFF =  0.05000



 -------------------------------------------------------------------------------
 pm3  precise nosym THREADS=1
 InChI=1S/C7H8/c1-2-7-5-3-4-6-7/h3-4H,1,5-6H2



     GEOMETRY OPTIMISED USING EIGENVECTOR FOLLOWING (EF).     
     SCF FIELD WAS ACHIEVED                                   


                              PM3 CALCULATION
                                                       MOPAC v23.1.2 MacOS
                                                       Tue Jun  3 16:34:42 2025




          FINAL HEAT OF FORMATION =         56.13556 KCAL/MOL =     234.87117 KJ/MOL


          COSMO AREA              =        143.57 SQUARE ANGSTROMS
          COSMO VOLUME            =        131.75 CUBIC ANGSTROMS

          GRADIENT NORM           =          0.04703          =       0.01214 PER ATOM
          IONIZATION POTENTIAL    =          9.196292 EV
          HOMO LUMO ENERGIES (EV) =         -9.196  1.027
          NO. OF FILLED LEVELS    =         18
          MOLECULAR WEIGHT        =         92.1402         POINT GROUP:  C1  

          MOLECULAR DIMENSIONS (Angstroms)

            Atom       Atom       Distance
            H    15    H    12     6.51936
            H    11    H     8     4.09143
            H    14    H    10     3.21056


          SCF CALCULATIONS        =         40

          WALL-CLOCK TIME         =      0.180 SECONDS
          COMPUTATION TIME        =      0.096 SECONDS




   ATOM   CHEMICAL          X               Y               Z
  NUMBER   SYMBOL      (ANGSTROMS)     (ANGSTROMS)     (ANGSTROMS)

     1       C         -0.37558083  *  -1.27497492  *   0.10681419  *
     2       C         -0.67882641  *   1.13675148  *   0.43576015  *
     3       C          0.33828938  *   0.04359284  *   0.24279327  *
     4       C         -1.82509294  *  -0.90726504  *   0.22644283  *
     5       C         -1.99065735  *   0.40964820  *   0.40601924  *
     6       C          2.91294174  *   0.38085853  *   0.15774815  *
     7       C          1.62974474  *   0.21230235  *   0.20011366  *
     8       H         -0.07296636  *  -1.98935272  *   0.89474364  *
     9       H         -0.16016446  *  -1.76080612  *  -0.86287445  *
    10       H         -0.53310650  *   1.66922964  *   1.39386132  *
    11       H         -0.62006650  *   1.89843443  *  -0.36366423  *
    12       H         -2.60730183  *  -1.66282410  *   0.16675883  *
    13       H         -2.93450526  *   0.94068019  *   0.52181840  *
    14       H          3.44329389  *   0.57451646  *  -0.77091660  *
    15       H          3.53427491  *   0.33859371  *   1.04844080  *

                             CARTESIAN COORDINATES

   1    C       -0.375580827    -1.274974916     0.106814190
   2    C       -0.678826407     1.136751478     0.435760151
   3    C        0.338289381     0.043592841     0.242793267
   4    C       -1.825092943    -0.907265036     0.226442835
   5    C       -1.990657350     0.409648195     0.406019236
   6    C        2.912941744     0.380858534     0.157748151
   7    C        1.629744737     0.212302351     0.200113661
   8    H       -0.072966364    -1.989352723     0.894743644
   9    H       -0.160164459    -1.760806120    -0.862874454
  10    H       -0.533106501     1.669229641     1.393861325
  11    H       -0.620066496     1.898434427    -0.363664226
  12    H       -2.607301834    -1.662824102     0.166758827
  13    H       -2.934505259     0.940680188     0.521818396
  14    H        3.443293887     0.574516460    -0.770916602
  15    H        3.534274905     0.338593710     1.048440798


           Empirical Formula: C7 H8  =    15 atoms



      MOLECULAR POINT GROUP   :   C1  


                  EIGENVALUES  
 -39.80541 -32.33908 -28.26172 -27.09390 -21.71187 -18.79351 -18.28452 -16.84820
 -15.82238 -14.69683 -14.23128 -13.85665 -13.71733 -13.59226 -12.69115 -10.28628
 -10.21040  -9.19629   1.02686   1.03443   1.09613   2.95043   3.38541   3.64031
   3.74681   3.94861   4.22867   4.28512   4.46418   4.52479   4.65355   5.01068
   5.02202   5.52214   5.92833   6.62698


              NET ATOMIC CHARGES AND DIPOLE CONTRIBUTIONS

  ATOM NO.   TYPE          CHARGE      No. of ELECS.   s-Pop       p-Pop       
    1          C          -0.012093        4.0121     1.13879     2.87330
    2          C          -0.012188        4.0122     1.13880     2.87338
    3          C          -0.062667        4.0627     1.17158     2.89109
    4          C          -0.155471        4.1555     1.20343     2.95204
    5          C          -0.155473        4.1555     1.20342     2.95205
    6          C          -0.073272        4.0733     1.14575     2.92752
    7          C          -0.194536        4.1945     1.20491     2.98962
    8          H           0.064846        0.9352     0.93515
    9          H           0.064835        0.9352     0.93516
   10          H           0.064844        0.9352     0.93516
   11          H           0.064842        0.9352     0.93516
   12          H           0.112543        0.8875     0.88746
   13          H           0.112543        0.8875     0.88746
   14          H           0.090628        0.9094     0.90937
   15          H           0.090618        0.9094     0.90938
 DIPOLE           X         Y         Z       TOTAL
 POINT-CHG.    -0.129    -0.016     0.004     0.130
 HYBRID         0.062     0.008    -0.002     0.062
 SUM           -0.068    -0.008     0.002     0.068


          ATOMIC ORBITAL ELECTRON POPULATIONS

     Atom    s        px        py        pz   
    1  C   1.13879   0.92252   0.94114   1.00964
    2  C   1.13880   0.91168   0.95245   1.00925
    3  C   1.17158   0.90431   0.96623   1.02055
    4  C   1.20343   0.97068   0.96731   1.01405
    5  C   1.20342   0.97710   0.96067   1.01427
    6  C   1.14575   0.91340   1.01154   1.00258
    7  C   1.20491   0.95928   0.99918   1.03117
    8  H   0.93515
    9  H   0.93516
   10  H   0.93516
   11  H   0.93516
   12  H   0.88746
   13  H   0.88746
   14  H   0.90937
   15  H   0.90938
 *******************************************************************************
 **                                                                           **
 **                              MOPAC v23.1.2                                **
 **                                                                           **
 *******************************************************************************
 **          Digital Object Identifier (DOI): 10.5281/zenodo.6511958          **
 **    Visit the DOI location for information on how to cite this program.    **
 *******************************************************************************

                              PM3 CALCULATION RESULTS

 *******************************************************************************
 *  CALCULATION DONE: (MAX THREADS = 1)              Tue Jun  3 16:34:42 2025  *
 *  PM3        - The PM3 Hamiltonian to be used
 *  OLDGEO     - PREVIOUS GEOMETRY TO BE USED
 *  PRECISE    - TIGHTER CRITERIA TO BE USED
 *  NOSYM      - POINT-GROUP SYMMETRY SET TO C1
 *  THREADS=1  - MULTI-THREADING NOT USED
 *  T=         - A TIME OF 172800.0 SECONDS REQUESTED
 *  DUMP=N     - RESTART FILE WRITTEN EVERY 7200.0 SECONDS REQUESTED
 *  THERMO     - THERMODYNAMIC QUANTITIES TO BE CALCULATED
 *******************************************************************************
oldgeo thermo nosym precise THREADS=1  pm3
 InChI=1S/C7H8/c1-2-7-5-3-4-6-7/h3-4H,1,5-6H2

   ATOM   CHEMICAL          X               Y               Z
  NUMBER   SYMBOL      (ANGSTROMS)     (ANGSTROMS)     (ANGSTROMS)

     1       C         -0.37558083  *  -1.27497492  *   0.10681419  *
     2       C         -0.67882641  *   1.13675148  *   0.43576015  *
     3       C          0.33828938  *   0.04359284  *   0.24279327  *
     4       C         -1.82509294  *  -0.90726504  *   0.22644283  *
     5       C         -1.99065735  *   0.40964820  *   0.40601924  *
     6       C          2.91294174  *   0.38085853  *   0.15774815  *
     7       C          1.62974474  *   0.21230235  *   0.20011366  *
     8       H         -0.07296636  *  -1.98935272  *   0.89474364  *
     9       H         -0.16016446  *  -1.76080612  *  -0.86287445  *
    10       H         -0.53310650  *   1.66922964  *   1.39386132  *
    11       H         -0.62006650  *   1.89843443  *  -0.36366423  *
    12       H         -2.60730183  *  -1.66282410  *   0.16675883  *
    13       H         -2.93450526  *   0.94068019  *   0.52181840  *
    14       H          3.44329389  *   0.57451646  *  -0.77091660  *
    15       H          3.53427491  *   0.33859371  *   1.04844080  *



          CARTESIAN COORDINATES 

    NO.       ATOM           X           Y           Z

     1         C         -0.3756     -1.2750      0.1068
     2         C         -0.6788      1.1368      0.4358
     3         C          0.3383      0.0436      0.2428
     4         C         -1.8251     -0.9073      0.2264
     5         C         -1.9907      0.4096      0.4060
     6         C          2.9129      0.3809      0.1577
     7         C          1.6297      0.2123      0.2001
     8         H         -0.0730     -1.9894      0.8947
     9         H         -0.1602     -1.7608     -0.8629
    10         H         -0.5331      1.6692      1.3939
    11         H         -0.6201      1.8984     -0.3637
    12         H         -2.6073     -1.6628      0.1668
    13         H         -2.9345      0.9407      0.5218
    14         H          3.4433      0.5745     -0.7709
    15         H          3.5343      0.3386      1.0484

  H: (PM3): J. J. P. STEWART, J. COMP. CHEM. 10, 209 (1989).
  C: (PM3): J. J. P. STEWART, J. COMP. CHEM. 10, 209 (1989).

           Empirical Formula: C7 H8  =    15 atoms



      MOLECULAR POINT GROUP   :   C1  


      RHF CALCULATION, NO. OF DOUBLY OCCUPIED LEVELS = 18



          HEAT OF FORMATION =      56.135557 KCALS/MOLE


          CARTESIAN COORDINATE DERIVATIVES

   NUMBER  ATOM         X            Y            Z

     1       C     -0.004080    -0.008426    -0.002292
     2       C     -0.005262    -0.002727     0.004957
     3       C      0.000452     0.006664     0.001837
     4       C     -0.000383    -0.006121     0.004737
     5       C      0.005835    -0.003067    -0.011567
     6       C      0.009142     0.000175     0.002862
     7       C     -0.010086     0.012224    -0.002726
     8       H     -0.002044     0.007522    -0.004956
     9       H      0.005963     0.001359     0.003974
    10       H     -0.007392    -0.004476     0.000852
    11       H     -0.013979     0.015447    -0.007914
    12       H      0.004075    -0.022784     0.003738
    13       H      0.003448    -0.002077     0.001788
    14       H     -0.002200     0.007524     0.001554
    15       H      0.016510    -0.001237     0.003157



          GRADIENT NORM =   0.04915

          MOLECULAR WEIGHT =   92.14



          ROTATIONAL CONSTANTS IN CM(-1)

          A =    0.24335613   B =    0.06029815   C =    0.04971371



           PRINCIPAL MOMENTS OF INERTIA IN UNITS OF 10**(-40)*GRAM-CM**2

          A =      115.0279   B =      464.2389   C =      563.0792


          ORIENTATION OF MOLECULE IN FORCE CALCULATION

    NO.       ATOM         X         Y         Z

     1          C      -1.2268   -0.5340   -0.0003
     2          C       1.2261   -0.5340   -0.0003
     3          C      -0.0004    0.3393   -0.0003
     4          C      -0.6700   -1.9270    0.0002
     5          C       0.6693   -1.9270    0.0002
     6          C       0.0015    2.9373    0.0003
     7          C       0.0001    1.6424   -0.0000
     8          H      -1.8610   -0.3520   -0.8877
     9          H      -1.8612   -0.3515    0.8869
    10          H       1.8601   -0.3521   -0.8878
    11          H       1.8605   -0.3513    0.8868
    12          H      -1.3242   -2.7978    0.0006
    13          H       1.3237   -2.7977    0.0006
    14          H       0.0018    3.5183    0.9188
    15          H       0.0026    3.5186   -0.9180


    FIRST DERIVATIVES WILL BE USED IN THE CALCULATION OF SECOND DERIVATIVES

          ESTIMATED TIME TO COMPLETE CALCULATION =        1.41 SECONDS

    FOR POINT-GROUP C1   THERE ARE   1 UNIQUE SYMMETRY FUNCTIONS.

 STEP:   1 TIME =     0.01 SECS, INTEGRAL =      0.01 TIME LEFT: 172799.98
 STEP:   2 TIME =     0.01 SECS, INTEGRAL =      0.02 TIME LEFT: 172799.98
 STEP:   3 TIME =     0.01 SECS, INTEGRAL =      0.03 TIME LEFT: 172799.96
 STEP:   4 TIME =     0.01 SECS, INTEGRAL =      0.04 TIME LEFT: 172799.95
 STEP:   5 TIME =     0.01 SECS, INTEGRAL =      0.05 TIME LEFT: 172799.94
 STEP:   6 TIME =     0.01 SECS, INTEGRAL =      0.06 TIME LEFT: 172799.93
 STEP:   7 TIME =     0.01 SECS, INTEGRAL =      0.07 TIME LEFT: 172799.92
 STEP:   8 TIME =     0.01 SECS, INTEGRAL =      0.08 TIME LEFT: 172799.91
 STEP:   9 TIME =     0.01 SECS, INTEGRAL =      0.09 TIME LEFT: 172799.90
 STEP:  10 TIME =     0.01 SECS, INTEGRAL =      0.11 TIME LEFT: 172799.89
 STEP:  11 TIME =     0.01 SECS, INTEGRAL =      0.11 TIME LEFT: 172799.88
 STEP:  12 TIME =     0.01 SECS, INTEGRAL =      0.12 TIME LEFT: 172799.87
 STEP:  13 TIME =     0.01 SECS, INTEGRAL =      0.14 TIME LEFT: 172799.86
 STEP:  14 TIME =     0.01 SECS, INTEGRAL =      0.15 TIME LEFT: 172799.84
 STEP:  15 TIME =     0.01 SECS, INTEGRAL =      0.16 TIME LEFT: 172799.83
 STEP:  16 TIME =     0.01 SECS, INTEGRAL =      0.17 TIME LEFT: 172799.82
 STEP:  17 TIME =     0.01 SECS, INTEGRAL =      0.18 TIME LEFT: 172799.81
 STEP:  18 TIME =     0.01 SECS, INTEGRAL =      0.20 TIME LEFT: 172799.80
 STEP:  19 TIME =     0.01 SECS, INTEGRAL =      0.21 TIME LEFT: 172799.79
 STEP:  20 TIME =     0.01 SECS, INTEGRAL =      0.22 TIME LEFT: 172799.77
 STEP:  21 TIME =     0.01 SECS, INTEGRAL =      0.23 TIME LEFT: 172799.76
 STEP:  22 TIME =     0.01 SECS, INTEGRAL =      0.24 TIME LEFT: 172799.75
 STEP:  23 TIME =     0.01 SECS, INTEGRAL =      0.25 TIME LEFT: 172799.74
 STEP:  24 TIME =     0.01 SECS, INTEGRAL =      0.27 TIME LEFT: 172799.73
 STEP:  25 TIME =     0.01 SECS, INTEGRAL =      0.28 TIME LEFT: 172799.71
 STEP:  26 TIME =     0.01 SECS, INTEGRAL =      0.29 TIME LEFT: 172799.70
 STEP:  27 TIME =     0.01 SECS, INTEGRAL =      0.30 TIME LEFT: 172799.69
 STEP:  28 TIME =     0.01 SECS, INTEGRAL =      0.31 TIME LEFT: 172799.68
 STEP:  29 TIME =     0.02 SECS, INTEGRAL =      0.33 TIME LEFT: 172799.66
 STEP:  30 TIME =     0.01 SECS, INTEGRAL =      0.34 TIME LEFT: 172799.65
 STEP:  31 TIME =     0.01 SECS, INTEGRAL =      0.35 TIME LEFT: 172799.64
 STEP:  32 TIME =     0.01 SECS, INTEGRAL =      0.36 TIME LEFT: 172799.63
 STEP:  33 TIME =     0.01 SECS, INTEGRAL =      0.38 TIME LEFT: 172799.62
 STEP:  34 TIME =     0.01 SECS, INTEGRAL =      0.38 TIME LEFT: 172799.61
 STEP:  35 TIME =     0.01 SECS, INTEGRAL =      0.39 TIME LEFT: 172799.60
 STEP:  36 TIME =     0.01 SECS, INTEGRAL =      0.41 TIME LEFT: 172799.59
 STEP:  37 TIME =     0.01 SECS, INTEGRAL =      0.42 TIME LEFT: 172799.57
 STEP:  38 TIME =     0.01 SECS, INTEGRAL =      0.43 TIME LEFT: 172799.56
 STEP:  39 TIME =     0.01 SECS, INTEGRAL =      0.44 TIME LEFT: 172799.55
 STEP:  40 TIME =     0.01 SECS, INTEGRAL =      0.45 TIME LEFT: 172799.54
 STEP:  41 TIME =     0.01 SECS, INTEGRAL =      0.46 TIME LEFT: 172799.53
 STEP:  42 TIME =     0.01 SECS, INTEGRAL =      0.47 TIME LEFT: 172799.52
 STEP:  43 TIME =     0.01 SECS, INTEGRAL =      0.48 TIME LEFT: 172799.51
 STEP:  44 TIME =     0.01 SECS, INTEGRAL =      0.50 TIME LEFT: 172799.50
 STEP:  45 TIME =     0.01 SECS, INTEGRAL =      0.51 TIME LEFT: 172799.48

(To convert to Hartree/Bohr^2, multiply by (10^(-21) x N x a0^2)/(4.184 x 627.51) =  0.0642)


           FORCE MATRIX IN MILLIDYNES/ANGSTROM


                  C  1       C  2       C  3       C  4       C  5       C  6
 ------------------------------------------------------------------------------
     C    1  14.826316
     C    2   0.734161  14.827644
     C    3   4.267415   4.267030  19.263085
     C    4   4.567678   1.180493   1.012563  18.292955
     C    5   1.180313   4.569193   1.012598  10.485216  18.294008
     C    6   0.070327   0.070274   0.795727   0.006515   0.006511  18.148110
     C    7   0.787156   0.788119  11.345743   0.055747   0.055745  11.890303
     H    8   4.500350   0.030738   0.431094   0.429385   0.037691   0.006062
     H    9   4.500489   0.030754   0.431090   0.429358   0.037702   0.006059
     H   10   0.030730   4.500535   0.431065   0.037694   0.429336   0.006051
     H   11   0.030756   4.500951   0.431064   0.037702   0.429409   0.006050
     H   12   0.408814   0.119208   0.044135   5.034005   0.450084   0.001370
     H   13   0.119201   0.408861   0.044139   0.450075   5.034360   0.001370
     H   14   0.079545   0.079586   0.042000   0.001055   0.001056   5.013068
     H   15   0.079496   0.079536   0.041972   0.001051   0.001051   5.013304


                  C  7       H  8       H  9       H 10       H 11       H 12
 ------------------------------------------------------------------------------
     C    7  25.043954
     H    8   0.018540   5.099029
     H    9   0.018551   0.557090   5.099108
     H   10   0.018592   0.001884   0.002331   5.099203
     H   11   0.018591   0.002334   0.001886   0.557139   5.099644
     H   12   0.007951   0.012693   0.012712   0.016194   0.016190   5.428404
     H   13   0.007951   0.016192   0.016191   0.012722   0.012712   0.049325
     H   14   0.479736   0.008979   0.009027   0.008982   0.009022   0.000312
     H   15   0.479726   0.009019   0.008971   0.009022   0.008967   0.000311


                  H 13       H 14       H 15
 ------------------------------------------
     H   13   5.428787
     H   14   0.000312   5.390352
     H   15   0.000311   0.407914   5.390587


          HEAT OF FORMATION =      56.135557 KCALS/MOLE

          ZERO POINT ENERGY      78.442 KCAL/MOL


           NORMAL COORDINATE ANALYSIS (Total motion = 1 Angstrom)


   Root No.       1         2         3         4         5         6         7         8

                 1 A       2 A       3 A       4 A       5 A       6 A       7 A       8 A   

                  93.2     164.7     267.9     365.7     495.4     529.9     550.1     571.2
  
           1   -0.0000   -0.0260    0.0000    0.0000    0.0000    0.0000    0.0424   -0.0413
           2   -0.0000   -0.0382   -0.0000   -0.0000   -0.0000    0.0000   -0.0342   -0.0267
           3   -0.0438   -0.0000   -0.0281   -0.0172    0.0021   -0.0044   -0.0000   -0.0000
           4   -0.0000   -0.0260   -0.0000    0.0000   -0.0001    0.0000   -0.0428   -0.0408
           5   -0.0000    0.0382   -0.0000    0.0000   -0.0000   -0.0000   -0.0340    0.0270
           6   -0.0439    0.0000   -0.0280    0.0172    0.0021    0.0044   -0.0000    0.0000
           7   -0.0000   -0.0551   -0.0000   -0.0000   -0.0000    0.0000   -0.0002   -0.0404
           8   -0.0000    0.0000    0.0000   -0.0000    0.0000   -0.0000    0.0484   -0.0002
           9   -0.0394    0.0000    0.0456   -0.0000    0.0949    0.0001   -0.0002   -0.0000
          10    0.0000    0.0208    0.0000   -0.0000    0.0000   -0.0000    0.0031    0.0053
          11    0.0000   -0.0214   -0.0000    0.0000   -0.0001    0.0000   -0.0620   -0.0205
          12    0.0419   -0.0000    0.0006    0.0615   -0.0039   -0.0052    0.0000    0.0000
          13    0.0000    0.0208    0.0000   -0.0000   -0.0000   -0.0000   -0.0030    0.0054
          14    0.0000    0.0214   -0.0000   -0.0000   -0.0001    0.0000   -0.0618    0.0211
          15    0.0419    0.0000    0.0007   -0.0615   -0.0039    0.0052    0.0000   -0.0000
          16    0.0000    0.0824    0.0000    0.0000   -0.0000   -0.0000    0.0000   -0.0160
          17   -0.0000   -0.0001    0.0000   -0.0000    0.0001   -0.0000    0.0842   -0.0003
          18    0.0462   -0.0000   -0.0359   -0.0000   -0.0028   -0.0000    0.0000   -0.0000
          19   -0.0000   -0.0374   -0.0000   -0.0000    0.0000   -0.0001    0.0006    0.1566
          20   -0.0000    0.0000   -0.0000   -0.0000    0.0001   -0.0000    0.0694   -0.0004
          21   -0.0041   -0.0000    0.0869    0.0000   -0.0689   -0.0001    0.0001    0.0000
          22    0.0368   -0.0320    0.0706    0.0709    0.1113    0.0424    0.0395   -0.0485
          23   -0.0427   -0.0599    0.0006   -0.0595    0.0181    0.0031   -0.0561   -0.0527
          24   -0.0792   -0.0001   -0.0797   -0.0822   -0.0765   -0.0358   -0.0015    0.0004
          25   -0.0368   -0.0320   -0.0706   -0.0708   -0.1112   -0.0424    0.0398   -0.0486
          26    0.0427   -0.0600   -0.0007    0.0594   -0.0182   -0.0030   -0.0560   -0.0527
          27   -0.0792    0.0000   -0.0797   -0.0822   -0.0765   -0.0358    0.0017   -0.0005
          28   -0.0369   -0.0320   -0.0706    0.0708   -0.1113    0.0423   -0.0399   -0.0480
          29   -0.0427    0.0600    0.0006    0.0595    0.0181   -0.0031   -0.0556    0.0532
          30   -0.0793    0.0001   -0.0796    0.0821   -0.0765    0.0357   -0.0015   -0.0003
          31    0.0368   -0.0320    0.0706   -0.0708    0.1112   -0.0422   -0.0403   -0.0482
          32    0.0427    0.0600   -0.0006   -0.0594   -0.0182    0.0030   -0.0555    0.0532
          33   -0.0794   -0.0000   -0.0797    0.0822   -0.0765    0.0357    0.0018    0.0005
          34    0.0000    0.0498    0.0000    0.0000   -0.0000   -0.0000   -0.0215    0.0416
          35    0.0000   -0.0431    0.0000    0.0001   -0.0001    0.0000   -0.0441   -0.0477
          36    0.0955   -0.0000    0.0181    0.1569   -0.0240   -0.0153    0.0001    0.0000
          37    0.0000    0.0498    0.0000    0.0000    0.0000   -0.0000    0.0218    0.0413
          38    0.0000    0.0431    0.0000   -0.0001   -0.0001   -0.0000   -0.0436    0.0481
          39    0.0955    0.0000    0.0182   -0.1568   -0.0240    0.0153    0.0001    0.0000
          40    0.0000    0.1348    0.0001   -0.0170   -0.0004    0.3641   -0.0002   -0.1160
          41   -0.0376   -0.0001    0.1124    0.0000   -0.0969   -0.0005    0.0962   -0.0003
          42    0.0700    0.0000   -0.1082   -0.0000    0.0605    0.0002   -0.0058   -0.0000
          43    0.0000    0.1347   -0.0001    0.0170    0.0003   -0.3639   -0.0005   -0.1166
          44    0.0375   -0.0002   -0.1123   -0.0001    0.0971    0.0004    0.0960   -0.0002
          45    0.0701    0.0000   -0.1082   -0.0000    0.0605   -0.0001    0.0057   -0.0001


   Root No.       9        10        11        12        13        14        15        16

                 9 A      10 A      11 A      12 A      13 A      14 A      15 A      16 A   

                 739.3     784.6     852.1     880.9     924.5     967.3     967.5     988.0
  
           1   -0.0000    0.0473    0.0000    0.0649   -0.0000   -0.0000    0.0000   -0.0054
           2   -0.0000   -0.0574   -0.0000    0.0258   -0.0000    0.0000    0.0000    0.0020
           3   -0.0137    0.0000   -0.0432    0.0000    0.0155    0.0397    0.0212   -0.0000
           4    0.0000    0.0474   -0.0000   -0.0649    0.0000   -0.0000   -0.0000   -0.0054
           5   -0.0000    0.0573    0.0000    0.0258   -0.0000    0.0000   -0.0000   -0.0020
           6   -0.0138   -0.0000    0.0432   -0.0000    0.0155    0.0430   -0.0138    0.0000
           7    0.0000    0.0498    0.0000    0.0000    0.0000    0.0000   -0.0000    0.0034
           8   -0.0000   -0.0000    0.0000    0.0026    0.0000    0.0000   -0.0000   -0.0000
           9    0.0248    0.0000   -0.0000   -0.0000   -0.0033   -0.0357   -0.0032   -0.0000
          10   -0.0000   -0.0821   -0.0000   -0.0005    0.0000    0.0000   -0.0000    0.0007
          11   -0.0000   -0.0895   -0.0000   -0.0125   -0.0000   -0.0000   -0.0000   -0.0043
          12   -0.0227    0.0000   -0.0016    0.0000   -0.0102   -0.0262   -0.0345    0.0000
          13   -0.0000   -0.0821   -0.0000    0.0005    0.0000    0.0000   -0.0000    0.0007
          14   -0.0000    0.0895    0.0000   -0.0125    0.0000   -0.0000    0.0000    0.0043
          15   -0.0227   -0.0000    0.0016   -0.0000   -0.0102   -0.0323    0.0293   -0.0000
          16    0.0000    0.0023    0.0000   -0.0000   -0.0000    0.0000   -0.0000   -0.0929
          17    0.0000    0.0000   -0.0000   -0.0355   -0.0000   -0.0000   -0.0000    0.0001
          18   -0.0028    0.0000    0.0000    0.0000    0.0660   -0.0125   -0.0011   -0.0000
          19   -0.0000    0.0005    0.0000    0.0000    0.0000   -0.0000    0.0000    0.0336
          20    0.0000    0.0000   -0.0000   -0.0183    0.0000   -0.0000   -0.0000   -0.0000
          21   -0.0043   -0.0000   -0.0000   -0.0000   -0.0570    0.0172    0.0015    0.0000
          22   -0.0436    0.0707   -0.1218    0.0931    0.0407    0.0755    0.0843   -0.0051
          23    0.0695   -0.0221    0.0291    0.0780   -0.0066   -0.0927    0.0988    0.0077
          24    0.0343   -0.0066    0.0542   -0.0081   -0.0163   -0.0367   -0.0204    0.0010
          25    0.0436    0.0705    0.1218    0.0930   -0.0408   -0.0755   -0.0843   -0.0050
          26   -0.0695   -0.0220   -0.0291    0.0780    0.0066    0.0927   -0.0987    0.0078
          27    0.0344    0.0066    0.0543    0.0080   -0.0163   -0.0368   -0.0204   -0.0010
          28    0.0437    0.0707   -0.1218   -0.0930   -0.0407   -0.0902    0.0695   -0.0051
          29    0.0695    0.0220   -0.0291    0.0780   -0.0066   -0.0724   -0.1135   -0.0076
          30    0.0343    0.0066   -0.0542   -0.0080   -0.0163   -0.0400    0.0136   -0.0010
          31   -0.0436    0.0706    0.1217   -0.0931    0.0407    0.0902   -0.0695   -0.0050
          32   -0.0695    0.0219    0.0291    0.0779    0.0066    0.0723    0.1135   -0.0077
          33    0.0344   -0.0066   -0.0543    0.0081   -0.0163   -0.0401    0.0135    0.0010
          34    0.0000   -0.0405   -0.0000   -0.0765    0.0000    0.0000    0.0000    0.0212
          35    0.0001   -0.1221    0.0001    0.0460   -0.0000    0.0000    0.0000   -0.0194
          36    0.2524   -0.0001    0.1443   -0.0001    0.0409    0.0828    0.1718   -0.0000
          37   -0.0000   -0.0406    0.0000    0.0765   -0.0000    0.0000    0.0000    0.0212
          38    0.0001    0.1221   -0.0000    0.0461    0.0000    0.0001   -0.0000    0.0194
          39    0.2525    0.0000   -0.1442    0.0001    0.0410    0.1142   -0.1541    0.0001
          40   -0.0000    0.0006    0.0380   -0.0001    0.0003    0.0018   -0.0190    0.3777
          41   -0.0155    0.0000   -0.0000   -0.0558    0.2609   -0.0473   -0.0042   -0.0004
          42    0.0074   -0.0000    0.0000    0.0105   -0.1054    0.0185    0.0016    0.0001
          43    0.0000    0.0007   -0.0381   -0.0001   -0.0002   -0.0018    0.0191    0.3778
          44    0.0156    0.0000    0.0000   -0.0559   -0.2609    0.0472    0.0042   -0.0005
          45    0.0074    0.0000   -0.0000   -0.0106   -0.1055    0.0185    0.0017    0.0001


   Root No.      17        18        19        20        21        22        23        24

                17 A      18 A      19 A      20 A      21 A      22 A      23 A      24 A   

                1027.5    1054.0    1061.9    1079.7    1110.1    1204.0    1236.2    1301.0
  
           1   -0.0194   -0.0000   -0.0000   -0.0221    0.0276   -0.0086    0.0094   -0.0246
           2    0.0222    0.0000    0.0000    0.0114   -0.0038    0.0179   -0.0211   -0.0202
           3   -0.0000    0.0158   -0.0151   -0.0000   -0.0000   -0.0000    0.0000    0.0000
           4   -0.0194    0.0000    0.0000    0.0222   -0.0276   -0.0086   -0.0094   -0.0246
           5   -0.0222   -0.0000    0.0000    0.0114   -0.0038   -0.0179   -0.0211    0.0201
           6    0.0000   -0.0158   -0.0151    0.0000   -0.0000    0.0000    0.0000   -0.0000
           7    0.0107    0.0000   -0.0000    0.0000   -0.0000    0.0565   -0.0000    0.0684
           8   -0.0000   -0.0000   -0.0000   -0.0092    0.0097   -0.0000   -0.0370   -0.0000
           9    0.0000   -0.0000    0.0491   -0.0000    0.0000    0.0000   -0.0000    0.0000
          10    0.0049    0.0000   -0.0000   -0.0054    0.0097   -0.0148    0.0008    0.0197
          11   -0.0223   -0.0000   -0.0000   -0.0323    0.0246    0.0151    0.0239   -0.0206
          12    0.0000   -0.0444   -0.0104    0.0000   -0.0000   -0.0000   -0.0000    0.0000
          13    0.0049    0.0000    0.0000    0.0054   -0.0097   -0.0148   -0.0007    0.0197
          14    0.0222   -0.0000   -0.0000   -0.0323    0.0246   -0.0151    0.0239    0.0207
          15   -0.0000    0.0444   -0.0104    0.0000   -0.0000    0.0000   -0.0000   -0.0000
          16    0.0050   -0.0000    0.0000    0.0000   -0.0000    0.0025   -0.0000    0.0020
          17    0.0000    0.0000    0.0000    0.0102   -0.0101    0.0000   -0.0001    0.0000
          18    0.0000    0.0000    0.0032    0.0000   -0.0000    0.0000    0.0000    0.0000
          19   -0.0075   -0.0000   -0.0000   -0.0000    0.0000   -0.0088   -0.0000   -0.0064
          20    0.0000    0.0000    0.0000    0.0022   -0.0011    0.0000   -0.0209    0.0000
          21   -0.0000    0.0000   -0.0081    0.0000    0.0000   -0.0000   -0.0000   -0.0000
          22   -0.0017   -0.0127   -0.0924   -0.0011    0.0472   -0.0623    0.0540   -0.1097
          23    0.1149   -0.1661   -0.1855    0.1450   -0.0295   -0.1334    0.0262    0.0477
          24    0.0065   -0.0103    0.0138    0.0110   -0.0158    0.0071   -0.0195    0.0664
          25   -0.0017    0.0127    0.0924   -0.0012    0.0473   -0.0623    0.0540   -0.1097
          26    0.1149    0.1662    0.1857    0.1448   -0.0294   -0.1335    0.0262    0.0476
          27   -0.0065   -0.0104    0.0137   -0.0111    0.0158   -0.0071    0.0195   -0.0665
          28   -0.0017   -0.0128    0.0924    0.0011   -0.0472   -0.0624   -0.0540   -0.1099
          29   -0.1148    0.1663   -0.1854    0.1450   -0.0295    0.1334    0.0260   -0.0476
          30   -0.0065    0.0103    0.0138    0.0110   -0.0158   -0.0071   -0.0195   -0.0665
          31   -0.0017    0.0128   -0.0924    0.0012   -0.0473   -0.0624   -0.0540   -0.1099
          32   -0.1149   -0.1662    0.1855    0.1450   -0.0295    0.1335    0.0260   -0.0475
          33    0.0066    0.0104    0.0137   -0.0111    0.0158    0.0071    0.0195    0.0666
          34    0.1436    0.0000   -0.0000    0.0668    0.2426    0.1053    0.0006   -0.1045
          35   -0.1240    0.0000   -0.0000   -0.0881   -0.1467   -0.0750    0.0263    0.0716
          36    0.0000    0.1030    0.0170   -0.0000    0.0001    0.0000   -0.0000   -0.0000
          37    0.1436    0.0000    0.0000   -0.0669   -0.2426    0.1052   -0.0006   -0.1045
          38    0.1239   -0.0001   -0.0000   -0.0882   -0.1467    0.0750    0.0262   -0.0715
          39   -0.0000   -0.1029    0.0169    0.0001    0.0000   -0.0000   -0.0000    0.0000
          40   -0.0163    0.0028    0.0000    0.0000   -0.0000   -0.0009    0.0003    0.0008
          41    0.0000    0.0000    0.0112    0.0285   -0.0335    0.0001    0.2346   -0.0002
          42   -0.0000   -0.0000   -0.0041   -0.0100    0.0130   -0.0000   -0.1367    0.0001
          43   -0.0163   -0.0028   -0.0000    0.0000   -0.0000   -0.0009    0.0002    0.0008
          44    0.0000    0.0000   -0.0111    0.0285   -0.0335    0.0001    0.2345   -0.0002
          45   -0.0000    0.0000   -0.0041    0.0101   -0.0130    0.0000    0.1368   -0.0001


   Root No.      25        26        27        28        29        30        31        32

                25 A      26 A      27 A      28 A      29 A      30 A      31 A      32 A   

                1318.2    1361.6    1383.1    1392.6    1566.2    1819.4    2280.2    2972.7
  
           1    0.0119   -0.0402   -0.0400    0.0407   -0.0298   -0.0149    0.0055    0.0000
           2    0.0516   -0.0674    0.0311   -0.0307   -0.0449    0.0087    0.0058   -0.0000
           3   -0.0000    0.0000   -0.0000    0.0000    0.0000   -0.0000    0.0000   -0.0324
           4   -0.0120   -0.0403    0.0398    0.0408    0.0298    0.0149   -0.0055   -0.0000
           5    0.0515    0.0674    0.0312    0.0309   -0.0449    0.0088    0.0058    0.0000
           6   -0.0000   -0.0000   -0.0000   -0.0000    0.0000   -0.0000    0.0000    0.0288
           7    0.0000    0.0545    0.0001   -0.0272    0.0001    0.0000   -0.0001   -0.0000
           8    0.0058   -0.0000    0.0007    0.0000    0.1723   -0.0115   -0.1878    0.0000
           9    0.0000    0.0000    0.0000   -0.0000    0.0000    0.0000   -0.0000   -0.0000
          10    0.0007   -0.0101   -0.0024   -0.0193    0.0062    0.2245    0.0045   -0.0000
          11   -0.0262    0.0563   -0.0185    0.0361   -0.0024   -0.0228    0.0036   -0.0000
          12    0.0000   -0.0000    0.0000   -0.0000    0.0000    0.0000   -0.0000    0.0001
          13   -0.0006   -0.0101    0.0024   -0.0193   -0.0062   -0.2245   -0.0045   -0.0000
          14   -0.0260   -0.0563   -0.0185   -0.0362   -0.0024   -0.0229    0.0036   -0.0000
          15    0.0000    0.0000    0.0000    0.0000   -0.0000    0.0000   -0.0000   -0.0001
          16   -0.0000    0.0009    0.0000   -0.0010   -0.0001    0.0000   -0.0002    0.0000
          17   -0.0286   -0.0000   -0.0016   -0.0000   -0.1388    0.0096   -0.1472    0.0000
          18   -0.0000    0.0000   -0.0000   -0.0000   -0.0000    0.0000   -0.0000   -0.0000
          19   -0.0000   -0.0009   -0.0000    0.0051    0.0001   -0.0000    0.0002    0.0000
          20   -0.0122   -0.0000   -0.0006   -0.0000    0.0335   -0.0082    0.3280   -0.0000
          21   -0.0000   -0.0000   -0.0000    0.0000    0.0000   -0.0000    0.0001   -0.0000
          22   -0.0770    0.1023    0.1408   -0.0981    0.0139   -0.0031    0.0009    0.1456
          23   -0.0743    0.0510   -0.0661    0.0546    0.0507    0.0340   -0.0062   -0.0419
          24    0.0331   -0.0677   -0.1311    0.1014   -0.0091    0.0020   -0.0033    0.1963
          25   -0.0770    0.1023    0.1408   -0.0981    0.0139   -0.0031    0.0009   -0.1456
          26   -0.0743    0.0510   -0.0660    0.0546    0.0507    0.0340   -0.0062    0.0420
          27   -0.0330    0.0677    0.1311   -0.1014    0.0091   -0.0021    0.0033    0.1962
          28    0.0767    0.1031   -0.1403   -0.0985   -0.0139    0.0031   -0.0009    0.1296
          29   -0.0742   -0.0510   -0.0660   -0.0549    0.0507    0.0340   -0.0062    0.0373
          30    0.0329    0.0683   -0.1305   -0.1017   -0.0090    0.0020   -0.0033   -0.1748
          31    0.0766    0.1030   -0.1402   -0.0984   -0.0139    0.0031   -0.0009   -0.1295
          32   -0.0742   -0.0510   -0.0659   -0.0548    0.0508    0.0340   -0.0062   -0.0373
          33   -0.0329   -0.0683    0.1306    0.1018    0.0090   -0.0021    0.0033   -0.1743
          34    0.0228    0.0683   -0.0127    0.0796   -0.0159    0.0525    0.0055    0.0000
          35   -0.0442   -0.0017   -0.0137   -0.0374    0.0117    0.1586    0.0109    0.0000
          36    0.0000   -0.0000    0.0000    0.0000   -0.0000   -0.0001   -0.0000   -0.0003
          37   -0.0232    0.0682    0.0126    0.0796    0.0159   -0.0525   -0.0055   -0.0000
          38   -0.0444    0.0016   -0.0138    0.0373    0.0117    0.1586    0.0109    0.0000
          39    0.0000    0.0000    0.0000   -0.0000   -0.0000   -0.0001   -0.0000    0.0002
          40    0.0001    0.0013    0.0000   -0.0002    0.0001    0.0000   -0.0001    0.0006
          41    0.0979    0.0001    0.0033    0.0000    0.0516    0.0010   -0.0678   -0.0000
          42   -0.0763   -0.0001   -0.0031   -0.0000   -0.1309    0.0069   -0.1090   -0.0000
          43    0.0001    0.0013    0.0000   -0.0002    0.0000    0.0000   -0.0001   -0.0006
          44    0.0979    0.0001    0.0033    0.0000    0.0515    0.0010   -0.0678    0.0000
          45    0.0763    0.0001    0.0031    0.0000    0.1309   -0.0069    0.1089   -0.0000


   Root No.      33        34        35        36        37        38        39

                33 A      34 A      35 A      36 A      37 A      38 A      39 A   

                2973.6    3045.2    3046.4    3115.6    3119.6    3121.0    3138.4
  
           1    0.0000    0.0216    0.0195   -0.0002   -0.0000    0.0000   -0.0019
           2   -0.0000   -0.0063   -0.0057   -0.0000   -0.0002    0.0000    0.0007
           3   -0.0289   -0.0000   -0.0000   -0.0000    0.0000   -0.0000    0.0000
           4    0.0000    0.0196   -0.0215    0.0002   -0.0000   -0.0000    0.0019
           5   -0.0000    0.0057   -0.0062   -0.0000    0.0002    0.0000    0.0007
           6   -0.0324    0.0000   -0.0000    0.0000   -0.0000   -0.0000    0.0000
           7    0.0000    0.0006   -0.0000   -0.0000    0.0002    0.0000   -0.0000
           8   -0.0000    0.0000    0.0006   -0.0009    0.0000    0.0000    0.0014
           9   -0.0001    0.0000    0.0000   -0.0000    0.0000   -0.0002   -0.0000
          10   -0.0000   -0.0002   -0.0001   -0.0002   -0.0231    0.0000   -0.0284
          11   -0.0000   -0.0007   -0.0009   -0.0002   -0.0309    0.0000   -0.0295
          12   -0.0002    0.0000    0.0000    0.0000    0.0000   -0.0000    0.0000
          13    0.0000   -0.0002    0.0001    0.0002   -0.0229   -0.0000    0.0285
          14    0.0000    0.0006   -0.0010   -0.0002    0.0307    0.0000   -0.0296
          15   -0.0002   -0.0000    0.0000    0.0000   -0.0000   -0.0000    0.0000
          16   -0.0000    0.0000   -0.0000   -0.0001   -0.0000    0.0000    0.0000
          17   -0.0000    0.0000   -0.0000   -0.0475    0.0000    0.0003    0.0003
          18   -0.0000    0.0000   -0.0000   -0.0004    0.0000   -0.0650   -0.0000
          19   -0.0000    0.0001   -0.0000    0.0000    0.0000    0.0000   -0.0000
          20    0.0000   -0.0000   -0.0004    0.0087   -0.0000   -0.0001   -0.0004
          21   -0.0001    0.0000   -0.0000   -0.0000    0.0000   -0.0004   -0.0000
          22    0.1293   -0.1308   -0.1153    0.0008    0.0010    0.0000    0.0062
          23   -0.0375    0.0376    0.0333   -0.0003   -0.0017   -0.0000   -0.0029
          24    0.1744   -0.2088   -0.1843    0.0012    0.0019   -0.0000    0.0099
          25   -0.1293   -0.1309   -0.1154    0.0008    0.0010   -0.0000    0.0062
          26    0.0376    0.0377    0.0334   -0.0003   -0.0017    0.0000   -0.0029
          27    0.1743    0.2088    0.1843   -0.0012   -0.0019    0.0000   -0.0099
          28   -0.1455   -0.1186    0.1270   -0.0008    0.0010   -0.0000   -0.0062
          29   -0.0422   -0.0340    0.0366   -0.0003    0.0017   -0.0000   -0.0029
          30    0.1963    0.1894   -0.2030    0.0012   -0.0018   -0.0000    0.0099
          31    0.1453   -0.1189    0.1273   -0.0008    0.0010    0.0000   -0.0062
          32    0.0422   -0.0343    0.0369   -0.0003    0.0017    0.0000   -0.0029
          33    0.1958   -0.1896    0.2032   -0.0012    0.0018    0.0000   -0.0099
          34    0.0000    0.0021    0.0087    0.0016    0.2722   -0.0000    0.2567
          35   -0.0000    0.0015    0.0099    0.0023    0.3674   -0.0000    0.3423
          36   -0.0010   -0.0000   -0.0000   -0.0000   -0.0002    0.0000   -0.0001
          37    0.0000    0.0012   -0.0088   -0.0016    0.2706    0.0000   -0.2583
          38   -0.0000   -0.0005    0.0100    0.0022   -0.3651   -0.0000    0.3444
          39   -0.0010    0.0000   -0.0000   -0.0000    0.0001    0.0000   -0.0001
          40   -0.0000    0.0000   -0.0000    0.0001    0.0000    0.0001   -0.0000
          41   -0.0000    0.0000    0.0008    0.2385   -0.0000    0.2538   -0.0013
          42   -0.0000    0.0001    0.0013    0.4028   -0.0000    0.3886   -0.0023
          43    0.0000    0.0000    0.0000    0.0004    0.0000   -0.0005   -0.0000
          44    0.0000    0.0000    0.0008    0.2356   -0.0000   -0.2570   -0.0013
          45   -0.0000   -0.0001   -0.0013   -0.3979    0.0000    0.3937    0.0023


           MASS-WEIGHTED COORDINATE ANALYSIS (NORMAL COORDINATES)


   Root No.       1         2         3         4         5         6         7         8

                 1 A       2 A       3 A       4 A       5 A       6 A       7 A       8 A   

                  93.2     164.7     267.9     365.7     495.4     529.9     550.1     571.2
  
           1   -0.0000   -0.1727    0.0000    0.0000    0.0003    0.0001    0.2392   -0.2151
           2   -0.0001   -0.2540   -0.0001   -0.0001   -0.0003    0.0002   -0.1930   -0.1391
           3   -0.3379   -0.0000   -0.1963   -0.1303    0.0139   -0.0288   -0.0001   -0.0001
           4   -0.0000   -0.1727   -0.0001    0.0000   -0.0004    0.0003   -0.2413   -0.2128
           5   -0.0000    0.2543   -0.0001    0.0001   -0.0002   -0.0000   -0.1916    0.1406
           6   -0.3383    0.0002   -0.1961    0.1300    0.0139    0.0289   -0.0000    0.0000
           7   -0.0000   -0.3664   -0.0000   -0.0000   -0.0001    0.0002   -0.0010   -0.2106
           8   -0.0000    0.0002    0.0000   -0.0000    0.0003   -0.0001    0.2728   -0.0013
           9   -0.3035    0.0000    0.3191   -0.0000    0.6350    0.0005   -0.0010   -0.0001
          10    0.0000    0.1387    0.0000   -0.0000    0.0000   -0.0001    0.0173    0.0277
          11    0.0002   -0.1421   -0.0000    0.0001   -0.0005    0.0002   -0.3499   -0.1068
          12    0.3230   -0.0001    0.0044    0.4653   -0.0259   -0.0340    0.0001    0.0000
          13    0.0000    0.1387    0.0000   -0.0000   -0.0000   -0.0001   -0.0172    0.0279
          14    0.0002    0.1424   -0.0000   -0.0001   -0.0005    0.0001   -0.3488    0.1100
          15    0.3229    0.0001    0.0048   -0.4652   -0.0261    0.0340    0.0001   -0.0000
          16    0.0001    0.5483    0.0000    0.0001   -0.0000   -0.0001    0.0000   -0.0833
          17   -0.0002   -0.0007    0.0002   -0.0000    0.0006   -0.0002    0.4749   -0.0016
          18    0.3562   -0.0000   -0.2512   -0.0000   -0.0184   -0.0000    0.0002   -0.0000
          19   -0.0000   -0.2485   -0.0000   -0.0001    0.0002   -0.0005    0.0035    0.8162
          20   -0.0001    0.0001   -0.0000   -0.0000    0.0006   -0.0002    0.3917   -0.0022
          21   -0.0314   -0.0001    0.6079    0.0002   -0.4615   -0.0004    0.0005    0.0002
          22    0.0821   -0.0617    0.1431    0.1553    0.2158    0.0804    0.0646   -0.0733
          23   -0.0954   -0.1155    0.0013   -0.1303    0.0350    0.0060   -0.0916   -0.0796
          24   -0.1769   -0.0001   -0.1614   -0.1801   -0.1483   -0.0677   -0.0025    0.0006
          25   -0.0821   -0.0617   -0.1430   -0.1553   -0.2156   -0.0803    0.0651   -0.0734
          26    0.0953   -0.1155   -0.0014    0.1302   -0.0353   -0.0058   -0.0915   -0.0795
          27   -0.1770    0.0001   -0.1614   -0.1802   -0.1483   -0.0677    0.0028   -0.0007
          28   -0.0823   -0.0616   -0.1431    0.1552   -0.2159    0.0801   -0.0652   -0.0725
          29   -0.0954    0.1156    0.0012    0.1303    0.0351   -0.0058   -0.0908    0.0803
          30   -0.1771    0.0002   -0.1614    0.1799   -0.1483    0.0675   -0.0024   -0.0005
          31    0.0823   -0.0617    0.1430   -0.1552    0.2156   -0.0799   -0.0659   -0.0728
          32    0.0953    0.1156   -0.0013   -0.1302   -0.0353    0.0058   -0.0907    0.0803
          33   -0.1773   -0.0000   -0.1614    0.1801   -0.1484    0.0676    0.0029    0.0007
          34    0.0000    0.0960    0.0000    0.0000   -0.0000   -0.0001   -0.0351    0.0628
          35    0.0001   -0.0830    0.0000    0.0001   -0.0001    0.0001   -0.0720   -0.0720
          36    0.2132   -0.0001    0.0366    0.3438   -0.0465   -0.0290    0.0001    0.0000
          37    0.0000    0.0960    0.0000    0.0000    0.0001   -0.0001    0.0357    0.0624
          38    0.0001    0.0831    0.0000   -0.0001   -0.0001   -0.0000   -0.0713    0.0726
          39    0.2132    0.0000    0.0369   -0.3437   -0.0466    0.0290    0.0001    0.0000
          40    0.0000    0.2597    0.0003   -0.0373   -0.0008    0.6894   -0.0003   -0.1751
          41   -0.0839   -0.0003    0.2277    0.0001   -0.1879   -0.0009    0.1572   -0.0004
          42    0.1564    0.0000   -0.2192   -0.0001    0.1172    0.0003   -0.0094   -0.0000
          43    0.0000    0.2596   -0.0002    0.0373    0.0007   -0.6891   -0.0008   -0.1760
          44    0.0838   -0.0004   -0.2275   -0.0001    0.1883    0.0008    0.1568   -0.0004
          45    0.1565    0.0000   -0.2193   -0.0000    0.1173   -0.0002    0.0093   -0.0001


   Root No.       9        10        11        12        13        14        15        16

                 9 A      10 A      11 A      12 A      13 A      14 A      15 A      16 A   

                 739.3     784.6     852.1     880.9     924.5     967.3     967.5     988.0
  
           1   -0.0000    0.2165    0.0003    0.4770   -0.0001   -0.0000    0.0000   -0.0292
           2   -0.0001   -0.2627   -0.0001    0.1898   -0.0000    0.0001    0.0001    0.0110
           3   -0.1106    0.0002   -0.3685    0.0002    0.1033    0.3340    0.1850   -0.0001
           4    0.0001    0.2168   -0.0001   -0.4769    0.0001   -0.0000   -0.0000   -0.0292
           5   -0.0000    0.2626    0.0003    0.1898   -0.0000    0.0001   -0.0000   -0.0110
           6   -0.1107   -0.0002    0.3686   -0.0001    0.1033    0.3622   -0.1205    0.0001
           7    0.0000    0.2281    0.0001    0.0000    0.0000    0.0000   -0.0000    0.0185
           8   -0.0000   -0.0001    0.0000    0.0192    0.0000    0.0000   -0.0000   -0.0001
           9    0.1995    0.0000   -0.0000   -0.0000   -0.0217   -0.3002   -0.0278   -0.0000
          10   -0.0000   -0.3760   -0.0001   -0.0035    0.0000    0.0000   -0.0000    0.0038
          11   -0.0001   -0.4099   -0.0001   -0.0920   -0.0000   -0.0001   -0.0002   -0.0232
          12   -0.1823    0.0001   -0.0140    0.0000   -0.0679   -0.2204   -0.3010    0.0001
          13   -0.0000   -0.3760   -0.0001    0.0034    0.0000    0.0000   -0.0000    0.0038
          14   -0.0000    0.4100    0.0001   -0.0916    0.0000   -0.0000    0.0001    0.0232
          15   -0.1823   -0.0001    0.0139   -0.0000   -0.0680   -0.2720    0.2554   -0.0001
          16    0.0000    0.0104    0.0000   -0.0002   -0.0001    0.0001   -0.0001   -0.5038
          17    0.0000    0.0000   -0.0001   -0.2611   -0.0001   -0.0000   -0.0000    0.0005
          18   -0.0226    0.0000    0.0000    0.0000    0.4395   -0.1050   -0.0097   -0.0002
          19   -0.0000    0.0023    0.0000    0.0003    0.0001   -0.0000    0.0000    0.1821
          20    0.0000    0.0000   -0.0001   -0.1342    0.0001   -0.0001   -0.0000   -0.0001
          21   -0.0348   -0.0000   -0.0000   -0.0001   -0.3799    0.1446    0.0134    0.0001
          22   -0.1017    0.0937   -0.3012    0.1982    0.0786    0.1840    0.2131   -0.0079
          23    0.1620   -0.0293    0.0720    0.1659   -0.0128   -0.2260    0.2496    0.0120
          24    0.0800   -0.0088    0.1341   -0.0172   -0.0315   -0.0896   -0.0516    0.0016
          25    0.1016    0.0936    0.3013    0.1980   -0.0787   -0.1839   -0.2130   -0.0078
          26   -0.1620   -0.0291   -0.0719    0.1659    0.0127    0.2260   -0.2495    0.0122
          27    0.0801    0.0087    0.1342    0.0171   -0.0315   -0.0897   -0.0515   -0.0016
          28    0.1018    0.0938   -0.3013   -0.1979   -0.0785   -0.2199    0.1757   -0.0080
          29    0.1621    0.0292   -0.0719    0.1660   -0.0128   -0.1765   -0.2869   -0.0120
          30    0.0800    0.0088   -0.1341   -0.0171   -0.0315   -0.0974    0.0343   -0.0016
          31   -0.1017    0.0937    0.3012   -0.1981    0.0786    0.2198   -0.1757   -0.0079
          32   -0.1620    0.0291    0.0720    0.1658    0.0127    0.1763    0.2868   -0.0121
          33    0.0802   -0.0088   -0.1343    0.0172   -0.0315   -0.0977    0.0341    0.0016
          34    0.0000   -0.0538   -0.0001   -0.1628    0.0001    0.0001    0.0001    0.0333
          35    0.0002   -0.1620    0.0001    0.0978   -0.0000    0.0000    0.0001   -0.0305
          36    0.5882   -0.0001    0.3569   -0.0001    0.0790    0.2018    0.4341   -0.0001
          37   -0.0000   -0.0539    0.0000    0.1628   -0.0000    0.0000    0.0001    0.0333
          38    0.0002    0.1620   -0.0001    0.0980    0.0000    0.0001   -0.0001    0.0305
          39    0.5884    0.0000   -0.3566    0.0002    0.0791    0.2783   -0.3896    0.0001
          40   -0.0001    0.0008    0.0941   -0.0003    0.0006    0.0043   -0.0480    0.5935
          41   -0.0362    0.0000   -0.0001   -0.1186    0.5034   -0.1152   -0.0106   -0.0007
          42    0.0173   -0.0000    0.0000    0.0224   -0.2034    0.0451    0.0042    0.0002
          43    0.0001    0.0009   -0.0941   -0.0002   -0.0004   -0.0044    0.0483    0.5937
          44    0.0363    0.0000    0.0000   -0.1189   -0.5034    0.1152    0.0106   -0.0008
          45    0.0173    0.0000   -0.0001   -0.0226   -0.2036    0.0451    0.0042    0.0002


   Root No.      17        18        19        20        21        22        23        24

                17 A      18 A      19 A      20 A      21 A      22 A      23 A      24 A   

                1027.5    1054.0    1061.9    1079.7    1110.1    1204.0    1236.2    1301.0
  
           1   -0.1673   -0.0001   -0.0001   -0.1952    0.2057   -0.0699    0.0703   -0.1867
           2    0.1911    0.0001    0.0001    0.1002   -0.0287    0.1456   -0.1582   -0.1530
           3   -0.0002    0.1268   -0.1134   -0.0000   -0.0000   -0.0000    0.0001    0.0000
           4   -0.1669    0.0000    0.0001    0.1953   -0.2057   -0.0700   -0.0704   -0.1866
           5   -0.1909   -0.0000    0.0000    0.1003   -0.0287   -0.1458   -0.1578    0.1523
           6    0.0000   -0.1266   -0.1135    0.0001   -0.0001    0.0001    0.0001   -0.0001
           7    0.0924    0.0000   -0.0000    0.0000   -0.0001    0.4604   -0.0000    0.5193
           8   -0.0001   -0.0000   -0.0001   -0.0815    0.0726   -0.0003   -0.2772   -0.0003
           9    0.0000   -0.0002    0.3692   -0.0003    0.0001    0.0000   -0.0001    0.0000
          10    0.0419    0.0000   -0.0000   -0.0475    0.0726   -0.1208    0.0056    0.1495
          11   -0.1916   -0.0002   -0.0002   -0.2843    0.1838    0.1230    0.1788   -0.1567
          12    0.0001   -0.3555   -0.0784    0.0003   -0.0001   -0.0001   -0.0001    0.0001
          13    0.0420    0.0000    0.0001    0.0475   -0.0726   -0.1209   -0.0055    0.1495
          14    0.1913   -0.0000   -0.0002   -0.2843    0.1838   -0.1227    0.1787    0.1572
          15   -0.0001    0.3555   -0.0781    0.0000   -0.0000    0.0000   -0.0001   -0.0001
          16    0.0430   -0.0000    0.0000    0.0001   -0.0001    0.0208   -0.0000    0.0150
          17    0.0000    0.0000    0.0001    0.0898   -0.0753    0.0000   -0.0006    0.0003
          18    0.0000    0.0000    0.0237    0.0000   -0.0000    0.0000    0.0000    0.0000
          19   -0.0642   -0.0000   -0.0000   -0.0001    0.0001   -0.0715   -0.0002   -0.0484
          20    0.0001    0.0000    0.0000    0.0191   -0.0084    0.0000   -0.1568    0.0002
          21   -0.0000    0.0000   -0.0605    0.0000    0.0000   -0.0000   -0.0001   -0.0000
          22   -0.0043   -0.0295   -0.2012   -0.0029    0.1021   -0.1471    0.1172   -0.2412
          23    0.2865   -0.3855   -0.4036    0.3702   -0.0636   -0.3150    0.0568    0.1049
          24    0.0162   -0.0240    0.0301    0.0281   -0.0341    0.0168   -0.0424    0.1461
          25   -0.0042    0.0295    0.2012   -0.0031    0.1022   -0.1472    0.1171   -0.2412
          26    0.2865    0.3857    0.4042    0.3696   -0.0634   -0.3150    0.0568    0.1047
          27   -0.0163   -0.0242    0.0299   -0.0283    0.0342   -0.0167    0.0424   -0.1462
          28   -0.0041   -0.0297    0.2011    0.0028   -0.1020   -0.1473   -0.1171   -0.2416
          29   -0.2862    0.3860   -0.4034    0.3703   -0.0638    0.3150    0.0564   -0.1046
          30   -0.0161    0.0239    0.0301    0.0280   -0.0341   -0.0169   -0.0424   -0.1462
          31   -0.0041    0.0297   -0.2011    0.0030   -0.1021   -0.1474   -0.1171   -0.2416
          32   -0.2864   -0.3857    0.4038    0.3701   -0.0637    0.3151    0.0564   -0.1045
          33    0.0163    0.0242    0.0299   -0.0284    0.0342    0.0167    0.0424    0.1464
          34    0.3581    0.0000   -0.0000    0.1705    0.5241    0.2485    0.0012   -0.2298
          35   -0.3091    0.0001   -0.0000   -0.2249   -0.3169   -0.1769    0.0570    0.1574
          36    0.0000    0.2390    0.0370   -0.0000    0.0001    0.0001   -0.0000   -0.0001
          37    0.3580    0.0000    0.0000   -0.1709   -0.5240    0.2483   -0.0014   -0.2297
          38    0.3090   -0.0001   -0.0000   -0.2252   -0.3169    0.1770    0.0568   -0.1572
          39   -0.0001   -0.2389    0.0368    0.0001    0.0001   -0.0001   -0.0000    0.0001
          40   -0.0406    0.0065    0.0000    0.0001   -0.0001   -0.0022    0.0007    0.0018
          41    0.0001    0.0000    0.0244    0.0728   -0.0723    0.0001    0.5088   -0.0004
          42   -0.0000   -0.0000   -0.0089   -0.0257    0.0281   -0.0001   -0.2965    0.0003
          43   -0.0407   -0.0065   -0.0000    0.0001   -0.0001   -0.0022    0.0005    0.0018
          44    0.0001    0.0000   -0.0242    0.0728   -0.0723    0.0001    0.5086   -0.0004
          45   -0.0000    0.0000   -0.0088    0.0257   -0.0282    0.0001    0.2967   -0.0003


   Root No.      25        26        27        28        29        30        31        32

                25 A      26 A      27 A      28 A      29 A      30 A      31 A      32 A   

                1318.2    1361.6    1383.1    1392.6    1566.2    1819.4    2280.2    2972.7
  
           1    0.0970   -0.2375   -0.2849    0.3003   -0.1215   -0.0453    0.0135    0.0000
           2    0.4191   -0.3983    0.2217   -0.2269   -0.1828    0.0266    0.0141   -0.0000
           3   -0.0001    0.0001   -0.0001    0.0001    0.0000   -0.0000    0.0000   -0.2268
           4   -0.0971   -0.2386    0.2832    0.3012    0.1212    0.0453   -0.0134   -0.0001
           5    0.4184    0.3989    0.2221    0.2280   -0.1827    0.0267    0.0141    0.0000
           6   -0.0001   -0.0001   -0.0001   -0.0001    0.0000   -0.0000    0.0000    0.2016
           7    0.0004    0.3225    0.0008   -0.2010    0.0004    0.0000   -0.0002   -0.0000
           8    0.0467   -0.0001    0.0050    0.0002    0.7014   -0.0349   -0.4589    0.0000
           9    0.0001    0.0000    0.0000   -0.0000    0.0001    0.0000   -0.0001   -0.0001
          10    0.0056   -0.0599   -0.0171   -0.1428    0.0253    0.6837    0.0111   -0.0000
          11   -0.2125    0.3329   -0.1314    0.2665   -0.0099   -0.0696    0.0087   -0.0000
          12    0.0001   -0.0001    0.0000   -0.0001    0.0000    0.0000   -0.0000    0.0004
          13   -0.0051   -0.0598    0.0174   -0.1427   -0.0252   -0.6837   -0.0111   -0.0000
          14   -0.2112   -0.3331   -0.1315   -0.2672   -0.0098   -0.0696    0.0087   -0.0000
          15    0.0001    0.0001    0.0000    0.0001   -0.0000    0.0000   -0.0000   -0.0006
          16   -0.0003    0.0056    0.0000   -0.0072   -0.0006    0.0000   -0.0004    0.0000
          17   -0.2323   -0.0002   -0.0116   -0.0002   -0.5653    0.0292   -0.3597    0.0000
          18   -0.0000    0.0000   -0.0000   -0.0000   -0.0001    0.0000   -0.0001   -0.0000
          19   -0.0000   -0.0051   -0.0001    0.0373    0.0004   -0.0000    0.0006    0.0000
          20   -0.0989   -0.0000   -0.0040   -0.0001    0.1365   -0.0248    0.8013   -0.0000
          21   -0.0000   -0.0000   -0.0000    0.0000    0.0001   -0.0000    0.0002   -0.0000
          22   -0.1811    0.1753    0.2905   -0.2097    0.0164   -0.0027    0.0007    0.2957
          23   -0.1748    0.0873   -0.1363    0.1168    0.0598    0.0300   -0.0044   -0.0851
          24    0.0778   -0.1160   -0.2704    0.2167   -0.0107    0.0018   -0.0023    0.3986
          25   -0.1811    0.1752    0.2904   -0.2097    0.0164   -0.0027    0.0007   -0.2957
          26   -0.1748    0.0874   -0.1362    0.1167    0.0598    0.0300   -0.0044    0.0853
          27   -0.0777    0.1160    0.2705   -0.2168    0.0107   -0.0018    0.0023    0.3983
          28    0.1803    0.1766   -0.2893   -0.2106   -0.0164    0.0027   -0.0006    0.2631
          29   -0.1745   -0.0873   -0.1362   -0.1173    0.0598    0.0300   -0.0044    0.0757
          30    0.0774    0.1169   -0.2692   -0.2175   -0.0107    0.0018   -0.0023   -0.3549
          31    0.1803    0.1765   -0.2892   -0.2104   -0.0164    0.0027   -0.0006   -0.2629
          32   -0.1746   -0.0874   -0.1360   -0.1171    0.0599    0.0300   -0.0044   -0.0758
          33   -0.0773   -0.1169    0.2695    0.2177    0.0106   -0.0018    0.0023   -0.3540
          34    0.0537    0.1170   -0.0262    0.1701   -0.0188    0.0463    0.0039    0.0000
          35   -0.1041   -0.0030   -0.0282   -0.0799    0.0138    0.1400    0.0077    0.0000
          36    0.0000   -0.0000    0.0000    0.0000   -0.0000   -0.0001   -0.0000   -0.0007
          37   -0.0546    0.1168    0.0260    0.1702    0.0187   -0.0463   -0.0039   -0.0000
          38   -0.1045    0.0028   -0.0285    0.0797    0.0138    0.1400    0.0077    0.0000
          39    0.0000    0.0000    0.0000   -0.0000   -0.0000   -0.0001   -0.0000    0.0004
          40    0.0003    0.0022    0.0000   -0.0005    0.0001    0.0000   -0.0000    0.0013
          41    0.2303    0.0001    0.0067    0.0001    0.0609    0.0009   -0.0480   -0.0000
          42   -0.1795   -0.0001   -0.0065   -0.0001   -0.1545    0.0061   -0.0771   -0.0000
          43    0.0002    0.0022    0.0000   -0.0005    0.0000    0.0000   -0.0001   -0.0013
          44    0.2302    0.0001    0.0067    0.0001    0.0608    0.0009   -0.0480    0.0000
          45    0.1796    0.0001    0.0065    0.0001    0.1545   -0.0061    0.0771   -0.0000


   Root No.      33        34        35        36        37        38        39

                33 A      34 A      35 A      36 A      37 A      38 A      39 A   

                2973.6    3045.2    3046.4    3115.6    3119.6    3121.0    3138.4
  
           1    0.0000    0.1533    0.1418   -0.0012   -0.0001    0.0000   -0.0100
           2   -0.0000   -0.0448   -0.0411   -0.0002   -0.0009    0.0000    0.0035
           3   -0.2025   -0.0000   -0.0000   -0.0000    0.0000   -0.0001    0.0000
           4    0.0001    0.1388   -0.1560    0.0012   -0.0000   -0.0000    0.0100
           5   -0.0001    0.0407   -0.0452   -0.0002    0.0009    0.0000    0.0035
           6   -0.2276    0.0001   -0.0002    0.0000   -0.0000   -0.0001    0.0000
           7    0.0000    0.0045   -0.0002   -0.0000    0.0008    0.0000   -0.0000
           8   -0.0000    0.0002    0.0044   -0.0044    0.0000    0.0000    0.0076
           9   -0.0010    0.0000    0.0000   -0.0000    0.0000   -0.0011   -0.0000
          10   -0.0000   -0.0013   -0.0009   -0.0008   -0.1189    0.0000   -0.1533
          11   -0.0000   -0.0046   -0.0067   -0.0009   -0.1588    0.0000   -0.1589
          12   -0.0015    0.0000    0.0000    0.0000    0.0001   -0.0000    0.0001
          13    0.0000   -0.0012    0.0011    0.0008   -0.1179   -0.0000    0.1540
          14    0.0000    0.0039   -0.0071   -0.0009    0.1578    0.0000   -0.1599
          15   -0.0014   -0.0000    0.0000    0.0000   -0.0001   -0.0000    0.0001
          16   -0.0000    0.0000   -0.0000   -0.0003   -0.0000    0.0001    0.0000
          17   -0.0000    0.0000   -0.0000   -0.2415    0.0000    0.0016    0.0018
          18   -0.0002    0.0000   -0.0000   -0.0021    0.0000   -0.3214   -0.0000
          19   -0.0000    0.0005   -0.0000    0.0000    0.0002    0.0000   -0.0000
          20    0.0000   -0.0001   -0.0029    0.0443   -0.0000   -0.0003   -0.0021
          21   -0.0005    0.0000   -0.0000   -0.0000    0.0000   -0.0021   -0.0000
          22    0.2627   -0.2682   -0.2428    0.0012    0.0015    0.0000    0.0096
          23   -0.0763    0.0771    0.0701   -0.0004   -0.0025   -0.0000   -0.0045
          24    0.3544   -0.4283   -0.3880    0.0017    0.0028   -0.0000    0.0155
          25   -0.2627   -0.2685   -0.2430    0.0012    0.0015   -0.0000    0.0097
          26    0.0764    0.0773    0.0703   -0.0004   -0.0025    0.0000   -0.0045
          27    0.3541    0.4283    0.3880   -0.0017   -0.0028    0.0000   -0.0155
          28   -0.2956   -0.2432    0.2674   -0.0012    0.0015   -0.0000   -0.0097
          29   -0.0857   -0.0698    0.0771   -0.0004    0.0025   -0.0000   -0.0046
          30    0.3988    0.3885   -0.4274    0.0017   -0.0027   -0.0000    0.0155
          31    0.2952   -0.2439    0.2681   -0.0012    0.0015    0.0000   -0.0097
          32    0.0858   -0.0703    0.0776   -0.0004    0.0025    0.0000   -0.0046
          33    0.3978   -0.3890    0.4279   -0.0017    0.0027    0.0000   -0.0155
          34    0.0000    0.0043    0.0182    0.0024    0.4054   -0.0000    0.4012
          35   -0.0000    0.0031    0.0209    0.0033    0.5472   -0.0000    0.5351
          36   -0.0020   -0.0000   -0.0000   -0.0000   -0.0002    0.0000   -0.0002
          37    0.0000    0.0025   -0.0186   -0.0023    0.4030    0.0000   -0.4038
          38   -0.0000   -0.0011    0.0211    0.0033   -0.5438   -0.0000    0.5384
          39   -0.0021    0.0000   -0.0000   -0.0000    0.0002    0.0000   -0.0002
          40   -0.0001    0.0000   -0.0000    0.0002    0.0000    0.0002   -0.0000
          41   -0.0000    0.0001    0.0016    0.3514   -0.0000    0.3638   -0.0021
          42   -0.0001    0.0001    0.0028    0.5934   -0.0001    0.5570   -0.0035
          43    0.0001    0.0000    0.0000    0.0006    0.0000   -0.0007   -0.0000
          44    0.0000    0.0001    0.0016    0.3470   -0.0000   -0.3684   -0.0021
          45   -0.0001   -0.0001   -0.0028   -0.5862    0.0001    0.5643    0.0035


          DESCRIPTION OF VIBRATIONS


 VIBRATION          1    1A           ATOM PAIR      ENERGY CONTRIBUTION    RADIAL
 FREQUENCY            93.17         C  2 -- C  5         +12.7% (475.1%)      0.0%
 TRANSITION DIPOLE   0.0031         C  1 -- C  4         +12.7% (474.7%)      0.0%
 TRAVEL (Ang.)       0.9040         C  6 -- C  7         +10.0% (422.1%)      0.0%
 REDUCED MASS        0.8857         C  2 -- C  3          +8.3% (383.9%)      0.0%
 EFFECTIVE MASS    322.8599
 FORCE CONSTANT      0.0045

 VIBRATION          2    2A           ATOM PAIR      ENERGY CONTRIBUTION    RADIAL
 FREQUENCY           164.71         C  2 -- C  3         +10.7% (245.2%)      0.1%
 TRANSITION DIPOLE   0.1317         C  1 -- C  3         +10.7% (245.1%)      0.1%
 TRAVEL (Ang.)       0.5043         C  2 -- C  5          +8.9% (223.9%)      0.1%
 REDUCED MASS        1.6098         C  1 -- C  4          +8.9% (223.8%)      0.1%
 EFFECTIVE MASS     57.6285
 FORCE CONSTANT      0.0257

 VIBRATION          3    3A           ATOM PAIR      ENERGY CONTRIBUTION    RADIAL
 FREQUENCY           267.88         C  6 -- C  7         +19.5% (170.2%)      0.0%
 TRANSITION DIPOLE   0.3463         C  6 -- H 14         +11.1% (128.6%)     41.9%
 TRAVEL (Ang.)       0.3662         C  6 -- H 15         +11.1% (128.6%)     41.9%
 REDUCED MASS        1.8772         C  1 -- C  3          +9.4% (118.1%)      0.0%
 EFFECTIVE MASS     30.6515
 FORCE CONSTANT      0.0794

 VIBRATION          4    4A           ATOM PAIR      ENERGY CONTRIBUTION    RADIAL
 FREQUENCY           365.66         C  4 -- C  5         +23.9% (125.4%)      0.0%
 TRANSITION DIPOLE   0.0001         C  1 -- C  4         +12.5% ( 90.5%)      0.0%
 TRAVEL (Ang.)       0.3949         C  2 -- C  5         +12.5% ( 90.4%)      0.0%
 REDUCED MASS        1.1826         C  1 -- H  8          +9.3% ( 78.0%)     11.4%
 EFFECTIVE MASS     16.6154
 FORCE CONSTANT      0.0932

 VIBRATION          5    5A           ATOM PAIR      ENERGY CONTRIBUTION    RADIAL
 FREQUENCY           495.38         C  3 -- C  7         +26.1% (104.4%)      0.0%
 TRANSITION DIPOLE   0.1289         C  2 -- C  3         +14.2% ( 77.1%)      0.0%
 TRAVEL (Ang.)       0.2323         C  1 -- C  3         +14.2% ( 77.1%)      0.0%
 REDUCED MASS        2.5222         C  2 -- H 10          +7.6% ( 56.3%)      0.2%
 EFFECTIVE MASS     10.4485
 FORCE CONSTANT      0.3647

 VIBRATION          6    6A           ATOM PAIR      ENERGY CONTRIBUTION    RADIAL
 FREQUENCY           529.95         C  6 -- H 14         +45.0% ( 92.0%)      0.0%
 TRANSITION DIPOLE   0.0002         C  6 -- H 15         +45.0% ( 91.9%)      0.0%
 TRAVEL (Ang.)       0.5285         C  1 -- H  8          +2.2% ( 20.6%)      2.4%
 REDUCED MASS        0.4555         C  1 -- H  9          +2.2% ( 20.6%)      2.4%
 EFFECTIVE MASS      1.0751
 FORCE CONSTANT      0.0754

 VIBRATION          7    7A           ATOM PAIR      ENERGY CONTRIBUTION    RADIAL
 FREQUENCY           550.11         C  6 -- H 14         +12.4% (123.6%)     31.3%
 TRANSITION DIPOLE   0.0887         C  6 -- H 15         +12.4% (123.6%)     31.2%
 TRAVEL (Ang.)       0.2824         C  6 -- C  7         +11.5% (119.0%)     99.8%
 REDUCED MASS        1.5371         C  3 -- C  7         +10.3% (112.6%)     99.8%
 EFFECTIVE MASS     18.0153
 FORCE CONSTANT      0.2741

 VIBRATION          8    8A           ATOM PAIR      ENERGY CONTRIBUTION    RADIAL
 FREQUENCY           571.20         C  3 -- C  7         +23.9% ( 93.4%)      0.0%
 TRANSITION DIPOLE   0.4623         C  6 -- C  7         +16.7% ( 77.9%)      0.0%
 TRAVEL (Ang.)       0.1470         C  1 -- C  4          +7.4% ( 51.9%)      6.0%
 REDUCED MASS        5.4634         C  2 -- C  5          +7.3% ( 51.7%)      6.3%
 EFFECTIVE MASS     12.6236
 FORCE CONSTANT      1.0502

 VIBRATION          9    9A           ATOM PAIR      ENERGY CONTRIBUTION    RADIAL
 FREQUENCY           739.31         C  5 -- H 13         +29.6% ( 71.4%)      0.0%
 TRANSITION DIPOLE   0.5193         C  4 -- H 12         +29.6% ( 71.4%)      0.0%
 TRAVEL (Ang.)       0.5531         C  2 -- H 11          +6.5% ( 33.3%)      6.3%
 REDUCED MASS        0.2981         C  2 -- H 10          +6.5% ( 33.3%)      6.4%
 EFFECTIVE MASS      2.3035
 FORCE CONSTANT      0.0960

 VIBRATION         10   10A           ATOM PAIR      ENERGY CONTRIBUTION    RADIAL
 FREQUENCY           784.63         C  4 -- C  5         +21.1% (116.9%)      0.0%
 TRANSITION DIPOLE   0.0561         C  2 -- C  5         +16.8% (104.4%)      1.9%
 TRAVEL (Ang.)       0.1798         C  1 -- C  4         +16.8% (104.4%)      1.9%
 REDUCED MASS        2.6578         C  5 -- H 13         +10.3% ( 81.7%)     92.9%
 EFFECTIVE MASS     16.3014         C  4 -- H 12         +10.3% ( 81.7%)     92.8%
 FORCE CONSTANT      0.9640

 VIBRATION         11   11A           ATOM PAIR      ENERGY CONTRIBUTION    RADIAL
 FREQUENCY           852.11         C  2 -- H 11         +14.3% ( 59.4%)     13.7%
 TRANSITION DIPOLE   0.0002         C  2 -- H 10         +14.3% ( 59.4%)     13.7%
 TRAVEL (Ang.)       0.3870         C  1 -- H  8         +14.3% ( 59.4%)     13.7%
 REDUCED MASS        0.5283         C  1 -- H  9         +14.3% ( 59.4%)     13.7%
 EFFECTIVE MASS      4.8103
 FORCE CONSTANT      0.2260

 VIBRATION         12   12A           ATOM PAIR      ENERGY CONTRIBUTION    RADIAL
 FREQUENCY           880.86         C  1 -- C  4         +11.0% ( 67.1%)      2.2%
 TRANSITION DIPOLE   0.0123         C  2 -- C  5         +11.0% ( 67.0%)      2.2%
 TRAVEL (Ang.)       0.2091         C  1 -- C  3         +10.3% ( 64.8%)     92.6%
 REDUCED MASS        1.7507         C  2 -- C  3         +10.3% ( 64.8%)     92.6%
 EFFECTIVE MASS     10.6644
 FORCE CONSTANT      0.8003

 VIBRATION         13   13A           ATOM PAIR      ENERGY CONTRIBUTION    RADIAL
 FREQUENCY           924.54         C  6 -- H 15         +33.8% ( 77.5%)     11.3%
 TRANSITION DIPOLE   0.2216         C  6 -- H 14         +33.8% ( 77.5%)     11.3%
 TRAVEL (Ang.)       0.2884         C  6 -- C  7         +20.8% ( 60.8%)      0.0%
 REDUCED MASS        0.8769         C  3 -- C  7          +2.0% ( 19.0%)      0.0%
 EFFECTIVE MASS      5.2608
 FORCE CONSTANT      0.4416

 VIBRATION         14   14A           ATOM PAIR      ENERGY CONTRIBUTION    RADIAL
 FREQUENCY           967.34         C  2 -- H 10         +11.2% ( 48.2%)     15.7%
 TRANSITION DIPOLE   0.3296         C  2 -- H 11         +11.2% ( 48.2%)     15.7%
 TRAVEL (Ang.)       0.3419         C  2 -- C  3         +11.0% ( 47.7%)      0.0%
 REDUCED MASS        0.5962         C  1 -- H  9         +10.5% ( 46.6%)     14.7%
 EFFECTIVE MASS      6.5123         C  1 -- H  8         +10.5% ( 46.6%)     14.7%
 FORCE CONSTANT      0.3287         C  2 -- C  5         +10.4% ( 46.4%)      0.0%

 VIBRATION         15   15A           ATOM PAIR      ENERGY CONTRIBUTION    RADIAL
 FREQUENCY           967.46         C  4 -- H 12         +17.7% ( 48.5%)      0.0%
 TRANSITION DIPOLE   0.0253         C  5 -- H 13         +13.8% ( 42.7%)      0.0%
 TRAVEL (Ang.)       0.5023         C  1 -- H  8         +12.3% ( 40.5%)      7.2%
 REDUCED MASS        0.2762         C  1 -- H  9         +12.3% ( 40.5%)      7.2%
 EFFECTIVE MASS      3.0778         C  2 -- H 10         +11.2% ( 38.6%)      3.6%
 FORCE CONSTANT      0.1523         C  2 -- H 11         +11.2% ( 38.6%)      3.6%

 VIBRATION         16   16A           ATOM PAIR      ENERGY CONTRIBUTION    RADIAL
 FREQUENCY           988.04         C  6 -- H 15         +43.4% ( 65.1%)      0.0%
 TRANSITION DIPOLE   0.5398         C  6 -- H 14         +43.3% ( 65.0%)      0.0%
 TRAVEL (Ang.)       0.2565         C  6 -- C  7         +10.3% ( 31.6%)      0.0%
 REDUCED MASS        1.0373         C  3 -- C  7          +0.9% (  9.2%)      0.0%
 EFFECTIVE MASS      3.0752
 FORCE CONSTANT      0.5966

 VIBRATION         17   17A           ATOM PAIR      ENERGY CONTRIBUTION    RADIAL
 FREQUENCY          1027.53         C  4 -- H 12         +14.7% ( 49.8%)      8.1%
 TRANSITION DIPOLE   0.1125         C  5 -- H 13         +14.7% ( 49.8%)      8.1%
 TRAVEL (Ang.)       0.4982         C  1 -- C  4         +10.8% ( 42.8%)     98.6%
 REDUCED MASS        0.2644         C  2 -- C  5         +10.8% ( 42.7%)     98.6%
 EFFECTIVE MASS      4.4351
 FORCE CONSTANT      0.1645

 VIBRATION         18   18A           ATOM PAIR      ENERGY CONTRIBUTION    RADIAL
 FREQUENCY          1054.03         C  2 -- H 10         +14.0% ( 40.0%)      3.2%
 TRANSITION DIPOLE   0.0001         C  2 -- H 11         +14.0% ( 40.0%)      3.2%
 TRAVEL (Ang.)       0.3624         C  1 -- H  9         +14.0% ( 40.0%)      3.2%
 REDUCED MASS        0.4872         C  1 -- H  8         +14.0% ( 40.0%)      3.2%
 EFFECTIVE MASS      3.4637
 FORCE CONSTANT      0.3189

 VIBRATION         19   19A           ATOM PAIR      ENERGY CONTRIBUTION    RADIAL
 FREQUENCY          1061.91         C  1 -- H  9         +19.7% ( 45.8%)      2.0%
 TRANSITION DIPOLE   0.0320         C  2 -- H 11         +19.7% ( 45.8%)      2.0%
 TRAVEL (Ang.)       0.4002         C  1 -- H  8         +19.7% ( 45.8%)      2.0%
 REDUCED MASS        0.3966         C  2 -- H 10         +19.7% ( 45.7%)      2.0%
 EFFECTIVE MASS      2.4800
 FORCE CONSTANT      0.2635

 VIBRATION         20   20A           ATOM PAIR      ENERGY CONTRIBUTION    RADIAL
 FREQUENCY          1079.67         C  2 -- C  5         +11.9% ( 44.8%)    100.0%
 TRANSITION DIPOLE   0.0617         C  1 -- C  4         +11.8% ( 44.8%)    100.0%
 TRAVEL (Ang.)       0.4472         C  4 -- C  5         +11.4% ( 43.9%)    100.0%
 REDUCED MASS        0.3123         C  2 -- H 10          +9.5% ( 40.1%)      7.1%
 EFFECTIVE MASS      5.0028
 FORCE CONSTANT      0.2145

 VIBRATION         21   21A           ATOM PAIR      ENERGY CONTRIBUTION    RADIAL
 FREQUENCY          1110.11         C  4 -- H 12         +27.7% ( 64.1%)      3.7%
 TRANSITION DIPOLE   0.0211         C  5 -- H 13         +27.7% ( 64.1%)      3.7%
 TRAVEL (Ang.)       0.4071         C  2 -- C  5          +7.3% ( 32.9%)     96.8%
 REDUCED MASS        0.3666         C  1 -- C  4          +7.3% ( 32.9%)     96.8%
 EFFECTIVE MASS      3.4083
 FORCE CONSTANT      0.2662

 VIBRATION         22   22A           ATOM PAIR      ENERGY CONTRIBUTION    RADIAL
 FREQUENCY          1204.02         C  2 -- C  3         +13.0% ( 42.9%)     40.0%
 TRANSITION DIPOLE   0.0403         C  1 -- C  3         +13.0% ( 42.9%)     39.9%
 TRAVEL (Ang.)       0.2926         C  3 -- C  7         +11.9% ( 41.0%)      0.0%
 REDUCED MASS        0.6540         C  4 -- H 12          +9.2% ( 36.1%)      0.1%
 EFFECTIVE MASS      3.8700
 FORCE CONSTANT      0.5586

 VIBRATION         23   23A           ATOM PAIR      ENERGY CONTRIBUTION    RADIAL
 FREQUENCY          1236.21         C  6 -- H 14         +18.3% ( 48.6%)      0.1%
 TRANSITION DIPOLE   0.0216         C  6 -- H 15         +18.3% ( 48.6%)      0.1%
 TRAVEL (Ang.)       0.3850         C  1 -- C  3         +10.7% ( 37.1%)     83.5%
 REDUCED MASS        0.3680         C  2 -- C  3         +10.7% ( 37.1%)     83.4%
 EFFECTIVE MASS      3.5399
 FORCE CONSTANT      0.3314

 VIBRATION         24   24A           ATOM PAIR      ENERGY CONTRIBUTION    RADIAL
 FREQUENCY          1300.98         C  1 -- C  3         +18.4% ( 53.2%)     84.4%
 TRANSITION DIPOLE   0.0278         C  2 -- C  3         +18.4% ( 53.2%)     84.4%
 TRAVEL (Ang.)       0.2219         C  3 -- C  7         +11.7% ( 42.4%)      0.0%
 REDUCED MASS        1.0531         C  5 -- H 13          +7.7% ( 34.4%)      0.2%
 EFFECTIVE MASS      6.0414
 FORCE CONSTANT      1.0502

 VIBRATION         25   25A           ATOM PAIR      ENERGY CONTRIBUTION    RADIAL
 FREQUENCY          1318.21         C  1 -- C  4         +11.1% ( 45.8%)     75.0%
 TRANSITION DIPOLE   0.1151         C  2 -- C  5         +11.0% ( 45.7%)     74.9%
 TRAVEL (Ang.)       0.2334         C  1 -- H  8         +10.4% ( 44.3%)      0.0%
 REDUCED MASS        0.9390         C  1 -- H  9         +10.4% ( 44.3%)      0.0%
 EFFECTIVE MASS      6.4412         C  2 -- H 11         +10.3% ( 44.2%)      0.0%
 FORCE CONSTANT      0.9613         C  2 -- H 10         +10.3% ( 44.2%)      0.0%

 VIBRATION         26   26A           ATOM PAIR      ENERGY CONTRIBUTION    RADIAL
 FREQUENCY          1361.65         C  2 -- C  5         +12.7% ( 53.1%)     66.3%
 TRANSITION DIPOLE   0.1307         C  1 -- C  4         +12.6% ( 53.0%)     66.4%
 TRAVEL (Ang.)       0.1775         C  2 -- C  3         +11.5% ( 50.6%)    100.0%
 REDUCED MASS        1.5722         C  1 -- C  3         +11.5% ( 50.5%)    100.0%
 EFFECTIVE MASS      9.4047
 FORCE CONSTANT      1.7175

 VIBRATION         27   27A           ATOM PAIR      ENERGY CONTRIBUTION    RADIAL
 FREQUENCY          1383.09         C  1 -- H  8         +16.1% ( 46.5%)      5.6%
 TRANSITION DIPOLE   0.0546         C  1 -- H  9         +16.1% ( 46.5%)      5.6%
 TRAVEL (Ang.)       0.3013         C  2 -- H 10         +16.0% ( 46.3%)      5.5%
 REDUCED MASS        0.5371         C  2 -- H 11         +16.0% ( 46.3%)      5.6%
 EFFECTIVE MASS      4.1253
 FORCE CONSTANT      0.6053

 VIBRATION         28   28A           ATOM PAIR      ENERGY CONTRIBUTION    RADIAL
 FREQUENCY          1392.56         C  2 -- C  5         +12.9% ( 47.7%)     88.2%
 TRANSITION DIPOLE   0.1102         C  1 -- C  4         +12.8% ( 47.5%)     88.2%
 TRAVEL (Ang.)       0.2535         C  2 -- H 10          +9.9% ( 41.8%)      7.2%
 REDUCED MASS        0.7537         C  2 -- H 11          +9.9% ( 41.8%)      7.2%
 EFFECTIVE MASS      6.4730
 FORCE CONSTANT      0.8612

 VIBRATION         29   29A           ATOM PAIR      ENERGY CONTRIBUTION    RADIAL
 FREQUENCY          1566.17         C  1 -- C  3         +20.8% ( 74.7%)     47.0%
 TRANSITION DIPOLE   0.0025         C  2 -- C  3         +20.8% ( 74.7%)     46.9%
 TRAVEL (Ang.)       0.1013         C  6 -- C  7         +15.9% ( 65.3%)    100.0%
 REDUCED MASS        4.1955         C  3 -- C  7         +14.8% ( 63.0%)    100.0%
 EFFECTIVE MASS     11.4507         C  6 -- H 14         +10.9% ( 54.1%)     10.0%
 FORCE CONSTANT      6.0634         C  6 -- H 15         +10.9% ( 54.1%)     10.0%

 VIBRATION         30   30A           ATOM PAIR      ENERGY CONTRIBUTION    RADIAL
 FREQUENCY          1819.44         C  4 -- C  5         +45.8% (100.1%)    100.0%
 TRANSITION DIPOLE   0.1064         C  2 -- C  5         +13.9% ( 55.1%)     24.0%
 TRAVEL (Ang.)       0.0832         C  1 -- C  4         +13.9% ( 55.1%)     24.0%
 REDUCED MASS        5.3595         C  5 -- H 13         +12.9% ( 53.1%)     10.3%
 EFFECTIVE MASS     11.8738         C  4 -- H 12         +12.9% ( 53.1%)     10.3%
 FORCE CONSTANT     10.4533

 VIBRATION         31   31A           ATOM PAIR      ENERGY CONTRIBUTION    RADIAL
 FREQUENCY          2280.25         C  3 -- C  7         +43.5% ( 87.2%)    100.0%
 TRANSITION DIPOLE   0.0883         C  6 -- C  7         +38.7% ( 82.2%)    100.0%
 TRAVEL (Ang.)       0.0721         C  1 -- C  3          +5.8% ( 31.8%)     36.4%
 REDUCED MASS        5.6866         C  2 -- C  3          +5.8% ( 31.8%)     36.3%
 EFFECTIVE MASS     11.9051
 FORCE CONSTANT     17.4208

 VIBRATION         32   32A           ATOM PAIR      ENERGY CONTRIBUTION    RADIAL
 FREQUENCY          2972.75         C  1 -- H  8         +27.3% ( 54.2%)     96.7%
 TRANSITION DIPOLE   0.0052         C  1 -- H  9         +27.3% ( 54.2%)     96.7%
 TRAVEL (Ang.)       0.2942         C  2 -- H 10         +21.6% ( 48.2%)     96.7%
 REDUCED MASS        0.2621         C  2 -- H 11         +21.6% ( 48.1%)     96.7%
 EFFECTIVE MASS      1.5324
 FORCE CONSTANT      1.3649

 VIBRATION         33   33A           ATOM PAIR      ENERGY CONTRIBUTION    RADIAL
 FREQUENCY          2973.65         C  2 -- H 10         +27.4% ( 54.2%)     96.7%
 TRANSITION DIPOLE   0.0886         C  2 -- H 11         +27.3% ( 54.1%)     96.7%
 TRAVEL (Ang.)       0.2939         C  1 -- H  8         +21.6% ( 48.2%)     96.7%
 REDUCED MASS        0.2626         C  1 -- H  9         +21.6% ( 48.2%)     96.7%
 EFFECTIVE MASS      1.5375
 FORCE CONSTANT      1.3681

 VIBRATION         34   34A           ATOM PAIR      ENERGY CONTRIBUTION    RADIAL
 FREQUENCY          3045.19         C  1 -- H  9         +27.0% ( 51.3%)     97.5%
 TRANSITION DIPOLE   0.1709         C  1 -- H  8         +27.0% ( 51.3%)     97.5%
 TRAVEL (Ang.)       0.3011         C  2 -- H 11         +22.3% ( 46.6%)     97.5%
 REDUCED MASS        0.2443         C  2 -- H 10         +22.2% ( 46.5%)     97.5%
 EFFECTIVE MASS      1.2757
 FORCE CONSTANT      1.3347

 VIBRATION         35   35A           ATOM PAIR      ENERGY CONTRIBUTION    RADIAL
 FREQUENCY          3046.39         C  2 -- H 11         +27.0% ( 51.3%)     97.4%
 TRANSITION DIPOLE   0.0308         C  2 -- H 10         +26.9% ( 51.2%)     97.4%
 TRAVEL (Ang.)       0.3014         C  1 -- H  9         +22.2% ( 46.5%)     97.4%
 REDUCED MASS        0.2437         C  1 -- H  8         +22.2% ( 46.5%)     97.4%
 EFFECTIVE MASS      1.2919
 FORCE CONSTANT      1.3324

 VIBRATION         36   36A           ATOM PAIR      ENERGY CONTRIBUTION    RADIAL
 FREQUENCY          3115.57         C  6 -- H 14         +49.7% ( 70.6%)     95.3%
 TRANSITION DIPOLE   0.3144         C  6 -- H 15         +48.4% ( 69.7%)     95.0%
 TRAVEL (Ang.)       0.2110         C  6 -- C  7          +1.8% ( 13.4%)    100.0%
 REDUCED MASS        0.4859
 EFFECTIVE MASS      1.4152
 FORCE CONSTANT      2.7790

 VIBRATION         37   37A           ATOM PAIR      ENERGY CONTRIBUTION    RADIAL
 FREQUENCY          3119.61         C  4 -- H 12         +49.0% ( 71.1%)    100.0%
 TRANSITION DIPOLE   0.3888         C  5 -- H 13         +48.4% ( 70.7%)    100.0%
 TRAVEL (Ang.)       0.2156         C  4 -- C  5          +1.1% ( 10.8%)      0.0%
 REDUCED MASS        0.4649         C  1 -- C  4          +0.7% (  8.7%)     26.9%
 EFFECTIVE MASS      1.4644
 FORCE CONSTANT      2.6657

 VIBRATION         38   38A           ATOM PAIR      ENERGY CONTRIBUTION    RADIAL
 FREQUENCY          3120.98         C  6 -- H 15         +50.0% ( 72.4%)     97.2%
 TRANSITION DIPOLE   0.2059         C  6 -- H 14         +48.8% ( 71.5%)     97.0%
 TRAVEL (Ang.)       0.2012         C  6 -- C  7          +1.2% ( 11.2%)      0.0%
 REDUCED MASS        0.5335
 EFFECTIVE MASS      1.5950
 FORCE CONSTANT      3.0616

 VIBRATION         39   39A           ATOM PAIR      ENERGY CONTRIBUTION    RADIAL
 FREQUENCY          3138.41         C  5 -- H 13         +48.0% ( 70.6%)     99.9%
 TRANSITION DIPOLE   0.3799         C  4 -- H 12         +47.4% ( 70.2%)     99.9%
 TRAVEL (Ang.)       0.2147         C  4 -- C  5          +2.5% ( 16.1%)    100.0%
 REDUCED MASS        0.4661         C  2 -- C  5          +1.0% (  9.9%)     20.4%
 EFFECTIVE MASS      1.6523
 FORCE CONSTANT      2.7051

      SYMMETRY NUMBER FOR POINT-GROUP C1  =  1


          SYSTEM IS A GROUND STATE



 InChI=1S/C7H8/c1-2-7-5-3-4-6-7/h3-4H,1,5-6H2


          MOLECULE IS NOT LINEAR

          THERE ARE 39 GENUINE VIBRATIONS IN THIS SYSTEM
          THIS THERMODYNAMICS CALCULATION IS LIMITED TO
          MOLECULES WHICH HAVE NO INTERNAL ROTATIONS




                    CALCULATED THERMODYNAMIC PROPERTIES
                                          *
   TEMP. (K)   PARTITION FUNCTION   H.O.F.    ENTHALPY  HEAT CAPACITY ENTROPY
                                   KCAL/MOL   CAL/MOLE    CAL/K/MOL  CAL/K/MOL


 298.00  VIB.     0.1351D+02                  2299.1575    18.6472    12.8887
         ROT.     0.1956D+06                   888.2803     2.9808    27.1927
         INT.     0.2643D+07                  3187.4378    21.6280    40.0814
         TRA.     0.8551D+27                  1480.4672     4.9680    39.4718
         TOT.                       56.136    4667.9050    26.5960    79.5532

 200.00  VIB.     0.4137D+01                   880.2291    10.4911     7.2230
         ROT.     0.1076D+06                   596.1613     2.9808    26.0040
         INT.     0.4450D+06                  1476.3904    13.4719    33.2270
         TRA.     0.4701D+27                   993.6021     4.9680    37.4906
         TOT.                       53.938    2469.9926    18.4399    70.7177

 210.00  VIB.     0.4627D+01                   988.9616    11.2591     7.7534
         ROT.     0.1157D+06                   625.9693     2.9808    26.1495
         INT.     0.5354D+06                  1614.9309    14.2399    33.9028
         TRA.     0.5058D+27                  1043.2822     4.9680    37.7330
         TOT.                       54.126    2658.2132    19.2079    71.6358

 220.00  VIB.     0.5185D+01                  1105.4809    12.0481     8.2953
         ROT.     0.1241D+06                   655.7774     2.9808    26.2881
         INT.     0.6433D+06                  1761.2583    15.0289    34.5834
         TRA.     0.5424D+27                  1092.9623     4.9680    37.9641
         TOT.                       54.322    2854.2207    19.9969    72.5475

 230.00  VIB.     0.5822D+01                  1229.9865    12.8559     8.8486
         ROT.     0.1326D+06                   685.5855     2.9808    26.4206
         INT.     0.7722D+06                  1915.5719    15.8367    35.2692
         TRA.     0.5798D+27                  1142.6424     4.9680    38.1850
         TOT.                       54.526    3058.2144    20.8047    73.4542

 240.00  VIB.     0.6552D+01                  1362.6540    13.6801     9.4131
         ROT.     0.1414D+06                   715.3935     2.9808    26.5475
         INT.     0.9263D+06                  2078.0476    16.6609    35.9606
         TRA.     0.6180D+27                  1192.3226     4.9680    38.3964
         TOT.                       54.738    3270.3701    21.6289    74.3570

 250.00  VIB.     0.7387D+01                  1503.6340    14.5180     9.9885
         ROT.     0.1503D+06                   745.2016     2.9808    26.6692
         INT.     0.1110D+07                  2248.8356    17.4988    36.6577
         TRA.     0.6570D+27                  1242.0027     4.9680    38.5992
         TOT.                       54.958    3490.8383    22.4668    75.2569

 260.00  VIB.     0.8346D+01                  1653.0502    15.3669    10.5744
         ROT.     0.1594D+06                   775.0097     2.9808    26.7861
         INT.     0.1331D+07                  2428.0599    18.3477    37.3605
         TRA.     0.6968D+27                  1291.6828     4.9680    38.7941
         TOT.                       55.187    3719.7427    23.3157    76.1545

 270.00  VIB.     0.9449D+01                  1810.9997    16.2242    11.1704
         ROT.     0.1687D+06                   804.8177     2.9808    26.8986
         INT.     0.1594D+07                  2615.8174    19.2050    38.0690
         TRA.     0.7374D+27                  1341.3629     4.9680    38.9816
         TOT.                       55.425    3957.1803    24.1730    77.0505

 280.00  VIB.     0.1072D+02                  1977.5530    17.0872    11.7760
         ROT.     0.1782D+06                   834.6258     2.9808    27.0070
         INT.     0.1909D+07                  2812.1787    20.0680    38.7830
         TRA.     0.7788D+27                  1391.0430     4.9680    39.1622
         TOT.                       55.671    4203.2217    25.0360    77.9452

 290.00  VIB.     0.1218D+02                  2152.7547    17.9535    12.3907
         ROT.     0.1878D+06                   864.4339     2.9808    27.1116
         INT.     0.2287D+07                  3017.1886    20.9343    39.5023
         TRA.     0.8209D+27                  1440.7231     4.9680    39.3366
         TOT.                       55.926    4457.9116    25.9023    78.8389

 300.00  VIB.     0.1387D+02                  2336.6253    18.8206    13.0140
         ROT.     0.1976D+06                   894.2419     2.9808    27.2126
         INT.     0.2740D+07                  3230.8672    21.8014    40.2266
         TRA.     0.8637D+27                  1490.4032     4.9680    39.5050
         TOT.                       56.189    4721.2704    26.7694    79.7316

 310.00  VIB.     0.1582D+02                  2529.1622    19.6864    13.6453
         ROT.     0.2075D+06                   924.0500     2.9808    27.3104
         INT.     0.3282D+07                  3453.2122    22.6672    40.9556
         TRA.     0.9072D+27                  1540.0833     4.9680    39.6679
         TOT.                       56.461    4993.2955    27.6352    80.6235

 320.00  VIB.     0.1807D+02                  2730.3417    20.5488    14.2839
         ROT.     0.2177D+06                   953.8580     2.9808    27.4050
         INT.     0.3934D+07                  3684.1998    23.5296    41.6889
         TRA.     0.9515D+27                  1589.7634     4.9680    39.8256
         TOT.                       56.742    5273.9632    28.4976    81.5145

 330.00  VIB.     0.2068D+02                  2940.1210    21.4061    14.9294
         ROT.     0.2280D+06                   983.6661     2.9808    27.4967
         INT.     0.4715D+07                  3923.7871    24.3869    42.4261
         TRA.     0.9964D+27                  1639.4435     4.9680    39.9785
         TOT.                       57.031    5563.2307    29.3549    82.4046

 340.00  VIB.     0.2371D+02                  3158.4401    22.2565    15.5810
         ROT.     0.2384D+06                  1013.4742     2.9808    27.5857
         INT.     0.5653D+07                  4171.9142    25.2373    43.1668
         TRA.     0.1042D+28                  1689.1236     4.9680    40.1268
         TOT.                       57.329    5861.0379    30.2053    83.2936

 350.00  VIB.     0.2723D+02                  3385.2234    23.0987    16.2384
         ROT.     0.2490D+06                  1043.2822     2.9808    27.6721
         INT.     0.6780D+07                  4428.5057    26.0795    43.9105
         TRA.     0.1088D+28                  1738.8037     4.9680    40.2708
         TOT.                       57.635    6167.3094    31.0475    84.1813

 360.00  VIB.     0.3132D+02                  3620.3825    23.9314    16.9008
         ROT.     0.2597D+06                  1073.0903     2.9808    27.7561
         INT.     0.8134D+07                  4693.4728    26.9122    44.6569
         TRA.     0.1135D+28                  1788.4838     4.9680    40.4108
         TOT.                       57.950    6481.9566    31.8802    85.0677

 370.00  VIB.     0.3607D+02                  3863.8169    24.7536    17.5677
         ROT.     0.2706D+06                  1102.8984     2.9808    27.8378
         INT.     0.9761D+07                  4966.7153    27.7344    45.4055
         TRA.     0.1183D+28                  1838.1639     4.9680    40.5469
         TOT.                       58.273    6804.8792    32.7024    85.9524

 380.00  VIB.     0.4160D+02                  4115.4169    25.5644    18.2386
         ROT.     0.2817D+06                  1132.7064     2.9808    27.9173
         INT.     0.1172D+08                  5248.1233    28.5452    46.1559
         TRA.     0.1231D+28                  1887.8440     4.9680    40.6794
         TOT.                       58.604    7135.9674    33.5132    86.8353

 390.00  VIB.     0.4805D+02                  4375.0643    26.3630    18.9130
         ROT.     0.2929D+06                  1162.5145     2.9808    27.9947
         INT.     0.1407D+08                  5537.5788    29.3438    46.9077
         TRA.     0.1280D+28                  1937.5242     4.9680    40.8084
         TOT.                       58.943    7475.1029    34.3118    87.7162

 400.00  VIB.     0.5557D+02                  4642.6345    27.1489    19.5904
         ROT.     0.3042D+06                  1192.3226     2.9808    28.0702
         INT.     0.1690D+08                  5834.9571    30.1297    47.6606
         TRA.     0.1330D+28                  1987.2043     4.9680    40.9342
         TOT.                       59.290    7822.1613    35.0977    88.5948

   *: NOTE: HEATS OF FORMATION ARE RELATIVE TO THE
            ELEMENTS IN THEIR STANDARD STATE AT 298K
              (=  Standard Enthalpy of Formation).

            Hvib:  Zero-point energy is not included.
                   frequencies of less than zero cm-1 are not included.
            Hrot = (3/2)RT
            Htra = (3/2)RT + pV = (5/2)RT

            Heat capacity is Cp, not Cv

          For more information, see: HTTP://OpenMOPAC.net/Manual/thermochemistry.html


           FORCE CONSTANT IN CARTESIAN COORDINATES (Millidynes/A)

    ATOM   CHEMICAL       X               Y               Z
   NUMBER   SYMBOL  FORCE CONSTANT  FORCE CONSTANT  FORCE CONSTANT

      1       C        9.481650        8.230194        7.835186
      2       C        9.481548        8.232528        7.835289
      3       C        7.745925       17.443805        2.603975
      4       C       15.026393        9.941145        2.334894
      5       C       15.027161        9.942090        2.334794
      6       C        1.850201       15.973208        8.413490
      7       C        1.909252       24.919575        1.602694
      8       H        2.005910        0.759621        3.542577
      9       H        2.006927        0.760190        3.541072
     10       H        2.005424        0.759449        3.543354
     11       H        2.007472        0.760438        3.540791
     12       H        2.372889        3.705651        0.346534
     13       H        2.373752        3.705157        0.346485
     14       H        0.296733        1.942194        4.018185
     15       H        0.296869        1.943944        4.016607

 **********************
 *                    *
 * JOB ENDED NORMALLY *
 *                    *
 **********************



 TOTAL JOB TIME:             0.98 SECONDS

 == MOPAC DONE ==
