 *******************************************************************************
 **                                                                           **
 **                              MOPAC v23.1.2                                **
 **                                                                           **
 *******************************************************************************
 **          Digital Object Identifier (DOI): 10.5281/zenodo.6511958          **
 **    Visit the DOI location for information on how to cite this program.    **
 *******************************************************************************

                              PM3 CALCULATION RESULTS

 *******************************************************************************
 *  CALCULATION DONE: (MAX THREADS = 1)              Tue Jun  3 16:40:32 2025  *
 *  PM3        - The PM3 Hamiltonian to be used
 *  PRECISE    - TIGHTER CRITERIA TO BE USED
 *  NOSYM      - POINT-GROUP SYMMETRY SET TO C1
 *  THREADS=1  - MULTI-THREADING NOT USED
 *  T=         - A TIME OF 172800.0 SECONDS REQUESTED
 *  DUMP=N     - RESTART FILE WRITTEN EVERY 7200.0 SECONDS REQUESTED
 *******************************************************************************
pm3  precise nosym THREADS=1
 InChI=1S/C12H20/c1-4-6-7-10(3)12-8-11(5-2)9-12/h6-8,10,12H,4-5,9H2,1-3H3

   ATOM   CHEMICAL          X               Y               Z
  NUMBER   SYMBOL      (ANGSTROMS)     (ANGSTROMS)     (ANGSTROMS)

     1       C          0.50860000  *   0.69610000  *  -0.32160000  *
     2       C         -0.34650000  *  -0.24000000  *  -1.21260000  *
     3       C          0.89180000  *   0.13990000  *   0.95100000  *
     4       C          3.61970000  *  -0.19350000  *   1.16130000  *
     5       C         -3.89870000  *   0.14520000  *   0.35190000  *
     6       C         -0.52420000  *   0.34380000  *  -2.62080000  *
     7       C         -3.72430000  *  -0.27630000  *   1.80840000  *
     8       C          4.29880000  *  -1.31510000  *   0.38500000  *
     9       C          2.32160000  *   0.18160000  *   0.52020000  *
    10       C          1.95380000  *   0.71370000  *  -0.71600000  *
    11       C         -1.69260000  *  -0.51970000  *  -0.57950000  *
    12       C         -2.57400000  *   0.45220000  *  -0.28880000  *
    13       H          0.17860000  *  -1.21630000  *  -1.32420000  *
    14       H          0.09960000  *   1.72860000  *  -0.23940000  *
    15       H         -4.53500000  *   1.05550000  *   0.31790000  *
    16       H         -4.41690000  *  -0.65820000  *  -0.21520000  *
    17       H          3.42870000  *  -0.52940000  *   2.20250000  *
    18       H          4.28310000  *   0.69660000  *   1.19010000  *
    19       H          0.70070000  *   0.82700000  *   1.80460000  *
    20       H          0.55560000  *  -0.90470000  *   1.13650000  *
    21       H         -3.20650000  *   0.52300000  *   2.38080000  *
    22       H         -3.13440000  *  -1.21500000  *   1.87500000  *
    23       H         -4.72070000  *  -0.45270000  *   2.26540000  *
    24       H         -1.17060000  *  -0.32210000  *  -3.23190000  *
    25       H          0.45970000  *   0.42630000  *  -3.12880000  *
    26       H         -0.98610000  *   1.35310000  *  -2.57850000  *
    27       H          5.25250000  *  -1.58760000  *   0.88390000  *
    28       H          3.64400000  *  -2.21230000  *   0.35320000  *
    29       H          4.52160000  *  -0.98650000  *  -0.65280000  *
    30       H         -2.34690000  *   1.48550000  *  -0.53350000  *
    31       H         -1.93930000  *  -1.55130000  *  -0.34300000  *
    32       H          2.49820000  *   1.02410000  *  -1.60120000  *



          CARTESIAN COORDINATES 

    NO.       ATOM           X           Y           Z

     1         C          0.5086      0.6961     -0.3216
     2         C         -0.3465     -0.2400     -1.2126
     3         C          0.8918      0.1399      0.9510
     4         C          3.6197     -0.1935      1.1613
     5         C         -3.8987      0.1452      0.3519
     6         C         -0.5242      0.3438     -2.6208
     7         C         -3.7243     -0.2763      1.8084
     8         C          4.2988     -1.3151      0.3850
     9         C          2.3216      0.1816      0.5202
    10         C          1.9538      0.7137     -0.7160
    11         C         -1.6926     -0.5197     -0.5795
    12         C         -2.5740      0.4522     -0.2888
    13         H          0.1786     -1.2163     -1.3242
    14         H          0.0996      1.7286     -0.2394
    15         H         -4.5350      1.0555      0.3179
    16         H         -4.4169     -0.6582     -0.2152
    17         H          3.4287     -0.5294      2.2025
    18         H          4.2831      0.6966      1.1901
    19         H          0.7007      0.8270      1.8046
    20         H          0.5556     -0.9047      1.1365
    21         H         -3.2065      0.5230      2.3808
    22         H         -3.1344     -1.2150      1.8750
    23         H         -4.7207     -0.4527      2.2654
    24         H         -1.1706     -0.3221     -3.2319
    25         H          0.4597      0.4263     -3.1288
    26         H         -0.9861      1.3531     -2.5785
    27         H          5.2525     -1.5876      0.8839
    28         H          3.6440     -2.2123      0.3532
    29         H          4.5216     -0.9865     -0.6528
    30         H         -2.3469      1.4855     -0.5335
    31         H         -1.9393     -1.5513     -0.3430
    32         H          2.4982      1.0241     -1.6012

  H: (PM3): J. J. P. STEWART, J. COMP. CHEM. 10, 209 (1989).
  C: (PM3): J. J. P. STEWART, J. COMP. CHEM. 10, 209 (1989).

           Empirical Formula: C12 H20  =    32 atoms



      MOLECULAR POINT GROUP   :   C1  


      RHF CALCULATION, NO. OF DOUBLY OCCUPIED LEVELS = 34


          Geometry optimization using EF

          DIAGONAL MATRIX USED AS START HESSIAN

 CYCLE:     1 TIME:   0.012 TIME LEFT:  2.00D  GRAD.:   214.688 HEAT:  31.73428
 CYCLE:     2 TIME:   0.012 TIME LEFT:  2.00D  GRAD.:   222.271 HEAT:  31.45432
 CYCLE:     3 TIME:   0.020 TIME LEFT:  2.00D  GRAD.:   179.981 HEAT:  26.53047
 CYCLE:     4 TIME:   0.012 TIME LEFT:  2.00D  GRAD.:    86.163 HEAT:  21.20289
 CYCLE:     5 TIME:   0.016 TIME LEFT:  2.00D  GRAD.:    58.454 HEAT:  19.72076
 CYCLE:     6 TIME:   0.020 TIME LEFT:  2.00D  GRAD.:    43.956 HEAT:  19.30539
 CYCLE:     7 TIME:   0.012 TIME LEFT:  2.00D  GRAD.:    25.628 HEAT:  18.83108
 CYCLE:     8 TIME:   0.020 TIME LEFT:  2.00D  GRAD.:    21.175 HEAT:  18.62587
 CYCLE:     9 TIME:   0.012 TIME LEFT:  2.00D  GRAD.:    14.185 HEAT:  18.45024
 CYCLE:    10 TIME:   0.016 TIME LEFT:  2.00D  GRAD.:    14.435 HEAT:  18.38799
 CYCLE:    11 TIME:   0.012 TIME LEFT:  2.00D  GRAD.:     8.356 HEAT:  18.31078
 CYCLE:    12 TIME:   0.020 TIME LEFT:  2.00D  GRAD.:     9.417 HEAT:  18.29318
 CYCLE:    13 TIME:   0.008 TIME LEFT:  2.00D  GRAD.:     7.426 HEAT:  18.26905
 CYCLE:    14 TIME:   0.020 TIME LEFT:  2.00D  GRAD.:     7.428 HEAT:  18.25825
 CYCLE:    15 TIME:   0.012 TIME LEFT:  2.00D  GRAD.:     7.943 HEAT:  18.25427
 CYCLE:    16 TIME:   0.008 TIME LEFT:  2.00D  GRAD.:     6.896 HEAT:  18.24076
 CYCLE:    17 TIME:   0.012 TIME LEFT:  2.00D  GRAD.:     6.588 HEAT:  18.23416
 CYCLE:    18 TIME:   0.012 TIME LEFT:  2.00D  GRAD.:     5.601 HEAT:  18.22477
 CYCLE:    19 TIME:   0.016 TIME LEFT:  2.00D  GRAD.:     4.028 HEAT:  18.21859
 CYCLE:    20 TIME:   0.012 TIME LEFT:  2.00D  GRAD.:     4.394 HEAT:  18.21746
 CYCLE:    21 TIME:   0.008 TIME LEFT:  2.00D  GRAD.:     3.749 HEAT:  18.21184
 CYCLE:    22 TIME:   0.012 TIME LEFT:  2.00D  GRAD.:     3.713 HEAT:  18.20827
 CYCLE:    23 TIME:   0.012 TIME LEFT:  2.00D  GRAD.:     3.692 HEAT:  18.20580
 CYCLE:    24 TIME:   0.012 TIME LEFT:  2.00D  GRAD.:     2.912 HEAT:  18.20127
 CYCLE:    25 TIME:   0.008 TIME LEFT:  2.00D  GRAD.:     3.649 HEAT:  18.19890
 CYCLE:    26 TIME:   0.012 TIME LEFT:  2.00D  GRAD.:     2.364 HEAT:  18.19355
 CYCLE:    27 TIME:   0.012 TIME LEFT:  2.00D  GRAD.:     3.679 HEAT:  18.18983
 CYCLE:    28 TIME:   0.012 TIME LEFT:  2.00D  GRAD.:     3.505 HEAT:  18.18284
 CYCLE:    29 TIME:   0.012 TIME LEFT:  2.00D  GRAD.:     3.869 HEAT:  18.17610
 CYCLE:    30 TIME:   0.012 TIME LEFT:  2.00D  GRAD.:     3.392 HEAT:  18.16937
 CYCLE:    31 TIME:   0.012 TIME LEFT:  2.00D  GRAD.:     3.101 HEAT:  18.16267
 CYCLE:    32 TIME:   0.012 TIME LEFT:  2.00D  GRAD.:     3.248 HEAT:  18.15595
 CYCLE:    33 TIME:   0.012 TIME LEFT:  2.00D  GRAD.:     2.682 HEAT:  18.14716
 CYCLE:    34 TIME:   0.008 TIME LEFT:  2.00D  GRAD.:     3.195 HEAT:  18.13893
 CYCLE:    35 TIME:   0.012 TIME LEFT:  2.00D  GRAD.:     3.558 HEAT:  18.13128
 CYCLE:    36 TIME:   0.012 TIME LEFT:  2.00D  GRAD.:     3.316 HEAT:  18.12018
 CYCLE:    37 TIME:   0.012 TIME LEFT:  2.00D  GRAD.:     2.605 HEAT:  18.10811
 CYCLE:    38 TIME:   0.008 TIME LEFT:  2.00D  GRAD.:     2.597 HEAT:  18.09597
 CYCLE:    39 TIME:   0.012 TIME LEFT:  2.00D  GRAD.:     2.850 HEAT:  18.08599
 CYCLE:    40 TIME:   0.012 TIME LEFT:  2.00D  GRAD.:     4.233 HEAT:  18.07605
 CYCLE:    41 TIME:   0.012 TIME LEFT:  2.00D  GRAD.:     2.323 HEAT:  18.06429
 CYCLE:    42 TIME:   0.008 TIME LEFT:  2.00D  GRAD.:     2.079 HEAT:  18.05654
 CYCLE:    43 TIME:   0.012 TIME LEFT:  2.00D  GRAD.:     1.713 HEAT:  18.05122
 CYCLE:    44 TIME:   0.012 TIME LEFT:  2.00D  GRAD.:     1.816 HEAT:  18.04755
 CYCLE:    45 TIME:   0.012 TIME LEFT:  2.00D  GRAD.:     2.067 HEAT:  18.04246
 CYCLE:    46 TIME:   0.012 TIME LEFT:  2.00D  GRAD.:     1.998 HEAT:  18.03475
 CYCLE:    47 TIME:   0.012 TIME LEFT:  2.00D  GRAD.:     1.866 HEAT:  18.02741
 CYCLE:    48 TIME:   0.012 TIME LEFT:  2.00D  GRAD.:     2.039 HEAT:  18.02013
 CYCLE:    49 TIME:   0.012 TIME LEFT:  2.00D  GRAD.:     2.287 HEAT:  18.01367
 CYCLE:    50 TIME:   0.008 TIME LEFT:  2.00D  GRAD.:     2.240 HEAT:  18.00691
 CYCLE:    51 TIME:   0.012 TIME LEFT:  2.00D  GRAD.:     1.779 HEAT:  18.00102
 CYCLE:    52 TIME:   0.012 TIME LEFT:  2.00D  GRAD.:     1.539 HEAT:  17.99556
 CYCLE:    53 TIME:   0.012 TIME LEFT:  2.00D  GRAD.:     1.511 HEAT:  17.99092
 CYCLE:    54 TIME:   0.012 TIME LEFT:  2.00D  GRAD.:     1.647 HEAT:  17.98570
 CYCLE:    55 TIME:   0.012 TIME LEFT:  2.00D  GRAD.:     2.007 HEAT:  17.97825
 CYCLE:    56 TIME:   0.012 TIME LEFT:  2.00D  GRAD.:     2.580 HEAT:  17.96449
 CYCLE:    57 TIME:   0.012 TIME LEFT:  2.00D  GRAD.:     3.395 HEAT:  17.94537
 CYCLE:    58 TIME:   0.012 TIME LEFT:  2.00D  GRAD.:     3.901 HEAT:  17.92644
 CYCLE:    59 TIME:   0.012 TIME LEFT:  2.00D  GRAD.:     6.185 HEAT:  17.91860
 CYCLE:    60 TIME:   0.012 TIME LEFT:  2.00D  GRAD.:     4.438 HEAT:  17.88154
 CYCLE:    61 TIME:   0.012 TIME LEFT:  2.00D  GRAD.:     4.975 HEAT:  17.85046
 CYCLE:    62 TIME:   0.008 TIME LEFT:  2.00D  GRAD.:     5.320 HEAT:  17.80068
 CYCLE:    63 TIME:   0.012 TIME LEFT:  2.00D  GRAD.:     3.664 HEAT:  17.76726
 CYCLE:    64 TIME:   0.012 TIME LEFT:  2.00D  GRAD.:     4.848 HEAT:  17.73199
 CYCLE:    65 TIME:   0.012 TIME LEFT:  2.00D  GRAD.:     5.661 HEAT:  17.70104
 CYCLE:    66 TIME:   0.012 TIME LEFT:  2.00D  GRAD.:     6.517 HEAT:  17.68240
 CYCLE:    67 TIME:   0.016 TIME LEFT:  2.00D  GRAD.:     5.019 HEAT:  17.65785
 CYCLE:    68 TIME:   0.008 TIME LEFT:  2.00D  GRAD.:     4.273 HEAT:  17.62929
 CYCLE:    69 TIME:   0.016 TIME LEFT:  2.00D  GRAD.:     5.725 HEAT:  17.59516
 CYCLE:    70 TIME:   0.008 TIME LEFT:  2.00D  GRAD.:     3.619 HEAT:  17.57470
 CYCLE:    71 TIME:   0.012 TIME LEFT:  2.00D  GRAD.:     4.738 HEAT:  17.54666
 CYCLE:    72 TIME:   0.012 TIME LEFT:  2.00D  GRAD.:     4.240 HEAT:  17.51951
 CYCLE:    73 TIME:   0.012 TIME LEFT:  2.00D  GRAD.:     3.559 HEAT:  17.49992
 CYCLE:    74 TIME:   0.012 TIME LEFT:  2.00D  GRAD.:     5.085 HEAT:  17.48343
 CYCLE:    75 TIME:   0.012 TIME LEFT:  2.00D  GRAD.:     4.324 HEAT:  17.47265
 CYCLE:    76 TIME:   0.008 TIME LEFT:  2.00D  GRAD.:     3.186 HEAT:  17.45799
 CYCLE:    77 TIME:   0.012 TIME LEFT:  2.00D  GRAD.:     3.036 HEAT:  17.44531
 CYCLE:    78 TIME:   0.012 TIME LEFT:  2.00D  GRAD.:     3.293 HEAT:  17.43161
 CYCLE:    79 TIME:   0.012 TIME LEFT:  2.00D  GRAD.:     2.512 HEAT:  17.41873
 CYCLE:    80 TIME:   0.012 TIME LEFT:  2.00D  GRAD.:     2.680 HEAT:  17.40954
 CYCLE:    81 TIME:   0.012 TIME LEFT:  2.00D  GRAD.:     2.303 HEAT:  17.40116
 CYCLE:    82 TIME:   0.008 TIME LEFT:  2.00D  GRAD.:     2.479 HEAT:  17.39410
 CYCLE:    83 TIME:   0.012 TIME LEFT:  2.00D  GRAD.:     1.897 HEAT:  17.38829
 CYCLE:    84 TIME:   0.012 TIME LEFT:  2.00D  GRAD.:     2.157 HEAT:  17.38172
 CYCLE:    85 TIME:   0.012 TIME LEFT:  2.00D  GRAD.:     1.896 HEAT:  17.37510
 CYCLE:    86 TIME:   0.016 TIME LEFT:  2.00D  GRAD.:     2.021 HEAT:  17.36581
 CYCLE:    87 TIME:   0.008 TIME LEFT:  2.00D  GRAD.:     1.996 HEAT:  17.35726
 CYCLE:    88 TIME:   0.012 TIME LEFT:  2.00D  GRAD.:     2.002 HEAT:  17.34753
 CYCLE:    89 TIME:   0.016 TIME LEFT:  2.00D  GRAD.:     2.414 HEAT:  17.33695
 CYCLE:    90 TIME:   0.008 TIME LEFT:  2.00D  GRAD.:     2.220 HEAT:  17.32626
 CYCLE:    91 TIME:   0.012 TIME LEFT:  2.00D  GRAD.:     2.137 HEAT:  17.31664
 CYCLE:    92 TIME:   0.012 TIME LEFT:  2.00D  GRAD.:     2.092 HEAT:  17.30740
 CYCLE:    93 TIME:   0.012 TIME LEFT:  2.00D  GRAD.:     2.161 HEAT:  17.29851
 CYCLE:    94 TIME:   0.012 TIME LEFT:  2.00D  GRAD.:     1.986 HEAT:  17.28991
 CYCLE:    95 TIME:   0.008 TIME LEFT:  2.00D  GRAD.:     2.025 HEAT:  17.28021
 CYCLE:    96 TIME:   0.012 TIME LEFT:  2.00D  GRAD.:     2.069 HEAT:  17.27174
 CYCLE:    97 TIME:   0.012 TIME LEFT:  2.00D  GRAD.:     2.541 HEAT:  17.25827
 CYCLE:    98 TIME:   0.012 TIME LEFT:  2.00D  GRAD.:     2.898 HEAT:  17.24341
 CYCLE:    99 TIME:   0.012 TIME LEFT:  2.00D  GRAD.:     2.657 HEAT:  17.22508
 CYCLE:   100 TIME:   0.012 TIME LEFT:  2.00D  GRAD.:     1.880 HEAT:  17.21643
 CYCLE:   101 TIME:   0.012 TIME LEFT:  2.00D  GRAD.:     1.880 HEAT:  17.20629
 CYCLE:   102 TIME:   0.008 TIME LEFT:  2.00D  GRAD.:     1.939 HEAT:  17.20205
 CYCLE:   103 TIME:   0.012 TIME LEFT:  2.00D  GRAD.:     1.772 HEAT:  17.19529
 CYCLE:   104 TIME:   0.012 TIME LEFT:  2.00D  GRAD.:     1.796 HEAT:  17.18996
 CYCLE:   105 TIME:   0.012 TIME LEFT:  2.00D  GRAD.:     1.910 HEAT:  17.18310
 CYCLE:   106 TIME:   0.012 TIME LEFT:  2.00D  GRAD.:     2.321 HEAT:  17.17389
 CYCLE:   107 TIME:   0.012 TIME LEFT:  2.00D  GRAD.:     2.325 HEAT:  17.16291
 CYCLE:   108 TIME:   0.012 TIME LEFT:  2.00D  GRAD.:     2.191 HEAT:  17.15394
 CYCLE:   109 TIME:   0.012 TIME LEFT:  2.00D  GRAD.:     1.959 HEAT:  17.14622
 CYCLE:   110 TIME:   0.012 TIME LEFT:  2.00D  GRAD.:     2.049 HEAT:  17.13944
 CYCLE:   111 TIME:   0.008 TIME LEFT:  2.00D  GRAD.:     1.806 HEAT:  17.13345
 CYCLE:   112 TIME:   0.012 TIME LEFT:  2.00D  GRAD.:     1.439 HEAT:  17.12908
 CYCLE:   113 TIME:   0.012 TIME LEFT:  2.00D  GRAD.:     1.216 HEAT:  17.12532
 CYCLE:   114 TIME:   0.012 TIME LEFT:  2.00D  GRAD.:     1.472 HEAT:  17.12105
 CYCLE:   115 TIME:   0.012 TIME LEFT:  2.00D  GRAD.:     1.817 HEAT:  17.11610
 CYCLE:   116 TIME:   0.012 TIME LEFT:  2.00D  GRAD.:     1.825 HEAT:  17.10977
 CYCLE:   117 TIME:   0.012 TIME LEFT:  2.00D  GRAD.:     1.957 HEAT:  17.10110
 CYCLE:   118 TIME:   0.012 TIME LEFT:  2.00D  GRAD.:     2.446 HEAT:  17.08966
 CYCLE:   119 TIME:   0.008 TIME LEFT:  2.00D  GRAD.:     3.120 HEAT:  17.07388
 CYCLE:   120 TIME:   0.012 TIME LEFT:  2.00D  GRAD.:     3.964 HEAT:  17.05970
 CYCLE:   121 TIME:   0.012 TIME LEFT:  2.00D  GRAD.:     3.027 HEAT:  17.04732
 CYCLE:   122 TIME:   0.012 TIME LEFT:  2.00D  GRAD.:     2.057 HEAT:  17.03678
 CYCLE:   123 TIME:   0.012 TIME LEFT:  2.00D  GRAD.:     1.990 HEAT:  17.02758
 CYCLE:   124 TIME:   0.012 TIME LEFT:  2.00D  GRAD.:     2.379 HEAT:  17.02183
 CYCLE:   125 TIME:   0.008 TIME LEFT:  2.00D  GRAD.:     2.135 HEAT:  17.01570
 CYCLE:   126 TIME:   0.012 TIME LEFT:  2.00D  GRAD.:     1.934 HEAT:  17.01047
 CYCLE:   127 TIME:   0.012 TIME LEFT:  2.00D  GRAD.:     1.762 HEAT:  17.00510
 CYCLE:   128 TIME:   0.012 TIME LEFT:  2.00D  GRAD.:     1.995 HEAT:  16.99909
 CYCLE:   129 TIME:   0.012 TIME LEFT:  2.00D  GRAD.:     2.523 HEAT:  16.99068
 CYCLE:   130 TIME:   0.012 TIME LEFT:  2.00D  GRAD.:     2.424 HEAT:  16.98573
 CYCLE:   131 TIME:   0.012 TIME LEFT:  2.00D  GRAD.:     1.648 HEAT:  16.97855
 CYCLE:   132 TIME:   0.008 TIME LEFT:  2.00D  GRAD.:     1.844 HEAT:  16.97333
 CYCLE:   133 TIME:   0.012 TIME LEFT:  2.00D  GRAD.:     1.582 HEAT:  16.96851
 CYCLE:   134 TIME:   0.012 TIME LEFT:  2.00D  GRAD.:     1.254 HEAT:  16.96486
 CYCLE:   135 TIME:   0.012 TIME LEFT:  2.00D  GRAD.:     1.174 HEAT:  16.96163
 CYCLE:   136 TIME:   0.012 TIME LEFT:  2.00D  GRAD.:     1.234 HEAT:  16.95883
 CYCLE:   137 TIME:   0.012 TIME LEFT:  2.00D  GRAD.:     1.362 HEAT:  16.95613
 CYCLE:   138 TIME:   0.008 TIME LEFT:  2.00D  GRAD.:     0.989 HEAT:  16.95353
 CYCLE:   139 TIME:   0.012 TIME LEFT:  2.00D  GRAD.:     0.717 HEAT:  16.95166
 CYCLE:   140 TIME:   0.012 TIME LEFT:  2.00D  GRAD.:     0.781 HEAT:  16.95059
 CYCLE:   141 TIME:   0.012 TIME LEFT:  2.00D  GRAD.:     0.719 HEAT:  16.94982
 CYCLE:   142 TIME:   0.012 TIME LEFT:  2.00D  GRAD.:     0.602 HEAT:  16.94914
 CYCLE:   143 TIME:   0.008 TIME LEFT:  2.00D  GRAD.:     0.647 HEAT:  16.94850
 CYCLE:   144 TIME:   0.012 TIME LEFT:  2.00D  GRAD.:     0.575 HEAT:  16.94800
 CYCLE:   145 TIME:   0.012 TIME LEFT:  2.00D  GRAD.:     0.675 HEAT:  16.94727
 CYCLE:   146 TIME:   0.012 TIME LEFT:  2.00D  GRAD.:     0.677 HEAT:  16.94653
 CYCLE:   147 TIME:   0.012 TIME LEFT:  2.00D  GRAD.:     0.763 HEAT:  16.94555
 CYCLE:   148 TIME:   0.008 TIME LEFT:  2.00D  GRAD.:     0.773 HEAT:  16.94464
 CYCLE:   149 TIME:   0.012 TIME LEFT:  2.00D  GRAD.:     0.737 HEAT:  16.94373
 CYCLE:   150 TIME:   0.012 TIME LEFT:  2.00D  GRAD.:     0.774 HEAT:  16.94281
 CYCLE:   151 TIME:   0.012 TIME LEFT:  2.00D  GRAD.:     0.775 HEAT:  16.94191
 CYCLE:   152 TIME:   0.012 TIME LEFT:  2.00D  GRAD.:     0.829 HEAT:  16.94085
 CYCLE:   153 TIME:   0.008 TIME LEFT:  2.00D  GRAD.:     0.917 HEAT:  16.93968
 CYCLE:   154 TIME:   0.012 TIME LEFT:  2.00D  GRAD.:     0.995 HEAT:  16.93821
 CYCLE:   155 TIME:   0.012 TIME LEFT:  2.00D  GRAD.:     1.033 HEAT:  16.93651
 CYCLE:   156 TIME:   0.012 TIME LEFT:  2.00D  GRAD.:     1.147 HEAT:  16.93427
 CYCLE:   157 TIME:   0.012 TIME LEFT:  2.00D  GRAD.:     1.083 HEAT:  16.93285
 CYCLE:   158 TIME:   0.012 TIME LEFT:  2.00D  GRAD.:     1.555 HEAT:  16.92847
 CYCLE:   159 TIME:   0.012 TIME LEFT:  2.00D  GRAD.:     1.461 HEAT:  16.92597
 CYCLE:   160 TIME:   0.020 TIME LEFT:  2.00D  GRAD.:     3.634 HEAT:  16.91737
 CYCLE:   161 TIME:   0.020 TIME LEFT:  2.00D  GRAD.:     3.053 HEAT:  16.91442
 CYCLE:   162 TIME:   0.012 TIME LEFT:  2.00D  GRAD.:     1.026 HEAT:  16.90653
 CYCLE:   163 TIME:   0.012 TIME LEFT:  2.00D  GRAD.:     0.930 HEAT:  16.90403
 CYCLE:   164 TIME:   0.012 TIME LEFT:  2.00D  GRAD.:     1.618 HEAT:  16.90109
 CYCLE:   165 TIME:   0.012 TIME LEFT:  2.00D  GRAD.:     1.028 HEAT:  16.89828
 CYCLE:   166 TIME:   0.012 TIME LEFT:  2.00D  GRAD.:     0.777 HEAT:  16.89589
 CYCLE:   167 TIME:   0.012 TIME LEFT:  2.00D  GRAD.:     0.763 HEAT:  16.89429
 CYCLE:   168 TIME:   0.012 TIME LEFT:  2.00D  GRAD.:     0.535 HEAT:  16.89270
 CYCLE:   169 TIME:   0.012 TIME LEFT:  2.00D  GRAD.:     0.496 HEAT:  16.89204
 CYCLE:   170 TIME:   0.012 TIME LEFT:  2.00D  GRAD.:     0.646 HEAT:  16.89160
 CYCLE:   171 TIME:   0.012 TIME LEFT:  2.00D  GRAD.:     0.723 HEAT:  16.89152
 CYCLE:   172 TIME:   0.012 TIME LEFT:  2.00D  GRAD.:     0.486 HEAT:  16.89081
 CYCLE:   173 TIME:   0.012 TIME LEFT:  2.00D  GRAD.:     0.450 HEAT:  16.89039
 CYCLE:   174 TIME:   0.008 TIME LEFT:  2.00D  GRAD.:     0.705 HEAT:  16.88941
 CYCLE:   175 TIME:   0.012 TIME LEFT:  2.00D  GRAD.:     0.809 HEAT:  16.88863
 CYCLE:   176 TIME:   0.012 TIME LEFT:  2.00D  GRAD.:     1.365 HEAT:  16.88573
 CYCLE:   177 TIME:   0.012 TIME LEFT:  2.00D  GRAD.:     1.165 HEAT:  16.88410
 CYCLE:   178 TIME:   0.012 TIME LEFT:  2.00D  GRAD.:     1.447 HEAT:  16.88011
 CYCLE:   179 TIME:   0.012 TIME LEFT:  2.00D  GRAD.:     1.003 HEAT:  16.87891
 CYCLE:   180 TIME:   0.012 TIME LEFT:  2.00D  GRAD.:     0.509 HEAT:  16.87748
 CYCLE:   181 TIME:   0.008 TIME LEFT:  2.00D  GRAD.:     0.419 HEAT:  16.87690
 CYCLE:   182 TIME:   0.012 TIME LEFT:  2.00D  GRAD.:     0.563 HEAT:  16.87549
 CYCLE:   183 TIME:   0.012 TIME LEFT:  2.00D  GRAD.:     0.716 HEAT:  16.87447
 CYCLE:   184 TIME:   0.016 TIME LEFT:  2.00D  GRAD.:     2.523 HEAT:  16.87580
 CYCLE:   185 TIME:   0.008 TIME LEFT:  2.00D  GRAD.:     0.920 HEAT:  16.87130
 CYCLE:   186 TIME:   0.012 TIME LEFT:  2.00D  GRAD.:     0.786 HEAT:  16.87006
 CYCLE:   187 TIME:   0.012 TIME LEFT:  2.00D  GRAD.:     1.681 HEAT:  16.86818
 CYCLE:   188 TIME:   0.012 TIME LEFT:  2.00D  GRAD.:     0.562 HEAT:  16.86606
 CYCLE:   189 TIME:   0.012 TIME LEFT:  2.00D  GRAD.:     0.422 HEAT:  16.86550
 CYCLE:   190 TIME:   0.012 TIME LEFT:  2.00D  GRAD.:     0.957 HEAT:  16.86485
 CYCLE:   191 TIME:   0.012 TIME LEFT:  2.00D  GRAD.:     0.298 HEAT:  16.86418
 CYCLE:   192 TIME:   0.008 TIME LEFT:  2.00D  GRAD.:     0.237 HEAT:  16.86402
 CYCLE:   193 TIME:   0.012 TIME LEFT:  2.00D  GRAD.:     0.320 HEAT:  16.86407
 CYCLE:   194 TIME:   0.012 TIME LEFT:  2.00D  GRAD.:     0.110 HEAT:  16.86386
 CYCLE:   195 TIME:   0.012 TIME LEFT:  2.00D  GRAD.:     0.087 HEAT:  16.86385
 CYCLE:   196 TIME:   0.012 TIME LEFT:  2.00D  GRAD.:     0.177 HEAT:  16.86383
 CYCLE:   197 TIME:   0.012 TIME LEFT:  2.00D  GRAD.:     0.127 HEAT:  16.86380
 CYCLE:   198 TIME:   0.012 TIME LEFT:  2.00D  GRAD.:     0.150 HEAT:  16.86374
 CYCLE:   199 TIME:   0.008 TIME LEFT:  2.00D  GRAD.:     0.294 HEAT:  16.86364
 CYCLE:   200 TIME:   0.012 TIME LEFT:  2.00D  GRAD.:     0.350 HEAT:  16.86348
 CYCLE:   201 TIME:   0.012 TIME LEFT:  2.00D  GRAD.:     0.450 HEAT:  16.86303
 CYCLE:   202 TIME:   0.012 TIME LEFT:  2.00D  GRAD.:     0.428 HEAT:  16.86269
 CYCLE:   203 TIME:   0.012 TIME LEFT:  2.00D  GRAD.:     0.479 HEAT:  16.86221
 CYCLE:   204 TIME:   0.012 TIME LEFT:  2.00D  GRAD.:     0.362 HEAT:  16.86203
 CYCLE:   205 TIME:   0.008 TIME LEFT:  2.00D  GRAD.:     0.169 HEAT:  16.86194
 CYCLE:   206 TIME:   0.012 TIME LEFT:  2.00D  GRAD.:     0.101 HEAT:  16.86191
 CYCLE:   207 TIME:   0.012 TIME LEFT:  2.00D  GRAD.:     0.095 HEAT:  16.86189
 CYCLE:   208 TIME:   0.008 TIME LEFT:  2.00D  GRAD.:     0.123 HEAT:  16.86187
 CYCLE:   209 TIME:   0.012 TIME LEFT:  2.00D  GRAD.:     0.078 HEAT:  16.86186
 CYCLE:   210 TIME:   0.012 TIME LEFT:  2.00D  GRAD.:     0.078 HEAT:  16.86184
 CYCLE:   211 TIME:   0.012 TIME LEFT:  2.00D  GRAD.:     0.144 HEAT:  16.86180
 CYCLE:   212 TIME:   0.012 TIME LEFT:  2.00D  GRAD.:     0.996 HEAT:  16.86263
 CYCLE:   213 TIME:   0.012 TIME LEFT:  2.00D  GRAD.:     0.258 HEAT:  16.86170
 CYCLE:   214 TIME:   0.008 TIME LEFT:  2.00D  GRAD.:     0.204 HEAT:  16.86166
 CYCLE:   215 TIME:   0.012 TIME LEFT:  2.00D  GRAD.:     0.543 HEAT:  16.86174
 CYCLE:   216 TIME:   0.012 TIME LEFT:  2.00D  GRAD.:     0.123 HEAT:  16.86152
 CYCLE:   217 TIME:   0.008 TIME LEFT:  2.00D  GRAD.:     0.126 HEAT:  16.86142
 CYCLE:   218 TIME:   0.016 TIME LEFT:  2.00D  GRAD.:     0.501 HEAT:  16.86132
 CYCLE:   219 TIME:   0.008 TIME LEFT:  2.00D  GRAD.:     0.242 HEAT:  16.86114
 CYCLE:   220 TIME:   0.012 TIME LEFT:  2.00D  GRAD.:     0.146 HEAT:  16.86107
 CYCLE:   221 TIME:   0.012 TIME LEFT:  2.00D  GRAD.:     0.174 HEAT:  16.86102
 CYCLE:   222 TIME:   0.012 TIME LEFT:  2.00D  GRAD.:     0.251 HEAT:  16.86085
 CYCLE:   223 TIME:   0.012 TIME LEFT:  2.00D  GRAD.:     1.333 HEAT:  16.86229
 CYCLE:   224 TIME:   0.012 TIME LEFT:  2.00D  GRAD.:     0.385 HEAT:  16.86061
 CYCLE:   225 TIME:   0.012 TIME LEFT:  2.00D  GRAD.:     0.332 HEAT:  16.86049
 CYCLE:   226 TIME:   0.012 TIME LEFT:  2.00D  GRAD.:     1.294 HEAT:  16.86251
 CYCLE:   227 TIME:   0.012 TIME LEFT:  2.00D  GRAD.:     0.184 HEAT:  16.86013
 CYCLE:   228 TIME:   0.012 TIME LEFT:  2.00D  GRAD.:     0.091 HEAT:  16.86009
 CYCLE:   229 TIME:   0.012 TIME LEFT:  2.00D  GRAD.:     0.078 HEAT:  16.86005
 CYCLE:   230 TIME:   0.012 TIME LEFT:  2.00D  GRAD.:     0.133 HEAT:  16.86003
 CYCLE:   231 TIME:   0.012 TIME LEFT:  2.00D  GRAD.:     0.158 HEAT:  16.86006
 CYCLE:   232 TIME:   0.012 TIME LEFT:  2.00D  GRAD.:     0.101 HEAT:  16.86004
 CYCLE:   233 TIME:   0.008 TIME LEFT:  2.00D  GRAD.:     0.116 HEAT:  16.86003
 CYCLE:   234 TIME:   0.012 TIME LEFT:  2.00D  GRAD.:     0.121 HEAT:  16.86002
 CYCLE:   235 TIME:   0.012 TIME LEFT:  2.00D  GRAD.:     0.153 HEAT:  16.86014
 CYCLE:   236 TIME:   0.012 TIME LEFT:  2.00D  GRAD.:     0.065 HEAT:  16.86001
 CYCLE:   237 TIME:   0.012 TIME LEFT:  2.00D  GRAD.:     0.027 HEAT:  16.86000

     GRADIENT =  0.02691 IS LESS THAN CUTOFF =  0.05000



 -------------------------------------------------------------------------------
 pm3  precise nosym THREADS=1
 InChI=1S/C12H20/c1-4-6-7-10(3)12-8-11(5-2)9-12/h6-8,10,12H,4-5,9H2,1-3H3



     GEOMETRY OPTIMISED USING EIGENVECTOR FOLLOWING (EF).     
     SCF FIELD WAS ACHIEVED                                   


                              PM3 CALCULATION
                                                       MOPAC v23.1.2 MacOS
                                                       Tue Jun  3 16:40:34 2025




          FINAL HEAT OF FORMATION =         16.86000 KCAL/MOL =      70.54224 KJ/MOL


          COSMO AREA              =        238.35 SQUARE ANGSTROMS
          COSMO VOLUME            =        250.90 CUBIC ANGSTROMS

          GRADIENT NORM           =          0.02691          =       0.00476 PER ATOM
          IONIZATION POTENTIAL    =          9.520613 EV
          HOMO LUMO ENERGIES (EV) =         -9.521  0.972
          NO. OF FILLED LEVELS    =         34
          MOLECULAR WEIGHT        =        164.2900         POINT GROUP:  C1  

          MOLECULAR DIMENSIONS (Angstroms)

            Atom       Atom       Distance
            H    27    H    23    10.27530
            H    24    H    17     5.83371
            H    28    H    32     3.93226


          SCF CALCULATIONS        =        248

          WALL-CLOCK TIME         =      2.750 SECONDS
          COMPUTATION TIME        =      2.068 SECONDS




   ATOM   CHEMICAL          X               Y               Z
  NUMBER   SYMBOL      (ANGSTROMS)     (ANGSTROMS)     (ANGSTROMS)

     1       C          0.43027504  *   0.59328970  *  -0.30782521  *
     2       C         -0.35294080  *  -0.20399342  *  -1.33959825  *
     3       C          1.06940888  *  -0.24448189  *   0.86415195  *
     4       C          3.76932124  *   0.00546215  *   0.83152444  *
     5       C         -3.81571767  *  -0.07634691  *   0.41495582  *
     6       C         -0.45190657  *   0.55896786  *  -2.65415288  *
     7       C         -3.95389384  *   0.00734823  *   1.91999358  *
     8       C          4.13366330  *  -1.46338843  *   0.76559603  *
     9       C          2.40827403  *   0.24727339  *   0.33706100  *
    10       C          1.86506253  *   0.95342564  *  -0.67749173  *
    11       C         -1.73841892  *  -0.53282044  *  -0.86870512  *
    12       C         -2.42685072  *   0.22898820  *  -0.01804141  *
    13       H          0.18518647  *  -1.16669242  *  -1.52369458  *
    14       H         -0.17755592  *   1.45722658  *   0.05035647  *
    15       H         -4.49896498  *   0.64778938  *  -0.07298546  *
    16       H         -4.13499566  *  -1.07651413  *   0.05924401  *
    17       H          3.83645540  *   0.37194786  *   1.87552328  *
    18       H          4.49221454  *   0.60806259  *   0.24756616  *
    19       H          0.80881670  *   0.09029493  *   1.87790074  *
    20       H          0.91596837  *  -1.33232029  *   0.80932295  *
    21       H         -3.67553121  *   0.99968470  *   2.29903740  *
    22       H         -3.31232254  *  -0.72593913  *   2.42546646  *
    23       H         -4.98704085  *  -0.18710502  *   2.23488104  *
    24       H         -1.01524797  *  -0.01295285  *  -3.40242524  *
    25       H          0.54327203  *   0.76405255  *  -3.07032063  *
    26       H         -0.96049537  *   1.52324318  *  -2.52345943  *
    27       H          5.13055063  *  -1.64284491  *   1.18748732  *
    28       H          3.41958968  *  -2.08156070  *   1.32599974  *
    29       H          4.14149181  *  -1.83190670  *  -0.26824561  *
    30       H         -1.96381578  *   1.13850661  *   0.39984284  *
    31       H         -2.17899112  *  -1.44150512  *  -1.29761887  *
    32       H          2.24424914  *   1.56915253  *  -1.48206315  *

                             CARTESIAN COORDINATES

   1    C        0.430275040     0.593289699    -0.307825210
   2    C       -0.352940799    -0.203993422    -1.339598248
   3    C        1.069408882    -0.244481887     0.864151949
   4    C        3.769321238     0.005462151     0.831524436
   5    C       -3.815717672    -0.076346915     0.414955823
   6    C       -0.451906570     0.558967860    -2.654152879
   7    C       -3.953893844     0.007348234     1.919993582
   8    C        4.133663295    -1.463388432     0.765596027
   9    C        2.408274033     0.247273389     0.337061003
  10    C        1.865062531     0.953425636    -0.677491729
  11    C       -1.738418924    -0.532820445    -0.868705125
  12    C       -2.426850725     0.228988202    -0.018041408
  13    H        0.185186473    -1.166692422    -1.523694577
  14    H       -0.177555919     1.457226578     0.050356470
  15    H       -4.498964982     0.647789384    -0.072985456
  16    H       -4.134995658    -1.076514129     0.059244009
  17    H        3.836455402     0.371947860     1.875523285
  18    H        4.492214536     0.608062595     0.247566160
  19    H        0.808816702     0.090294927     1.877900736
  20    H        0.915968365    -1.332320290     0.809322947
  21    H       -3.675531212     0.999684701     2.299037401
  22    H       -3.312322535    -0.725939128     2.425466457
  23    H       -4.987040850    -0.187105017     2.234881040
  24    H       -1.015247971    -0.012952854    -3.402425241
  25    H        0.543272033     0.764052553    -3.070320627
  26    H       -0.960495374     1.523243184    -2.523459426
  27    H        5.130550628    -1.642844912     1.187487323
  28    H        3.419589677    -2.081560698     1.325999741
  29    H        4.141491811    -1.831906704    -0.268245610
  30    H       -1.963815782     1.138506611     0.399842837
  31    H       -2.178991116    -1.441505122    -1.297618873
  32    H        2.244249144     1.569152526    -1.482063154


           Empirical Formula: C12 H20  =    32 atoms



      MOLECULAR POINT GROUP   :   C1  


                  EIGENVALUES  
 -41.48341 -37.41018 -34.81757 -32.10281 -28.44196 -25.50990 -24.04114 -23.48572
 -21.66174 -21.07150 -18.37439 -17.57151 -16.95433 -16.59014 -15.87934 -15.56463
 -15.18225 -14.73999 -14.53137 -14.39023 -13.82385 -13.37290 -13.30158 -13.15469
 -12.87828 -12.65533 -12.08197 -12.04388 -11.89802 -11.79340 -11.57859 -11.41524
  -9.80117  -9.52061   0.97228   1.13475   3.16901   3.25955   3.32734   3.35512
   3.65510   3.80304   3.82153   3.91734   3.94436   3.96560   4.06058   4.09375
   4.11423   4.16545   4.22841   4.30077   4.39377   4.53567   4.61964   4.62980
   4.68935   4.75036   4.80014   4.85052   4.87321   4.91759   5.04892   5.16196
   5.38927   5.75656   5.99590   6.27429


              NET ATOMIC CHARGES AND DIPOLE CONTRIBUTIONS

  ATOM NO.   TYPE          CHARGE      No. of ELECS.   s-Pop       p-Pop       
    1          C          -0.070010        4.0700     1.19041     2.87960
    2          C          -0.027603        4.0276     1.16094     2.86666
    3          C          -0.070620        4.0706     1.17139     2.89923
    4          C          -0.023387        4.0234     1.13183     2.89156
    5          C          -0.057685        4.0577     1.14467     2.91302
    6          C          -0.107544        4.1075     1.14072     2.96682
    7          C          -0.106083        4.1061     1.13772     2.96836
    8          C          -0.105162        4.1052     1.13705     2.96812
    9          C          -0.143658        4.1437     1.22197     2.92169
   10          C          -0.162809        4.1628     1.21866     2.94415
   11          C          -0.148231        4.1482     1.19937     2.94886
   12          C          -0.157687        4.1577     1.19875     2.95894
   13          H           0.068604        0.9314     0.93140
   14          H           0.083234        0.9168     0.91677
   15          H           0.052829        0.9472     0.94717
   16          H           0.050902        0.9491     0.94910
   17          H           0.054027        0.9460     0.94597
   18          H           0.051980        0.9480     0.94802
   19          H           0.060892        0.9391     0.93911
   20          H           0.067279        0.9327     0.93272
   21          H           0.037686        0.9623     0.96231
   22          H           0.039791        0.9602     0.96021
   23          H           0.036664        0.9633     0.96334
   24          H           0.039982        0.9600     0.96002
   25          H           0.042255        0.9577     0.95775
   26          H           0.041213        0.9588     0.95879
   27          H           0.036962        0.9630     0.96304
   28          H           0.040010        0.9600     0.95999
   29          H           0.040580        0.9594     0.95942
   30          H           0.108027        0.8920     0.89197
   31          H           0.099627        0.9004     0.90037
   32          H           0.127934        0.8721     0.87207
 DIPOLE           X         Y         Z       TOTAL
 POINT-CHG.     0.017    -0.109     0.175     0.207
 HYBRID        -0.020     0.035    -0.025     0.048
 SUM           -0.003    -0.074     0.150     0.167


          ATOMIC ORBITAL ELECTRON POPULATIONS

     Atom    s        px        py        pz   
    1  C   1.19041   0.93984   0.98305   0.95671
    2  C   1.16094   0.93503   0.98532   0.94631
    3  C   1.17139   0.93259   0.99397   0.97267
    4  C   1.13183   0.92635   0.96325   1.00196
    5  C   1.14467   0.94491   1.01010   0.95801
    6  C   1.14072   1.01080   0.99614   0.95988
    7  C   1.13772   1.00635   1.01024   0.95177
    8  C   1.13705   1.00220   0.95343   1.01249
    9  C   1.22197   0.95210   0.99017   0.97942
   10  C   1.21866   0.95360   1.00540   0.98515
   11  C   1.19937   0.96429   0.99204   0.99252
   12  C   1.19875   0.96663   0.99698   0.99533
   13  H   0.93140
   14  H   0.91677
   15  H   0.94717
   16  H   0.94910
   17  H   0.94597
   18  H   0.94802
   19  H   0.93911
   20  H   0.93272
   21  H   0.96231
   22  H   0.96021
   23  H   0.96334
   24  H   0.96002
   25  H   0.95775
   26  H   0.95879
   27  H   0.96304
   28  H   0.95999
   29  H   0.95942
   30  H   0.89197
   31  H   0.90037
   32  H   0.87207
 *******************************************************************************
 **                                                                           **
 **                              MOPAC v23.1.2                                **
 **                                                                           **
 *******************************************************************************
 **          Digital Object Identifier (DOI): 10.5281/zenodo.6511958          **
 **    Visit the DOI location for information on how to cite this program.    **
 *******************************************************************************

                              PM3 CALCULATION RESULTS

 *******************************************************************************
 *  CALCULATION DONE: (MAX THREADS = 1)              Tue Jun  3 16:40:34 2025  *
 *  PM3        - The PM3 Hamiltonian to be used
 *  OLDGEO     - PREVIOUS GEOMETRY TO BE USED
 *  PRECISE    - TIGHTER CRITERIA TO BE USED
 *  NOSYM      - POINT-GROUP SYMMETRY SET TO C1
 *  THREADS=1  - MULTI-THREADING NOT USED
 *  T=         - A TIME OF 172800.0 SECONDS REQUESTED
 *  DUMP=N     - RESTART FILE WRITTEN EVERY 7200.0 SECONDS REQUESTED
 *  THERMO     - THERMODYNAMIC QUANTITIES TO BE CALCULATED
 *******************************************************************************
oldgeo thermo nosym precise THREADS=1  pm3
 InChI=1S/C12H20/c1-4-6-7-10(3)12-8-11(5-2)9-12/h6-8,10,12H,4-5,9H2,1-3H3

   ATOM   CHEMICAL          X               Y               Z
  NUMBER   SYMBOL      (ANGSTROMS)     (ANGSTROMS)     (ANGSTROMS)

     1       C          0.43027504  *   0.59328970  *  -0.30782521  *
     2       C         -0.35294080  *  -0.20399342  *  -1.33959825  *
     3       C          1.06940888  *  -0.24448189  *   0.86415195  *
     4       C          3.76932124  *   0.00546215  *   0.83152444  *
     5       C         -3.81571767  *  -0.07634691  *   0.41495582  *
     6       C         -0.45190657  *   0.55896786  *  -2.65415288  *
     7       C         -3.95389384  *   0.00734823  *   1.91999358  *
     8       C          4.13366330  *  -1.46338843  *   0.76559603  *
     9       C          2.40827403  *   0.24727339  *   0.33706100  *
    10       C          1.86506253  *   0.95342564  *  -0.67749173  *
    11       C         -1.73841892  *  -0.53282044  *  -0.86870512  *
    12       C         -2.42685072  *   0.22898820  *  -0.01804141  *
    13       H          0.18518647  *  -1.16669242  *  -1.52369458  *
    14       H         -0.17755592  *   1.45722658  *   0.05035647  *
    15       H         -4.49896498  *   0.64778938  *  -0.07298546  *
    16       H         -4.13499566  *  -1.07651413  *   0.05924401  *
    17       H          3.83645540  *   0.37194786  *   1.87552328  *
    18       H          4.49221454  *   0.60806259  *   0.24756616  *
    19       H          0.80881670  *   0.09029493  *   1.87790074  *
    20       H          0.91596837  *  -1.33232029  *   0.80932295  *
    21       H         -3.67553121  *   0.99968470  *   2.29903740  *
    22       H         -3.31232254  *  -0.72593913  *   2.42546646  *
    23       H         -4.98704085  *  -0.18710502  *   2.23488104  *
    24       H         -1.01524797  *  -0.01295285  *  -3.40242524  *
    25       H          0.54327203  *   0.76405255  *  -3.07032063  *
    26       H         -0.96049537  *   1.52324318  *  -2.52345943  *
    27       H          5.13055063  *  -1.64284491  *   1.18748732  *
    28       H          3.41958968  *  -2.08156070  *   1.32599974  *
    29       H          4.14149181  *  -1.83190670  *  -0.26824561  *
    30       H         -1.96381578  *   1.13850661  *   0.39984284  *
    31       H         -2.17899112  *  -1.44150512  *  -1.29761887  *
    32       H          2.24424914  *   1.56915253  *  -1.48206315  *



          CARTESIAN COORDINATES 

    NO.       ATOM           X           Y           Z

     1         C          0.4303      0.5933     -0.3078
     2         C         -0.3529     -0.2040     -1.3396
     3         C          1.0694     -0.2445      0.8642
     4         C          3.7693      0.0055      0.8315
     5         C         -3.8157     -0.0763      0.4150
     6         C         -0.4519      0.5590     -2.6542
     7         C         -3.9539      0.0073      1.9200
     8         C          4.1337     -1.4634      0.7656
     9         C          2.4083      0.2473      0.3371
    10         C          1.8651      0.9534     -0.6775
    11         C         -1.7384     -0.5328     -0.8687
    12         C         -2.4269      0.2290     -0.0180
    13         H          0.1852     -1.1667     -1.5237
    14         H         -0.1776      1.4572      0.0504
    15         H         -4.4990      0.6478     -0.0730
    16         H         -4.1350     -1.0765      0.0592
    17         H          3.8365      0.3719      1.8755
    18         H          4.4922      0.6081      0.2476
    19         H          0.8088      0.0903      1.8779
    20         H          0.9160     -1.3323      0.8093
    21         H         -3.6755      0.9997      2.2990
    22         H         -3.3123     -0.7259      2.4255
    23         H         -4.9870     -0.1871      2.2349
    24         H         -1.0152     -0.0130     -3.4024
    25         H          0.5433      0.7641     -3.0703
    26         H         -0.9605      1.5232     -2.5235
    27         H          5.1306     -1.6428      1.1875
    28         H          3.4196     -2.0816      1.3260
    29         H          4.1415     -1.8319     -0.2682
    30         H         -1.9638      1.1385      0.3998
    31         H         -2.1790     -1.4415     -1.2976
    32         H          2.2442      1.5692     -1.4821

  H: (PM3): J. J. P. STEWART, J. COMP. CHEM. 10, 209 (1989).
  C: (PM3): J. J. P. STEWART, J. COMP. CHEM. 10, 209 (1989).

           Empirical Formula: C12 H20  =    32 atoms



      MOLECULAR POINT GROUP   :   C1  


      RHF CALCULATION, NO. OF DOUBLY OCCUPIED LEVELS = 34



          HEAT OF FORMATION =      16.859999 KCALS/MOLE


          CARTESIAN COORDINATE DERIVATIVES

   NUMBER  ATOM         X            Y            Z

     1       C     -0.001124    -0.000334     0.000159
     2       C     -0.000694     0.001112    -0.000239
     3       C      0.000713     0.002001     0.000323
     4       C     -0.002940     0.001174    -0.004709
     5       C     -0.002179     0.000942     0.001361
     6       C     -0.001004    -0.001943     0.000683
     7       C      0.005421     0.000105    -0.000831
     8       C      0.001125    -0.002770    -0.001234
     9       C     -0.003865     0.001152    -0.003267
    10       C      0.000726    -0.001381    -0.001565
    11       C      0.000623    -0.000994    -0.005706
    12       C     -0.006655     0.003362     0.002043
    13       H     -0.000862     0.001268    -0.002981
    14       H     -0.001186    -0.003439    -0.000227
    15       H      0.000913     0.001717     0.000076
    16       H     -0.000059     0.001300    -0.000139
    17       H      0.004628    -0.001248    -0.003410
    18       H      0.000573     0.004525     0.003445
    19       H     -0.002872    -0.001817     0.000330
    20       H     -0.001394    -0.000502     0.000818
    21       H     -0.003912    -0.000007    -0.001896
    22       H      0.003956     0.001536     0.006872
    23       H      0.001787    -0.005182     0.005929
    24       H      0.002687     0.002300    -0.003152
    25       H     -0.001659    -0.002678     0.000004
    26       H      0.005004    -0.001492     0.008454
    27       H      0.001343     0.001496     0.002218
    28       H      0.004618    -0.001911     0.004938
    29       H     -0.004139     0.000478    -0.002555
    30       H     -0.000230     0.002646    -0.001267
    31       H      0.000637     0.001376    -0.001487
    32       H      0.000021    -0.002791    -0.002986



          GRADIENT NORM =   0.02689

          MOLECULAR WEIGHT =  164.29



          ROTATIONAL CONSTANTS IN CM(-1)

          A =    0.05091076   B =    0.01357963   C =    0.01171208



           PRINCIPAL MOMENTS OF INERTIA IN UNITS OF 10**(-40)*GRAM-CM**2

          A =      549.8396   B =     2061.3787   C =     2390.0746


          ORIENTATION OF MOLECULE IN FORCE CALCULATION

    NO.       ATOM         X         Y         Z

     1          C      -0.3284   -0.5635   -0.3765
     2          C       1.1926   -0.5635   -0.3765
     3          C      -1.0134    0.8559   -0.3765
     4          C      -2.5125    1.1738   -2.6137
     5          C       1.7186   -0.4955    3.4711
     6          C       1.7354   -1.8819   -0.9125
     7          C       0.7250    0.1560    4.4089
     8          C      -1.8854    2.4529   -3.1287
     9          C      -1.6030    0.4488   -1.7177
    10          C      -1.0052   -0.7618   -1.7284
    11          C       1.7590   -0.3312    0.9927
    12          C       1.1371   -0.6885    2.1167
    13          H       1.5450    0.2651   -1.0395
    14          H      -0.7113   -1.2361    0.4267
    15          H       2.0218   -1.4872    3.8636
    16          H       2.6485    0.1061    3.4253
    17          H      -3.4473    1.3986   -2.0620
    18          H      -2.8045    0.5206   -3.4591
    19          H      -1.7423    1.0263    0.4280
    20          H      -0.3270    1.7149   -0.4085
    21          H      -0.1956   -0.4356    4.5004
    22          H       0.4361    1.1557    4.0595
    23          H       1.1453    0.2684    5.4164
    24          H       2.8328   -1.8862   -0.9157
    25          H       1.3977   -2.0614   -1.9418
    26          H       1.4032   -2.7324   -0.3028
    27          H      -2.5909    3.0157   -3.7529
    28          H      -1.5739    3.1093   -2.3052
    29          H      -0.9950    2.2500   -3.7375
    30          H       0.1385   -1.1537    2.0655
    31          H       2.7531    0.1323    1.0194
    32          H      -0.9775   -1.6054   -2.4050


    FIRST DERIVATIVES WILL BE USED IN THE CALCULATION OF SECOND DERIVATIVES

          ESTIMATED TIME TO COMPLETE CALCULATION =        4.50 SECONDS

    FOR POINT-GROUP C1   THERE ARE   1 UNIQUE SYMMETRY FUNCTIONS.

 STEP:   1 TIME =     0.04 SECS, INTEGRAL =      0.04 TIME LEFT: 172799.95
 STEP:   2 TIME =     0.04 SECS, INTEGRAL =      0.08 TIME LEFT: 172799.91
 STEP:   3 TIME =     0.04 SECS, INTEGRAL =      0.12 TIME LEFT: 172799.87
 STEP:   4 TIME =     0.04 SECS, INTEGRAL =      0.15 TIME LEFT: 172799.84
 STEP:   5 TIME =     0.04 SECS, INTEGRAL =      0.19 TIME LEFT: 172799.80
 STEP:   6 TIME =     0.04 SECS, INTEGRAL =      0.23 TIME LEFT: 172799.76
 STEP:   7 TIME =     0.04 SECS, INTEGRAL =      0.26 TIME LEFT: 172799.73
 STEP:   8 TIME =     0.04 SECS, INTEGRAL =      0.30 TIME LEFT: 172799.69
 STEP:   9 TIME =     0.04 SECS, INTEGRAL =      0.34 TIME LEFT: 172799.65
 STEP:  10 TIME =     0.04 SECS, INTEGRAL =      0.37 TIME LEFT: 172799.62
 STEP:  11 TIME =     0.04 SECS, INTEGRAL =      0.41 TIME LEFT: 172799.58
 STEP:  12 TIME =     0.04 SECS, INTEGRAL =      0.44 TIME LEFT: 172799.55
 STEP:  13 TIME =     0.04 SECS, INTEGRAL =      0.48 TIME LEFT: 172799.51
 STEP:  14 TIME =     0.04 SECS, INTEGRAL =      0.52 TIME LEFT: 172799.47
 STEP:  15 TIME =     0.04 SECS, INTEGRAL =      0.55 TIME LEFT: 172799.43
 STEP:  16 TIME =     0.04 SECS, INTEGRAL =      0.59 TIME LEFT: 172799.40
 STEP:  17 TIME =     0.04 SECS, INTEGRAL =      0.62 TIME LEFT: 172799.36
 STEP:  18 TIME =     0.04 SECS, INTEGRAL =      0.66 TIME LEFT: 172799.32
 STEP:  19 TIME =     0.04 SECS, INTEGRAL =      0.70 TIME LEFT: 172799.29
 STEP:  20 TIME =     0.04 SECS, INTEGRAL =      0.74 TIME LEFT: 172799.25
 STEP:  21 TIME =     0.04 SECS, INTEGRAL =      0.78 TIME LEFT: 172799.21
 STEP:  22 TIME =     0.04 SECS, INTEGRAL =      0.82 TIME LEFT: 172799.17
 STEP:  23 TIME =     0.04 SECS, INTEGRAL =      0.86 TIME LEFT: 172799.13
 STEP:  24 TIME =     0.04 SECS, INTEGRAL =      0.89 TIME LEFT: 172799.09
 STEP:  25 TIME =     0.04 SECS, INTEGRAL =      0.93 TIME LEFT: 172799.06
 STEP:  26 TIME =     0.04 SECS, INTEGRAL =      0.96 TIME LEFT: 172799.02
 STEP:  27 TIME =     0.04 SECS, INTEGRAL =      1.00 TIME LEFT: 172798.99
 STEP:  28 TIME =     0.04 SECS, INTEGRAL =      1.04 TIME LEFT: 172798.95
 STEP:  29 TIME =     0.04 SECS, INTEGRAL =      1.08 TIME LEFT: 172798.91
 STEP:  30 TIME =     0.04 SECS, INTEGRAL =      1.12 TIME LEFT: 172798.87
 STEP:  31 TIME =     0.04 SECS, INTEGRAL =      1.16 TIME LEFT: 172798.83
 STEP:  32 TIME =     0.04 SECS, INTEGRAL =      1.20 TIME LEFT: 172798.79
 STEP:  33 TIME =     0.04 SECS, INTEGRAL =      1.23 TIME LEFT: 172798.76
 STEP:  34 TIME =     0.04 SECS, INTEGRAL =      1.27 TIME LEFT: 172798.72
 STEP:  35 TIME =     0.04 SECS, INTEGRAL =      1.30 TIME LEFT: 172798.68
 STEP:  36 TIME =     0.04 SECS, INTEGRAL =      1.34 TIME LEFT: 172798.64
 STEP:  37 TIME =     0.04 SECS, INTEGRAL =      1.38 TIME LEFT: 172798.61
 STEP:  38 TIME =     0.04 SECS, INTEGRAL =      1.42 TIME LEFT: 172798.57
 STEP:  39 TIME =     0.04 SECS, INTEGRAL =      1.46 TIME LEFT: 172798.53
 STEP:  40 TIME =     0.04 SECS, INTEGRAL =      1.50 TIME LEFT: 172798.49
 STEP:  41 TIME =     0.04 SECS, INTEGRAL =      1.54 TIME LEFT: 172798.45
 STEP:  42 TIME =     0.04 SECS, INTEGRAL =      1.57 TIME LEFT: 172798.41
 STEP:  43 TIME =     0.04 SECS, INTEGRAL =      1.61 TIME LEFT: 172798.38
 STEP:  44 TIME =     0.04 SECS, INTEGRAL =      1.65 TIME LEFT: 172798.34
 STEP:  45 TIME =     0.04 SECS, INTEGRAL =      1.68 TIME LEFT: 172798.30
 STEP:  46 TIME =     0.04 SECS, INTEGRAL =      1.72 TIME LEFT: 172798.27
 STEP:  47 TIME =     0.04 SECS, INTEGRAL =      1.75 TIME LEFT: 172798.23
 STEP:  48 TIME =     0.04 SECS, INTEGRAL =      1.80 TIME LEFT: 172798.19
 STEP:  49 TIME =     0.04 SECS, INTEGRAL =      1.83 TIME LEFT: 172798.16
 STEP:  50 TIME =     0.04 SECS, INTEGRAL =      1.87 TIME LEFT: 172798.12
 STEP:  51 TIME =     0.04 SECS, INTEGRAL =      1.90 TIME LEFT: 172798.09
 STEP:  52 TIME =     0.04 SECS, INTEGRAL =      1.94 TIME LEFT: 172798.05
 STEP:  53 TIME =     0.04 SECS, INTEGRAL =      1.98 TIME LEFT: 172798.01
 STEP:  54 TIME =     0.04 SECS, INTEGRAL =      2.02 TIME LEFT: 172797.97
 STEP:  55 TIME =     0.04 SECS, INTEGRAL =      2.06 TIME LEFT: 172797.93
 STEP:  56 TIME =     0.04 SECS, INTEGRAL =      2.10 TIME LEFT: 172797.89
 STEP:  57 TIME =     0.04 SECS, INTEGRAL =      2.14 TIME LEFT: 172797.85
 STEP:  58 TIME =     0.04 SECS, INTEGRAL =      2.18 TIME LEFT: 172797.81
 STEP:  59 TIME =     0.04 SECS, INTEGRAL =      2.21 TIME LEFT: 172797.77
 STEP:  60 TIME =     0.04 SECS, INTEGRAL =      2.26 TIME LEFT: 172797.73
 STEP:  61 TIME =     0.04 SECS, INTEGRAL =      2.29 TIME LEFT: 172797.70
 STEP:  62 TIME =     0.04 SECS, INTEGRAL =      2.33 TIME LEFT: 172797.66
 STEP:  63 TIME =     0.04 SECS, INTEGRAL =      2.38 TIME LEFT: 172797.61
 STEP:  64 TIME =     0.04 SECS, INTEGRAL =      2.41 TIME LEFT: 172797.57
 STEP:  65 TIME =     0.04 SECS, INTEGRAL =      2.45 TIME LEFT: 172797.54
 STEP:  66 TIME =     0.04 SECS, INTEGRAL =      2.49 TIME LEFT: 172797.50
 STEP:  67 TIME =     0.04 SECS, INTEGRAL =      2.53 TIME LEFT: 172797.46
 STEP:  68 TIME =     0.04 SECS, INTEGRAL =      2.57 TIME LEFT: 172797.42
 STEP:  69 TIME =     0.04 SECS, INTEGRAL =      2.60 TIME LEFT: 172797.39
 STEP:  70 TIME =     0.04 SECS, INTEGRAL =      2.64 TIME LEFT: 172797.35
 STEP:  71 TIME =     0.04 SECS, INTEGRAL =      2.68 TIME LEFT: 172797.31
 STEP:  72 TIME =     0.04 SECS, INTEGRAL =      2.72 TIME LEFT: 172797.27
 STEP:  73 TIME =     0.04 SECS, INTEGRAL =      2.76 TIME LEFT: 172797.23
 STEP:  74 TIME =     0.04 SECS, INTEGRAL =      2.80 TIME LEFT: 172797.18
 STEP:  75 TIME =     0.04 SECS, INTEGRAL =      2.84 TIME LEFT: 172797.15
 STEP:  76 TIME =     0.04 SECS, INTEGRAL =      2.88 TIME LEFT: 172797.11
 STEP:  77 TIME =     0.04 SECS, INTEGRAL =      2.91 TIME LEFT: 172797.07
 STEP:  78 TIME =     0.04 SECS, INTEGRAL =      2.95 TIME LEFT: 172797.04
 STEP:  79 TIME =     0.04 SECS, INTEGRAL =      2.98 TIME LEFT: 172797.00
 STEP:  80 TIME =     0.04 SECS, INTEGRAL =      3.02 TIME LEFT: 172796.97
 STEP:  81 TIME =     0.04 SECS, INTEGRAL =      3.05 TIME LEFT: 172796.93
 STEP:  82 TIME =     0.04 SECS, INTEGRAL =      3.09 TIME LEFT: 172796.89
 STEP:  83 TIME =     0.04 SECS, INTEGRAL =      3.13 TIME LEFT: 172796.86
 STEP:  84 TIME =     0.04 SECS, INTEGRAL =      3.17 TIME LEFT: 172796.82
 STEP:  85 TIME =     0.04 SECS, INTEGRAL =      3.20 TIME LEFT: 172796.79
 STEP:  86 TIME =     0.04 SECS, INTEGRAL =      3.24 TIME LEFT: 172796.75
 STEP:  87 TIME =     0.04 SECS, INTEGRAL =      3.28 TIME LEFT: 172796.71
 STEP:  88 TIME =     0.04 SECS, INTEGRAL =      3.32 TIME LEFT: 172796.67
 STEP:  89 TIME =     0.04 SECS, INTEGRAL =      3.36 TIME LEFT: 172796.63
 STEP:  90 TIME =     0.04 SECS, INTEGRAL =      3.40 TIME LEFT: 172796.59
 STEP:  91 TIME =     0.04 SECS, INTEGRAL =      3.44 TIME LEFT: 172796.55
 STEP:  92 TIME =     0.04 SECS, INTEGRAL =      3.48 TIME LEFT: 172796.51
 STEP:  93 TIME =     0.04 SECS, INTEGRAL =      3.52 TIME LEFT: 172796.47
 STEP:  94 TIME =     0.04 SECS, INTEGRAL =      3.56 TIME LEFT: 172796.43
 STEP:  95 TIME =     0.04 SECS, INTEGRAL =      3.60 TIME LEFT: 172796.39
 STEP:  96 TIME =     0.04 SECS, INTEGRAL =      3.64 TIME LEFT: 172796.35

(To convert to Hartree/Bohr^2, multiply by (10^(-21) x N x a0^2)/(4.184 x 627.51) =  0.0642)


           FORCE MATRIX IN MILLIDYNES/ANGSTROM


                  C  1       C  2       C  3       C  4       C  5       C  6
 ------------------------------------------------------------------------------
     C    1  14.319167
     C    2   4.051137  14.656024
     C    3   2.848005   0.481878  14.184796
     C    4   0.130858   0.019355   0.366549  14.936528
     C    5   0.009895   0.142697   0.001198   0.000421  14.713383
     C    6   0.644619   4.071695   0.047025   0.001546   0.023735  14.303873
     C    7   0.001061   0.018942   0.000256   0.000138   4.411745   0.002195
     C    8   0.018245   0.003466   0.026865   4.366459   0.000110   0.000641
     C    9   2.242777   0.048002   3.986287   5.591691   0.000465   0.006850
     C   10   3.882708   0.517970   2.237953   0.562610   0.002541   0.054029
     C   11   0.652844   4.548170   0.021735   0.003232   0.814978   0.724618
     C   12   0.100886   0.774758   0.009063   0.001079   5.004769   0.035203
     H   13   0.429448   4.198179   0.032923   0.001308   0.013511   0.425319
     H   14   4.242783   0.442490   0.415345   0.016479   0.003035   0.014155
     H   15   0.001273   0.019539   0.000242   0.000093   4.421848   0.004211
     H   16   0.000904   0.003618   0.000280   0.000122   4.440227   0.000991
     H   17   0.016499   0.002192   0.009174   4.429284   0.000062   0.000255
     H   18   0.004858   0.000961   0.033791   4.471030   0.000032   0.000347
     H   19   0.421466   0.025751   4.717731   0.007343   0.000506   0.005863
     H   20   0.433001   0.024150   4.685186   0.006076   0.000400   0.002522
     H   21   0.000158   0.000784   0.000097   0.000087   0.464786   0.000258
     H   22   0.000170   0.000826   0.000132   0.000127   0.461315   0.000327
     H   23   0.000322   0.003147   0.000073   0.000057   0.449340   0.000249
     H   24   0.050789   0.457367   0.008033   0.000424   0.000933   4.751534
     H   25   0.024766   0.459412   0.002406   0.000753   0.004305   4.726890
     H   26   0.020565   0.466399   0.001427   0.000322   0.000864   4.731821
     H   27   0.003206   0.000730   0.001464   0.450568   0.000033   0.000239
     H   28   0.000991   0.000378   0.005772   0.463901   0.000048   0.000190
     H   29   0.000807   0.000393   0.002490   0.461178   0.000053   0.000165
     H   30   0.103039   0.082833   0.003718   0.000937   0.428963   0.013788
     H   31   0.038929   0.429260   0.001255   0.000714   0.085021   0.012866
     H   32   0.336461   0.009949   0.110619   0.036561   0.000616   0.010823


                  C  7       C  8       C  9       C 10       C 11       C 12
 ------------------------------------------------------------------------------
     C    7  14.348794
     C    8   0.000180  14.335301
     C    9   0.000108   0.741429  19.110428
     C   10   0.000830   0.033868  10.084012  18.228661
     C   11   0.041212   0.001054   0.006762   0.047689  18.037143
     C   12   0.719184   0.000201   0.001511   0.007959  10.694238  18.138785
     H   13   0.002799   0.000387   0.003883   0.010084   0.410560   0.044323
     H   14   0.000467   0.002139   0.042026   0.415111   0.035342   0.101784
     H   15   0.446159   0.000104   0.000112   0.000534   0.032172   0.407672
     H   16   0.435315   0.000041   0.000121   0.000590   0.047853   0.460510
     H   17   0.000075   0.446687   0.426875   0.030510   0.000292   0.000273
     H   18   0.000062   0.439820   0.451677   0.013837   0.000267   0.000154
     H   19   0.000175   0.001380   0.439552   0.039748   0.001899   0.001336
     H   20   0.000231   0.006240   0.439894   0.040325   0.003412   0.001188
     H   21   4.725139   0.000051   0.000114   0.000182   0.002096   0.027324
     H   22   4.745563   0.000052   0.000108   0.000208   0.002435   0.015764
     H   23   4.750092   0.000064   0.000066   0.000294   0.007017   0.052425
     H   24   0.000274   0.000157   0.000713   0.004085   0.031349   0.002420
     H   25   0.000263   0.000380   0.001159   0.013828   0.049020   0.003227
     H   26   0.000295   0.000157   0.000579   0.003264   0.020721   0.003557
     H   27   0.000056   4.754705   0.054905   0.005753   0.000296   0.000072
     H   28   0.000068   4.725225   0.026277   0.001928   0.000279   0.000080
     H   29   0.000058   4.749071   0.015631   0.002577   0.000210   0.000085
     H   30   0.024269   0.000265   0.000879   0.005718   0.471972   4.589189
     H   31   0.008584   0.000306   0.000861   0.007030   4.780829   0.472164
     H   32   0.000269   0.004869   0.429785   5.266258   0.002458   0.000860


                  H 13       H 14       H 15       H 16       H 17       H 18
 ------------------------------------------------------------------------------
     H   13   4.650831
     H   14   0.040987   4.791220
     H   15   0.001440   0.000422   5.017972
     H   16   0.000356   0.000659   0.566417   5.050675
     H   17   0.000208   0.002775   0.000041   0.000028   5.013671
     H   18   0.000208   0.000929   0.000033   0.000022   0.557806   5.054033
     H   19   0.001458   0.026851   0.000117   0.000095   0.003133   0.001296
     H   20   0.027765   0.024125   0.000188   0.000159   0.000728   0.001326
     H   21   0.000099   0.000288   0.023675   0.047885   0.000019   0.000028
     H   22   0.000117   0.000202   0.049354   0.024616   0.000025   0.000041
     H   23   0.000567   0.000174   0.028741   0.030078   0.000027   0.000018
     H   24   0.028382   0.001283   0.000215   0.000159   0.000088   0.000124
     H   25   0.029044   0.001619   0.000961   0.000256   0.000211   0.000171
     H   26   0.046241   0.008876   0.000183   0.000128   0.000100   0.000047
     H   27   0.000153   0.000344   0.000028   0.000016   0.029649   0.027318
     H   28   0.000142   0.000276   0.000043   0.000022   0.022393   0.048766
     H   29   0.000197   0.000127   0.000038   0.000015   0.049015   0.025503
     H   30   0.005345   0.069507   0.016256   0.037885   0.000195   0.000177
     H   31   0.038481   0.001752   0.010136   0.029933   0.000111   0.000125
     H   32   0.002139   0.005652   0.000209   0.000140   0.003495   0.005920


                  H 19       H 20       H 21       H 22       H 23       H 24
 ------------------------------------------------------------------------------
     H   19   5.333345
     H   20   0.530113   5.304963
     H   21   0.000089   0.000081   5.470328
     H   22   0.000199   0.000113   0.579221   5.484287
     H   23   0.000111   0.000081   0.573532   0.573914   5.487636
     H   24   0.001103   0.000544   0.000063   0.000071   0.000116   5.485467
     H   25   0.000335   0.000363   0.000084   0.000112   0.000064   0.564446
     H   26   0.000350   0.000492   0.000051   0.000077   0.000117   0.571962
     H   27   0.000169   0.000476   0.000019   0.000019   0.000015   0.000055
     H   28   0.000393   0.007789   0.000019   0.000026   0.000024   0.000062
     H   29   0.000240   0.000534   0.000014   0.000015   0.000022   0.000041
     H   30   0.001201   0.000986   0.019049   0.002632   0.002084   0.000893
     H   31   0.000421   0.000958   0.000592   0.000501   0.001657   0.005940
     H   32   0.014578   0.014881   0.000094   0.000099   0.000092   0.000907


                  H 25       H 26       H 27       H 28       H 29       H 30
 ------------------------------------------------------------------------------
     H   25   5.463842
     H   26   0.568939   5.468248
     H   27   0.000135   0.000075   5.488200
     H   28   0.000074   0.000044   0.568674   5.463575
     H   29   0.000088   0.000051   0.572439   0.579698   5.487148
     H   30   0.002667   0.002526   0.000107   0.000096   0.000075   5.000161
     H   31   0.001663   0.002091   0.000098   0.000103   0.000056   0.106450
     H   32   0.023315   0.000657   0.001127   0.000516   0.000549   0.001261


                  H 31       H 32
 ------------------------------
     H   31   5.153575
     H   32   0.000688   5.657853


          HEAT OF FORMATION =      16.859999 KCALS/MOLE

          ZERO POINT ENERGY     180.011 KCAL/MOL


           NORMAL COORDINATE ANALYSIS (Total motion = 1 Angstrom)


   Root No.       1         2         3         4         5         6         7         8

                 1 A       2 A       3 A       4 A       5 A       6 A       7 A       8 A   

                  24.4      37.3      48.4      70.8      95.1     114.5     159.0     160.5
  
           1    0.0046    0.0006    0.0021   -0.0195    0.0054   -0.0001   -0.0024   -0.0034
           2   -0.0151   -0.0026   -0.0177   -0.0134   -0.0058   -0.0079   -0.0017    0.0008
           3   -0.0081    0.0001   -0.0054    0.0048   -0.0070   -0.0178   -0.0005    0.0012
           4    0.0045    0.0006    0.0021   -0.0192    0.0050   -0.0008   -0.0026   -0.0034
           5   -0.0140    0.0089   -0.0085    0.0074   -0.0093   -0.0039   -0.0039    0.0023
           6   -0.0037    0.0033   -0.0095    0.0003   -0.0017    0.0009    0.0066    0.0035
           7    0.0034   -0.0100   -0.0045   -0.0324    0.0071   -0.0115   -0.0082    0.0024
           8   -0.0157   -0.0076   -0.0210   -0.0197   -0.0047   -0.0137   -0.0039    0.0028
           9    0.0002    0.0123    0.0220    0.0080   -0.0022    0.0011    0.0079   -0.0136
          10    0.0078   -0.0062   -0.0041    0.0184   -0.0036   -0.0082    0.0017    0.0027
          11   -0.0018    0.0041    0.0183   -0.0001   -0.0000    0.0095    0.0027   -0.0012
          12   -0.0009    0.0119    0.0291   -0.0226    0.0061    0.0026   -0.0034   -0.0057
          13   -0.0126   -0.0107   -0.0042    0.0131   -0.0107    0.0037    0.0081    0.0022
          14    0.0056   -0.0282    0.0266    0.0059    0.0164   -0.0076    0.0046    0.0005
          15   -0.0017    0.0062   -0.0098   -0.0047    0.0030   -0.0017    0.0050    0.0036
          16    0.0065    0.0122    0.0081   -0.0025    0.0047    0.0043   -0.0045    0.0017
          17   -0.0147    0.0218   -0.0086    0.0173    0.0030   -0.0176    0.0004    0.0077
          18    0.0001   -0.0167   -0.0028   -0.0074   -0.0322    0.0374   -0.0061   -0.0034
          19   -0.0061    0.0109   -0.0243    0.0254    0.0083    0.0266    0.0051    0.0021
          20    0.0413    0.0307   -0.0003   -0.0016   -0.0034   -0.0028    0.0074    0.0033
          21   -0.0195   -0.0118   -0.0123    0.0132    0.0366    0.0182   -0.0001    0.0016
          22   -0.0150    0.0092    0.0240    0.0390   -0.0076   -0.0142   -0.0105    0.0024
          23    0.0299   -0.0142   -0.0060    0.0051   -0.0013    0.0067    0.0046    0.0050
          24    0.0504   -0.0151    0.0023    0.0145   -0.0017   -0.0114   -0.0125    0.0082
          25    0.0076   -0.0043   -0.0041   -0.0089    0.0039    0.0032    0.0055    0.0020
          26   -0.0065    0.0008    0.0012   -0.0121   -0.0006    0.0061    0.0083   -0.0077
          27   -0.0044    0.0074    0.0152   -0.0046   -0.0019   -0.0114   -0.0021   -0.0103
          28    0.0089    0.0045    0.0006   -0.0092    0.0056    0.0188    0.0116   -0.0043
          29   -0.0058    0.0053    0.0037   -0.0122    0.0003    0.0138    0.0113   -0.0108
          30   -0.0116   -0.0030   -0.0078   -0.0009   -0.0081   -0.0310   -0.0095    0.0025
          31    0.0003   -0.0026    0.0013   -0.0134    0.0088   -0.0137   -0.0035   -0.0055
          32   -0.0108   -0.0084    0.0047    0.0102   -0.0378    0.0166   -0.0145   -0.0007
          33   -0.0026    0.0076   -0.0114   -0.0031    0.0013    0.0024    0.0080    0.0049
          34   -0.0066   -0.0075    0.0025   -0.0038   -0.0284   -0.0102    0.0020   -0.0004
          35   -0.0010   -0.0146    0.0075    0.0093    0.0430    0.0080   -0.0180   -0.0081
          36   -0.0033    0.0028   -0.0098    0.0019    0.0064    0.0017    0.0099    0.0055
          37    0.0058   -0.0044   -0.0046   -0.0336    0.0083    0.0060    0.0006   -0.0039
          38   -0.0148    0.0223   -0.0104    0.0147    0.0059   -0.0175    0.0020    0.0062
          39   -0.0041    0.0174   -0.0153    0.0016    0.0185   -0.0120    0.0155    0.0079
          40    0.0029    0.0036    0.0084   -0.0103   -0.0000   -0.0045   -0.0053   -0.0045
          41   -0.0206   -0.0130   -0.0335   -0.0208   -0.0064   -0.0237   -0.0097    0.0091
          42   -0.0136   -0.0072   -0.0158    0.0023   -0.0102   -0.0332   -0.0087    0.0076
          43   -0.0376   -0.0626    0.0239    0.0217   -0.0061   -0.0052    0.0253    0.0076
          44    0.0047   -0.0384    0.0361    0.0049    0.0070   -0.0156    0.0159    0.0046
          45    0.0154    0.0204   -0.0074   -0.0137   -0.0236   -0.0146    0.0196    0.0095
          46    0.0010    0.0187   -0.0216    0.0108   -0.0101    0.0118   -0.0008   -0.0005
          47   -0.0155   -0.0736    0.0533    0.0088    0.0154   -0.0203    0.0176    0.0043
          48   -0.0029    0.0090   -0.0102   -0.0148    0.0010   -0.0068   -0.0105   -0.0026
          49   -0.0088    0.0062    0.0153    0.0015    0.0024    0.0027    0.0007    0.0061
          50   -0.0424    0.0283    0.0524   -0.0052    0.0017    0.0138   -0.0012   -0.0059
          51   -0.0123    0.0230    0.0480   -0.0494    0.0155    0.0194   -0.0034    0.0024
          52    0.0408   -0.0305   -0.0429    0.0439   -0.0130   -0.0262    0.0050   -0.0034
          53    0.0165   -0.0022    0.0188    0.0116   -0.0005    0.0095   -0.0034    0.0094
          54   -0.0264    0.0252    0.0422   -0.0405    0.0097    0.0088    0.0000   -0.0114
          55    0.0010   -0.0129   -0.0044   -0.0471    0.0093   -0.0196   -0.0166    0.0017
          56   -0.0221   -0.0207   -0.0396   -0.0356   -0.0055   -0.0335   -0.0160    0.0140
          57   -0.0006    0.0125    0.0260   -0.0019    0.0001   -0.0020    0.0028   -0.0166
          58    0.0029   -0.0164   -0.0084   -0.0407    0.0081   -0.0173   -0.0113    0.0056
          59   -0.0150   -0.0021   -0.0173   -0.0123   -0.0055   -0.0084   -0.0011    0.0003
          60    0.0085    0.0218    0.0373    0.0283   -0.0019    0.0220    0.0238   -0.0210
          61   -0.0203   -0.0195   -0.0067    0.0281    0.0101    0.0141    0.0570    0.0215
          62    0.0635    0.0774   -0.0276   -0.0040   -0.0052    0.0164   -0.0581   -0.0209
          63   -0.0194   -0.0165   -0.0110    0.0233    0.0435    0.0153    0.0979    0.0401
          64    0.0198    0.0647   -0.0541    0.0182    0.0012    0.0463   -0.0924   -0.0345
          65    0.0430    0.0415   -0.0100   -0.0002    0.0041    0.0103   -0.0459   -0.0172
          66   -0.0361   -0.0253   -0.0155    0.0231    0.0641    0.0395   -0.0723   -0.0267
          67   -0.0124    0.0049   -0.0284    0.0400    0.0293    0.0382    0.0478    0.0191
          68    0.0459    0.0201    0.0154   -0.0063   -0.0249   -0.0310    0.1281    0.0499
          69   -0.0174   -0.0081   -0.0123    0.0077    0.0303    0.0166   -0.0314   -0.0107
          70    0.0065    0.0123    0.0080   -0.0024    0.0048    0.0043   -0.0045    0.0018
          71   -0.0137    0.0309   -0.0006    0.0326   -0.0001   -0.0182   -0.0154    0.0099
          72    0.0016   -0.0151   -0.0105   -0.0105   -0.0254    0.0482    0.0283    0.0022
          73    0.0081    0.0154    0.0019   -0.0026    0.0110    0.0140    0.0253    0.0074
          74   -0.0173    0.0354   -0.0189    0.0174    0.0309   -0.0428    0.0287    0.0152
          75    0.0000   -0.0201    0.0010   -0.0074   -0.0392    0.0387   -0.0208   -0.0066
          76    0.0065    0.0183    0.0186    0.0110   -0.0016   -0.0019   -0.0361    0.0002
          77   -0.0136    0.0094   -0.0063    0.0098   -0.0122   -0.0024   -0.0087    0.0022
          78    0.0015   -0.0307    0.0061   -0.0105   -0.0571    0.0554   -0.0360   -0.0119
          79   -0.0173    0.0100    0.0271    0.0616   -0.0147   -0.0289   -0.0070   -0.0553
          80    0.0310   -0.0100    0.0103    0.0148    0.0004    0.0139   -0.0211    0.0984
          81    0.0541   -0.0122    0.0135   -0.0024    0.0078    0.0117   -0.0398    0.1577
          82   -0.0476    0.0334    0.0638    0.0126    0.0047    0.0151   -0.0426    0.1612
          83    0.0127   -0.0086   -0.0081   -0.0060   -0.0022    0.0015    0.0264   -0.0813
          84    0.0765   -0.0287   -0.0111    0.0334   -0.0056   -0.0184   -0.0179    0.0174
          85    0.0019   -0.0036    0.0034    0.0592   -0.0161   -0.0339    0.0076   -0.0983
          86    0.0714   -0.0387   -0.0398    0.0106   -0.0030    0.0025    0.0103    0.0035
          87    0.0614   -0.0257   -0.0165    0.0422   -0.0136   -0.0388    0.0120   -0.1385
          88   -0.0085   -0.0102    0.0076   -0.0038   -0.0665   -0.0077    0.0054    0.0034
          89    0.0034   -0.0082   -0.0036    0.0087    0.1245    0.0033   -0.0247   -0.0161
          90   -0.0050   -0.0030   -0.0088    0.0106    0.0144    0.0009    0.0151    0.0077
          91    0.0028    0.0004   -0.0032   -0.0138    0.0504   -0.0190   -0.0052   -0.0092
          92   -0.0161   -0.0150    0.0142    0.0116   -0.1261    0.0279   -0.0102    0.0073
          93   -0.0010    0.0145   -0.0140   -0.0102   -0.0010    0.0042    0.0084    0.0058
          94    0.0121    0.0115    0.0037   -0.0003    0.0051    0.0369    0.0221   -0.0084
          95   -0.0007    0.0118    0.0161   -0.0096    0.0032    0.0286    0.0193   -0.0187
          96   -0.0179   -0.0108   -0.0231   -0.0038   -0.0117   -0.0488   -0.0191    0.0123


   Root No.       9        10        11        12        13        14        15        16

                 9 A      10 A      11 A      12 A      13 A      14 A      15 A      16 A   

                 179.4     197.9     224.9     257.9     311.4     320.8     369.6     418.9
  
           1   -0.0004    0.0060    0.0057   -0.0076   -0.0125    0.0041    0.0097   -0.0197
           2   -0.0030    0.0033    0.0118   -0.0197   -0.0084    0.0125   -0.0092   -0.0170
           3   -0.0035   -0.0102    0.0076    0.0155   -0.0008   -0.0067   -0.0189   -0.0014
           4   -0.0004    0.0054    0.0062   -0.0076   -0.0078    0.0060    0.0134   -0.0244
           5   -0.0023    0.0051    0.0107   -0.0066   -0.0028   -0.0085   -0.0092   -0.0118
           6   -0.0006   -0.0069   -0.0032   -0.0068    0.0091   -0.0043   -0.0088    0.0099
           7    0.0098    0.0141   -0.0167    0.0159   -0.0143   -0.0072    0.0061    0.0246
           8    0.0026    0.0059    0.0008   -0.0068   -0.0082    0.0144   -0.0100    0.0051
           9   -0.0063   -0.0176    0.0154    0.0223   -0.0127    0.0137    0.0058    0.0011
          10   -0.0012   -0.0130    0.0037    0.0273   -0.0057   -0.0098   -0.0042   -0.0060
          11    0.0039    0.0026   -0.0122    0.0009    0.0202   -0.0089    0.0023   -0.0131
          12    0.0016    0.0118   -0.0069   -0.0019   -0.0027   -0.0232   -0.0154   -0.0013
          13   -0.0056   -0.0106   -0.0077   -0.0103    0.0172    0.0035   -0.0102    0.0199
          14   -0.0069   -0.0125   -0.0200   -0.0080   -0.0087    0.0080   -0.0045   -0.0077
          15    0.0003   -0.0058   -0.0046   -0.0139    0.0166   -0.0115    0.0285    0.0108
          16    0.0151    0.0139   -0.0188    0.0195    0.0211    0.0374   -0.0013   -0.0026
          17    0.0032    0.0016   -0.0065    0.0018    0.0046   -0.0062   -0.0125    0.0050
          18    0.0022    0.0112    0.0102    0.0020    0.0196    0.0174   -0.0193   -0.0044
          19    0.0049    0.0065   -0.0054    0.0032   -0.0098    0.0034   -0.0060   -0.0031
          20    0.0015   -0.0007   -0.0059   -0.0034   -0.0042   -0.0005    0.0076   -0.0059
          21    0.0054    0.0033   -0.0119   -0.0039   -0.0134   -0.0071    0.0301   -0.0153
          22   -0.0017    0.0145    0.0038   -0.0170   -0.0051    0.0049   -0.0006    0.0033
          23    0.0027   -0.0081   -0.0080    0.0136    0.0183   -0.0067    0.0047   -0.0163
          24   -0.0021    0.0172    0.0040   -0.0218   -0.0108   -0.0003   -0.0076    0.0093
          25    0.0005   -0.0120   -0.0028    0.0214   -0.0091   -0.0327   -0.0238    0.0041
          26    0.0018   -0.0103   -0.0001    0.0123   -0.0055    0.0153    0.0061    0.0147
          27   -0.0016   -0.0005    0.0088    0.0137   -0.0154    0.0225    0.0122    0.0072
          28   -0.0082   -0.0117    0.0137   -0.0190   -0.0210   -0.0144   -0.0239    0.0076
          29   -0.0026   -0.0102    0.0087   -0.0085   -0.0128    0.0246    0.0054    0.0181
          30    0.0001    0.0005    0.0053    0.0234   -0.0011    0.0044   -0.0068   -0.0195
          31   -0.0067   -0.0079    0.0223   -0.0107    0.0238   -0.0016    0.0113   -0.0144
          32   -0.0020    0.0139    0.0060    0.0154   -0.0131   -0.0273    0.0187    0.0109
          33    0.0023   -0.0024   -0.0092   -0.0107    0.0008    0.0003   -0.0027    0.0010
          34   -0.0101   -0.0141    0.0029   -0.0141    0.0257   -0.0115    0.0293    0.0046
          35   -0.0007    0.0092    0.0266    0.0128    0.0161   -0.0145    0.0057    0.0212
          36    0.0011   -0.0071   -0.0138   -0.0134    0.0095   -0.0016    0.0057    0.0129
          37   -0.0036    0.0096    0.0070   -0.0253   -0.0170    0.0144    0.0171   -0.0360
          38   -0.0005   -0.0002    0.0015   -0.0075    0.0020   -0.0076   -0.0147   -0.0082
          39   -0.0005   -0.0110   -0.0131   -0.0178    0.0100    0.0018   -0.0138    0.0062
          40   -0.0026    0.0058    0.0102   -0.0018   -0.0106    0.0029    0.0209   -0.0399
          41    0.0012    0.0118    0.0037   -0.0196   -0.0012    0.0086   -0.0180   -0.0179
          42   -0.0012   -0.0025    0.0032    0.0176    0.0056   -0.0096   -0.0205   -0.0136
          43   -0.0122   -0.0292   -0.0475   -0.0256   -0.0049    0.0313   -0.0458    0.0011
          44   -0.0094   -0.0220   -0.0379   -0.0178   -0.0152    0.0195   -0.0161   -0.0160
          45   -0.0011   -0.0151   -0.0190   -0.0265    0.0169   -0.0044    0.0279    0.0037
          46   -0.0007    0.0014    0.0129   -0.0005    0.0250   -0.0101    0.0059    0.0281
          47   -0.0146   -0.0308   -0.0505   -0.0229   -0.0202    0.0281   -0.0282   -0.0206
          48   -0.0031   -0.0031    0.0203   -0.0098    0.0402   -0.0310    0.0560    0.0260
          49    0.0012   -0.0037   -0.0090    0.0171    0.0077   -0.0467   -0.0271   -0.0190
          50    0.0058    0.0188   -0.0208   -0.0176    0.0325   -0.0209   -0.0032   -0.0242
          51    0.0049    0.0207   -0.0252   -0.0112    0.0158   -0.0822   -0.0528   -0.0197
          52   -0.0055   -0.0326    0.0264    0.0496   -0.0325    0.0523    0.0330    0.0194
          53    0.0039    0.0126   -0.0166   -0.0162    0.0313   -0.0234   -0.0057   -0.0249
          54    0.0031    0.0113   -0.0115    0.0029   -0.0019   -0.0342   -0.0228   -0.0013
          55    0.0151    0.0317   -0.0245    0.0095   -0.0219    0.0134    0.0268    0.0481
          56    0.0118    0.0244   -0.0193   -0.0048   -0.0079    0.0062   -0.0201    0.0485
          57   -0.0034   -0.0058    0.0127    0.0162   -0.0194    0.0339    0.0265    0.0117
          58    0.0161    0.0189   -0.0310    0.0300   -0.0155   -0.0119    0.0057    0.0624
          59   -0.0026    0.0014    0.0124   -0.0176   -0.0073    0.0173   -0.0100   -0.0244
          60   -0.0133   -0.0458    0.0268    0.0412   -0.0080   -0.0008   -0.0013   -0.0219
          61    0.0268    0.0249    0.0092    0.0060   -0.0075    0.0017   -0.0054   -0.0015
          62   -0.0238   -0.0205   -0.0227   -0.0047   -0.0108    0.0007    0.0097   -0.0123
          63    0.0608    0.0595    0.0261    0.0154   -0.0303   -0.0162    0.0462   -0.0358
          64   -0.0383   -0.0313   -0.0333   -0.0044   -0.0094    0.0067   -0.0084   -0.0016
          65   -0.0224   -0.0219   -0.0259   -0.0067   -0.0120    0.0043    0.0046   -0.0129
          66   -0.0275   -0.0260   -0.0462   -0.0070   -0.0365    0.0037    0.0241   -0.0374
          67    0.0349    0.0399    0.0089    0.0195   -0.0391    0.0011    0.0047   -0.0345
          68    0.0574    0.0497    0.0421    0.0051    0.0139   -0.0132    0.0175    0.0097
          69   -0.0133   -0.0162   -0.0233   -0.0116   -0.0036   -0.0048    0.0250   -0.0046
          70    0.0150    0.0141   -0.0190    0.0199    0.0218    0.0382   -0.0018   -0.0023
          71    0.0825   -0.0155   -0.0226    0.0106    0.0233    0.0165   -0.0281    0.0275
          72   -0.1541    0.0698   -0.0069    0.0420    0.0438    0.0440   -0.0270   -0.0023
          73   -0.1178    0.0647   -0.0368    0.0571    0.0461    0.0649   -0.0111    0.0038
          74   -0.0841    0.0157   -0.0219    0.0093   -0.0030   -0.0245    0.0023    0.0166
          75    0.0607   -0.0077    0.0189   -0.0115    0.0132    0.0123   -0.0192   -0.0087
          76    0.1640   -0.0317   -0.0216    0.0043    0.0232    0.0420   -0.0096    0.0130
          77    0.0167    0.0017    0.0098   -0.0065    0.0004   -0.0061   -0.0144   -0.0121
          78    0.1020   -0.0134    0.0319   -0.0180    0.0148    0.0201   -0.0267   -0.0204
          79    0.0036    0.0408   -0.0017   -0.0498   -0.0048    0.0113   -0.0005    0.0134
          80   -0.0080   -0.0081    0.0071   -0.0108    0.0097    0.0194    0.0127   -0.0020
          81   -0.0177   -0.0121    0.0239   -0.0074   -0.0194    0.0163   -0.0007    0.0115
          82   -0.0176   -0.0059    0.0206   -0.0155   -0.0114    0.0203    0.0047    0.0082
          83    0.0129   -0.0022   -0.0237    0.0278    0.0278   -0.0309   -0.0032   -0.0285
          84   -0.0042    0.0203    0.0103   -0.0341   -0.0162    0.0133   -0.0034    0.0174
          85    0.0082    0.0328   -0.0066   -0.0273   -0.0021   -0.0013   -0.0035    0.0041
          86    0.0022   -0.0239   -0.0039    0.0364    0.0163   -0.0072    0.0070   -0.0225
          87    0.0126    0.0492   -0.0126   -0.0442   -0.0055   -0.0095   -0.0127    0.0123
          88   -0.0122   -0.0158   -0.0158   -0.0139    0.0046   -0.0179    0.0449   -0.0041
          89    0.0042    0.0133    0.0665    0.0119    0.0596   -0.0001   -0.0278    0.0379
          90    0.0014   -0.0107   -0.0231   -0.0128    0.0090    0.0059   -0.0101    0.0215
          91   -0.0052   -0.0088    0.0404   -0.0140    0.0473    0.0091   -0.0087   -0.0112
          92   -0.0054    0.0153   -0.0338    0.0220   -0.0624   -0.0499    0.0617    0.0051
          93    0.0055    0.0048   -0.0120   -0.0110   -0.0203    0.0071   -0.0105   -0.0194
          94   -0.0217   -0.0188    0.0294   -0.0486   -0.0297   -0.0062   -0.0417    0.0207
          95   -0.0058   -0.0170    0.0139   -0.0156   -0.0218    0.0371    0.0132    0.0419
          96    0.0033    0.0089   -0.0006    0.0312    0.0096   -0.0108   -0.0173   -0.0486


   Root No.      17        18        19        20        21        22        23        24

                17 A      18 A      19 A      20 A      21 A      22 A      23 A      24 A   

                 458.9     508.7     539.3     610.0     722.6     809.7     821.0     843.0
  
           1    0.0194   -0.0155    0.0047   -0.0021   -0.0057   -0.0044    0.0022   -0.0127
           2   -0.0090   -0.0166    0.0090   -0.0130    0.0145   -0.0045   -0.0014   -0.0239
           3   -0.0224   -0.0054   -0.0187    0.0096   -0.0303    0.0024    0.0061    0.0131
           4    0.0177   -0.0166    0.0044    0.0125   -0.0070    0.0027   -0.0022    0.0239
[...]
 TRANSITION DIPOLE   0.0234         C  4 -- H 18         +41.8% ( 67.1%)     95.6%
 TRAVEL (Ang.)       0.2085         C  4 -- C  8          +1.2% ( 11.2%)      0.1%
 REDUCED MASS        0.5262         C  4 -- C  9          +1.2% ( 11.1%)      0.0%
 EFFECTIVE MASS      1.5461
 FORCE CONSTANT      2.6964

 VIBRATION         75   75A           ATOM PAIR      ENERGY CONTRIBUTION    RADIAL
 FREQUENCY          2989.80         C 12 -- H 30         +93.9% ( 98.1%)    100.0%
 TRANSITION DIPOLE   0.2536         C  1 -- H 14          +2.3% ( 15.2%)    100.0%
 TRAVEL (Ang.)       0.1614         C 11 -- C 12          +1.4% ( 12.1%)     37.6%
 REDUCED MASS        0.8661         C  5 -- C 12          +1.3% ( 11.6%)     17.8%
 EFFECTIVE MASS      1.5052
 FORCE CONSTANT      4.5613

 VIBRATION         76   76A           ATOM PAIR      ENERGY CONTRIBUTION    RADIAL
 FREQUENCY          3024.35         C  5 -- H 16         +52.9% ( 71.7%)     98.1%
 TRANSITION DIPOLE   0.0490         C  5 -- H 15         +44.7% ( 65.9%)     97.2%
 TRAVEL (Ang.)       0.2164         C  5 -- C  7          +0.6% (  7.9%)     26.3%
 REDUCED MASS        0.4761         C  5 -- C 12          +0.6% (  7.7%)     30.3%
 EFFECTIVE MASS      1.2767
 FORCE CONSTANT      2.5658

 VIBRATION         77   77A           ATOM PAIR      ENERGY CONTRIBUTION    RADIAL
 FREQUENCY          3024.71         C  4 -- H 18         +56.7% ( 74.3%)     98.4%
 TRANSITION DIPOLE   0.0451         C  4 -- H 17         +41.5% ( 63.5%)     96.6%
 TRAVEL (Ang.)       0.2135         C  4 -- C  8          +0.7% (  8.0%)     26.3%
 REDUCED MASS        0.4892         C  4 -- C  9          +0.6% (  7.9%)     30.4%
 EFFECTIVE MASS      1.2794
 FORCE CONSTANT      2.6372

 VIBRATION         78   78A           ATOM PAIR      ENERGY CONTRIBUTION    RADIAL
 FREQUENCY          3040.66         C 11 -- H 31         +96.6% ( 99.7%)    100.0%
 TRANSITION DIPOLE   0.2449         C 11 -- C 12          +1.5% ( 12.5%)     39.8%
 TRAVEL (Ang.)       0.1553         C  2 -- C 11          +1.4% ( 11.9%)     14.2%
 REDUCED MASS        0.9199         C  5 -- H 16          +0.3% (  5.2%)     99.4%
 EFFECTIVE MASS      1.5175
 FORCE CONSTANT      5.0111

 VIBRATION         79   79A           ATOM PAIR      ENERGY CONTRIBUTION    RADIAL
 FREQUENCY          3046.14         C  3 -- H 20         +55.8% ( 77.7%)     97.8%
 TRANSITION DIPOLE   0.0753         C  3 -- H 19         +40.7% ( 66.4%)     96.0%
 TRAVEL (Ang.)       0.2047         C  3 -- C 10          +1.1% ( 10.9%)      0.3%
 REDUCED MASS        0.5285         C  3 -- C  9          +1.1% ( 10.9%)      0.2%
 EFFECTIVE MASS      1.5392
 FORCE CONSTANT      2.8895

 VIBRATION         80   80A           ATOM PAIR      ENERGY CONTRIBUTION    RADIAL
 FREQUENCY          3080.26         C  6 -- H 25         +49.2% ( 72.4%)     97.0%
 TRANSITION DIPOLE   0.0191         C  6 -- H 26         +48.8% ( 72.0%)     97.1%
 TRAVEL (Ang.)       0.2074         C  2 -- C  6          +1.0% ( 10.4%)      0.0%
 REDUCED MASS        0.5088         C  6 -- H 24          +1.0% ( 10.2%)      0.5%
 EFFECTIVE MASS      1.5055
 FORCE CONSTANT      2.8444

 VIBRATION         81   81A           ATOM PAIR      ENERGY CONTRIBUTION    RADIAL
 FREQUENCY          3080.79         C  8 -- H 28         +62.9% ( 81.8%)     98.6%
 TRANSITION DIPOLE   0.0165         C  8 -- H 29         +31.5% ( 57.9%)     93.4%
 TRAVEL (Ang.)       0.2043         C  8 -- H 27          +4.2% ( 21.1%)     49.0%
 REDUCED MASS        0.5243         C  4 -- C  8          +1.0% ( 10.2%)      0.0%
 EFFECTIVE MASS      1.5013
 FORCE CONSTANT      2.9322

 VIBRATION         82   82A           ATOM PAIR      ENERGY CONTRIBUTION    RADIAL
 FREQUENCY          3081.22         C  7 -- H 21         +63.7% ( 82.4%)     98.7%
 TRANSITION DIPOLE   0.0091         C  7 -- H 22         +29.0% ( 55.5%)     92.4%
 TRAVEL (Ang.)       0.2049         C  7 -- H 23          +6.1% ( 25.4%)     60.7%
 REDUCED MASS        0.5213         C  5 -- C  7          +1.0% ( 10.2%)      0.0%
 EFFECTIVE MASS      1.5011
 FORCE CONSTANT      2.9158

 VIBRATION         83   83A           ATOM PAIR      ENERGY CONTRIBUTION    RADIAL
 FREQUENCY          3084.81         C  6 -- H 24         +62.5% ( 81.6%)     98.8%
 TRANSITION DIPOLE   0.0175         C  6 -- H 25         +18.8% ( 44.8%)     86.1%
 TRAVEL (Ang.)       0.2118         C  6 -- H 26         +17.6% ( 43.3%)     84.8%
 REDUCED MASS        0.4875         C  2 -- C  6          +1.0% ( 10.4%)      0.0%
 EFFECTIVE MASS      1.5074
 FORCE CONSTANT      2.7330

 VIBRATION         84   84A           ATOM PAIR      ENERGY CONTRIBUTION    RADIAL
 FREQUENCY          3085.97         C  7 -- H 23         +58.6% ( 79.0%)     98.3%
 TRANSITION DIPOLE   0.0095         C  7 -- H 22         +35.9% ( 61.8%)     94.4%
 TRAVEL (Ang.)       0.2085         C  7 -- H 21          +4.1% ( 20.8%)     47.2%
 REDUCED MASS        0.5026         C  5 -- C  7          +1.0% ( 10.3%)      0.1%
 EFFECTIVE MASS      1.5041
 FORCE CONSTANT      2.8200

 VIBRATION         85   85A           ATOM PAIR      ENERGY CONTRIBUTION    RADIAL
 FREQUENCY          3087.19         C  8 -- H 27         +60.6% ( 80.3%)     98.5%
 TRANSITION DIPOLE   0.0155         C  8 -- H 29         +32.4% ( 58.7%)     93.4%
 TRAVEL (Ang.)       0.2082         C  8 -- H 28          +5.6% ( 24.4%)     57.7%
 REDUCED MASS        0.5039         C  4 -- C  8          +1.0% ( 10.4%)      0.1%
 EFFECTIVE MASS      1.5051
 FORCE CONSTANT      2.8296

 VIBRATION         86   86A           ATOM PAIR      ENERGY CONTRIBUTION    RADIAL
 FREQUENCY          3101.99         C  3 -- H 19         +57.1% ( 75.1%)     97.9%
 TRANSITION DIPOLE   0.1117         C  3 -- H 20         +40.7% ( 63.4%)     95.6%
 TRAVEL (Ang.)       0.2097         C  3 -- C 10          +0.7% (  8.3%)     98.5%
 REDUCED MASS        0.4944         C  1 -- C  3          +0.7% (  8.3%)     51.6%
 EFFECTIVE MASS      1.2813
 FORCE CONSTANT      2.8027

 VIBRATION         87   87A           ATOM PAIR      ENERGY CONTRIBUTION    RADIAL
 FREQUENCY          3178.08         C  6 -- H 24         +36.0% ( 57.8%)     97.5%
 TRANSITION DIPOLE   0.0426         C  6 -- H 26         +32.8% ( 55.1%)     97.0%
 TRAVEL (Ang.)       0.2545         C  6 -- H 25         +30.8% ( 53.4%)     96.7%
 REDUCED MASS        0.3275         C  2 -- C  6          +0.3% (  5.0%)     99.6%
 EFFECTIVE MASS      1.1342
 FORCE CONSTANT      1.9487

 VIBRATION         88   88A           ATOM PAIR      ENERGY CONTRIBUTION    RADIAL
 FREQUENCY          3182.26         C  8 -- H 29         +35.4% ( 57.2%)     97.5%
 TRANSITION DIPOLE   0.0210         C  8 -- H 27         +34.3% ( 56.3%)     97.3%
 TRAVEL (Ang.)       0.2540         C  8 -- H 28         +30.0% ( 52.7%)     96.5%
 REDUCED MASS        0.3283         C  4 -- C  8          +0.3% (  5.1%)     99.6%
 EFFECTIVE MASS      1.1357
 FORCE CONSTANT      1.9590

 VIBRATION         89   89A           ATOM PAIR      ENERGY CONTRIBUTION    RADIAL
 FREQUENCY          3183.05         C  7 -- H 22         +34.4% ( 56.4%)     97.3%
 TRANSITION DIPOLE   0.0210         C  7 -- H 23         +34.4% ( 56.4%)     97.3%
 TRAVEL (Ang.)       0.2543         C  7 -- H 21         +31.0% ( 53.5%)     96.7%
 REDUCED MASS        0.3277         C  5 -- C  7          +0.3% (  5.1%)     99.8%
 EFFECTIVE MASS      1.1360
 FORCE CONSTANT      1.9559

 VIBRATION         90   90A           ATOM PAIR      ENERGY CONTRIBUTION    RADIAL
 FREQUENCY          3201.91         C 10 -- H 32         +94.0% ( 99.8%)    100.0%
 TRANSITION DIPOLE   0.4360         C  9 -- C 10          +2.0% ( 14.7%)     64.8%
 TRAVEL (Ang.)       0.1507         C  3 -- C 10          +1.9% ( 14.1%)     99.3%
 REDUCED MASS        0.9270         C  1 -- C 10          +1.8% ( 14.0%)     37.4%
 EFFECTIVE MASS      1.6010
 FORCE CONSTANT      5.5995

      SYMMETRY NUMBER FOR POINT-GROUP C1  =  1


          SYSTEM IS A GROUND STATE



 InChI=1S/C12H20/c1-4-6-7-10(3)12-8-11(5-2)9-12/h6-8,10,12H,4-5,9H2,1-3H3


          MOLECULE IS NOT LINEAR

          THERE ARE 90 GENUINE VIBRATIONS IN THIS SYSTEM
          THIS THERMODYNAMICS CALCULATION IS LIMITED TO
          MOLECULES WHICH HAVE NO INTERNAL ROTATIONS




                    CALCULATED THERMODYNAMIC PROPERTIES
                                          *
   TEMP. (K)   PARTITION FUNCTION   H.O.F.    ENTHALPY  HEAT CAPACITY ENTROPY
                                   KCAL/MOL   CAL/MOLE    CAL/K/MOL  CAL/K/MOL


 298.00  VIB.     0.4988D+06                  7370.4595    46.8387    50.8053
         ROT.     0.1857D+07                   888.2803     2.9808    31.6647
         INT.     0.9262D+12                  8258.7398    49.8195    82.4700
         TRA.     0.2036D+28                  1480.4672     4.9680    41.1956
         TOT.                       16.860    9739.2070    54.7875   123.6657

 200.00  VIB.     0.7433D+04                  3543.6083    31.8457    35.4314
         ROT.     0.1021D+07                   596.1613     2.9808    30.4761
         INT.     0.7588D+10                  4139.7696    34.8265    65.9075
         TRA.     0.1119D+28                   993.6021     4.9680    39.2145
         TOT.                       12.254    5133.3717    39.7945   105.1220

 210.00  VIB.     0.1158D+05                  3868.8083    33.2013    37.0178
         ROT.     0.1098D+07                   625.9693     2.9808    30.6215
         INT.     0.1272D+11                  4494.7776    36.1821    67.6393
         TRA.     0.1204D+28                  1043.2822     4.9680    39.4569
         TOT.                       12.659    5538.0598    41.1501   107.0962

 220.00  VIB.     0.1798D+05                  4207.7770    34.5997    38.5944
         ROT.     0.1178D+07                   655.7774     2.9808    30.7602
         INT.     0.2117D+11                  4863.5545    37.5805    69.3546
         TRA.     0.1291D+28                  1092.9623     4.9680    39.6880
         TOT.                       13.077    5956.5168    42.5485   109.0426

 230.00  VIB.     0.2779D+05                  4560.9488    36.0419    40.1641
         ROT.     0.1259D+07                   685.5855     2.9808    30.8927
         INT.     0.3499D+11                  5246.5343    39.0227    71.0568
         TRA.     0.1380D+28                  1142.6424     4.9680    39.9088
         TOT.                       13.510    6389.1768    43.9907   110.9656

 240.00  VIB.     0.4281D+05                  4928.7592    37.5272    41.7293
         ROT.     0.1342D+07                   715.3935     2.9808    31.0195
         INT.     0.5745D+11                  5644.1527    40.5080    72.7488
         TRA.     0.1471D+28                  1192.3226     4.9680    40.1203
         TOT.                       13.957    6836.4753    45.4760   112.8691

 250.00  VIB.     0.6576D+05                  5311.6302    39.0536    43.2920
         ROT.     0.1427D+07                   745.2016     2.9808    31.1412
         INT.     0.9381D+11                  6056.8318    42.0344    74.4332
         TRA.     0.1564D+28                  1242.0027     4.9680    40.3231
         TOT.                       14.420    7298.8345    47.0024   114.7563

 260.00  VIB.     0.1007D+06                  5709.9590    40.6182    44.8541
         ROT.     0.1513D+07                   775.0097     2.9808    31.2581
         INT.     0.1524D+12                  6484.9686    43.5990    76.1122
         TRA.     0.1659D+28                  1291.6828     4.9680    40.5179
         TOT.                       14.897    7776.6514    48.5670   116.6301

 270.00  VIB.     0.1539D+06                  6124.1083    42.2171    46.4169
         ROT.     0.1601D+07                   804.8177     2.9808    31.3706
         INT.     0.2464D+12                  6928.9260    45.1979    77.7875
         TRA.     0.1756D+28                  1341.3629     4.9680    40.7054
         TOT.                       15.391    8270.2889    50.1659   118.4930

 280.00  VIB.     0.2346D+06                  6554.4003    43.8460    47.9816
         ROT.     0.1691D+07                   834.6258     2.9808    31.4790
         INT.     0.3967D+12                  7389.0261    46.8268    79.4606
         TRA.     0.1854D+28                  1391.0430     4.9680    40.8861
         TOT.                       15.901    8780.0690    51.7948   120.3467

 290.00  VIB.     0.3570D+06                  7001.1120    45.5002    49.5490
         ROT.     0.1782D+07                   864.4339     2.9808    31.5836
         INT.     0.6363D+12                  7865.5458    48.4810    81.1326
         TRA.     0.1954D+28                  1440.7231     4.9680    41.0604
         TOT.                       16.427    9306.2689    53.4490   122.1931

 300.00  VIB.     0.5423D+06                  7464.4731    47.1750    51.1197
         ROT.     0.1875D+07                   894.2419     2.9808    31.6847
         INT.     0.1017D+13                  8358.7150    50.1558    82.8044
         TRA.     0.2056D+28                  1490.4032     4.9680    41.2289
         TOT.                       16.970    9849.1182    55.1239   124.0333

 310.00  VIB.     0.8226D+06                  7944.6651    48.8656    52.6941
         ROT.     0.1970D+07                   924.0500     2.9808    31.7824
         INT.     0.1620D+13                  8868.7151    51.8464    84.4765
         TRA.     0.2160D+28                  1540.0833     4.9680    41.3918
         TOT.                       17.530   10408.7984    56.8144   125.8683

 320.00  VIB.     0.1246D+07                  8441.8218    50.5672    54.2724
         ROT.     0.2066D+07                   953.8580     2.9808    31.8771
         INT.     0.2575D+13                  9395.6798    53.5480    86.1494
         TRA.     0.2265D+28                  1589.7634     4.9680    41.5495
         TOT.                       18.106   10985.4432    58.5160   127.6989

 330.00  VIB.     0.1886D+07                  8956.0306    52.2753    55.8545
         ROT.     0.2164D+07                   983.6661     2.9808    31.9688
         INT.     0.4081D+13                  9939.6967    55.2561    87.8233
         TRA.     0.2372D+28                  1639.4435     4.9680    41.7024
         TOT.                       18.700   11579.1402    60.2241   129.5257

 340.00  VIB.     0.2852D+07                  9487.3353    53.9857    57.4405
         ROT.     0.2263D+07                  1013.4742     2.9808    32.0578
         INT.     0.6452D+13                 10500.8095    56.9665    89.4983
         TRA.     0.2481D+28                  1689.1236     4.9680    41.8507
         TOT.                       19.311   12189.9331    61.9345   131.3490

 350.00  VIB.     0.4308D+07                 10035.7384    55.6943    59.0301
         ROT.     0.2363D+07                  1043.2822     2.9808    32.1442
         INT.     0.1018D+14                 11079.0206    58.6752    91.1742
         TRA.     0.2591D+28                  1738.8037     4.9680    41.9947
         TOT.                       19.939   12817.8243    63.6432   133.1689

 360.00  VIB.     0.6504D+07                 10601.2045    57.3977    60.6229
         ROT.     0.2465D+07                  1073.0903     2.9808    32.2281
         INT.     0.1603D+14                 11674.2948    60.3785    92.8511
         TRA.     0.2703D+28                  1788.4838     4.9680    42.1347
         TOT.                       20.584   13462.7786    65.3465   134.9857

 370.00  VIB.     0.9814D+07                 11183.6637    59.0925    62.2187
         ROT.     0.2569D+07                  1102.8984     2.9808    32.3098
         INT.     0.2521D+14                 12286.5620    62.0733    94.5285
         TRA.     0.2817D+28                  1838.1639     4.9680    42.2708
         TOT.                       21.246   14124.7260    67.0413   136.7993

 380.00  VIB.     0.1480D+08                 11783.0151    60.7757    63.8170
         ROT.     0.2674D+07                  1132.7064     2.9808    32.3893
         INT.     0.3957D+14                 12915.7215    63.7565    96.2063
         TRA.     0.2932D+28                  1887.8440     4.9680    42.4033
         TOT.                       21.924   14803.5656    68.7245   138.6095

 390.00  VIB.     0.2231D+08                 12399.1303    62.4448    65.4173
         ROT.     0.2780D+07                  1162.5145     2.9808    32.4667
         INT.     0.6202D+14                 13561.6448    65.4256    97.8840
         TRA.     0.3048D+28                  1937.5242     4.9680    42.5323
         TOT.                       22.620   15499.1689    70.3936   140.4163

 400.00  VIB.     0.3362D+08                 13031.8566    64.0976    67.0191
         ROT.     0.2887D+07                  1192.3226     2.9808    32.5422
         INT.     0.9707D+14                 14224.1792    67.0784    99.5613
         TRA.     0.3166D+28                  1987.2043     4.9680    42.6581
         TOT.                       23.332   16211.3834    72.0464   142.2194

   *: NOTE: HEATS OF FORMATION ARE RELATIVE TO THE
            ELEMENTS IN THEIR STANDARD STATE AT 298K
              (=  Standard Enthalpy of Formation).

            Hvib:  Zero-point energy is not included.
                   frequencies of less than zero cm-1 are not included.
            Hrot = (3/2)RT
            Htra = (3/2)RT + pV = (5/2)RT

            Heat capacity is Cp, not Cv

          For more information, see: HTTP://OpenMOPAC.net/Manual/thermochemistry.html


           FORCE CONSTANT IN CARTESIAN COORDINATES (Millidynes/A)

    ATOM   CHEMICAL       X               Y               Z
   NUMBER   SYMBOL  FORCE CONSTANT  FORCE CONSTANT  FORCE CONSTANT

      1       C        8.847565        6.907249        8.463269
      2       C        8.456285        8.119625        8.785759
      3       C        7.333196        8.339057        8.202864
      4       C        8.584838        8.524004        8.697347
      5       C        8.517110        8.047418        8.888467
      6       C        8.387483        8.020190        8.361025
      7       C        8.212435        8.216778        8.421229
      8       C        8.258743        8.262472        8.305388
      9       C        7.551235       12.337860        8.112743
     10       C        4.893708       13.847490        7.619108
     11       C        9.296125        4.188534       13.587991
     12       C        9.111681        3.995072       14.012221
     13       H        1.120947        2.818993        2.027639
     14       H        1.268055        2.149189        2.734976
     15       H        0.946373        4.140574        1.186442
     16       H        3.593792        2.031040        0.768343
     17       H        3.593112        0.879600        1.784755
     18       H        0.918575        2.200823        3.214560
     19       H        2.686195        0.805107        3.080898
     20       H        2.464541        3.435850        0.655331
     21       H        3.923398        2.135674        0.722705
     22       H        0.983926        4.570476        1.226631
     23       H        1.469027        0.718370        4.604177
     24       H        5.395724        0.717023        0.672761
     25       H        1.159601        0.811603        4.803542
     26       H        1.137001        3.428950        2.195226
     27       H        2.738726        1.867493        2.179947
     28       H        1.030364        2.304728        3.427079
     29       H        3.758868        0.917014        2.109603
     30       H        4.094209        1.189876        0.861656
     31       H        4.229278        1.196185        0.788101
     32       H        0.452732        3.615717        2.510965

 **********************
 *                    *
 * JOB ENDED NORMALLY *
 *                    *
 **********************



 TOTAL JOB TIME:             9.31 SECONDS

 == MOPAC DONE ==
