 *******************************************************************************
 **                                                                           **
 **                              MOPAC v23.1.2                                **
 **                                                                           **
 *******************************************************************************
 **          Digital Object Identifier (DOI): 10.5281/zenodo.6511958          **
 **    Visit the DOI location for information on how to cite this program.    **
 *******************************************************************************

                              PM3 CALCULATION RESULTS

 *******************************************************************************
 *  CALCULATION DONE: (MAX THREADS = 1)              Tue Jun  3 16:31:51 2025  *
 *  PM3        - The PM3 Hamiltonian to be used
 *  PRECISE    - TIGHTER CRITERIA TO BE USED
 *  NOSYM      - POINT-GROUP SYMMETRY SET TO C1
 *  THREADS=1  - MULTI-THREADING NOT USED
 *  T=         - A TIME OF 172800.0 SECONDS REQUESTED
 *  DUMP=N     - RESTART FILE WRITTEN EVERY 7200.0 SECONDS REQUESTED
 *******************************************************************************
pm3  precise nosym THREADS=1
 InChI=1S/C10H10/c1-2-6-10-8-4-3-7-9(10)5-1/h1,4-8H,2-3H2

   ATOM   CHEMICAL          X               Y               Z
  NUMBER   SYMBOL      (ANGSTROMS)     (ANGSTROMS)     (ANGSTROMS)

     1       C          2.37610000  *  -0.78770000  *  -0.72960000  *
     2       C         -2.37610000  *   0.78770000  *   0.72960000  *
     3       C         -0.05050000  *  -0.72680000  *  -0.11680000  *
     4       C          0.05050000  *   0.72680000  *   0.11680000  *
     5       C          1.02470000  *  -1.42450000  *  -0.50770000  *
     6       C         -1.02470000  *   1.42450000  *   0.50770000  *
     7       C          2.41710000  *   0.69970000  *  -0.47510000  *
     8       C         -2.41710000  *  -0.69970000  *   0.47510000  *
     9       C          1.34690000  *   1.39570000  *  -0.08580000  *
    10       C         -1.34690000  *  -1.39570000  *   0.08580000  *
    11       H          2.68610000  *  -0.97460000  *  -1.77900000  *
    12       H          3.11230000  *  -1.28040000  *  -0.06070000  *
    13       H         -3.11230000  *   1.28040000  *   0.06070000  *
    14       H         -2.68610000  *   0.97460000  *   1.77900000  *
    15       H          0.94100000  *  -2.49180000  *  -0.67690000  *
    16       H          3.35700000  *   1.21860000  *  -0.61590000  *
    17       H         -3.35700000  *  -1.21860000  *   0.61590000  *
    18       H         -0.94100000  *   2.49180000  *   0.67690000  *
    19       H         -1.44180000  *  -2.46240000  *  -0.08050000  *
    20       H          1.44180000  *   2.46240000  *   0.08050000  *



          CARTESIAN COORDINATES 

    NO.       ATOM           X           Y           Z

     1         C          2.3761     -0.7877     -0.7296
     2         C         -2.3761      0.7877      0.7296
     3         C         -0.0505     -0.7268     -0.1168
     4         C          0.0505      0.7268      0.1168
     5         C          1.0247     -1.4245     -0.5077
     6         C         -1.0247      1.4245      0.5077
     7         C          2.4171      0.6997     -0.4751
     8         C         -2.4171     -0.6997      0.4751
     9         C          1.3469      1.3957     -0.0858
    10         C         -1.3469     -1.3957      0.0858
    11         H          2.6861     -0.9746     -1.7790
    12         H          3.1123     -1.2804     -0.0607
    13         H         -3.1123      1.2804      0.0607
    14         H         -2.6861      0.9746      1.7790
    15         H          0.9410     -2.4918     -0.6769
    16         H          3.3570      1.2186     -0.6159
    17         H         -3.3570     -1.2186      0.6159
    18         H         -0.9410      2.4918      0.6769
    19         H         -1.4418     -2.4624     -0.0805
    20         H          1.4418      2.4624      0.0805

  H: (PM3): J. J. P. STEWART, J. COMP. CHEM. 10, 209 (1989).
  C: (PM3): J. J. P. STEWART, J. COMP. CHEM. 10, 209 (1989).

           Empirical Formula: C10 H10  =    20 atoms



      MOLECULAR POINT GROUP   :   C1  


      RHF CALCULATION, NO. OF DOUBLY OCCUPIED LEVELS = 25


          Geometry optimization using EF

          DIAGONAL MATRIX USED AS START HESSIAN

 CYCLE:     1 TIME:   0.008 TIME LEFT:  2.00D  GRAD.:    75.191 HEAT:  50.83405
 CYCLE:     2 TIME:   0.012 TIME LEFT:  2.00D  GRAD.:    59.604 HEAT:  49.77010
 CYCLE:     3 TIME:   0.008 TIME LEFT:  2.00D  GRAD.:    61.178 HEAT:  49.58870
 CYCLE:     4 TIME:   0.012 TIME LEFT:  2.00D  GRAD.:    31.230 HEAT:  48.72817
 CYCLE:     5 TIME:   0.012 TIME LEFT:  2.00D  GRAD.:    23.388 HEAT:  48.46844
 CYCLE:     6 TIME:   0.012 TIME LEFT:  2.00D  GRAD.:    15.367 HEAT:  48.31037
 CYCLE:     7 TIME:   0.004 TIME LEFT:  2.00D  GRAD.:    14.976 HEAT:  48.13269
 CYCLE:     8 TIME:   0.012 TIME LEFT:  2.00D  GRAD.:    20.280 HEAT:  48.04695
 CYCLE:     9 TIME:   0.004 TIME LEFT:  2.00D  GRAD.:    15.416 HEAT:  47.95651
 CYCLE:    10 TIME:   0.012 TIME LEFT:  2.00D  GRAD.:    14.445 HEAT:  47.93530
 CYCLE:    11 TIME:   0.004 TIME LEFT:  2.00D  GRAD.:     5.052 HEAT:  47.88119
 CYCLE:    12 TIME:   0.008 TIME LEFT:  2.00D  GRAD.:     4.882 HEAT:  47.87698
 CYCLE:    13 TIME:   0.008 TIME LEFT:  2.00D  GRAD.:     1.743 HEAT:  47.86820
 CYCLE:    14 TIME:   0.008 TIME LEFT:  2.00D  GRAD.:     2.221 HEAT:  47.86707
 CYCLE:    15 TIME:   0.008 TIME LEFT:  2.00D  GRAD.:     2.110 HEAT:  47.86577
 CYCLE:    16 TIME:   0.004 TIME LEFT:  2.00D  GRAD.:     1.844 HEAT:  47.86541
 CYCLE:    17 TIME:   0.008 TIME LEFT:  2.00D  GRAD.:     0.425 HEAT:  47.86442
 CYCLE:    18 TIME:   0.004 TIME LEFT:  2.00D  GRAD.:     0.446 HEAT:  47.86431
 CYCLE:    19 TIME:   0.008 TIME LEFT:  2.00D  GRAD.:     0.268 HEAT:  47.86416
 CYCLE:    20 TIME:   0.008 TIME LEFT:  2.00D  GRAD.:     0.899 HEAT:  47.86427
 CYCLE:    21 TIME:   0.004 TIME LEFT:  2.00D  GRAD.:     0.711 HEAT:  47.86426
 CYCLE:    22 TIME:   0.008 TIME LEFT:  2.00D  GRAD.:     0.406 HEAT:  47.86410
 CYCLE:    23 TIME:   0.008 TIME LEFT:  2.00D  GRAD.:     0.779 HEAT:  47.86413
 CYCLE:    24 TIME:   0.004 TIME LEFT:  2.00D  GRAD.:     0.520 HEAT:  47.86412
 CYCLE:    25 TIME:   0.008 TIME LEFT:  2.00D  GRAD.:     0.184 HEAT:  47.86403
 CYCLE:    26 TIME:   0.004 TIME LEFT:  2.00D  GRAD.:     0.059 HEAT:  47.86402
 CYCLE:    27 TIME:   0.008 TIME LEFT:  2.00D  GRAD.:     0.050 HEAT:  47.86402

     GRADIENT =  0.04968 IS LESS THAN CUTOFF =  0.05000



 -------------------------------------------------------------------------------
 pm3  precise nosym THREADS=1
 InChI=1S/C10H10/c1-2-6-10-8-4-3-7-9(10)5-1/h1,4-8H,2-3H2



     GEOMETRY OPTIMISED USING EIGENVECTOR FOLLOWING (EF).     
     SCF FIELD WAS ACHIEVED                                   


                              PM3 CALCULATION
                                                       MOPAC v23.1.2 MacOS
                                                       Tue Jun  3 16:31:51 2025




          FINAL HEAT OF FORMATION =         47.86402 KCAL/MOL =     200.26305 KJ/MOL


          COSMO AREA              =        169.10 SQUARE ANGSTROMS
          COSMO VOLUME            =        167.97 CUBIC ANGSTROMS

          GRADIENT NORM           =          0.04968          =       0.01111 PER ATOM
          IONIZATION POTENTIAL    =          8.193169 EV
          HOMO LUMO ENERGIES (EV) =         -8.193 -0.180
          NO. OF FILLED LEVELS    =         25
          MOLECULAR WEIGHT        =        130.1890         POINT GROUP:  C1  

          MOLECULAR DIMENSIONS (Angstroms)

            Atom       Atom       Distance
            H    17    H    16     7.24039
            H    18    H    15     5.52662
            H    14    H    11     1.77246


          SCF CALCULATIONS        =         34

          WALL-CLOCK TIME         =      0.215 SECONDS
          COMPUTATION TIME        =      0.141 SECONDS




   ATOM   CHEMICAL          X               Y               Z
  NUMBER   SYMBOL      (ANGSTROMS)     (ANGSTROMS)     (ANGSTROMS)

     1       C          2.37365366  *  -0.78834761  *  -0.72919421  *
     2       C         -2.37365363  *   0.78834666  *   0.72919666  *
     3       C         -0.03503744  *  -0.72150763  *  -0.11968221  *
     4       C          0.03503834  *   0.72151161  *   0.11967977  *
     5       C          1.04768724  *  -1.41756933  *  -0.51200773  *
     6       C         -1.04768723  *   1.41756475  *   0.51200621  *
     7       C          2.40295074  *   0.67452200  *  -0.47609526  *
     8       C         -2.40294425  *  -0.67452526  *   0.47609042  *
     9       C          1.32686624  *   1.36631275  *  -0.08591477  *
    10       C         -1.32687346  *  -1.36630833  *   0.08592149  *
    11       H          2.70139224  *  -0.98360943  *  -1.77160592  *
    12       H          3.12220610  *  -1.28514079  *  -0.07726069  *
    13       H         -3.12220637  *   1.28514082  *   0.07725970  *
    14       H         -2.70139204  *   0.98361014  *   1.77160476  *
    15       H          0.98671342  *  -2.49793357  *  -0.68897101  *
    16       H          3.36729176  *   1.17228404  *  -0.62681233  *
    17       H         -3.36729243  *  -1.17228542  *   0.62681571  *
    18       H         -0.98671330  *   2.49793605  *   0.68897110  *
    19       H         -1.38136199  *  -2.44654153  *  -0.09302174  *
    20       H          1.38136192  *   2.44654098  *   0.09301915  *

                             CARTESIAN COORDINATES

   1    C        2.373653658    -0.788347607    -0.729194213
   2    C       -2.373653630     0.788346656     0.729196664
   3    C       -0.035037439    -0.721507627    -0.119682207
   4    C        0.035038337     0.721511613     0.119679775
   5    C        1.047687238    -1.417569326    -0.512007733
   6    C       -1.047687233     1.417564750     0.512006208
   7    C        2.402950742     0.674522001    -0.476095260
   8    C       -2.402944253    -0.674525255     0.476090416
   9    C        1.326866240     1.366312748    -0.085914770
  10    C       -1.326873458    -1.366308326     0.085921490
  11    H        2.701392245    -0.983609426    -1.771605924
  12    H        3.122206102    -1.285140794    -0.077260693
  13    H       -3.122206372     1.285140820     0.077259697
  14    H       -2.701392044     0.983610138     1.771604759
  15    H        0.986713424    -2.497933571    -0.688971012
  16    H        3.367291755     1.172284036    -0.626812326
  17    H       -3.367292429    -1.172285420     0.626815706
  18    H       -0.986713304     2.497936052     0.688971104
  19    H       -1.381361993    -2.446541527    -0.093021740
  20    H        1.381361919     2.446540984     0.093019150


           Empirical Formula: C10 H10  =    20 atoms



      MOLECULAR POINT GROUP   :   C1  


                  EIGENVALUES  
 -40.83027 -35.93983 -31.72752 -29.04612 -27.54752 -23.15657 -21.29914 -20.90399
 -17.51518 -17.48040 -17.05762 -15.38423 -15.13126 -15.04905 -14.63990 -14.49752
 -14.16529 -13.64628 -12.66330 -12.62597 -11.89841 -11.48804 -11.11636  -9.58932
  -8.19317  -0.18045   0.50667   1.71824   2.67615   3.17312   3.29303   3.39409
   3.41041   3.60947   3.68702   3.78073   3.94696   4.14006   4.40013   4.43562
   4.46298   4.47540   4.86113   5.13008   5.32473   5.43163   5.68115   5.80171
   6.43318   6.46358


              NET ATOMIC CHARGES AND DIPOLE CONTRIBUTIONS

  ATOM NO.   TYPE          CHARGE      No. of ELECS.   s-Pop       p-Pop       
    1          C          -0.021782        4.0218     1.13122     2.89056
    2          C          -0.021781        4.0218     1.13122     2.89056
    3          C          -0.036979        4.0370     1.16161     2.87537
    4          C          -0.036978        4.0370     1.16161     2.87537
    5          C          -0.135186        4.1352     1.19400     2.94119
    6          C          -0.135188        4.1352     1.19400     2.94119
    7          C          -0.134590        4.1346     1.19482     2.93977
    8          C          -0.134590        4.1346     1.19482     2.93977
    9          C          -0.098968        4.0990     1.17769     2.92128
   10          C          -0.098967        4.0990     1.17769     2.92128
   11          H           0.063365        0.9366     0.93664
   12          H           0.063365        0.9366     0.93664
   13          H           0.063364        0.9366     0.93664
   14          H           0.063365        0.9366     0.93664
   15          H           0.101726        0.8983     0.89827
   16          H           0.097936        0.9021     0.90206
   17          H           0.097936        0.9021     0.90206
   18          H           0.101725        0.8983     0.89827
   19          H           0.101114        0.8989     0.89889
   20          H           0.101114        0.8989     0.89889
 DIPOLE           X         Y         Z       TOTAL
 POINT-CHG.    -0.000    -0.000     0.000     0.000
 HYBRID         0.000     0.000    -0.000     0.000
 SUM            0.000    -0.000    -0.000     0.000


          ATOMIC ORBITAL ELECTRON POPULATIONS

     Atom    s        px        py        pz   
    1  C   1.13122   0.95397   0.93484   1.00175
    2  C   1.13122   0.95397   0.93483   1.00175
    3  C   1.16161   0.93973   0.93115   1.00448
    4  C   1.16161   0.93973   0.93116   1.00448
    5  C   1.19400   0.94927   0.98440   1.00752
    6  C   1.19400   0.94927   0.98440   1.00752
    7  C   1.19482   0.97868   0.96228   0.99881
    8  C   1.19482   0.97868   0.96228   0.99881
    9  C   1.17769   0.93423   0.97847   1.00858
   10  C   1.17769   0.93423   0.97847   1.00858
   11  H   0.93664
   12  H   0.93664
   13  H   0.93664
   14  H   0.93664
   15  H   0.89827
   16  H   0.90206
   17  H   0.90206
   18  H   0.89827
   19  H   0.89889
   20  H   0.89889
 *******************************************************************************
 **                                                                           **
 **                              MOPAC v23.1.2                                **
 **                                                                           **
 *******************************************************************************
 **          Digital Object Identifier (DOI): 10.5281/zenodo.6511958          **
 **    Visit the DOI location for information on how to cite this program.    **
 *******************************************************************************

                              PM3 CALCULATION RESULTS

 *******************************************************************************
 *  CALCULATION DONE: (MAX THREADS = 1)              Tue Jun  3 16:31:51 2025  *
 *  PM3        - The PM3 Hamiltonian to be used
 *  OLDGEO     - PREVIOUS GEOMETRY TO BE USED
 *  PRECISE    - TIGHTER CRITERIA TO BE USED
 *  NOSYM      - POINT-GROUP SYMMETRY SET TO C1
 *  THREADS=1  - MULTI-THREADING NOT USED
 *  T=         - A TIME OF 172800.0 SECONDS REQUESTED
 *  DUMP=N     - RESTART FILE WRITTEN EVERY 7200.0 SECONDS REQUESTED
 *  THERMO     - THERMODYNAMIC QUANTITIES TO BE CALCULATED
 *******************************************************************************
oldgeo thermo nosym precise THREADS=1  pm3
 InChI=1S/C10H10/c1-2-6-10-8-4-3-7-9(10)5-1/h1,4-8H,2-3H2

   ATOM   CHEMICAL          X               Y               Z
  NUMBER   SYMBOL      (ANGSTROMS)     (ANGSTROMS)     (ANGSTROMS)

     1       C          2.37365366  *  -0.78834761  *  -0.72919421  *
     2       C         -2.37365363  *   0.78834666  *   0.72919666  *
     3       C         -0.03503744  *  -0.72150763  *  -0.11968221  *
     4       C          0.03503834  *   0.72151161  *   0.11967977  *
     5       C          1.04768724  *  -1.41756933  *  -0.51200773  *
     6       C         -1.04768723  *   1.41756475  *   0.51200621  *
     7       C          2.40295074  *   0.67452200  *  -0.47609526  *
     8       C         -2.40294425  *  -0.67452526  *   0.47609042  *
     9       C          1.32686624  *   1.36631275  *  -0.08591477  *
    10       C         -1.32687346  *  -1.36630833  *   0.08592149  *
    11       H          2.70139224  *  -0.98360943  *  -1.77160592  *
    12       H          3.12220610  *  -1.28514079  *  -0.07726069  *
    13       H         -3.12220637  *   1.28514082  *   0.07725970  *
    14       H         -2.70139204  *   0.98361014  *   1.77160476  *
    15       H          0.98671342  *  -2.49793357  *  -0.68897101  *
    16       H          3.36729176  *   1.17228404  *  -0.62681233  *
    17       H         -3.36729243  *  -1.17228542  *   0.62681571  *
    18       H         -0.98671330  *   2.49793605  *   0.68897110  *
    19       H         -1.38136199  *  -2.44654153  *  -0.09302174  *
    20       H          1.38136192  *   2.44654098  *   0.09301915  *



          CARTESIAN COORDINATES 

    NO.       ATOM           X           Y           Z

     1         C          2.3737     -0.7883     -0.7292
     2         C         -2.3737      0.7883      0.7292
     3         C         -0.0350     -0.7215     -0.1197
     4         C          0.0350      0.7215      0.1197
     5         C          1.0477     -1.4176     -0.5120
     6         C         -1.0477      1.4176      0.5120
     7         C          2.4030      0.6745     -0.4761
     8         C         -2.4029     -0.6745      0.4761
     9         C          1.3269      1.3663     -0.0859
    10         C         -1.3269     -1.3663      0.0859
    11         H          2.7014     -0.9836     -1.7716
    12         H          3.1222     -1.2851     -0.0773
    13         H         -3.1222      1.2851      0.0773
    14         H         -2.7014      0.9836      1.7716
    15         H          0.9867     -2.4979     -0.6890
    16         H          3.3673      1.1723     -0.6268
    17         H         -3.3673     -1.1723      0.6268
    18         H         -0.9867      2.4979      0.6890
    19         H         -1.3814     -2.4465     -0.0930
    20         H          1.3814      2.4465      0.0930

  H: (PM3): J. J. P. STEWART, J. COMP. CHEM. 10, 209 (1989).
  C: (PM3): J. J. P. STEWART, J. COMP. CHEM. 10, 209 (1989).

           Empirical Formula: C10 H10  =    20 atoms



      MOLECULAR POINT GROUP   :   C1  


      RHF CALCULATION, NO. OF DOUBLY OCCUPIED LEVELS = 25



          HEAT OF FORMATION =      47.864018 KCALS/MOLE


          CARTESIAN COORDINATE DERIVATIVES

   NUMBER  ATOM         X            Y            Z

     1       C     -0.008974    -0.000226     0.004856
     2       C      0.010690    -0.001625    -0.001501
     3       C      0.000706    -0.002099    -0.001753
     4       C      0.000792    -0.004702     0.001094
     5       C     -0.005545     0.003747     0.005119
     6       C     -0.002483     0.005125    -0.004440
     7       C     -0.015430     0.001373    -0.002177
     8       C     -0.017851     0.003368     0.000079
     9       C      0.020726    -0.000716     0.005925
    10       C      0.014337    -0.005649    -0.004235
    11       H      0.004584     0.010659    -0.002547
    12       H     -0.001049     0.003548    -0.000194
    13       H      0.002261    -0.003720    -0.001275
    14       H     -0.005719    -0.010989     0.000956
    15       H     -0.003481    -0.007819     0.001562
    16       H      0.006461    -0.006243    -0.004132
    17       H     -0.003164     0.009118     0.004712
    18       H      0.004742     0.003018    -0.001578
    19       H      0.002351    -0.003451    -0.005939
    20       H     -0.003955     0.007283     0.005469



          GRADIENT NORM =   0.04978

          MOLECULAR WEIGHT =  130.19



          ROTATIONAL CONSTANTS IN CM(-1)

          A =    0.09807655   B =    0.03880975   C =    0.02809975



           PRINCIPAL MOMENTS OF INERTIA IN UNITS OF 10**(-40)*GRAM-CM**2

          A =      285.4174   B =      721.2815   C =      996.1923


          ORIENTATION OF MOLECULE IN FORCE CALCULATION

    NO.       ATOM         X         Y         Z

     1          C      -2.6053    0.0000   -0.0000
     2          C       2.6053    0.0000   -0.0000
     3          C      -0.2199    0.6984   -0.0000
     4          C       0.2199   -0.6984   -0.0000
     5          C      -1.5268    1.0189    0.0002
     6          C       1.5268   -1.0189   -0.0001
     7          C      -2.1185   -1.4028    0.0001
     8          C       2.1185    1.4028   -0.0001
     9          C      -0.8195   -1.7214    0.0002
    10          C       0.8195    1.7214   -0.0002
    11          H      -3.2547    0.1594   -0.8860
    12          H      -3.2551    0.1593    0.8857
    13          H       3.2551   -0.1593   -0.8857
    14          H       3.2547   -0.1594    0.8860
    15          H      -1.8477    2.0674    0.0003
    16          H      -2.8886   -2.1821    0.0001
    17          H       2.8886    2.1821   -0.0001
    18          H       1.8477   -2.0674   -0.0003
    19          H       0.4922    2.7677   -0.0004
    20          H      -0.4922   -2.7677    0.0004


    FIRST DERIVATIVES WILL BE USED IN THE CALCULATION OF SECOND DERIVATIVES

          ESTIMATED TIME TO COMPLETE CALCULATION =        1.88 SECONDS

    FOR POINT-GROUP C1   THERE ARE   1 UNIQUE SYMMETRY FUNCTIONS.

 STEP:   1 TIME =     0.02 SECS, INTEGRAL =      0.02 TIME LEFT: 172799.97
 STEP:   2 TIME =     0.02 SECS, INTEGRAL =      0.04 TIME LEFT: 172799.96
 STEP:   3 TIME =     0.02 SECS, INTEGRAL =      0.06 TIME LEFT: 172799.93
 STEP:   4 TIME =     0.02 SECS, INTEGRAL =      0.08 TIME LEFT: 172799.91
 STEP:   5 TIME =     0.02 SECS, INTEGRAL =      0.10 TIME LEFT: 172799.89
 STEP:   6 TIME =     0.02 SECS, INTEGRAL =      0.12 TIME LEFT: 172799.87
 STEP:   7 TIME =     0.02 SECS, INTEGRAL =      0.14 TIME LEFT: 172799.85
 STEP:   8 TIME =     0.02 SECS, INTEGRAL =      0.16 TIME LEFT: 172799.84
 STEP:   9 TIME =     0.02 SECS, INTEGRAL =      0.18 TIME LEFT: 172799.81
 STEP:  10 TIME =     0.02 SECS, INTEGRAL =      0.20 TIME LEFT: 172799.79
 STEP:  11 TIME =     0.02 SECS, INTEGRAL =      0.21 TIME LEFT: 172799.78
 STEP:  12 TIME =     0.02 SECS, INTEGRAL =      0.23 TIME LEFT: 172799.76
 STEP:  13 TIME =     0.02 SECS, INTEGRAL =      0.25 TIME LEFT: 172799.74
 STEP:  14 TIME =     0.02 SECS, INTEGRAL =      0.27 TIME LEFT: 172799.72
 STEP:  15 TIME =     0.02 SECS, INTEGRAL =      0.30 TIME LEFT: 172799.70
 STEP:  16 TIME =     0.02 SECS, INTEGRAL =      0.32 TIME LEFT: 172799.68
 STEP:  17 TIME =     0.02 SECS, INTEGRAL =      0.33 TIME LEFT: 172799.66
 STEP:  18 TIME =     0.02 SECS, INTEGRAL =      0.35 TIME LEFT: 172799.64
 STEP:  19 TIME =     0.02 SECS, INTEGRAL =      0.37 TIME LEFT: 172799.62
 STEP:  20 TIME =     0.02 SECS, INTEGRAL =      0.39 TIME LEFT: 172799.60
 STEP:  21 TIME =     0.02 SECS, INTEGRAL =      0.41 TIME LEFT: 172799.58
 STEP:  22 TIME =     0.02 SECS, INTEGRAL =      0.43 TIME LEFT: 172799.56
 STEP:  23 TIME =     0.02 SECS, INTEGRAL =      0.45 TIME LEFT: 172799.54
 STEP:  24 TIME =     0.02 SECS, INTEGRAL =      0.47 TIME LEFT: 172799.52
 STEP:  25 TIME =     0.02 SECS, INTEGRAL =      0.49 TIME LEFT: 172799.50
 STEP:  26 TIME =     0.02 SECS, INTEGRAL =      0.51 TIME LEFT: 172799.48
 STEP:  27 TIME =     0.02 SECS, INTEGRAL =      0.53 TIME LEFT: 172799.46
 STEP:  28 TIME =     0.02 SECS, INTEGRAL =      0.55 TIME LEFT: 172799.44
 STEP:  29 TIME =     0.02 SECS, INTEGRAL =      0.57 TIME LEFT: 172799.42
 STEP:  30 TIME =     0.02 SECS, INTEGRAL =      0.60 TIME LEFT: 172799.39
 STEP:  31 TIME =     0.02 SECS, INTEGRAL =      0.62 TIME LEFT: 172799.38
 STEP:  32 TIME =     0.02 SECS, INTEGRAL =      0.64 TIME LEFT: 172799.35
 STEP:  33 TIME =     0.02 SECS, INTEGRAL =      0.66 TIME LEFT: 172799.33
 STEP:  34 TIME =     0.02 SECS, INTEGRAL =      0.68 TIME LEFT: 172799.31
 STEP:  35 TIME =     0.02 SECS, INTEGRAL =      0.70 TIME LEFT: 172799.29
 STEP:  36 TIME =     0.02 SECS, INTEGRAL =      0.72 TIME LEFT: 172799.27
 STEP:  37 TIME =     0.02 SECS, INTEGRAL =      0.74 TIME LEFT: 172799.25
 STEP:  38 TIME =     0.02 SECS, INTEGRAL =      0.76 TIME LEFT: 172799.23
 STEP:  39 TIME =     0.02 SECS, INTEGRAL =      0.78 TIME LEFT: 172799.21
 STEP:  40 TIME =     0.02 SECS, INTEGRAL =      0.80 TIME LEFT: 172799.20
 STEP:  41 TIME =     0.02 SECS, INTEGRAL =      0.82 TIME LEFT: 172799.17
 STEP:  42 TIME =     0.02 SECS, INTEGRAL =      0.84 TIME LEFT: 172799.15
 STEP:  43 TIME =     0.02 SECS, INTEGRAL =      0.86 TIME LEFT: 172799.13
 STEP:  44 TIME =     0.02 SECS, INTEGRAL =      0.88 TIME LEFT: 172799.11
 STEP:  45 TIME =     0.02 SECS, INTEGRAL =      0.90 TIME LEFT: 172799.09
 STEP:  46 TIME =     0.02 SECS, INTEGRAL =      0.92 TIME LEFT: 172799.07
 STEP:  47 TIME =     0.02 SECS, INTEGRAL =      0.94 TIME LEFT: 172799.05
 STEP:  48 TIME =     0.02 SECS, INTEGRAL =      0.96 TIME LEFT: 172799.03
 STEP:  49 TIME =     0.02 SECS, INTEGRAL =      0.98 TIME LEFT: 172799.01
 STEP:  50 TIME =     0.02 SECS, INTEGRAL =      1.00 TIME LEFT: 172799.00
 STEP:  51 TIME =     0.02 SECS, INTEGRAL =      1.02 TIME LEFT: 172798.98
 STEP:  52 TIME =     0.02 SECS, INTEGRAL =      1.04 TIME LEFT: 172798.96
 STEP:  53 TIME =     0.02 SECS, INTEGRAL =      1.05 TIME LEFT: 172798.94
 STEP:  54 TIME =     0.02 SECS, INTEGRAL =      1.08 TIME LEFT: 172798.91
 STEP:  55 TIME =     0.02 SECS, INTEGRAL =      1.10 TIME LEFT: 172798.89
 STEP:  56 TIME =     0.02 SECS, INTEGRAL =      1.11 TIME LEFT: 172798.88
 STEP:  57 TIME =     0.02 SECS, INTEGRAL =      1.14 TIME LEFT: 172798.86
 STEP:  58 TIME =     0.02 SECS, INTEGRAL =      1.16 TIME LEFT: 172798.84
 STEP:  59 TIME =     0.02 SECS, INTEGRAL =      1.18 TIME LEFT: 172798.82
 STEP:  60 TIME =     0.02 SECS, INTEGRAL =      1.20 TIME LEFT: 172798.79

(To convert to Hartree/Bohr^2, multiply by (10^(-21) x N x a0^2)/(4.184 x 627.51) =  0.0642)


           FORCE MATRIX IN MILLIDYNES/ANGSTROM


                  C  1       C  2       C  3       C  4       C  5       C  6
 ------------------------------------------------------------------------------
     C    1  15.105122
     C    2   0.007970  15.105127
     C    3   0.837939   0.186032  19.318801
     C    4   0.186011   0.837930   5.230771  19.319227
     C    5   5.051484   0.026417   9.818122   1.015700  18.018371
     C    6   0.026416   5.051517   1.015708   9.818346   0.113321  18.018435
     C    7   5.035917   0.017017   0.060607   1.075062   0.729710   0.114516
     C    8   0.017017   5.035819   1.075101   0.060609   0.114521   0.729724
     C    9   0.847011   0.135746   0.706569   5.430140   0.061786   1.037817
     C   10   0.135748   0.847025   5.429881   0.706555   1.037757   0.061788
     H   11   4.362229   0.001296   0.036545   0.014740   0.415986   0.004774
     H   12   4.362393   0.001294   0.036558   0.014739   0.416045   0.004772
     H   13   0.001293   4.362328   0.014740   0.036558   0.004772   0.416050
     H   14   0.001295   4.362316   0.014742   0.036546   0.004775   0.415991
     H   15   0.422549   0.003023   0.453647   0.113856   4.801103   0.009210
     H   16   0.424188   0.010720   0.005590   0.124897   0.046947   0.008046
     H   17   0.010720   0.424185   0.124910   0.005589   0.008047   0.046949
     H   18   0.002990   0.422457   0.113869   0.453508   0.009215   4.800897
     H   19   0.003220   0.125754   0.442168   0.041359   0.041802   0.004064
     H   20   0.125763   0.003193   0.041297   0.442099   0.004047   0.041851


                  C  7       C  8       C  9       C 10       H 11       H 12
 ------------------------------------------------------------------------------
     C    7  18.122999
     C    8   0.005086  18.123573
     C    9  10.407798   0.006574  18.570796
     C   10   0.006573  10.408736   0.048169  18.571422
     H   11   0.418648   0.002531   0.038849   0.019141   4.951496
     H   12   0.418644   0.002528   0.038857   0.019137   0.567860   4.951678
     H   13   0.002527   0.418649   0.019132   0.038855   0.000509   0.000188
     H   14   0.002530   0.418658   0.019138   0.038847   0.000188   0.000509
     H   15   0.046584   0.006858   0.005385   0.079951   0.027844   0.027840
     H   16   4.829891   0.001125   0.441533   0.002136   0.027669   0.027689
     H   17   0.001125   4.829721   0.002136   0.441532   0.001594   0.001594
     H   18   0.006835   0.046541   0.079948   0.005400   0.001191   0.001190
     H   19   0.001043   0.442018   0.007461   4.804050   0.000798   0.000799
     H   20   0.442024   0.001052   4.804232   0.007412   0.016372   0.016370


                  H 13       H 14       H 15       H 16       H 17       H 18
 ------------------------------------------------------------------------------
     H   13   4.951621
     H   14   0.567859   4.951583
     H   15   0.001189   0.001190   5.187184
     H   16   0.001593   0.001593   0.006717   5.205087
     H   17   0.027691   0.027670   0.005018   0.000366   5.204919
     H   18   0.027853   0.027857   0.008470   0.005016   0.006693   5.187091
     H   19   0.016360   0.016362   0.028200   0.000351   0.068872   0.001083
     H   20   0.000798   0.000798   0.001080   0.068869   0.000351   0.028186


                  H 19       H 20
 ------------------------------
     H   19   5.179065
     H   20   0.001326   5.179315


          HEAT OF FORMATION =      47.864018 KCALS/MOLE

          ZERO POINT ENERGY     105.196 KCAL/MOL


           NORMAL COORDINATE ANALYSIS (Total motion = 1 Angstrom)


   Root No.       1         2         3         4         5         6         7         8

                 1 A       2 A       3 A       4 A       5 A       6 A       7 A       8 A   

                  54.9     172.4     202.5     296.2     363.8     379.4     454.1     480.7
  
           1   -0.0000   -0.0000    0.0000    0.0000    0.0000    0.0006    0.0000    0.0629
           2    0.0000   -0.0000    0.0000    0.0000   -0.0000   -0.0358   -0.0000   -0.0112
           3    0.0499    0.0198   -0.0282   -0.0096    0.0030    0.0000   -0.0035    0.0000
           4   -0.0000   -0.0000   -0.0000    0.0000   -0.0000    0.0006    0.0000   -0.0629
           5    0.0000   -0.0000   -0.0000    0.0000   -0.0000   -0.0358   -0.0000    0.0112
           6    0.0499    0.0198    0.0282   -0.0096   -0.0030    0.0000   -0.0035   -0.0000
           7    0.0000   -0.0000    0.0000   -0.0000    0.0000   -0.0166   -0.0000    0.0408
           8   -0.0000    0.0000    0.0000   -0.0000    0.0000    0.0518    0.0000    0.0143
           9   -0.0143   -0.0471    0.0156   -0.0335   -0.0149   -0.0000    0.0436   -0.0000
          10    0.0000   -0.0000   -0.0000   -0.0000   -0.0000   -0.0166   -0.0000   -0.0408
          11   -0.0000    0.0000   -0.0000   -0.0000    0.0000    0.0518    0.0000   -0.0143
          12   -0.0143   -0.0471   -0.0156   -0.0335    0.0149   -0.0000    0.0436    0.0000
          13    0.0000   -0.0000    0.0000    0.0000    0.0000   -0.0294   -0.0000    0.0461
          14    0.0000    0.0000   -0.0000   -0.0000    0.0000    0.0089    0.0000    0.0055
          15    0.0166   -0.0458    0.0364    0.0406    0.0272    0.0000   -0.0054   -0.0000
          16    0.0000   -0.0000   -0.0000    0.0000   -0.0000   -0.0294   -0.0000   -0.0461
          17    0.0000    0.0000    0.0000   -0.0000   -0.0000    0.0089    0.0000   -0.0055
          18    0.0166   -0.0458   -0.0364    0.0406   -0.0272    0.0000   -0.0054    0.0000
          19   -0.0000    0.0000    0.0000   -0.0000    0.0000    0.0182    0.0000   -0.0123
          20    0.0000   -0.0000    0.0000    0.0000   -0.0000   -0.0292   -0.0000   -0.0385
          21   -0.0143    0.0601    0.0186    0.0189   -0.0404    0.0000    0.0235    0.0000
          22   -0.0000    0.0000   -0.0000   -0.0000   -0.0000    0.0182    0.0000    0.0123
          23    0.0000    0.0000   -0.0000    0.0000   -0.0000   -0.0292   -0.0000    0.0385
          24   -0.0143    0.0601   -0.0186    0.0190    0.0404   -0.0000    0.0235   -0.0000
          25   -0.0000    0.0000    0.0000   -0.0000    0.0000    0.0250    0.0000   -0.0179
          26   -0.0000    0.0000    0.0000   -0.0000    0.0000    0.0156   -0.0000   -0.0475
          27   -0.0443    0.0010    0.0083   -0.0196    0.0490   -0.0000   -0.0358   -0.0000
          28   -0.0000    0.0000   -0.0000   -0.0000   -0.0000    0.0250    0.0000    0.0179
          29   -0.0000    0.0000   -0.0000   -0.0000   -0.0000    0.0156   -0.0000    0.0474
          30   -0.0443    0.0010   -0.0083   -0.0196   -0.0490    0.0000   -0.0358    0.0000
          31   -0.0507   -0.0275    0.0752    0.0644   -0.0112   -0.0038    0.0430    0.0698
          32    0.0239   -0.0376   -0.0101   -0.0059    0.0412   -0.0548   -0.0305    0.0047
          33    0.0916    0.0334   -0.0860   -0.0590    0.0191   -0.0001   -0.0420   -0.0019
          34    0.0507    0.0275   -0.0751   -0.0644    0.0112   -0.0038   -0.0429    0.0698
          35   -0.0239    0.0376    0.0101    0.0060   -0.0412   -0.0548    0.0305    0.0047
          36    0.0916    0.0334   -0.0861   -0.0590    0.0191    0.0001   -0.0420    0.0019
          37    0.0507    0.0275    0.0752   -0.0643   -0.0112   -0.0038   -0.0429   -0.0698
          38   -0.0239    0.0376   -0.0101    0.0060    0.0411   -0.0548    0.0305   -0.0047
          39    0.0915    0.0334    0.0861   -0.0590   -0.0191    0.0001   -0.0420   -0.0019
          40   -0.0507   -0.0275   -0.0752    0.0644    0.0111   -0.0038    0.0430   -0.0698
          41    0.0239   -0.0376    0.0101   -0.0059   -0.0412   -0.0548   -0.0305   -0.0047
          42    0.0915    0.0334    0.0861   -0.0590   -0.0191   -0.0001   -0.0420    0.0019
          43    0.0000    0.0000    0.0000    0.0000    0.0000   -0.0710   -0.0000    0.0285
          44    0.0000    0.0000   -0.0000   -0.0000   -0.0000   -0.0045    0.0000   -0.0001
          45    0.0197   -0.0674    0.0775    0.1209    0.0552    0.0000   -0.0837   -0.0000
          46   -0.0000   -0.0000   -0.0000   -0.0000    0.0000    0.0390   -0.0000   -0.0450
          47    0.0000   -0.0000    0.0000    0.0000   -0.0000   -0.0491   -0.0000   -0.0055
          48   -0.0353    0.1324    0.0545    0.0584   -0.1072    0.0000    0.0359   -0.0000
          49   -0.0000    0.0000    0.0000   -0.0000   -0.0000    0.0390   -0.0000    0.0450
          50    0.0000   -0.0000   -0.0000    0.0000   -0.0000   -0.0491   -0.0000    0.0055
          51   -0.0353    0.1324   -0.0546    0.0584    0.1071   -0.0000    0.0359    0.0000
          52    0.0000    0.0000   -0.0000    0.0000   -0.0000   -0.0709   -0.0000   -0.0285
          53    0.0000    0.0000    0.0000   -0.0000    0.0000   -0.0044    0.0000    0.0001
          54    0.0197   -0.0674   -0.0775    0.1209   -0.0552    0.0001   -0.0837    0.0000
          55   -0.0000    0.0000   -0.0000   -0.0000    0.0000    0.0659    0.0000   -0.0003
          56   -0.0000    0.0000   -0.0000   -0.0000   -0.0000    0.0279   -0.0000    0.0415
          57   -0.0909    0.0117   -0.0315   -0.0234   -0.1097    0.0000   -0.1337    0.0000
          58   -0.0000    0.0000    0.0000   -0.0000    0.0000    0.0658    0.0000    0.0003
          59   -0.0000    0.0000    0.0000   -0.0000    0.0000    0.0279   -0.0000   -0.0415
          60   -0.0910    0.0117    0.0315   -0.0234    0.1097   -0.0000   -0.1337   -0.0000


   Root No.       9        10        11        12        13        14        15        16

                 9 A      10 A      11 A      12 A      13 A      14 A      15 A      16 A   

                 508.1     604.0     651.9     761.7     764.8     765.9     812.3     853.5
  
           1    0.0432   -0.0341    0.0000    0.0595    0.0000    0.0001    0.0000    0.0338
           2    0.0255   -0.0158    0.0000   -0.0102    0.0000   -0.0000   -0.0000   -0.0067
           3    0.0000   -0.0000   -0.0136    0.0001   -0.0193   -0.0190   -0.0236    0.0000
           4   -0.0432   -0.0341   -0.0000    0.0595    0.0000    0.0001    0.0000   -0.0338
           5   -0.0255   -0.0158    0.0000   -0.0102   -0.0000   -0.0000   -0.0000    0.0067
           6   -0.0000   -0.0000    0.0136    0.0001    0.0190   -0.0193   -0.0236   -0.0000
           7   -0.0157    0.0440    0.0000    0.0047    0.0000    0.0000    0.0000    0.0066
           8   -0.0016    0.0141    0.0000    0.0124    0.0000    0.0000    0.0000   -0.0307
           9   -0.0000    0.0000    0.0492   -0.0000   -0.0361    0.0172    0.0091   -0.0000
          10    0.0157    0.0440   -0.0000    0.0047   -0.0000    0.0000    0.0000   -0.0066
          11    0.0016    0.0141   -0.0000    0.0124   -0.0000    0.0000    0.0000    0.0307
          12    0.0000    0.0000   -0.0492   -0.0001    0.0364    0.0167    0.0091    0.0000
          13    0.0012    0.0226    0.0000    0.0187    0.0000    0.0000    0.0000    0.0246
          14    0.0490   -0.0687    0.0000    0.0198   -0.0000    0.0000    0.0000   -0.0205
          15   -0.0000    0.0000   -0.0043   -0.0000   -0.0067    0.0081   -0.0144   -0.0000
          16   -0.0012    0.0226   -0.0000    0.0187   -0.0000    0.0000    0.0000   -0.0246
          17   -0.0490   -0.0687   -0.0000    0.0198    0.0000    0.0000    0.0000    0.0205
          18    0.0000    0.0000    0.0043   -0.0000    0.0068    0.0080   -0.0144    0.0000
          19    0.0687   -0.0234    0.0000   -0.0532    0.0000   -0.0001   -0.0000   -0.0021
          20    0.0314    0.0011   -0.0000   -0.0469    0.0000   -0.0001   -0.0000   -0.0055
          21    0.0000    0.0000   -0.0105    0.0000   -0.0007   -0.0118    0.0128   -0.0000
          22   -0.0687   -0.0234   -0.0000   -0.0532   -0.0000   -0.0001   -0.0000    0.0021
          23   -0.0314    0.0011    0.0000   -0.0469   -0.0000   -0.0001   -0.0000    0.0054
          24   -0.0000    0.0000    0.0105    0.0000    0.0005   -0.0119    0.0128    0.0000
          25    0.0531   -0.0064    0.0000   -0.0347   -0.0000   -0.0000   -0.0000    0.0085
          26   -0.0127    0.0714   -0.0000    0.0192   -0.0000    0.0000    0.0000    0.0723
          27   -0.0000   -0.0000   -0.0034    0.0001   -0.0113   -0.0223    0.0091   -0.0000
          28   -0.0531   -0.0064   -0.0000   -0.0347   -0.0000   -0.0000   -0.0000   -0.0085
          29    0.0127    0.0714    0.0000    0.0192    0.0000    0.0000    0.0000   -0.0722
          30    0.0000   -0.0000    0.0034    0.0000    0.0110   -0.0225    0.0091    0.0000
          31    0.0401   -0.0310   -0.0637    0.0775   -0.0627   -0.0569   -0.0722    0.0494
          32    0.0040    0.0063    0.0208    0.0225    0.0125    0.0317   -0.0129    0.0174
          33   -0.0013    0.0014    0.0393   -0.0058    0.0311    0.0306    0.0292   -0.0054
          34    0.0401   -0.0310    0.0637    0.0771    0.0627    0.0570    0.0722    0.0494
          35    0.0040    0.0063   -0.0208    0.0226   -0.0124   -0.0317    0.0129    0.0174
          36    0.0013   -0.0014    0.0393    0.0057    0.0311    0.0307    0.0292    0.0054
          37   -0.0401   -0.0310   -0.0637    0.0771   -0.0618    0.0579    0.0722   -0.0493
          38   -0.0040    0.0063    0.0208    0.0226    0.0120   -0.0318    0.0129   -0.0174
          39   -0.0013   -0.0014   -0.0393    0.0057   -0.0306    0.0311    0.0292   -0.0054
          40   -0.0401   -0.0310    0.0637    0.0775    0.0619   -0.0578   -0.0722   -0.0494
          41   -0.0040    0.0063   -0.0208    0.0225   -0.0120    0.0319   -0.0129   -0.0174
          42    0.0013    0.0014   -0.0393   -0.0058   -0.0306    0.0311    0.0292    0.0054
          43    0.0114    0.0180   -0.0000   -0.0034    0.0000   -0.0000    0.0000    0.0506
          44    0.0519   -0.0693    0.0000    0.0135   -0.0000    0.0000   -0.0000   -0.0136
          45   -0.0000   -0.0000   -0.0277   -0.0002    0.1739    0.0075    0.1493    0.0000
          46    0.0600    0.0179   -0.0000   -0.0819   -0.0000   -0.0001   -0.0000    0.0355
          47    0.0403   -0.0391    0.0000   -0.0188    0.0000   -0.0000   -0.0000   -0.0398
          48   -0.0000    0.0000    0.0988   -0.0005    0.1061    0.1801   -0.0151    0.0000
          49   -0.0600    0.0179    0.0000   -0.0819   -0.0000   -0.0001   -0.0000   -0.0355
          50   -0.0403   -0.0391   -0.0000   -0.0188   -0.0000   -0.0000   -0.0000    0.0398
          51    0.0000    0.0000   -0.0987   -0.0004   -0.1034    0.1816   -0.0150   -0.0000
          52   -0.0114    0.0181    0.0000   -0.0033   -0.0000   -0.0000    0.0000   -0.0506
          53   -0.0519   -0.0693   -0.0000    0.0135    0.0000    0.0000   -0.0000    0.0136
          54    0.0000   -0.0000    0.0277   -0.0001   -0.1738    0.0098    0.1493   -0.0000
          55   -0.0467   -0.0059   -0.0000   -0.0099    0.0000   -0.0000   -0.0000   -0.0660
          56    0.0146    0.0707   -0.0000    0.0274    0.0000    0.0000   -0.0000   -0.0913
          57    0.0000   -0.0000   -0.1371   -0.0001   -0.0057    0.0871   -0.1087    0.0000
          58    0.0467   -0.0059    0.0000   -0.0099   -0.0000   -0.0000   -0.0000    0.0659
          59   -0.0145    0.0707    0.0000    0.0274   -0.0000    0.0000   -0.0000    0.0912
          60   -0.0000   -0.0000    0.1371   -0.0001    0.0070    0.0870   -0.1088   -0.0000


   Root No.      17        18        19        20        21        22        23        24

                17 A      18 A      19 A      20 A      21 A      22 A      23 A      24 A   

                 868.2     873.3     928.4     954.6     994.9    1015.0    1016.0    1028.4
  
           1   -0.0000   -0.0198   -0.0000   -0.0000   -0.0000    0.0254    0.0000   -0.0233
           2    0.0000    0.0151    0.0000    0.0000    0.0000   -0.0139   -0.0000    0.0157
           3   -0.0206    0.0001    0.0203    0.0230    0.0218    0.0000   -0.0221   -0.0000
           4    0.0000    0.0198    0.0000   -0.0000   -0.0000    0.0253    0.0000    0.0234
           5   -0.0000   -0.0151   -0.0000    0.0000    0.0000   -0.0138   -0.0000   -0.0157
           6    0.0206   -0.0001   -0.0202    0.0230    0.0218   -0.0000    0.0221    0.0000
           7    0.0000    0.0287    0.0000    0.0000   -0.0000   -0.0030   -0.0000    0.0027
           8   -0.0000   -0.0094   -0.0000   -0.0000   -0.0000    0.0022    0.0000   -0.0054
           9    0.0278   -0.0001    0.0080    0.0174   -0.0009    0.0000   -0.0210   -0.0000
          10   -0.0000   -0.0287   -0.0000    0.0000   -0.0000   -0.0030    0.0000   -0.0027
          11    0.0000    0.0094    0.0000   -0.0000   -0.0000    0.0022    0.0000    0.0054
          12   -0.0278    0.0001   -0.0080    0.0175   -0.0009   -0.0000    0.0210    0.0000
          13    0.0000    0.0317    0.0000   -0.0000   -0.0000   -0.0080   -0.0000    0.0066
          14   -0.0001   -0.0726   -0.0000    0.0000    0.0000   -0.0162   -0.0000    0.0150
          15   -0.0085    0.0000   -0.0252   -0.0306   -0.0174   -0.0000    0.0254    0.0000
          16   -0.0000   -0.0317   -0.0000   -0.0000   -0.0000   -0.0080   -0.0000   -0.0066
          17    0.0001    0.0726    0.0000    0.0000    0.0000   -0.0161   -0.0000   -0.0151
          18    0.0085   -0.0000    0.0252   -0.0306   -0.0174    0.0000   -0.0254   -0.0000
          19    0.0000    0.0299    0.0000   -0.0000    0.0000    0.0079    0.0000   -0.0035
          20    0.0000    0.0362    0.0000   -0.0000   -0.0000    0.0308    0.0000   -0.0292
          21    0.0199   -0.0001    0.0051   -0.0038   -0.0316   -0.0000    0.0289    0.0000
          22   -0.0000   -0.0299   -0.0000    0.0000    0.0000    0.0079    0.0000    0.0035
          23   -0.0000   -0.0362   -0.0000   -0.0000   -0.0000    0.0307    0.0000    0.0293
          24   -0.0199    0.0001   -0.0051   -0.0038   -0.0315    0.0000   -0.0289   -0.0000
          25    0.0000    0.0151    0.0000    0.0000    0.0000   -0.0080   -0.0000    0.0096
          26   -0.0000   -0.0277   -0.0000   -0.0000    0.0000    0.0054    0.0000   -0.0090
          27    0.0200   -0.0000   -0.0172   -0.0220    0.0253    0.0000   -0.0268   -0.0000
          28   -0.0000   -0.0151   -0.0000    0.0000    0.0000   -0.0080   -0.0000   -0.0096
          29    0.0000    0.0277    0.0000   -0.0000    0.0000    0.0054    0.0000    0.0090
          30   -0.0200    0.0000    0.0172   -0.0220    0.0252   -0.0000    0.0268    0.0000
          31   -0.0586   -0.0163    0.0369    0.0403    0.0567    0.0265   -0.0512   -0.0230
          32   -0.0191    0.0506   -0.0485   -0.0546    0.0276   -0.0575   -0.0068    0.0661
          33    0.0205    0.0026   -0.0168   -0.0177   -0.0159   -0.0086    0.0152    0.0086
          34    0.0585   -0.0166   -0.0368   -0.0403   -0.0567    0.0264    0.0513   -0.0229
          35    0.0192    0.0504    0.0485    0.0546   -0.0275   -0.0575    0.0066    0.0660
          36    0.0206   -0.0027   -0.0168   -0.0177   -0.0159    0.0086    0.0153   -0.0086
          37   -0.0585    0.0166    0.0368   -0.0403   -0.0566    0.0264   -0.0513    0.0230
          38   -0.0192   -0.0504   -0.0484    0.0546   -0.0276   -0.0573   -0.0067   -0.0664
          39   -0.0206    0.0027    0.0168   -0.0177   -0.0159    0.0086   -0.0153    0.0086
          40    0.0586    0.0162   -0.0368    0.0403    0.0566    0.0264    0.0513    0.0230
          41    0.0192   -0.0506    0.0484   -0.0546    0.0276   -0.0574    0.0068   -0.0665
          42   -0.0206   -0.0026    0.0168   -0.0177   -0.0159   -0.0086   -0.0153   -0.0087
          43    0.0001    0.0807    0.0000    0.0000    0.0000   -0.0937   -0.0001    0.0809
          44   -0.0001   -0.0590   -0.0000   -0.0000    0.0000   -0.0429   -0.0001    0.0390
          45    0.0757   -0.0003    0.1038    0.1315    0.0389    0.0001   -0.0726   -0.0000
          46    0.0000    0.0237    0.0000    0.0000    0.0000   -0.0387   -0.0001    0.0428
          47    0.0000    0.0440    0.0000   -0.0000   -0.0000    0.0765    0.0001   -0.0742
          48   -0.1074    0.0003   -0.0782   -0.0191    0.1303    0.0001   -0.1005   -0.0001
          49   -0.0000   -0.0237   -0.0000    0.0000    0.0000   -0.0385   -0.0000   -0.0429
          50   -0.0000   -0.0440   -0.0000   -0.0000   -0.0000    0.0762    0.0000    0.0744
          51    0.1075   -0.0003    0.0782   -0.0192    0.1302   -0.0000    0.1006    0.0001
          52   -0.0001   -0.0806   -0.0000    0.0000    0.0000   -0.0932   -0.0000   -0.0810
          53    0.0001    0.0590    0.0000   -0.0000    0.0000   -0.0427   -0.0000   -0.0390
          54   -0.0758    0.0003   -0.1037    0.1317    0.0388   -0.0000    0.0727    0.0000
          55   -0.0000   -0.0083   -0.0000   -0.0000    0.0000   -0.0900   -0.0000   -0.0890
          56    0.0000    0.0297   -0.0000    0.0000   -0.0000   -0.0185   -0.0000   -0.0134
          57    0.0902   -0.0002   -0.1160    0.1122   -0.1040    0.0001   -0.0949   -0.0001
          58    0.0000    0.0084    0.0000   -0.0000    0.0000   -0.0902   -0.0001    0.0886
          59   -0.0000   -0.0297    0.0000    0.0000   -0.0000   -0.0185   -0.0000    0.0133
          60   -0.0901    0.0002    0.1161    0.1121   -0.1041   -0.0001    0.0948    0.0000


   Root No.      25        26        27        28        29        30        31        32

                25 A      26 A      27 A      28 A      29 A      30 A      31 A      32 A   

                1057.1    1058.1    1078.4    1086.5    1151.0    1153.9    1179.9    1221.8
  
           1    0.0000    0.0000    0.0036   -0.0092    0.0044   -0.0026    0.0041    0.0171
           2   -0.0000    0.0000    0.0078   -0.0059    0.0004    0.0023   -0.0085    0.0013
           3   -0.0013   -0.0017   -0.0000    0.0000   -0.0000    0.0000   -0.0000    0.0000
           4   -0.0000    0.0000    0.0036    0.0092    0.0045    0.0026   -0.0040    0.0171
           5    0.0000    0.0000    0.0078    0.0060    0.0004   -0.0023    0.0084    0.0013
           6    0.0012   -0.0018   -0.0000   -0.0000   -0.0000   -0.0000    0.0000    0.0000
           7   -0.0000   -0.0000   -0.0059    0.0139   -0.0033   -0.0011   -0.0200   -0.0215
           8    0.0000    0.0000    0.0148   -0.0015   -0.0082   -0.0103   -0.0096   -0.0232
           9    0.0037    0.0054   -0.0000    0.0000   -0.0000   -0.0000    0.0000    0.0000
          10    0.0000   -0.0000   -0.0058   -0.0140   -0.0034    0.0011    0.0199   -0.0215
          11   -0.0000    0.0000    0.0148    0.0016   -0.0082    0.0104    0.0096   -0.0232
          12   -0.0035    0.0055   -0.0000   -0.0000   -0.0000    0.0000   -0.0000    0.0000
          13   -0.0000   -0.0000   -0.0092    0.0169   -0.0022   -0.0013   -0.0132   -0.0147
          14   -0.0000   -0.0000   -0.0255    0.0119    0.0051    0.0009   -0.0055   -0.0126
          15   -0.0183   -0.0180    0.0000   -0.0000    0.0000   -0.0000   -0.0000   -0.0000
          16    0.0000   -0.0000   -0.0091   -0.0170   -0.0023    0.0013    0.0131   -0.0147
          17    0.0000   -0.0000   -0.0254   -0.0122    0.0051   -0.0010    0.0055   -0.0126
          18    0.0178   -0.0185    0.0000    0.0000    0.0000    0.0000    0.0000   -0.0000
          19   -0.0000    0.0000    0.0036    0.0047    0.0034   -0.0043    0.0013    0.0004
          20    0.0000    0.0000   -0.0028    0.0074    0.0013   -0.0033   -0.0122    0.0212
          21    0.0223    0.0219   -0.0000    0.0000   -0.0000    0.0000    0.0000   -0.0000
          22    0.0000    0.0000    0.0037   -0.0047    0.0034    0.0043   -0.0012    0.0004
          23   -0.0000    0.0000   -0.0028   -0.0074    0.0012    0.0033    0.0123    0.0212
          24   -0.0217    0.0225   -0.0000   -0.0000   -0.0000   -0.0000   -0.0000   -0.0000
          25   -0.0000    0.0000    0.0074   -0.0050   -0.0024    0.0034    0.0069   -0.0111
          26    0.0000   -0.0000   -0.0140    0.0037    0.0067   -0.0037    0.0017    0.0136
          27   -0.0064   -0.0086    0.0000   -0.0000   -0.0000    0.0000    0.0000   -0.0000
          28    0.0000    0.0000    0.0074    0.0050   -0.0024   -0.0033   -0.0069   -0.0111
          29    0.0000   -0.0000   -0.0140   -0.0038    0.0067    0.0037   -0.0017    0.0136
          30    0.0061   -0.0087    0.0000    0.0000   -0.0000   -0.0000   -0.0000   -0.0000
          31    0.0430    0.0380    0.0307   -0.0380    0.0232   -0.0214    0.0238    0.0525
          32    0.1859    0.1696    0.1201   -0.1113    0.0500   -0.0491    0.0305   -0.0144
          33    0.0008    0.0011   -0.0006    0.0027   -0.0036    0.0032   -0.0058   -0.0244
          34   -0.0429   -0.0379    0.0308   -0.0380    0.0233   -0.0214    0.0238    0.0525
          35   -0.1857   -0.1694    0.1204   -0.1115    0.0500   -0.0491    0.0305   -0.0144
          36    0.0008    0.0010    0.0006   -0.0027    0.0036   -0.0032    0.0058    0.0244
          37    0.0419   -0.0389    0.0305    0.0383    0.0235    0.0213   -0.0234    0.0526
          38    0.1813   -0.1737    0.1195    0.1123    0.0504    0.0490   -0.0302   -0.0142
          39   -0.0007    0.0011    0.0006    0.0027    0.0036    0.0032   -0.0057    0.0244
          40   -0.0420    0.0390    0.0305    0.0382    0.0235    0.0213   -0.0234    0.0526
          41   -0.1815    0.1739    0.1192    0.1121    0.0504    0.0489   -0.0302   -0.0143
          42   -0.0008    0.0011   -0.0006   -0.0027   -0.0036   -0.0032    0.0057   -0.0244
          43   -0.0001   -0.0001   -0.0663    0.0984   -0.0672    0.0420    0.1521    0.0350
          44   -0.0000   -0.0000   -0.0424    0.0354   -0.0136    0.0140    0.0443    0.0013
          45    0.0229    0.0314   -0.0000    0.0000   -0.0000    0.0000    0.0000    0.0000
          46   -0.0000   -0.0000   -0.0381    0.0503    0.1310   -0.1348   -0.0565    0.0659
          47    0.0000    0.0000    0.0397   -0.0381   -0.1228    0.1238    0.0432   -0.0399
          48   -0.0395   -0.0406    0.0000    0.0000    0.0000   -0.0000   -0.0000    0.0000
          49    0.0000   -0.0000   -0.0378   -0.0506    0.1312    0.1342    0.0572    0.0658
          50   -0.0000    0.0000    0.0395    0.0385   -0.1230   -0.1232   -0.0437   -0.0399
          51    0.0385   -0.0415    0.0000    0.0000    0.0000    0.0000    0.0000    0.0000
          52    0.0001   -0.0001   -0.0655   -0.0988   -0.0668   -0.0416   -0.1521    0.0355
          53    0.0000   -0.0001   -0.0421   -0.0357   -0.0135   -0.0139   -0.0443    0.0014
          54   -0.0221    0.0320   -0.0000   -0.0000   -0.0000    0.0000    0.0000    0.0000
          55    0.0000    0.0000    0.0473    0.0344   -0.1087   -0.1352    0.1212    0.1483
          56    0.0000   -0.0000   -0.0026    0.0052   -0.0263   -0.0370    0.0377    0.0636
          57   -0.0102    0.0194    0.0000   -0.0000    0.0000    0.0000    0.0000   -0.0000
          58   -0.0000    0.0000    0.0477   -0.0341   -0.1078    0.1354   -0.1215    0.1488
          59   -0.0000   -0.0000   -0.0025   -0.0052   -0.0260    0.0370   -0.0377    0.0637
          60    0.0107    0.0191    0.0000    0.0000   -0.0000   -0.0000   -0.0000   -0.0000


   Root No.      33        34        35        36        37        38        39        40

                33 A      34 A      35 A      36 A      37 A      38 A      39 A      40 A   

                1240.6    1325.4    1354.2    1368.5    1394.2    1415.8    1464.4    1571.7
  
           1    0.0040    0.0058   -0.0130    0.0333   -0.0344   -0.0197    0.0174   -0.0023
           2   -0.0143   -0.0060    0.0294    0.0091    0.0050   -0.0710    0.0757   -0.0341
           3   -0.0000    0.0000   -0.0000    0.0000   -0.0000   -0.0000    0.0000   -0.0000
           4    0.0040   -0.0058   -0.0130    0.0333    0.0344    0.0197    0.0174    0.0023
           5   -0.0143    0.0060    0.0294    0.0091   -0.0050    0.0710    0.0757    0.0341
           6   -0.0000   -0.0000   -0.0000    0.0000    0.0000    0.0000    0.0000    0.0000
           7   -0.0151    0.0099    0.0105   -0.0043    0.0154    0.0184   -0.0223   -0.0193
           8    0.0155   -0.0049    0.0367    0.0214   -0.0079    0.0240   -0.0196   -0.1323
           9    0.0000   -0.0000   -0.0000   -0.0000   -0.0000   -0.0000    0.0000    0.0000
          10   -0.0151   -0.0099    0.0105   -0.0043   -0.0154   -0.0184   -0.0223    0.0193
          11    0.0154    0.0049    0.0367    0.0213    0.0079   -0.0240   -0.0196    0.1323
          12    0.0000    0.0000   -0.0000   -0.0000    0.0000    0.0000    0.0000   -0.0000
          13   -0.0160    0.0156    0.0102   -0.0006    0.0220    0.0065   -0.0236    0.0167
          14   -0.0150    0.0082   -0.0159   -0.0185    0.0127    0.0239   -0.0269    0.0266
          15    0.0000   -0.0000   -0.0000   -0.0000    0.0000    0.0000   -0.0000    0.0000
          16   -0.0160   -0.0156    0.0102   -0.0006   -0.0220   -0.0065   -0.0236   -0.0167
          17   -0.0149   -0.0082   -0.0159   -0.0185   -0.0127   -0.0239   -0.0269   -0.0266
          18    0.0000    0.0000   -0.0000   -0.0000   -0.0000   -0.0000   -0.0000   -0.0000
          19    0.0095    0.0091   -0.0133   -0.0065    0.0107    0.0124    0.0113   -0.0198
          20    0.0018   -0.0133    0.0036    0.0102   -0.0186    0.0282   -0.0471    0.0299
          21    0.0000    0.0000   -0.0000   -0.0000    0.0000   -0.0000    0.0000   -0.0000
          22    0.0095   -0.0091   -0.0133   -0.0065   -0.0107   -0.0124    0.0113    0.0198
          23    0.0017    0.0133    0.0036    0.0102    0.0186   -0.0282   -0.0471   -0.0299
          24    0.0000   -0.0000   -0.0000   -0.0000   -0.0000    0.0000    0.0000    0.0000
          25    0.0029    0.0128   -0.0112   -0.0134    0.0174   -0.0104    0.0296   -0.0206
          26    0.0038    0.0121   -0.0333   -0.0162    0.0103    0.0069    0.0302   -0.0454
          27   -0.0000   -0.0000    0.0000    0.0000   -0.0000   -0.0000   -0.0000    0.0000
          28    0.0029   -0.0128   -0.0112   -0.0134   -0.0174    0.0104    0.0295    0.0206
          29    0.0038   -0.0121   -0.0333   -0.0162   -0.0103   -0.0069    0.0302    0.0454
          30   -0.0000    0.0000    0.0000    0.0000    0.0000    0.0000   -0.0000   -0.0000
          31    0.0423   -0.1013    0.0706   -0.1035    0.0663    0.0215   -0.0137    0.0055
          32    0.0303    0.0302   -0.0709   -0.0050   -0.0147    0.0827   -0.0635    0.0226
          33   -0.0165    0.0729   -0.0683    0.0842   -0.0667   -0.0021   -0.0019    0.0041
          34    0.0423   -0.1012    0.0706   -0.1035    0.0662    0.0214   -0.0137    0.0055
          35    0.0303    0.0302   -0.0709   -0.0050   -0.0148    0.0827   -0.0635    0.0227
          36    0.0165   -0.0729    0.0683   -0.0842    0.0667    0.0021    0.0018   -0.0041
          37    0.0423    0.1013    0.0706   -0.1034   -0.0663   -0.0215   -0.0137   -0.0055
          38    0.0303   -0.0302   -0.0709   -0.0050    0.0148   -0.0827   -0.0635   -0.0227
          39    0.0165    0.0730    0.0683   -0.0842   -0.0667   -0.0021    0.0018    0.0041
          40    0.0423    0.1013    0.0706   -0.1034   -0.0663   -0.0215   -0.0137   -0.0055
          41    0.0302   -0.0302   -0.0709   -0.0050    0.0148   -0.0827   -0.0635   -0.0226
          42   -0.0165   -0.0729   -0.0683    0.0841    0.0667    0.0021   -0.0018   -0.0041
          43    0.1936   -0.0494    0.0065    0.0403   -0.0654    0.0396   -0.0078   -0.0780
          44    0.0486   -0.0121   -0.0178   -0.0078   -0.0137    0.0356   -0.0227   -0.0038
          45   -0.0000    0.0000   -0.0000   -0.0000    0.0000   -0.0000   -0.0000    0.0000
          46   -0.0032   -0.0405    0.0435    0.0505   -0.0483   -0.0006   -0.0411    0.0373
          47    0.0149    0.0355   -0.0543   -0.0448    0.0382    0.0443    0.0039   -0.0284
          48   -0.0000   -0.0000    0.0000    0.0000   -0.0000   -0.0000   -0.0000    0.0000
          49   -0.0035    0.0405    0.0435    0.0505    0.0483    0.0006   -0.0411   -0.0373
          50    0.0152   -0.0354   -0.0543   -0.0448   -0.0382   -0.0443    0.0039    0.0284
          51   -0.0000    0.0000    0.0000    0.0000    0.0000    0.0000   -0.0000   -0.0000
          52    0.1941    0.0495    0.0065    0.0403    0.0655   -0.0396   -0.0078    0.0781
          53    0.0488    0.0121   -0.0178   -0.0078    0.0137   -0.0356   -0.0227    0.0039
          54   -0.0000   -0.0000   -0.0000   -0.0000   -0.0000    0.0000   -0.0000   -0.0000
          55   -0.0994    0.0666    0.0093    0.0143    0.0606   -0.0527   -0.0709    0.0064
          56   -0.0262    0.0113   -0.0296   -0.0082    0.0131   -0.0277    0.0002    0.0422
          57    0.0000   -0.0000    0.0000    0.0000   -0.0000    0.0000   -0.0000   -0.0000
          58   -0.0992   -0.0667    0.0092    0.0143   -0.0606    0.0527   -0.0709   -0.0064
          59   -0.0261   -0.0113   -0.0296   -0.0082   -0.0131    0.0277    0.0002   -0.0423
          60    0.0000    0.0000    0.0000    0.0000    0.0000   -0.0000   -0.0000    0.0000


   Root No.      41        42        43        44        45        46        47        48

                41 A      42 A      43 A      44 A      45 A      46 A      47 A      48 A   

                1855.7    1858.6    1870.1    1901.1    2924.4    2924.4    3004.0    3004.1
  
           1   -0.0010   -0.0183   -0.0003   -0.0138    0.0000    0.0000    0.0189   -0.0187
           2   -0.0196    0.0010   -0.0152    0.0004    0.0000    0.0000   -0.0047    0.0046
           3   -0.0000   -0.0000   -0.0000   -0.0000   -0.0334   -0.0276   -0.0000    0.0000
           4    0.0011   -0.0182   -0.0003    0.0138   -0.0000    0.0000   -0.0186   -0.0190
           5    0.0195    0.0012   -0.0152   -0.0004   -0.0000    0.0000    0.0046    0.0047
           6    0.0000   -0.0000   -0.0000    0.0000    0.0275   -0.0334   -0.0000   -0.0000
           7   -0.0539   -0.0811   -0.0779   -0.1142    0.0000    0.0000   -0.0004    0.0001
           8    0.0332    0.0160    0.0005    0.0242   -0.0000   -0.0000   -0.0000    0.0001
           9    0.0000    0.0000    0.0000    0.0000   -0.0002   -0.0000    0.0000    0.0000
          10    0.0542   -0.0806   -0.0781    0.1143   -0.0000   -0.0000    0.0004    0.0001
          11   -0.0333    0.0158    0.0006   -0.0242    0.0000   -0.0000    0.0000    0.0001
          12   -0.0000    0.0000    0.0000   -0.0000    0.0002   -0.0001   -0.0000   -0.0000
          13    0.0611    0.0936    0.0631    0.0881   -0.0000   -0.0000   -0.0004    0.0004
          14    0.0005   -0.0071   -0.0066   -0.0066   -0.0000   -0.0000    0.0024   -0.0022
          15   -0.0000   -0.0000   -0.0000   -0.0000   -0.0000   -0.0000    0.0000   -0.0000
          16   -0.0615    0.0932    0.0633   -0.0881    0.0000   -0.0000    0.0004    0.0004
          17   -0.0005   -0.0071   -0.0066    0.0066    0.0000   -0.0000   -0.0023   -0.0022
          18    0.0000   -0.0000   -0.0000    0.0000    0.0000   -0.0000   -0.0000   -0.0000
          19   -0.0914    0.0689   -0.0773    0.0524   -0.0000   -0.0000   -0.0012    0.0012
          20    0.0383   -0.0259    0.0341   -0.0219    0.0000    0.0000   -0.0016    0.0016
          21   -0.0000    0.0000   -0.0000    0.0000   -0.0000   -0.0000   -0.0000   -0.0000
          22    0.0907    0.0694   -0.0776   -0.0525    0.0000   -0.0000    0.0012    0.0012
          23   -0.0380   -0.0261    0.0342    0.0219    0.0000   -0.0000    0.0016    0.0016
          24    0.0000    0.0000   -0.0000   -0.0000    0.0000   -0.0000    0.0000    0.0000
          25    0.0925   -0.0607    0.0959   -0.0713    0.0000    0.0000   -0.0001    0.0001
          26   -0.0099    0.0129    0.0000   -0.0002    0.0000   -0.0000   -0.0001    0.0000
          27    0.0000   -0.0000    0.0000   -0.0000   -0.0001   -0.0002   -0.0000    0.0000
          28   -0.0918   -0.0612    0.0962    0.0714   -0.0000    0.0000    0.0001    0.0001
          29    0.0098    0.0130   -0.0000    0.0002   -0.0000   -0.0000    0.0001    0.0000
          30   -0.0000   -0.0000    0.0000   -0.0000    0.0001   -0.0002    0.0000   -0.0000
          31   -0.0015   -0.0093   -0.0017   -0.0094    0.1528    0.1261   -0.1133    0.1121
          32   -0.0144    0.0013   -0.0140   -0.0005   -0.0376   -0.0310    0.0279   -0.0276
          33    0.0006   -0.0026    0.0007    0.0015    0.2020    0.1667   -0.1798    0.1779
          34   -0.0015   -0.0093   -0.0017   -0.0094   -0.1528   -0.1261   -0.1134    0.1123
          35   -0.0144    0.0012   -0.0140   -0.0005    0.0375    0.0309    0.0279   -0.0276
          36   -0.0006    0.0026   -0.0007   -0.0015    0.2018    0.1665    0.1798   -0.1780
          37    0.0016   -0.0093   -0.0017    0.0095    0.1261   -0.1529    0.1115    0.1141
          38    0.0144    0.0013   -0.0141    0.0004   -0.0310    0.0375   -0.0274   -0.0280
          39    0.0006    0.0026   -0.0007    0.0015   -0.1665    0.2019   -0.1768   -0.1809
          40    0.0016   -0.0092   -0.0017    0.0094   -0.1260    0.1528    0.1115    0.1140
          41    0.0144    0.0013   -0.0140    0.0004    0.0310   -0.0375   -0.0274   -0.0280
          42   -0.0006   -0.0026    0.0007   -0.0015   -0.1666    0.2020    0.1769    0.1809
          43    0.0019   -0.0144   -0.0023   -0.0123   -0.0000   -0.0000    0.0092   -0.0085
          44   -0.0251   -0.0552   -0.0394   -0.0514    0.0000    0.0000   -0.0248    0.0225
          45   -0.0000   -0.0000   -0.0000   -0.0000   -0.0009   -0.0007   -0.0000    0.0000
          46   -0.0244    0.0121   -0.0200    0.0090    0.0000    0.0000    0.0166   -0.0162
          47   -0.0510    0.0475   -0.0404    0.0327    0.0000    0.0000    0.0147   -0.0143
          48    0.0000   -0.0000    0.0000   -0.0000   -0.0009   -0.0007    0.0000   -0.0000
          49    0.0242    0.0122   -0.0200   -0.0090   -0.0000    0.0000   -0.0164   -0.0164
          50    0.0505    0.0478   -0.0406   -0.0328   -0.0000    0.0000   -0.0145   -0.0146
          51   -0.0000   -0.0000    0.0000    0.0000    0.0008   -0.0009   -0.0000   -0.0000
          52   -0.0018   -0.0145   -0.0023    0.0123   -0.0000    0.0000   -0.0090   -0.0086
          53    0.0254   -0.0550   -0.0395    0.0514    0.0000   -0.0000    0.0245    0.0230
          54    0.0000   -0.0000   -0.0000   -0.0000    0.0007   -0.0009    0.0000    0.0000
          55   -0.0098   -0.0094   -0.0162   -0.0268    0.0000   -0.0000    0.0008    0.0009
          56    0.0525    0.0431   -0.0470   -0.0384    0.0000    0.0000   -0.0020   -0.0019
          57   -0.0000   -0.0000    0.0000    0.0000    0.0004   -0.0004    0.0000    0.0000
          58    0.0097   -0.0093   -0.0163    0.0268    0.0000    0.0000   -0.0008    0.0009
          59   -0.0529    0.0428   -0.0468    0.0384   -0.0000   -0.0000    0.0021   -0.0019
          60    0.0000   -0.0000    0.0000   -0.0000   -0.0004   -0.0004   -0.0000    0.0000


   Root No.      49        50        51        52        53        54

                49 A      50 A      51 A      52 A      53 A      54 A   

                3042.9    3043.0    3050.9    3051.1    3064.4    3064.5
  
           1   -0.0002    0.0008    0.0015    0.0023    0.0011   -0.0019
           2   -0.0000   -0.0001   -0.0004   -0.0006   -0.0003    0.0005
           3    0.0000   -0.0000   -0.0000   -0.0000   -0.0000    0.0000
           4    0.0005    0.0006    0.0020   -0.0019   -0.0020   -0.0011
           5   -0.0000   -0.0001   -0.0005    0.0005    0.0005    0.0003
           6   -0.0000   -0.0000    0.0000   -0.0000    0.0000    0.0000
           7   -0.0001    0.0001   -0.0024   -0.0023    0.0005    0.0008
           8   -0.0001    0.0003    0.0005    0.0002   -0.0001    0.0002
           9    0.0000    0.0000    0.0000    0.0000   -0.0000   -0.0000
          10    0.0002    0.0001   -0.0029    0.0017   -0.0000    0.0010
          11    0.0002    0.0002    0.0006   -0.0001    0.0002    0.0001
          12   -0.0000   -0.0000    0.0000   -0.0000    0.0000   -0.0000
          13    0.0012    0.0001    0.0098    0.0119   -0.0001   -0.0014
          14   -0.0038   -0.0008   -0.0260   -0.0322   -0.0006    0.0034
          15   -0.0000   -0.0000   -0.0000   -0.0000   -0.0000    0.0000
          16   -0.0011    0.0006    0.0125   -0.0092   -0.0006   -0.0012
          17    0.0032   -0.0023   -0.0333    0.0250    0.0024    0.0026
          18    0.0000   -0.0000   -0.0000    0.0000    0.0000    0.0000
          19   -0.0072    0.0113   -0.0032    0.0000    0.0127   -0.0212
          20   -0.0078    0.0124   -0.0028    0.0006    0.0104   -0.0173
          21   -0.0000    0.0000   -0.0000   -0.0000    0.0000   -0.0000
          22    0.0109    0.0073   -0.0031   -0.0008   -0.0222   -0.0120
          23    0.0120    0.0081   -0.0025   -0.0013   -0.0182   -0.0098
          24    0.0000    0.0000   -0.0000   -0.0000   -0.0000   -0.0000
          25   -0.0051    0.0083    0.0005    0.0014   -0.0049    0.0082
          26    0.0157   -0.0254   -0.0001   -0.0044    0.0101   -0.0170
          27   -0.0000    0.0000   -0.0000    0.0000   -0.0000    0.0000
          28    0.0079    0.0055    0.0009   -0.0013    0.0086    0.0046
          29   -0.0242   -0.0167   -0.0012    0.0042   -0.0177   -0.0097
          30    0.0000    0.0000    0.0000   -0.0000    0.0000    0.0000
          31    0.0015   -0.0051   -0.0090   -0.0139   -0.0057    0.0101
          32   -0.0013    0.0023    0.0004    0.0015    0.0023   -0.0037
          33    0.0026   -0.0081   -0.0131   -0.0207   -0.0090    0.0159
          34    0.0015   -0.0051   -0.0090   -0.0139   -0.0057    0.0101
          35   -0.0013    0.0023    0.0004    0.0015    0.0023   -0.0037
          36   -0.0026    0.0081    0.0131    0.0207    0.0090   -0.0159
          37   -0.0033   -0.0041   -0.0122    0.0114    0.0103    0.0060
          38    0.0021    0.0016    0.0008   -0.0014   -0.0039   -0.0021
          39    0.0055    0.0064    0.0180   -0.0170   -0.0162   -0.0093
          40   -0.0033   -0.0041   -0.0122    0.0114    0.0103    0.0060
          41    0.0021    0.0016    0.0008   -0.0014   -0.0039   -0.0021
          42   -0.0055   -0.0064   -0.0180    0.0170    0.0162    0.0093
          43   -0.0141   -0.0025   -0.0923   -0.1143   -0.0022    0.0109
          44    0.0436    0.0063    0.3040    0.3771    0.0050   -0.0369
          45    0.0000    0.0000    0.0000    0.0000    0.0000   -0.0000
          46    0.0899   -0.1415    0.0360   -0.0030   -0.1275    0.2119
          47    0.0936   -0.1475    0.0369   -0.0035   -0.1296    0.2153
          48    0.0000   -0.0000    0.0000   -0.0000   -0.0000    0.0000
          49   -0.1369   -0.0922    0.0340    0.0114    0.2224    0.1202
          50   -0.1426   -0.0961    0.0348    0.0121    0.2260    0.1222
          51   -0.0000   -0.0000    0.0000    0.0000    0.0000    0.0000
          52    0.0120   -0.0083   -0.1184    0.0889    0.0076    0.0083
          53   -0.0377    0.0243    0.3901   -0.2934   -0.0239   -0.0292
          54   -0.0000    0.0000    0.0000   -0.0000   -0.0000   -0.0000
          55   -0.0858   -0.0594   -0.0038    0.0161   -0.0626   -0.0343
          56    0.2844    0.1968    0.0145   -0.0494    0.1984    0.1083
          57   -0.0001   -0.0000   -0.0000    0.0000   -0.0000   -0.0000
          58    0.0557   -0.0902    0.0004   -0.0166    0.0356   -0.0600
          59   -0.1847    0.2988    0.0013    0.0517   -0.1132    0.1899
          60    0.0000   -0.0001   -0.0000   -0.0000    0.0000   -0.0000


           MASS-WEIGHTED COORDINATE ANALYSIS (NORMAL COORDINATES)


   Root No.       1         2         3         4         5         6         7         8

                 1 A       2 A       3 A       4 A       5 A       6 A       7 A       8 A   

                  54.9     172.4     202.5     296.2     363.8     379.4     454.1     480.7
  
           1   -0.0000   -0.0000    0.0001    0.0000    0.0001    0.0043    0.0000    0.3825
           2    0.0000   -0.0000    0.0000    0.0001   -0.0000   -0.2681   -0.0000   -0.0681
           3    0.3968    0.1352   -0.2615   -0.0844    0.0244    0.0000   -0.0305    0.0000
           4   -0.0000   -0.0000   -0.0001    0.0000   -0.0001    0.0043    0.0000   -0.3825
           5    0.0000   -0.0000   -0.0000    0.0001   -0.0000   -0.2681   -0.0000    0.0682
           6    0.3968    0.1352    0.2616   -0.0844   -0.0244    0.0000   -0.0305   -0.0000
           7    0.0000   -0.0000    0.0000   -0.0000    0.0000   -0.1242   -0.0000    0.2481
           8   -0.0000    0.0000    0.0000   -0.0001    0.0000    0.3877    0.0001    0.0869
           9   -0.1141   -0.3216    0.1444   -0.2951   -0.1210   -0.0001    0.3756   -0.0000
          10    0.0000   -0.0000   -0.0000   -0.0000   -0.0000   -0.1242   -0.0000   -0.2481
          11   -0.0000    0.0000   -0.0000   -0.0001    0.0000    0.3876    0.0001   -0.0870
          12   -0.1140   -0.3216   -0.1444   -0.2950    0.1211   -0.0001    0.3755    0.0001
          13    0.0000   -0.0000    0.0000    0.0001    0.0000   -0.2200   -0.0001    0.2806
          14    0.0000    0.0000   -0.0000   -0.0000    0.0000    0.0669    0.0001    0.0332
          15    0.1322   -0.3127    0.3373    0.3573    0.2210    0.0001   -0.0469   -0.0001
          16    0.0000   -0.0000   -0.0000    0.0001   -0.0001   -0.2200   -0.0001   -0.2806
          17    0.0000    0.0000    0.0000   -0.0000   -0.0000    0.0669    0.0001   -0.0332
          18    0.1323   -0.3127   -0.3373    0.3572   -0.2210    0.0001   -0.0469    0.0001
          19   -0.0000    0.0000    0.0000   -0.0001    0.0001    0.1365    0.0000   -0.0750
          20    0.0000   -0.0000    0.0000    0.0000   -0.0000   -0.2184   -0.0000   -0.2339
          21   -0.1139    0.4100    0.1723    0.1668   -0.3275    0.0000    0.2024    0.0000
          22   -0.0000    0.0000   -0.0000   -0.0001   -0.0000    0.1365    0.0000    0.0750
          23    0.0000    0.0000   -0.0000    0.0000   -0.0000   -0.2184   -0.0000    0.2339
          24   -0.1139    0.4100   -0.1724    0.1669    0.3274   -0.0001    0.2024   -0.0000
          25   -0.0000    0.0000    0.0000   -0.0000    0.0000    0.1869    0.0000   -0.1088
          26   -0.0000    0.0000    0.0000   -0.0000    0.0000    0.1169   -0.0001   -0.2886
          27   -0.3522    0.0071    0.0765   -0.1726    0.3974   -0.0001   -0.3085   -0.0000
          28   -0.0000    0.0000   -0.0000   -0.0000   -0.0000    0.1869    0.0000    0.1088
          29   -0.0000    0.0000   -0.0000   -0.0000   -0.0000    0.1169   -0.0001    0.2885
          30   -0.3522    0.0070   -0.0766   -0.1727   -0.3973    0.0000   -0.3086    0.0000
          31   -0.1169   -0.0543    0.2018    0.1642   -0.0263   -0.0082    0.1072    0.1230
          32    0.0550   -0.0743   -0.0270   -0.0151    0.0967   -0.1188   -0.0762    0.0082
          33    0.2110    0.0660   -0.2309   -0.1505    0.0449   -0.0003   -0.1048   -0.0033
          34    0.1169    0.0543   -0.2017   -0.1641    0.0263   -0.0083   -0.1072    0.1230
          35   -0.0550    0.0743    0.0271    0.0152   -0.0967   -0.1188    0.0762    0.0083
          36    0.2111    0.0660   -0.2310   -0.1506    0.0449    0.0002   -0.1049    0.0033
          37    0.1168    0.0543    0.2017   -0.1641   -0.0262   -0.0083   -0.1072   -0.1230
          38   -0.0550    0.0743   -0.0271    0.0152    0.0967   -0.1188    0.0762   -0.0083
          39    0.2110    0.0660    0.2311   -0.1506   -0.0449    0.0003   -0.1049   -0.0033
          40   -0.1169   -0.0543   -0.2018    0.1642    0.0262   -0.0082    0.1072   -0.1230
          41    0.0550   -0.0744    0.0271   -0.0152   -0.0967   -0.1187   -0.0762   -0.0082
          42    0.2110    0.0660    0.2310   -0.1505   -0.0449   -0.0003   -0.1048    0.0033
          43    0.0000    0.0000    0.0000    0.0000    0.0000   -0.1539   -0.0000    0.0502
          44    0.0000    0.0000   -0.0000   -0.0000   -0.0000   -0.0097    0.0000   -0.0001
          45    0.0453   -0.1332    0.2080    0.3084    0.1297    0.0001   -0.2089   -0.0000
          46   -0.0000   -0.0000   -0.0000   -0.0000    0.0000    0.0845   -0.0000   -0.0792
          47    0.0000   -0.0000    0.0000    0.0000   -0.0000   -0.1064   -0.0000   -0.0098
          48   -0.0813    0.2616    0.1464    0.1489   -0.2519    0.0000    0.0896   -0.0000
          49   -0.0000    0.0000    0.0000   -0.0000   -0.0000    0.0845   -0.0000    0.0792
          50    0.0000   -0.0000   -0.0000    0.0000   -0.0000   -0.1064   -0.0000    0.0098
          51   -0.0813    0.2617   -0.1464    0.1490    0.2517   -0.0000    0.0897    0.0000
          52    0.0000    0.0000   -0.0000    0.0000   -0.0000   -0.1538   -0.0000   -0.0502
          53    0.0000    0.0000    0.0000   -0.0000    0.0000   -0.0096    0.0000    0.0001
          54    0.0454   -0.1332   -0.2080    0.3083   -0.1297    0.0001   -0.2089    0.0000
          55   -0.0000    0.0000   -0.0000   -0.0000    0.0000    0.1428    0.0000   -0.0006
          56   -0.0000    0.0000   -0.0000   -0.0000   -0.0000    0.0605   -0.0001    0.0731
          57   -0.2096    0.0231   -0.0845   -0.0597   -0.2577    0.0000   -0.3338    0.0001
          58   -0.0000    0.0000    0.0000   -0.0000    0.0000    0.1427    0.0000    0.0006
          59   -0.0000    0.0000    0.0000   -0.0000    0.0000    0.0605   -0.0001   -0.0731
          60   -0.2097    0.0231    0.0845   -0.0597    0.2578   -0.0000   -0.3338   -0.0001


   Root No.       9        10        11        12        13        14        15        16

                 9 A      10 A      11 A      12 A      13 A      14 A      15 A      16 A   

                 508.1     604.0     651.9     761.7     764.8     765.9     812.3     853.5
  
           1    0.2495   -0.1930    0.0001    0.3699    0.0000    0.0006    0.0002    0.2332
           2    0.1473   -0.0895    0.0000   -0.0633    0.0000   -0.0001   -0.0000   -0.0465
           3    0.0000   -0.0000   -0.1222    0.0005   -0.1741   -0.1792   -0.2358    0.0000
           4   -0.2495   -0.1931   -0.0001    0.3699    0.0001    0.0006    0.0002   -0.2331
           5   -0.1473   -0.0895    0.0000   -0.0633   -0.0000   -0.0001   -0.0000    0.0464
           6   -0.0000   -0.0000    0.1222    0.0004    0.1715   -0.1818   -0.2357   -0.0000
           7   -0.0908    0.2487    0.0001    0.0294    0.0000    0.0000    0.0000    0.0458
           8   -0.0090    0.0795    0.0000    0.0770    0.0000    0.0001    0.0001   -0.2113
           9   -0.0000    0.0001    0.4412   -0.0003   -0.3256    0.1622    0.0910   -0.0001
          10    0.0908    0.2487   -0.0001    0.0294   -0.0000    0.0000    0.0000   -0.0458
          11    0.0090    0.0795   -0.0000    0.0770   -0.0000    0.0001    0.0001    0.2115
          12    0.0000    0.0001   -0.4412   -0.0004    0.3280    0.1578    0.0906    0.0001
          13    0.0072    0.1276    0.0000    0.1160    0.0001    0.0002    0.0001    0.1695
          14    0.2827   -0.3883    0.0000    0.1233   -0.0000    0.0002    0.0001   -0.1412
          15   -0.0000    0.0000   -0.0384   -0.0001   -0.0607    0.0761   -0.1436   -0.0000
          16   -0.0072    0.1276   -0.0000    0.1160   -0.0000    0.0002    0.0000   -0.1695
          17   -0.2827   -0.3883   -0.0000    0.1233    0.0001    0.0002    0.0001    0.1412
          18    0.0000    0.0000    0.0384   -0.0001    0.0617    0.0752   -0.1435    0.0000
          19    0.3965   -0.1322    0.0000   -0.3306    0.0000   -0.0005   -0.0002   -0.0148
          20    0.1811    0.0063   -0.0000   -0.2915    0.0000   -0.0005   -0.0001   -0.0377
          21    0.0000    0.0000   -0.0941    0.0001   -0.0064   -0.1116    0.1276   -0.0000
          22   -0.3965   -0.1322   -0.0000   -0.3306   -0.0001   -0.0005   -0.0002    0.0147
          23   -0.1811    0.0063    0.0000   -0.2916   -0.0001   -0.0005   -0.0001    0.0376
          24   -0.0000    0.0000    0.0941    0.0001    0.0049   -0.1117    0.1276    0.0000
          25    0.3067   -0.0359    0.0000   -0.2157   -0.0000   -0.0003   -0.0001    0.0583
          26   -0.0733    0.4038   -0.0000    0.1195   -0.0001    0.0001    0.0001    0.4981
          27   -0.0000   -0.0001   -0.0306    0.0003   -0.1020   -0.2103    0.0907   -0.0001
          28   -0.3067   -0.0359   -0.0000   -0.2157   -0.0001   -0.0003   -0.0001   -0.0584
          29    0.0733    0.4039    0.0000    0.1196    0.0001    0.0001    0.0001   -0.4980
          30    0.0000   -0.0001    0.0304    0.0003    0.0990   -0.2116    0.0905    0.0001
          31    0.0671   -0.0507   -0.1655    0.1396   -0.1639   -0.1552   -0.2087    0.0986
          32    0.0067    0.0103    0.0541    0.0404    0.0325    0.0866   -0.0373    0.0347
          33   -0.0022    0.0022    0.1020   -0.0105    0.0812    0.0837    0.0844   -0.0108
          34    0.0671   -0.0507    0.1654    0.1389    0.1638    0.1557    0.2088    0.0986
          35    0.0067    0.0104   -0.0541    0.0407   -0.0325   -0.0865    0.0373    0.0347
          36    0.0022   -0.0023    0.1021    0.0102    0.0812    0.0838    0.0845    0.0108
          37   -0.0671   -0.0507   -0.1654    0.1389   -0.1615    0.1581    0.2087   -0.0985
          38   -0.0067    0.0104    0.0541    0.0407    0.0313   -0.0869    0.0373   -0.0347
          39   -0.0022   -0.0023   -0.1021    0.0102   -0.0800    0.0850    0.0845   -0.0108
          40   -0.0671   -0.0507    0.1654    0.1396    0.1616   -0.1577   -0.2086   -0.0986
          41   -0.0067    0.0103   -0.0541    0.0405   -0.0313    0.0870   -0.0373   -0.0347
          42    0.0022    0.0022   -0.1020   -0.0105   -0.0800    0.0849    0.0844    0.0108
          43    0.0191    0.0296   -0.0000   -0.0060    0.0000   -0.0000    0.0000    0.1011
          44    0.0868   -0.1136    0.0000    0.0243   -0.0001    0.0000   -0.0000   -0.0272
          45   -0.0001   -0.0000   -0.0720   -0.0003    0.4544    0.0204    0.4316    0.0000
          46    0.1004    0.0294   -0.0000   -0.1475   -0.0000   -0.0003   -0.0001    0.0709
[...]
 EFFECTIVE MASS      5.4724
 FORCE CONSTANT      0.4177

 VIBRATION         37   37A           ATOM PAIR      ENERGY CONTRIBUTION    RADIAL
 FREQUENCY          1394.18         C  2 -- C  6          +8.5% ( 39.8%)     66.0%
 TRANSITION DIPOLE   0.0001         C  1 -- C  5          +8.5% ( 39.8%)     66.0%
 TRAVEL (Ang.)       0.3173         C  2 -- C  8          +6.9% ( 35.9%)     53.1%
 REDUCED MASS        0.4803         C  1 -- C  7          +6.9% ( 35.9%)     53.1%
 EFFECTIVE MASS      6.6792
 FORCE CONSTANT      0.5500

 VIBRATION         38   38A           ATOM PAIR      ENERGY CONTRIBUTION    RADIAL
 FREQUENCY          1415.81         C  2 -- C  8         +11.0% ( 51.9%)     63.7%
 TRANSITION DIPOLE   0.0002         C  1 -- C  7         +11.0% ( 51.9%)     63.7%
 TRAVEL (Ang.)       0.1580         C  2 -- C  6         +10.4% ( 50.3%)     73.1%
 REDUCED MASS        1.9077         C  1 -- C  5         +10.3% ( 50.3%)     73.1%
 EFFECTIVE MASS      9.7229
 FORCE CONSTANT      2.2531

 VIBRATION         39   39A           ATOM PAIR      ENERGY CONTRIBUTION    RADIAL
 FREQUENCY          1464.38         C  1 -- C  7         +11.0% ( 52.3%)     86.0%
 TRANSITION DIPOLE   0.0431         C  2 -- C  8         +11.0% ( 52.3%)     86.0%
 TRAVEL (Ang.)       0.1734         C  1 -- C  5          +9.1% ( 47.6%)     82.3%
 REDUCED MASS        1.5320         C  2 -- C  6          +9.1% ( 47.6%)     82.3%
 EFFECTIVE MASS     10.8833
 FORCE CONSTANT      1.9356

 VIBRATION         40   40A           ATOM PAIR      ENERGY CONTRIBUTION    RADIAL
 FREQUENCY          1571.68         C  3 -- C  4         +28.8% ( 79.7%)     81.1%
 TRANSITION DIPOLE   0.0001         C  4 -- C  9         +14.7% ( 56.9%)     70.7%
 TRAVEL (Ang.)       0.1152         C  3 -- C 10         +14.7% ( 56.9%)     70.7%
 REDUCED MASS        3.2349         C  4 -- C  6         +11.3% ( 49.8%)      0.0%
 EFFECTIVE MASS     11.6012         C  3 -- C  5         +11.3% ( 49.8%)      0.0%
 FORCE CONSTANT      4.7080

 VIBRATION         41   41A           ATOM PAIR      ENERGY CONTRIBUTION    RADIAL
 FREQUENCY          1855.67         C  7 -- C  9         +16.0% ( 59.2%)    100.0%
 TRANSITION DIPOLE   0.0030         C  8 -- C 10         +15.7% ( 58.7%)    100.0%
 TRAVEL (Ang.)       0.1493         C  4 -- C  6          +6.4% ( 37.4%)     99.9%
 REDUCED MASS        1.6294         C  3 -- C  5          +6.3% ( 37.2%)     99.9%
 EFFECTIVE MASS     11.9369
 FORCE CONSTANT      3.3058

 VIBRATION         42   42A           ATOM PAIR      ENERGY CONTRIBUTION    RADIAL
 FREQUENCY          1858.65         C  3 -- C  5         +14.1% ( 55.2%)     98.8%
 TRANSITION DIPOLE   0.9088         C  4 -- C  6         +14.0% ( 54.9%)     98.8%
 TRAVEL (Ang.)       0.1552         C  8 -- C 10          +8.7% ( 43.3%)     99.7%
 REDUCED MASS        1.5058         C  7 -- C  9          +8.6% ( 42.9%)     99.7%
 EFFECTIVE MASS     11.8964
 FORCE CONSTANT      3.0648

 VIBRATION         43   43A           ATOM PAIR      ENERGY CONTRIBUTION    RADIAL
 FREQUENCY          1870.14         C  8 -- C 10         +13.5% ( 54.7%)     99.8%
 TRANSITION DIPOLE   0.1423         C  7 -- C  9         +13.4% ( 54.6%)     99.8%
 TRAVEL (Ang.)       0.1535         C  3 -- C 10          +9.2% ( 45.3%)     50.5%
 REDUCED MASS        1.5310         C  4 -- C  9          +9.2% ( 45.2%)     50.4%
 EFFECTIVE MASS     11.9044
 FORCE CONSTANT      3.1549

 VIBRATION         44   44A           ATOM PAIR      ENERGY CONTRIBUTION    RADIAL
 FREQUENCY          1901.06         C  4 -- C  6         +15.3% ( 58.1%)     99.2%
 TRANSITION DIPOLE   0.0003         C  3 -- C  5         +15.2% ( 58.0%)     99.2%
 TRAVEL (Ang.)       0.1392         C  3 -- C  4         +13.9% ( 55.5%)     24.2%
 REDUCED MASS        1.8300         C  3 -- C 10          +9.6% ( 46.1%)     38.1%
 EFFECTIVE MASS     11.8815
 FORCE CONSTANT      3.8966

 VIBRATION         45   45A           ATOM PAIR      ENERGY CONTRIBUTION    RADIAL
 FREQUENCY          2924.39         C  1 -- H 11         +29.1% ( 56.0%)     96.6%
 TRANSITION DIPOLE   0.0066         C  1 -- H 12         +29.1% ( 56.0%)     96.6%
 TRAVEL (Ang.)       0.2934         C  2 -- H 14         +19.8% ( 46.2%)     96.6%
 REDUCED MASS        0.2679         C  2 -- H 13         +19.8% ( 46.2%)     96.6%
 EFFECTIVE MASS      1.5326
 FORCE CONSTANT      1.3500

 VIBRATION         46   46A           ATOM PAIR      ENERGY CONTRIBUTION    RADIAL
 FREQUENCY          2924.40         C  2 -- H 14         +29.1% ( 56.0%)     96.6%
 TRANSITION DIPOLE   0.0686         C  2 -- H 13         +29.1% ( 56.0%)     96.6%
 TRAVEL (Ang.)       0.2934         C  1 -- H 11         +19.8% ( 46.2%)     96.6%
 REDUCED MASS        0.2679         C  1 -- H 12         +19.8% ( 46.2%)     96.6%
 EFFECTIVE MASS      1.5329
 FORCE CONSTANT      1.3501

 VIBRATION         47   47A           ATOM PAIR      ENERGY CONTRIBUTION    RADIAL
 FREQUENCY          3004.00         C  1 -- H 12         +24.7% ( 49.0%)     97.8%
 TRANSITION DIPOLE   0.0015         C  1 -- H 11         +24.7% ( 49.0%)     97.8%
 TRAVEL (Ang.)       0.3086         C  2 -- H 13         +23.9% ( 48.2%)     97.8%
 REDUCED MASS        0.2357         C  2 -- H 14         +23.9% ( 48.2%)     97.8%
 EFFECTIVE MASS      1.2816
 FORCE CONSTANT      1.2532

 VIBRATION         48   48A           ATOM PAIR      ENERGY CONTRIBUTION    RADIAL
 FREQUENCY          3004.14         C  2 -- H 13         +24.7% ( 49.0%)     97.8%
 TRANSITION DIPOLE   0.1879         C  2 -- H 14         +24.7% ( 49.0%)     97.8%
 TRAVEL (Ang.)       0.3082         C  1 -- H 12         +24.0% ( 48.3%)     97.8%
 REDUCED MASS        0.2364         C  1 -- H 11         +23.9% ( 48.2%)     97.8%
 EFFECTIVE MASS      1.2819
 FORCE CONSTANT      1.2568

 VIBRATION         49   49A           ATOM PAIR      ENERGY CONTRIBUTION    RADIAL
 FREQUENCY          3042.87         C 10 -- H 19         +46.5% ( 69.2%)    100.0%
 TRANSITION DIPOLE   0.0819         C  8 -- H 17         +20.6% ( 46.0%)    100.0%
 TRAVEL (Ang.)       0.2724         C  9 -- H 20         +19.6% ( 45.0%)    100.0%
 REDUCED MASS        0.2987         C  7 -- H 16          +8.9% ( 30.2%)    100.0%
 EFFECTIVE MASS      1.4687
 FORCE CONSTANT      1.6297

 VIBRATION         50   50A           ATOM PAIR      ENERGY CONTRIBUTION    RADIAL
 FREQUENCY          3043.03         C  9 -- H 20         +47.5% ( 70.0%)    100.0%
 TRANSITION DIPOLE   0.3936         C 10 -- H 19         +20.6% ( 46.1%)    100.0%
 TRAVEL (Ang.)       0.2673         C  7 -- H 16         +20.3% ( 45.8%)    100.0%
 REDUCED MASS        0.3101         C  8 -- H 17          +8.6% ( 29.8%)    100.0%
 EFFECTIVE MASS      1.4701
 FORCE CONSTANT      1.6917

 VIBRATION         51   51A           ATOM PAIR      ENERGY CONTRIBUTION    RADIAL
 FREQUENCY          3050.86         C  6 -- H 18         +58.9% ( 77.9%)    100.0%
 TRANSITION DIPOLE   0.4933         C  5 -- H 15         +35.8% ( 60.7%)    100.0%
 TRAVEL (Ang.)       0.2171         C  7 -- H 16          +0.9% (  9.8%)    100.0%
 REDUCED MASS        0.4689         C  4 -- C  6          +0.9% (  9.8%)     38.4%
 EFFECTIVE MASS      1.5162
 FORCE CONSTANT      2.5717

 VIBRATION         52   52A           ATOM PAIR      ENERGY CONTRIBUTION    RADIAL
 FREQUENCY          3051.08         C  5 -- H 15         +58.7% ( 77.7%)    100.0%
 TRANSITION DIPOLE   0.0620         C  6 -- H 18         +35.5% ( 60.4%)    100.0%
 TRAVEL (Ang.)       0.2185         C  9 -- H 20          +1.1% ( 10.7%)    100.0%
 REDUCED MASS        0.4631         C 10 -- H 19          +1.0% ( 10.2%)    100.0%
 EFFECTIVE MASS      1.5094
 FORCE CONSTANT      2.5398

 VIBRATION         53   53A           ATOM PAIR      ENERGY CONTRIBUTION    RADIAL
 FREQUENCY          3064.39         C  8 -- H 17         +50.3% ( 72.0%)     99.9%
 TRANSITION DIPOLE   0.1142         C 10 -- H 19         +21.7% ( 47.3%)     99.9%
 TRAVEL (Ang.)       0.2572         C  7 -- H 16         +16.5% ( 41.3%)     99.9%
 REDUCED MASS        0.3327         C  9 -- H 20          +7.1% ( 27.0%)     99.8%
 EFFECTIVE MASS      1.5839
 FORCE CONSTANT      1.8409

 VIBRATION         54   54A           ATOM PAIR      ENERGY CONTRIBUTION    RADIAL
 FREQUENCY          3064.48         C  7 -- H 16         +49.8% ( 71.6%)     99.9%
 TRANSITION DIPOLE   0.4182         C  9 -- H 20         +21.7% ( 47.3%)     99.9%
 TRAVEL (Ang.)       0.2598         C  8 -- H 17         +16.0% ( 40.6%)     99.9%
 REDUCED MASS        0.3261         C 10 -- H 19          +7.1% ( 26.9%)     99.9%
 EFFECTIVE MASS      1.5859
 FORCE CONSTANT      1.8041

      SYMMETRY NUMBER FOR POINT-GROUP C1  =  1


          SYSTEM IS A GROUND STATE



 InChI=1S/C10H10/c1-2-6-10-8-4-3-7-9(10)5-1/h1,4-8H,2-3H2


          MOLECULE IS NOT LINEAR

          THERE ARE 54 GENUINE VIBRATIONS IN THIS SYSTEM
          THIS THERMODYNAMICS CALCULATION IS LIMITED TO
          MOLECULES WHICH HAVE NO INTERNAL ROTATIONS




                    CALCULATED THERMODYNAMIC PROPERTIES
                                          *
   TEMP. (K)   PARTITION FUNCTION   H.O.F.    ENTHALPY  HEAT CAPACITY ENTROPY
                                   KCAL/MOL   CAL/MOLE    CAL/K/MOL  CAL/K/MOL


 298.00  VIB.     0.4428D+02                  3204.5621    26.0948    18.2861
         ROT.     0.5109D+06                   888.2803     2.9808    29.1003
         INT.     0.2262D+08                  4092.8424    29.0756    47.3864
         TRA.     0.1436D+28                  1480.4672     4.9680    40.5022
         TOT.                       47.864    5573.3096    34.0437    87.8886

 200.00  VIB.     0.8542D+01                  1219.8577    14.6479    10.3618
         ROT.     0.2809D+06                   596.1613     2.9808    27.9117
         INT.     0.2399D+07                  1816.0189    17.6287    38.2735
         TRA.     0.7896D+27                   993.6021     4.9680    38.5210
         TOT.                       45.100    2809.6211    22.5967    76.7945

 210.00  VIB.     0.9974D+01                  1371.7286    15.7311    11.1026
         ROT.     0.3022D+06                   625.9693     2.9808    28.0571
         INT.     0.3014D+07                  1997.6979    18.7119    39.1597
         TRA.     0.8496D+27                  1043.2822     4.9680    38.7634
         TOT.                       45.332    3040.9801    23.6799    77.9231

 220.00  VIB.     0.1168D+02                  1534.5723    16.8420    11.8599
         ROT.     0.3241D+06                   655.7774     2.9808    28.1958
         INT.     0.3785D+07                  2190.3497    19.8228    40.0557
         TRA.     0.9110D+27                  1092.9623     4.9680    38.9945
         TOT.                       45.574    3283.3120    24.7908    79.0502

 230.00  VIB.     0.1372D+02                  1708.6518    17.9778    12.6336
         ROT.     0.3464D+06                   685.5855     2.9808    28.3283
         INT.     0.4754D+07                  2394.2373    20.9586    40.9618
         TRA.     0.9738D+27                  1142.6424     4.9680    39.2154
         TOT.                       45.828    3536.8798    25.9266    80.1772

 240.00  VIB.     0.1617D+02                  1894.1997    19.1351    13.4231
         ROT.     0.3692D+06                   715.3935     2.9808    28.4551
         INT.     0.5970D+07                  2609.5932    22.1159    41.8782
         TRA.     0.1038D+28                  1192.3226     4.9680    39.4268
         TOT.                       46.093    3801.9158    27.0839    81.3050

 250.00  VIB.     0.1911D+02                  2091.4145    20.3106    14.2280
         ROT.     0.3925D+06                   745.2016     2.9808    28.5768
         INT.     0.7500D+07                  2836.6161    23.2914    42.8048
         TRA.     0.1103D+28                  1242.0027     4.9680    39.6296
         TOT.                       46.369    4078.6188    28.2594    82.4344

 260.00  VIB.     0.2264D+02                  2300.4601    21.5007    15.0477
         ROT.     0.4163D+06                   775.0097     2.9808    28.6937
         INT.     0.9427D+07                  3075.4698    24.4815    43.7414
         TRA.     0.1170D+28                  1291.6828     4.9680    39.8245
         TOT.                       46.658    4367.1525    29.4495    83.5659

 270.00  VIB.     0.2691D+02                  2521.4646    22.7018    15.8816
         ROT.     0.4406D+06                   804.8177     2.9808    28.8062
         INT.     0.1186D+08                  3326.2824    25.6826    44.6879
         TRA.     0.1239D+28                  1341.3629     4.9680    40.0120
         TOT.                       46.958    4667.6452    30.6506    84.6998

 280.00  VIB.     0.3207D+02                  2754.5212    23.9105    16.7291
         ROT.     0.4653D+06                   834.6258     2.9808    28.9146
         INT.     0.1492D+08                  3589.1469    26.8913    45.6437
         TRA.     0.1308D+28                  1391.0430     4.9680    40.1926
         TOT.                       47.271    4980.1899    31.8593    85.8363

 290.00  VIB.     0.3832D+02                  2999.6888    25.1235    17.5893
         ROT.     0.4904D+06                   864.4339     2.9808    29.0192
         INT.     0.1880D+08                  3864.1227    28.1043    46.6085
         TRA.     0.1379D+28                  1440.7231     4.9680    40.3670
         TOT.                       47.596    5304.8458    33.0723    86.9755

 300.00  VIB.     0.4592D+02                  3256.9946    26.3376    18.4615
         ROT.     0.5160D+06                   894.2419     2.9808    29.1203
         INT.     0.2370D+08                  4151.2365    29.3184    47.5817
         TRA.     0.1451D+28                  1490.4032     4.9680    40.5354
         TOT.                       47.932    5641.6397    34.2864    88.1171

 310.00  VIB.     0.5516D+02                  3526.4352    27.5500    19.3449
         ROT.     0.5420D+06                   924.0500     2.9808    29.2180
         INT.     0.2990D+08                  4450.4851    30.5308    48.5629
         TRA.     0.1524D+28                  1540.0833     4.9680    40.6983
         TOT.                       48.281    5990.5684    35.4988    89.2612

 320.00  VIB.     0.6643D+02                  3807.9795    28.7579    20.2386
         ROT.     0.5685D+06                   953.8580     2.9808    29.3127
         INT.     0.3776D+08                  4761.8375    31.7387    49.5513
         TRA.     0.1598D+28                  1589.7634     4.9680    40.8560
         TOT.                       48.642    6351.6009    36.7068    90.4073

 330.00  VIB.     0.8020D+02                  4101.5712    29.9591    21.1420
         ROT.     0.5953D+06                   983.6661     2.9808    29.4044
         INT.     0.4774D+08                  5085.2374    32.9399    50.5463
         TRA.     0.1674D+28                  1639.4435     4.9680    41.0089
         TOT.                       49.015    6724.6809    37.9079    91.5552

 340.00  VIB.     0.9705D+02                  4407.1313    31.1513    22.0541
         ROT.     0.6226D+06                  1013.4742     2.9808    29.4934
         INT.     0.6042D+08                  5420.6055    34.1321    51.5474
         TRA.     0.1750D+28                  1689.1236     4.9680    41.1572
         TOT.                       49.400    7109.7291    39.1001    92.7046

 350.00  VIB.     0.1177D+03                  4724.5603    32.3326    22.9741
         ROT.     0.6503D+06                  1043.2822     2.9808    29.5798
         INT.     0.7654D+08                  5767.8425    35.3134    52.5539
         TRA.     0.1828D+28                  1738.8037     4.9680    41.3012
         TOT.                       49.797    7506.6462    40.2814    93.8551

 360.00  VIB.     0.1431D+03                  5053.7411    33.5014    23.9014
         ROT.     0.6783D+06                  1073.0903     2.9808    29.6637
         INT.     0.9705D+08                  6126.8314    36.4822    53.5651
         TRA.     0.1907D+28                  1788.4838     4.9680    41.4412
         TOT.                       50.206    7915.3153    41.4502    95.0063

 370.00  VIB.     0.1743D+03                  5394.5414    34.6562    24.8351
         ROT.     0.7068D+06                  1102.8984     2.9808    29.7454
         INT.     0.1232D+09                  6497.4398    37.6371    54.5805
         TRA.     0.1987D+28                  1838.1639     4.9680    41.5773
         TOT.                       50.626    8335.6037    42.6051    96.1578

 380.00  VIB.     0.2127D+03                  5746.8155    35.7960    25.7744
         ROT.     0.7356D+06                  1132.7064     2.9808    29.8249
         INT.     0.1565D+09                  6879.5220    38.7768    55.5993
         TRA.     0.2068D+28                  1887.8440     4.9680    41.7098
         TOT.                       51.058    8767.3660    43.7448    97.3091

 390.00  VIB.     0.2601D+03                  6110.4069    36.9195    26.7188
         ROT.     0.7649D+06                  1162.5145     2.9808    29.9023
         INT.     0.1990D+09                  7272.9214    39.9003    56.6212
         TRA.     0.2150D+28                  1937.5242     4.9680    41.8388
         TOT.                       51.501    9210.4455    44.8684    98.4600

 400.00  VIB.     0.3187D+03                  6485.1498    38.0262    27.6675
         ROT.     0.7945D+06                  1192.3226     2.9808    29.9778
         INT.     0.2532D+09                  7677.4724    41.0070    57.6453
         TRA.     0.2233D+28                  1987.2043     4.9680    41.9646
         TOT.                       51.955    9664.6766    45.9750    99.6099

   *: NOTE: HEATS OF FORMATION ARE RELATIVE TO THE
            ELEMENTS IN THEIR STANDARD STATE AT 298K
              (=  Standard Enthalpy of Formation).

            Hvib:  Zero-point energy is not included.
                   frequencies of less than zero cm-1 are not included.
            Hrot = (3/2)RT
            Htra = (3/2)RT + pV = (5/2)RT

            Heat capacity is Cp, not Cv

          For more information, see: HTTP://OpenMOPAC.net/Manual/thermochemistry.html


           FORCE CONSTANT IN CARTESIAN COORDINATES (Millidynes/A)

    ATOM   CHEMICAL       X               Y               Z
   NUMBER   SYMBOL  FORCE CONSTANT  FORCE CONSTANT  FORCE CONSTANT

      1       C        9.016957        9.449127        7.586003
      2       C        9.016989        9.449083        7.586031
      3       C       15.580791       11.102413        2.420178
      4       C       15.581218       11.102485        2.420638
      5       C       14.646355       10.094999        2.312033
      6       C       14.646650       10.094718        2.311956
      7       C       14.959334        9.839653        2.359481
      8       C       14.960155        9.839406        2.359430
      9       C       15.076599       10.473164        2.197269
     10       C       15.077565       10.472829        2.197146
     11       H        1.972481        0.741852        3.431109
     12       H        1.974343        0.741839        3.429518
     13       H        1.974326        0.741865        3.429483
     14       H        1.972517        0.741866        3.431158
     15       H        1.153374        4.750582        0.337610
     16       H        2.900455        3.002626        0.345365
     17       H        2.900408        3.002529        0.345400
     18       H        1.153801        4.750518        0.337644
     19       H        1.157685        4.737574        0.344620
     20       H        1.157691        4.738063        0.344530

 **********************
 *                    *
 * JOB ENDED NORMALLY *
 *                    *
 **********************



 TOTAL JOB TIME:             1.76 SECONDS

 == MOPAC DONE ==
