 *******************************************************************************
 **                                                                           **
 **                              MOPAC v23.1.2                                **
 **                                                                           **
 *******************************************************************************
 **          Digital Object Identifier (DOI): 10.5281/zenodo.6511958          **
 **    Visit the DOI location for information on how to cite this program.    **
 *******************************************************************************

                              PM3 CALCULATION RESULTS

 *******************************************************************************
 *  CALCULATION DONE: (MAX THREADS = 1)              Tue Jun  3 16:33:06 2025  *
 *  PM3        - The PM3 Hamiltonian to be used
 *  PRECISE    - TIGHTER CRITERIA TO BE USED
 *  NOSYM      - POINT-GROUP SYMMETRY SET TO C1
 *  THREADS=1  - MULTI-THREADING NOT USED
 *  T=         - A TIME OF 172800.0 SECONDS REQUESTED
 *  DUMP=N     - RESTART FILE WRITTEN EVERY 7200.0 SECONDS REQUESTED
 *******************************************************************************
pm3  precise nosym THREADS=1
 InChI=1S/C10H10/c1-3-9-7-5-6-8-10(9)4-2/h3,5-9H,1-2H2

   ATOM   CHEMICAL          X               Y               Z
  NUMBER   SYMBOL      (ANGSTROMS)     (ANGSTROMS)     (ANGSTROMS)

     1       C         -0.65340000  *  -0.36200000  *  -0.36520000  *
     2       C          0.78110000  *  -0.20640000  *   0.09740000  *
     3       C         -0.86540000  *   0.16510000  *  -1.76670000  *
     4       C         -1.57550000  *   0.37310000  *   0.57530000  *
     5       C          1.70450000  *   0.68880000  *  -0.62270000  *
     6       C          0.03950000  *   0.92290000  *  -2.39710000  *
     7       C          1.34740000  *   1.22430000  *  -1.79040000  *
     8       C         -2.23500000  *  -0.25850000  *   1.55130000  *
     9       C          1.59430000  *  -1.42040000  *   2.26110000  *
    10       C          1.19080000  *  -0.81460000  *   1.18110000  *
    11       H         -0.90610000  *  -1.44620000  *  -0.38370000  *
    12       H         -1.81190000  *  -0.03270000  *  -2.25510000  *
    13       H         -1.66020000  *   1.45410000  *   0.49910000  *
    14       H          2.68750000  *   0.90080000  *  -0.21780000  *
    15       H         -0.18440000  *   1.31300000  *  -3.38180000  *
    16       H          2.03910000  *   1.86810000  *  -2.31850000  *
    17       H         -2.14810000  *  -1.33280000  *   1.68320000  *
    18       H         -2.86670000  *   0.30400000  *   2.23100000  *
    19       H          0.87110000  *  -1.84530000  *   2.94360000  *
    20       H          2.65140000  *  -1.49530000  *   2.47590000  *



          CARTESIAN COORDINATES 

    NO.       ATOM           X           Y           Z

     1         C         -0.6534     -0.3620     -0.3652
     2         C          0.7811     -0.2064      0.0974
     3         C         -0.8654      0.1651     -1.7667
     4         C         -1.5755      0.3731      0.5753
     5         C          1.7045      0.6888     -0.6227
     6         C          0.0395      0.9229     -2.3971
     7         C          1.3474      1.2243     -1.7904
     8         C         -2.2350     -0.2585      1.5513
     9         C          1.5943     -1.4204      2.2611
    10         C          1.1908     -0.8146      1.1811
    11         H         -0.9061     -1.4462     -0.3837
    12         H         -1.8119     -0.0327     -2.2551
    13         H         -1.6602      1.4541      0.4991
    14         H          2.6875      0.9008     -0.2178
    15         H         -0.1844      1.3130     -3.3818
    16         H          2.0391      1.8681     -2.3185
    17         H         -2.1481     -1.3328      1.6832
    18         H         -2.8667      0.3040      2.2310
    19         H          0.8711     -1.8453      2.9436
    20         H          2.6514     -1.4953      2.4759

  H: (PM3): J. J. P. STEWART, J. COMP. CHEM. 10, 209 (1989).
  C: (PM3): J. J. P. STEWART, J. COMP. CHEM. 10, 209 (1989).

           Empirical Formula: C10 H10  =    20 atoms



      MOLECULAR POINT GROUP   :   C1  


      RHF CALCULATION, NO. OF DOUBLY OCCUPIED LEVELS = 25


          Geometry optimization using EF

          DIAGONAL MATRIX USED AS START HESSIAN

 CYCLE:     1 TIME:   0.008 TIME LEFT:  2.00D  GRAD.:   104.045 HEAT:  129.2329
 CYCLE:     2 TIME:   0.016 TIME LEFT:  2.00D  GRAD.:    83.875 HEAT:  127.0097
 CYCLE:     3 TIME:   0.008 TIME LEFT:  2.00D  GRAD.:    76.072 HEAT:  125.2922
 CYCLE:     4 TIME:   0.008 TIME LEFT:  2.00D  GRAD.:    86.351 HEAT:  123.1568
 CYCLE:     5 TIME:   0.008 TIME LEFT:  2.00D  GRAD.:   109.050 HEAT:  121.4912
 CYCLE:     6 TIME:   0.004 TIME LEFT:  2.00D  GRAD.:    89.740 HEAT:  118.0494
 CYCLE:     7 TIME:   0.012 TIME LEFT:  2.00D  GRAD.:    90.953 HEAT:  116.4734
 CYCLE:     8 TIME:   0.008 TIME LEFT:  2.00D  GRAD.:    90.323 HEAT:  114.8644
 CYCLE:     9 TIME:   0.008 TIME LEFT:  2.00D  GRAD.:    63.801 HEAT:  112.8322
 CYCLE:    10 TIME:   0.004 TIME LEFT:  2.00D  GRAD.:    89.307 HEAT:  111.2601
 CYCLE:    11 TIME:   0.008 TIME LEFT:  2.00D  GRAD.:    85.255 HEAT:  108.8550
 CYCLE:    12 TIME:   0.012 TIME LEFT:  2.00D  GRAD.:    82.202 HEAT:  107.6734
 CYCLE:    13 TIME:   0.008 TIME LEFT:  2.00D  GRAD.:    66.648 HEAT:  106.0261
 CYCLE:    14 TIME:   0.008 TIME LEFT:  2.00D  GRAD.:    71.862 HEAT:  104.2687
 CYCLE:    15 TIME:   0.008 TIME LEFT:  2.00D  GRAD.:    65.354 HEAT:  102.0121
 CYCLE:    16 TIME:   0.008 TIME LEFT:  2.00D  GRAD.:    82.416 HEAT:  100.1456
 CYCLE:    17 TIME:   0.008 TIME LEFT:  2.00D  GRAD.:    78.921 HEAT:  98.26439
 CYCLE:    18 TIME:   0.008 TIME LEFT:  2.00D  GRAD.:    70.818 HEAT:  96.84463
 CYCLE:    19 TIME:   0.004 TIME LEFT:  2.00D  GRAD.:    48.404 HEAT:  96.03777
 CYCLE:    20 TIME:   0.008 TIME LEFT:  2.00D  GRAD.:    62.233 HEAT:  95.83437
 CYCLE:    21 TIME:   0.008 TIME LEFT:  2.00D  GRAD.:    31.038 HEAT:  95.23566
 CYCLE:    22 TIME:   0.016 TIME LEFT:  2.00D  GRAD.:    37.501 HEAT:  95.08580
 CYCLE:    23 TIME:   0.008 TIME LEFT:  2.00D  GRAD.:    17.782 HEAT:  94.75072
 CYCLE:    24 TIME:   0.012 TIME LEFT:  2.00D  GRAD.:    29.819 HEAT:  94.71736
 CYCLE:    25 TIME:   0.012 TIME LEFT:  2.00D  GRAD.:    11.516 HEAT:  94.47340
 CYCLE:    26 TIME:   0.008 TIME LEFT:  2.00D  GRAD.:    15.873 HEAT:  94.39006
 CYCLE:    27 TIME:   0.008 TIME LEFT:  2.00D  GRAD.:    11.697 HEAT:  94.26295
 CYCLE:    28 TIME:   0.008 TIME LEFT:  2.00D  GRAD.:    13.359 HEAT:  94.22174
 CYCLE:    29 TIME:   0.004 TIME LEFT:  2.00D  GRAD.:    11.286 HEAT:  94.15490
 CYCLE:    30 TIME:   0.008 TIME LEFT:  2.00D  GRAD.:    11.984 HEAT:  94.12150
 CYCLE:    31 TIME:   0.008 TIME LEFT:  2.00D  GRAD.:     6.387 HEAT:  94.05794
 CYCLE:    32 TIME:   0.004 TIME LEFT:  2.00D  GRAD.:     7.551 HEAT:  94.02081
 CYCLE:    33 TIME:   0.008 TIME LEFT:  2.00D  GRAD.:     5.774 HEAT:  93.98730
 CYCLE:    34 TIME:   0.008 TIME LEFT:  2.00D  GRAD.:     3.377 HEAT:  93.96764
 CYCLE:    35 TIME:   0.008 TIME LEFT:  2.00D  GRAD.:     3.162 HEAT:  93.95097
 CYCLE:    36 TIME:   0.004 TIME LEFT:  2.00D  GRAD.:     4.681 HEAT:  93.93694
 CYCLE:    37 TIME:   0.008 TIME LEFT:  2.00D  GRAD.:     3.094 HEAT:  93.92344
 CYCLE:    38 TIME:   0.008 TIME LEFT:  2.00D  GRAD.:     2.509 HEAT:  93.91015
 CYCLE:    39 TIME:   0.008 TIME LEFT:  2.00D  GRAD.:     3.129 HEAT:  93.89318
 CYCLE:    40 TIME:   0.004 TIME LEFT:  2.00D  GRAD.:     2.750 HEAT:  93.88354
 CYCLE:    41 TIME:   0.008 TIME LEFT:  2.00D  GRAD.:     2.211 HEAT:  93.87350
 CYCLE:    42 TIME:   0.008 TIME LEFT:  2.00D  GRAD.:     2.428 HEAT:  93.86388
 CYCLE:    43 TIME:   0.008 TIME LEFT:  2.00D  GRAD.:     3.102 HEAT:  93.84995
 CYCLE:    44 TIME:   0.004 TIME LEFT:  2.00D  GRAD.:     2.721 HEAT:  93.83747
 CYCLE:    45 TIME:   0.008 TIME LEFT:  2.00D  GRAD.:     1.574 HEAT:  93.82791
 CYCLE:    46 TIME:   0.008 TIME LEFT:  2.00D  GRAD.:     1.349 HEAT:  93.82464
 CYCLE:    47 TIME:   0.004 TIME LEFT:  2.00D  GRAD.:     1.465 HEAT:  93.81835
 CYCLE:    48 TIME:   0.008 TIME LEFT:  2.00D  GRAD.:     1.462 HEAT:  93.81456
 CYCLE:    49 TIME:   0.008 TIME LEFT:  2.00D  GRAD.:     1.669 HEAT:  93.80623
 CYCLE:    50 TIME:   0.008 TIME LEFT:  2.00D  GRAD.:     1.570 HEAT:  93.80173
 CYCLE:    51 TIME:   0.008 TIME LEFT:  2.00D  GRAD.:     2.321 HEAT:  93.79067
 CYCLE:    52 TIME:   0.004 TIME LEFT:  2.00D  GRAD.:     1.688 HEAT:  93.78577
 CYCLE:    53 TIME:   0.008 TIME LEFT:  2.00D  GRAD.:     1.618 HEAT:  93.77472
 CYCLE:    54 TIME:   0.008 TIME LEFT:  2.00D  GRAD.:     1.743 HEAT:  93.76856
 CYCLE:    55 TIME:   0.008 TIME LEFT:  2.00D  GRAD.:     2.208 HEAT:  93.75619
 CYCLE:    56 TIME:   0.008 TIME LEFT:  2.00D  GRAD.:     1.580 HEAT:  93.75112
 CYCLE:    57 TIME:   0.008 TIME LEFT:  2.00D  GRAD.:     1.434 HEAT:  93.74048
 CYCLE:    58 TIME:   0.008 TIME LEFT:  2.00D  GRAD.:     1.549 HEAT:  93.73326
 CYCLE:    59 TIME:   0.008 TIME LEFT:  2.00D  GRAD.:     1.381 HEAT:  93.72752
 CYCLE:    60 TIME:   0.008 TIME LEFT:  2.00D  GRAD.:     1.195 HEAT:  93.72405
 CYCLE:    61 TIME:   0.008 TIME LEFT:  2.00D  GRAD.:     1.532 HEAT:  93.71939
 CYCLE:    62 TIME:   0.008 TIME LEFT:  2.00D  GRAD.:     1.592 HEAT:  93.71584
 CYCLE:    63 TIME:   0.008 TIME LEFT:  2.00D  GRAD.:     1.923 HEAT:  93.70692
 CYCLE:    64 TIME:   0.004 TIME LEFT:  2.00D  GRAD.:     2.254 HEAT:  93.69520
 CYCLE:    65 TIME:   0.008 TIME LEFT:  2.00D  GRAD.:     2.712 HEAT:  93.67843
 CYCLE:    66 TIME:   0.008 TIME LEFT:  2.00D  GRAD.:     2.521 HEAT:  93.66638
 CYCLE:    67 TIME:   0.004 TIME LEFT:  2.00D  GRAD.:     4.076 HEAT:  93.65557
 CYCLE:    68 TIME:   0.008 TIME LEFT:  2.00D  GRAD.:     2.267 HEAT:  93.63868
 CYCLE:    69 TIME:   0.008 TIME LEFT:  2.00D  GRAD.:     2.092 HEAT:  93.62110
 CYCLE:    70 TIME:   0.008 TIME LEFT:  2.00D  GRAD.:     3.144 HEAT:  93.60700
 CYCLE:    71 TIME:   0.004 TIME LEFT:  2.00D  GRAD.:     1.834 HEAT:  93.60060
 CYCLE:    72 TIME:   0.008 TIME LEFT:  2.00D  GRAD.:     1.932 HEAT:  93.59292
 CYCLE:    73 TIME:   0.008 TIME LEFT:  2.00D  GRAD.:     1.806 HEAT:  93.58663
 CYCLE:    74 TIME:   0.008 TIME LEFT:  2.00D  GRAD.:     2.774 HEAT:  93.58039
 CYCLE:    75 TIME:   0.008 TIME LEFT:  2.00D  GRAD.:     1.624 HEAT:  93.57470
 CYCLE:    76 TIME:   0.008 TIME LEFT:  2.00D  GRAD.:     1.237 HEAT:  93.56860
 CYCLE:    77 TIME:   0.008 TIME LEFT:  2.00D  GRAD.:     1.877 HEAT:  93.56227
 CYCLE:    78 TIME:   0.008 TIME LEFT:  2.00D  GRAD.:     1.520 HEAT:  93.55870
 CYCLE:    79 TIME:   0.008 TIME LEFT:  2.00D  GRAD.:     1.357 HEAT:  93.55194
 CYCLE:    80 TIME:   0.008 TIME LEFT:  2.00D  GRAD.:     2.121 HEAT:  93.54709
 CYCLE:    81 TIME:   0.004 TIME LEFT:  2.00D  GRAD.:     1.576 HEAT:  93.54499
 CYCLE:    82 TIME:   0.008 TIME LEFT:  2.00D  GRAD.:     1.070 HEAT:  93.54264
 CYCLE:    83 TIME:   0.008 TIME LEFT:  2.00D  GRAD.:     1.607 HEAT:  93.54077
 CYCLE:    84 TIME:   0.008 TIME LEFT:  2.00D  GRAD.:     1.004 HEAT:  93.53884
 CYCLE:    85 TIME:   0.008 TIME LEFT:  2.00D  GRAD.:     0.903 HEAT:  93.53552
 CYCLE:    86 TIME:   0.004 TIME LEFT:  2.00D  GRAD.:     0.842 HEAT:  93.53413
 CYCLE:    87 TIME:   0.008 TIME LEFT:  2.00D  GRAD.:     0.730 HEAT:  93.53305
 CYCLE:    88 TIME:   0.008 TIME LEFT:  2.00D  GRAD.:     0.565 HEAT:  93.53230
 CYCLE:    89 TIME:   0.008 TIME LEFT:  2.00D  GRAD.:     0.423 HEAT:  93.53161
 CYCLE:    90 TIME:   0.008 TIME LEFT:  2.00D  GRAD.:     0.317 HEAT:  93.53122
 CYCLE:    91 TIME:   0.008 TIME LEFT:  2.00D  GRAD.:     0.273 HEAT:  93.53092
 CYCLE:    92 TIME:   0.004 TIME LEFT:  2.00D  GRAD.:     0.212 HEAT:  93.53084
 CYCLE:    93 TIME:   0.008 TIME LEFT:  2.00D  GRAD.:     0.095 HEAT:  93.53082
 CYCLE:    94 TIME:   0.008 TIME LEFT:  2.00D  GRAD.:     0.063 HEAT:  93.53079
 CYCLE:    95 TIME:   0.004 TIME LEFT:  2.00D  GRAD.:     0.066 HEAT:  93.53079
 CYCLE:    96 TIME:   0.008 TIME LEFT:  2.00D  GRAD.:     0.076 HEAT:  93.53078
 CYCLE:    97 TIME:   0.004 TIME LEFT:  2.00D  GRAD.:     0.055 HEAT:  93.53078
 CYCLE:    98 TIME:   0.008 TIME LEFT:  2.00D  GRAD.:     0.045 HEAT:  93.53078

     GRADIENT =  0.04514 IS LESS THAN CUTOFF =  0.05000



 -------------------------------------------------------------------------------
 pm3  precise nosym THREADS=1
 InChI=1S/C10H10/c1-3-9-7-5-6-8-10(9)4-2/h3,5-9H,1-2H2



     GEOMETRY OPTIMISED USING EIGENVECTOR FOLLOWING (EF).     
     SCF FIELD WAS ACHIEVED                                   


                              PM3 CALCULATION
                                                       MOPAC v23.1.2 MacOS
                                                       Tue Jun  3 16:33:06 2025




          FINAL HEAT OF FORMATION =         93.53078 KCAL/MOL =     391.33276 KJ/MOL


          COSMO AREA              =        183.90 SQUARE ANGSTROMS
          COSMO VOLUME            =        185.02 CUBIC ANGSTROMS

          GRADIENT NORM           =          0.04514          =       0.01009 PER ATOM
          IONIZATION POTENTIAL    =          8.553655 EV
          HOMO LUMO ENERGIES (EV) =         -8.554 -0.239
          NO. OF FILLED LEVELS    =         25
          MOLECULAR WEIGHT        =        130.1890         POINT GROUP:  C1  

          MOLECULAR DIMENSIONS (Angstroms)

            Atom       Atom       Distance
            H    19    H    15     7.22954
            H    18    H    14     6.34951
            H    13    H    11     3.05040


          SCF CALCULATIONS        =        106

          WALL-CLOCK TIME         =      0.746 SECONDS
          COMPUTATION TIME        =      0.481 SECONDS




   ATOM   CHEMICAL          X               Y               Z
  NUMBER   SYMBOL      (ANGSTROMS)     (ANGSTROMS)     (ANGSTROMS)

     1       C         -0.59947737  *  -0.33295644  *  -0.30211675  *
     2       C          0.83417888  *  -0.15963337  *   0.13162636  *
     3       C         -0.89483461  *   0.25273993  *  -1.64671238  *
     4       C         -1.52139710  *   0.30192740  *   0.69987187  *
     5       C          1.73597752  *   0.64765601  *  -0.68152789  *
     6       C          0.00727345  *   0.93592832  *  -2.36222811  *
     7       C          1.34668443  *   1.16030002  *  -1.86012654  *
     8       C         -2.50722408  *  -0.36045908  *   1.29232016  *
     9       C          1.71935069  *  -1.32438592  *   2.29097122  *
    10       C          1.27868089  *  -0.74518986  *   1.22122346  *
    11       H         -0.80241175  *  -1.43230450  *  -0.37320988  *
    12       H         -1.91359322  *   0.09561292  *  -2.01849897  *
    13       H         -1.33125322  *   1.35994335  *   0.91464470  *
    14       H          2.74757732  *   0.81254096  *  -0.29444844  *
    15       H         -0.24116071  *   1.34666380  *  -3.34639677  *
    16       H          2.02750308  *   1.76068657  *  -2.47203648  *
    17       H         -2.72025904  *  -1.40968243  *   1.10519382  *
    18       H         -3.17305943  *   0.10530530  *   2.01242799  *
    19       H          1.68451035  *  -0.84787268  *   3.26737636  *
    20       H          2.14905025  *  -2.32283886  *   2.27647964  *

                             CARTESIAN COORDINATES

   1    C       -0.599477369    -0.332956444    -0.302116752
   2    C        0.834178879    -0.159633367     0.131626360
   3    C       -0.894834605     0.252739931    -1.646712377
   4    C       -1.521397097     0.301927401     0.699871874
   5    C        1.735977522     0.647656009    -0.681527886
   6    C        0.007273451     0.935928323    -2.362228111
   7    C        1.346684429     1.160300023    -1.860126537
   8    C       -2.507224081    -0.360459081     1.292320164
   9    C        1.719350690    -1.324385916     2.290971219
  10    C        1.278680894    -0.745189859     1.221223461
  11    H       -0.802411749    -1.432304497    -0.373209879
  12    H       -1.913593219     0.095612915    -2.018498970
  13    H       -1.331253224     1.359943347     0.914644705
  14    H        2.747577322     0.812540965    -0.294448438
  15    H       -0.241160714     1.346663800    -3.346396771
  16    H        2.027503085     1.760686572    -2.472036478
  17    H       -2.720259039    -1.409682428     1.105193819
  18    H       -3.173059431     0.105305300     2.012427990
  19    H        1.684510354    -0.847872680     3.267376356
  20    H        2.149050248    -2.322838860     2.276479641


           Empirical Formula: C10 H10  =    20 atoms



      MOLECULAR POINT GROUP   :   C1  


                  EIGENVALUES  
 -40.25697 -33.70863 -32.97552 -29.02319 -27.93827 -23.16473 -21.59426 -19.89083
 -18.90544 -17.33217 -16.48692 -16.32437 -15.85977 -15.52036 -14.98797 -14.68427
 -13.89474 -12.74624 -12.47287 -12.32311 -11.72548 -10.74011 -10.46194 -10.17287
  -8.55365  -0.23876   0.96078   1.10537   1.37060   2.26947   2.85315   3.30047
   3.39168   3.46865   3.64114   3.79006   3.90888   3.96351   4.08169   4.32470
   4.55295   4.74212   4.90890   5.05413   5.27732   5.52300   5.79499   5.87447
   6.19960   6.55846


              NET ATOMIC CHARGES AND DIPOLE CONTRIBUTIONS

  ATOM NO.   TYPE          CHARGE      No. of ELECS.   s-Pop       p-Pop       
    1          C           0.043642        3.9564     1.13969     2.81667
    2          C          -0.019508        4.0195     1.15093     2.86858
    3          C          -0.128385        4.1284     1.19818     2.93021
    4          C          -0.128460        4.1285     1.19678     2.93168
    5          C          -0.080745        4.0807     1.17811     2.90264
    6          C          -0.110152        4.1102     1.17788     2.93227
    7          C          -0.104184        4.1042     1.17966     2.92452
    8          C          -0.161852        4.1619     1.18281     2.97904
    9          C          -0.080436        4.0804     1.14638     2.93406
   10          C          -0.175057        4.1751     1.21256     2.96250
   11          H           0.077254        0.9227     0.92275
   12          H           0.102701        0.8973     0.89730
   13          H           0.104973        0.8950     0.89503
   14          H           0.104495        0.8955     0.89550
   15          H           0.102178        0.8978     0.89782
   16          H           0.102440        0.8976     0.89756
   17          H           0.081798        0.9182     0.91820
   18          H           0.080305        0.9197     0.91970
   19          H           0.094775        0.9052     0.90523
   20          H           0.094219        0.9058     0.90578
 DIPOLE           X         Y         Z       TOTAL
 POINT-CHG.    -0.063    -0.119     0.085     0.159
 HYBRID        -0.007    -0.024     0.084     0.087
 SUM           -0.070    -0.143     0.169     0.232


          ATOMIC ORBITAL ELECTRON POPULATIONS

     Atom    s        px        py        pz   
    1  C   1.13969   0.90812   0.98687   0.92169
    2  C   1.15093   0.94443   0.98959   0.93456
    3  C   1.19818   0.98653   0.98534   0.95834
    4  C   1.19678   0.96450   0.99484   0.97233
    5  C   1.17811   0.97407   0.97620   0.95237
    6  C   1.17788   0.94775   0.99658   0.98794
    7  C   1.17966   0.95968   0.99803   0.96681
    8  C   1.18281   0.98119   0.99873   0.99912
    9  C   1.14638   1.00439   0.98767   0.94199
   10  C   1.21256   0.99057   0.99651   0.97542
   11  H   0.92275
   12  H   0.89730
   13  H   0.89503
   14  H   0.89550
   15  H   0.89782
   16  H   0.89756
   17  H   0.91820
   18  H   0.91970
   19  H   0.90523
   20  H   0.90578
 *******************************************************************************
 **                                                                           **
 **                              MOPAC v23.1.2                                **
 **                                                                           **
 *******************************************************************************
 **          Digital Object Identifier (DOI): 10.5281/zenodo.6511958          **
 **    Visit the DOI location for information on how to cite this program.    **
 *******************************************************************************

                              PM3 CALCULATION RESULTS

 *******************************************************************************
 *  CALCULATION DONE: (MAX THREADS = 1)              Tue Jun  3 16:33:06 2025  *
 *  PM3        - The PM3 Hamiltonian to be used
 *  OLDGEO     - PREVIOUS GEOMETRY TO BE USED
 *  PRECISE    - TIGHTER CRITERIA TO BE USED
 *  NOSYM      - POINT-GROUP SYMMETRY SET TO C1
 *  THREADS=1  - MULTI-THREADING NOT USED
 *  T=         - A TIME OF 172800.0 SECONDS REQUESTED
 *  DUMP=N     - RESTART FILE WRITTEN EVERY 7200.0 SECONDS REQUESTED
 *  THERMO     - THERMODYNAMIC QUANTITIES TO BE CALCULATED
 *******************************************************************************
oldgeo thermo nosym precise THREADS=1  pm3
 InChI=1S/C10H10/c1-3-9-7-5-6-8-10(9)4-2/h3,5-9H,1-2H2

   ATOM   CHEMICAL          X               Y               Z
  NUMBER   SYMBOL      (ANGSTROMS)     (ANGSTROMS)     (ANGSTROMS)

     1       C         -0.59947737  *  -0.33295644  *  -0.30211675  *
     2       C          0.83417888  *  -0.15963337  *   0.13162636  *
     3       C         -0.89483461  *   0.25273993  *  -1.64671238  *
     4       C         -1.52139710  *   0.30192740  *   0.69987187  *
     5       C          1.73597752  *   0.64765601  *  -0.68152789  *
     6       C          0.00727345  *   0.93592832  *  -2.36222811  *
     7       C          1.34668443  *   1.16030002  *  -1.86012654  *
     8       C         -2.50722408  *  -0.36045908  *   1.29232016  *
     9       C          1.71935069  *  -1.32438592  *   2.29097122  *
    10       C          1.27868089  *  -0.74518986  *   1.22122346  *
    11       H         -0.80241175  *  -1.43230450  *  -0.37320988  *
    12       H         -1.91359322  *   0.09561292  *  -2.01849897  *
    13       H         -1.33125322  *   1.35994335  *   0.91464470  *
    14       H          2.74757732  *   0.81254096  *  -0.29444844  *
    15       H         -0.24116071  *   1.34666380  *  -3.34639677  *
    16       H          2.02750308  *   1.76068657  *  -2.47203648  *
    17       H         -2.72025904  *  -1.40968243  *   1.10519382  *
    18       H         -3.17305943  *   0.10530530  *   2.01242799  *
    19       H          1.68451035  *  -0.84787268  *   3.26737636  *
    20       H          2.14905025  *  -2.32283886  *   2.27647964  *



          CARTESIAN COORDINATES 

    NO.       ATOM           X           Y           Z

     1         C         -0.5995     -0.3330     -0.3021
     2         C          0.8342     -0.1596      0.1316
     3         C         -0.8948      0.2527     -1.6467
     4         C         -1.5214      0.3019      0.6999
     5         C          1.7360      0.6477     -0.6815
     6         C          0.0073      0.9359     -2.3622
     7         C          1.3467      1.1603     -1.8601
     8         C         -2.5072     -0.3605      1.2923
     9         C          1.7194     -1.3244      2.2910
    10         C          1.2787     -0.7452      1.2212
    11         H         -0.8024     -1.4323     -0.3732
    12         H         -1.9136      0.0956     -2.0185
    13         H         -1.3313      1.3599      0.9146
    14         H          2.7476      0.8125     -0.2944
    15         H         -0.2412      1.3467     -3.3464
    16         H          2.0275      1.7607     -2.4720
    17         H         -2.7203     -1.4097      1.1052
    18         H         -3.1731      0.1053      2.0124
    19         H          1.6845     -0.8479      3.2674
    20         H          2.1491     -2.3228      2.2765

  H: (PM3): J. J. P. STEWART, J. COMP. CHEM. 10, 209 (1989).
  C: (PM3): J. J. P. STEWART, J. COMP. CHEM. 10, 209 (1989).

           Empirical Formula: C10 H10  =    20 atoms



      MOLECULAR POINT GROUP   :   C1  


      RHF CALCULATION, NO. OF DOUBLY OCCUPIED LEVELS = 25



          HEAT OF FORMATION =      93.530775 KCALS/MOLE


          CARTESIAN COORDINATE DERIVATIVES

   NUMBER  ATOM         X            Y            Z

     1       C     -0.000947    -0.001830    -0.000070
     2       C     -0.000418     0.005238     0.002758
     3       C      0.000365     0.002132    -0.000397
     4       C      0.011081     0.022314     0.003951
     5       C      0.000864    -0.003991     0.007800
     6       C     -0.001100    -0.001708    -0.002406
     7       C     -0.002767     0.005296    -0.001789
     8       C     -0.009680    -0.021582    -0.000580
     9       C     -0.000087    -0.003565     0.000832
    10       C     -0.003774     0.002423     0.005423
    11       H      0.001928     0.000775     0.001379
    12       H      0.004475     0.000087    -0.004540
    13       H      0.013380     0.005519    -0.002337
    14       H     -0.001997     0.002992     0.006233
    15       H     -0.003456     0.001073     0.001208
    16       H     -0.002627    -0.003417    -0.003860
    17       H     -0.003591    -0.004243    -0.001544
    18       H     -0.000756     0.002033    -0.002726
    19       H      0.000873    -0.007673    -0.004104
    20       H     -0.001768    -0.001873    -0.005232



          GRADIENT NORM =   0.04413

          MOLECULAR WEIGHT =  130.19



          ROTATIONAL CONSTANTS IN CM(-1)

          A =    0.05595898   B =    0.04435166   C =    0.02642972



           PRINCIPAL MOMENTS OF INERTIA IN UNITS OF 10**(-40)*GRAM-CM**2

          A =      500.2370   B =      631.1545   C =     1059.1391


          ORIENTATION OF MOLECULE IN FORCE CALCULATION

    NO.       ATOM         X         Y         Z

     1          C      -0.7799   -0.1482   -0.2332
     2          C       0.7279   -0.1482   -0.2332
     3          C      -1.3802    1.2222   -0.2332
     4          C      -1.2953   -0.8870    0.9691
     5          C       1.4442    1.1141   -0.0932
     6          C      -0.6498    2.3418   -0.1593
     7          C       0.7940    2.2888   -0.0632
     8          C      -2.1383   -1.9083    0.8801
     9          C       2.0568   -2.3734   -0.5252
    10          C       1.3967   -1.2704   -0.3781
    11          H      -1.1197   -0.6534   -1.1734
    12          H      -2.4739    1.2603   -0.2902
    13          H      -0.9311   -0.5270    1.9384
    14          H       2.5364    1.0652   -0.0212
    15          H      -1.1219    3.3297   -0.1673
    16          H       1.3343    3.2357    0.0354
    17          H      -2.5153   -2.2923   -0.0642
    18          H      -2.5107   -2.4354    1.7532
    19          H       2.3593   -2.9878    0.3190
    20          H       2.3464   -2.7517   -1.5024


    FIRST DERIVATIVES WILL BE USED IN THE CALCULATION OF SECOND DERIVATIVES

          ESTIMATED TIME TO COMPLETE CALCULATION =        1.88 SECONDS

    FOR POINT-GROUP C1   THERE ARE   1 UNIQUE SYMMETRY FUNCTIONS.

 STEP:   1 TIME =     0.02 SECS, INTEGRAL =      0.02 TIME LEFT: 172799.97
 STEP:   2 TIME =     0.02 SECS, INTEGRAL =      0.04 TIME LEFT: 172799.95
 STEP:   3 TIME =     0.02 SECS, INTEGRAL =      0.06 TIME LEFT: 172799.93
 STEP:   4 TIME =     0.02 SECS, INTEGRAL =      0.08 TIME LEFT: 172799.91
 STEP:   5 TIME =     0.02 SECS, INTEGRAL =      0.10 TIME LEFT: 172799.89
 STEP:   6 TIME =     0.02 SECS, INTEGRAL =      0.12 TIME LEFT: 172799.87
 STEP:   7 TIME =     0.02 SECS, INTEGRAL =      0.14 TIME LEFT: 172799.85
 STEP:   8 TIME =     0.02 SECS, INTEGRAL =      0.16 TIME LEFT: 172799.83
 STEP:   9 TIME =     0.02 SECS, INTEGRAL =      0.18 TIME LEFT: 172799.81
 STEP:  10 TIME =     0.02 SECS, INTEGRAL =      0.20 TIME LEFT: 172799.79
 STEP:  11 TIME =     0.02 SECS, INTEGRAL =      0.22 TIME LEFT: 172799.77
 STEP:  12 TIME =     0.02 SECS, INTEGRAL =      0.24 TIME LEFT: 172799.75
 STEP:  13 TIME =     0.02 SECS, INTEGRAL =      0.26 TIME LEFT: 172799.73
 STEP:  14 TIME =     0.02 SECS, INTEGRAL =      0.28 TIME LEFT: 172799.71
 STEP:  15 TIME =     0.02 SECS, INTEGRAL =      0.30 TIME LEFT: 172799.70
 STEP:  16 TIME =     0.02 SECS, INTEGRAL =      0.32 TIME LEFT: 172799.68
 STEP:  17 TIME =     0.02 SECS, INTEGRAL =      0.34 TIME LEFT: 172799.66
 STEP:  18 TIME =     0.02 SECS, INTEGRAL =      0.36 TIME LEFT: 172799.64
 STEP:  19 TIME =     0.02 SECS, INTEGRAL =      0.38 TIME LEFT: 172799.62
 STEP:  20 TIME =     0.02 SECS, INTEGRAL =      0.39 TIME LEFT: 172799.60
 STEP:  21 TIME =     0.02 SECS, INTEGRAL =      0.41 TIME LEFT: 172799.58
 STEP:  22 TIME =     0.02 SECS, INTEGRAL =      0.43 TIME LEFT: 172799.56
 STEP:  23 TIME =     0.02 SECS, INTEGRAL =      0.45 TIME LEFT: 172799.54
 STEP:  24 TIME =     0.02 SECS, INTEGRAL =      0.47 TIME LEFT: 172799.52
 STEP:  25 TIME =     0.02 SECS, INTEGRAL =      0.49 TIME LEFT: 172799.50
 STEP:  26 TIME =     0.02 SECS, INTEGRAL =      0.51 TIME LEFT: 172799.48
 STEP:  27 TIME =     0.02 SECS, INTEGRAL =      0.53 TIME LEFT: 172799.46
 STEP:  28 TIME =     0.02 SECS, INTEGRAL =      0.55 TIME LEFT: 172799.45
 STEP:  29 TIME =     0.02 SECS, INTEGRAL =      0.57 TIME LEFT: 172799.43
 STEP:  30 TIME =     0.02 SECS, INTEGRAL =      0.59 TIME LEFT: 172799.41
 STEP:  31 TIME =     0.02 SECS, INTEGRAL =      0.61 TIME LEFT: 172799.39
 STEP:  32 TIME =     0.02 SECS, INTEGRAL =      0.62 TIME LEFT: 172799.37
 STEP:  33 TIME =     0.02 SECS, INTEGRAL =      0.64 TIME LEFT: 172799.35
 STEP:  34 TIME =     0.02 SECS, INTEGRAL =      0.66 TIME LEFT: 172799.33
 STEP:  35 TIME =     0.02 SECS, INTEGRAL =      0.68 TIME LEFT: 172799.31
 STEP:  36 TIME =     0.02 SECS, INTEGRAL =      0.71 TIME LEFT: 172799.29
 STEP:  37 TIME =     0.02 SECS, INTEGRAL =      0.73 TIME LEFT: 172799.26
 STEP:  38 TIME =     0.02 SECS, INTEGRAL =      0.75 TIME LEFT: 172799.24
 STEP:  39 TIME =     0.02 SECS, INTEGRAL =      0.77 TIME LEFT: 172799.22
 STEP:  40 TIME =     0.02 SECS, INTEGRAL =      0.79 TIME LEFT: 172799.20
 STEP:  41 TIME =     0.02 SECS, INTEGRAL =      0.81 TIME LEFT: 172799.18
 STEP:  42 TIME =     0.02 SECS, INTEGRAL =      0.84 TIME LEFT: 172799.16
 STEP:  43 TIME =     0.02 SECS, INTEGRAL =      0.86 TIME LEFT: 172799.14
 STEP:  44 TIME =     0.02 SECS, INTEGRAL =      0.88 TIME LEFT: 172799.12
 STEP:  45 TIME =     0.02 SECS, INTEGRAL =      0.90 TIME LEFT: 172799.09
 STEP:  46 TIME =     0.02 SECS, INTEGRAL =      0.92 TIME LEFT: 172799.07
 STEP:  47 TIME =     0.02 SECS, INTEGRAL =      0.93 TIME LEFT: 172799.06
 STEP:  48 TIME =     0.02 SECS, INTEGRAL =      0.96 TIME LEFT: 172799.04
 STEP:  49 TIME =     0.02 SECS, INTEGRAL =      0.98 TIME LEFT: 172799.02
 STEP:  50 TIME =     0.02 SECS, INTEGRAL =      1.00 TIME LEFT: 172799.00
 STEP:  51 TIME =     0.02 SECS, INTEGRAL =      1.02 TIME LEFT: 172798.98
 STEP:  52 TIME =     0.02 SECS, INTEGRAL =      1.04 TIME LEFT: 172798.95
 STEP:  53 TIME =     0.02 SECS, INTEGRAL =      1.06 TIME LEFT: 172798.93
 STEP:  54 TIME =     0.02 SECS, INTEGRAL =      1.08 TIME LEFT: 172798.91
 STEP:  55 TIME =     0.02 SECS, INTEGRAL =      1.10 TIME LEFT: 172798.89
 STEP:  56 TIME =     0.02 SECS, INTEGRAL =      1.12 TIME LEFT: 172798.87
 STEP:  57 TIME =     0.02 SECS, INTEGRAL =      1.14 TIME LEFT: 172798.85
 STEP:  58 TIME =     0.02 SECS, INTEGRAL =      1.17 TIME LEFT: 172798.82
 STEP:  59 TIME =     0.02 SECS, INTEGRAL =      1.19 TIME LEFT: 172798.80
 STEP:  60 TIME =     0.02 SECS, INTEGRAL =      1.21 TIME LEFT: 172798.79

(To convert to Hartree/Bohr^2, multiply by (10^(-21) x N x a0^2)/(4.184 x 627.51) =  0.0642)


           FORCE MATRIX IN MILLIDYNES/ANGSTROM


                  C  1       C  2       C  3       C  4       C  5       C  6
 ------------------------------------------------------------------------------
     C    1  15.014928
     C    2   4.218166  18.683097
     C    3   4.635743   0.677127  17.981779
     C    4   4.460175   0.693547   0.772341  18.038045
     C    5   0.588877   5.299495   0.207680   0.029957  18.290943
     C    6   0.813485   0.175234  10.253651   0.046469   1.178610  18.373519
     C    7   0.129981   1.117010   1.176190   0.021900   9.961348   5.688547
     C    8   0.799883   0.041318   0.042961  11.100341   0.005044   0.006385
     C    9   0.064750   0.772525   0.009841   0.007574   0.104400   0.013491
     C   10   0.865576  10.713067   0.059785   0.053491   1.264042   0.070991
     H   11   4.120461   0.399020   0.392485   0.458190   0.027506   0.039199
     H   12   0.426439   0.046336   4.830122   0.019025   0.011332   0.443197
     H   13   0.436488   0.016130   0.012030   4.820395   0.002272   0.003537
     H   14   0.040680   0.446546   0.010961   0.004992   4.838414   0.124762
     H   15   0.121824   0.003132   0.442437   0.018344   0.048759   4.851888
     H   16   0.004016   0.118067   0.048367   0.001081   0.440365   0.435465
     H   17   0.099522   0.010563   0.013483   0.490521   0.001921   0.002593
     H   18   0.139473   0.017267   0.020024   0.460588   0.001541   0.003023
     H   19   0.066915   0.042563   0.001629   0.010598   0.076034   0.006020
     H   20   0.066731   0.044331   0.002081   0.010483   0.076220   0.005959


                  C  7       C  8       C  9       C 10       H 11       H 12
 ------------------------------------------------------------------------------
     C    7  18.270130
     C    8   0.002140  18.031473
     C    9   0.033545   0.003745  18.120539
     C   10   0.177067   0.006433  11.905243  24.688166
     H   11   0.012537   0.049108   0.006469   0.036750   4.568863
     H   12   0.126213   0.004037   0.002347   0.009412   0.031356   5.202820
     H   13   0.002590   0.452515   0.000658   0.004129   0.038013   0.003669
     H   14   0.439674   0.001240   0.004996   0.039532   0.004507   0.009599
     H   15   0.436088   0.002035   0.000478   0.001031   0.015070   0.067016
     H   16   4.862194   0.000600   0.005848   0.008102   0.000952   0.007629
     H   17   0.000808   5.065909   0.001248   0.001431   0.029593   0.001122
     H   18   0.001275   5.104639   0.001125   0.001733   0.002584   0.000909
     H   19   0.005749   0.001674   5.004542   0.479105   0.006991   0.002398
     H   20   0.005892   0.002137   5.001693   0.479116   0.007019   0.002358


                  H 13       H 14       H 15       H 16       H 17       H 18
 ------------------------------------------------------------------------------
     H   13   5.186459
     H   14   0.000881   5.206186
     H   15   0.000799   0.007276   5.215388
     H   16   0.000568   0.064278   0.031687   5.225389
     H   17   0.120371   0.000286   0.000854   0.000212   5.462021
     H   18   0.081208   0.000427   0.001275   0.000168   0.424178   5.492217
     H   19   0.000798   0.001598   0.000286   0.005797   0.000436   0.001068
     H   20   0.000356   0.001503   0.000256   0.005751   0.000843   0.000409


                  H 19       H 20
 ------------------------------
     H   19   5.384495
     H   20   0.407974   5.382123


          HEAT OF FORMATION =      93.530775 KCALS/MOLE

          ZERO POINT ENERGY     102.435 KCAL/MOL


           NORMAL COORDINATE ANALYSIS (Total motion = 1 Angstrom)


   Root No.       1         2         3         4         5         6         7         8

                 1 A       2 A       3 A       4 A       5 A       6 A       7 A       8 A   

                  34.2      40.8     138.1     151.2     250.2     317.3     360.3     362.2
  
           1    0.0058   -0.0106    0.0058   -0.0257    0.0197   -0.0126   -0.0016    0.0086
           2   -0.0152    0.0105   -0.0022    0.0030   -0.0118    0.0078    0.0086    0.0153
           3   -0.0048   -0.0048   -0.0367   -0.0152   -0.0007   -0.0307    0.0345   -0.0141
           4    0.0058   -0.0103    0.0062   -0.0264    0.0205   -0.0129   -0.0053    0.0057
           5   -0.0067   -0.0002    0.0065   -0.0200   -0.0005   -0.0035   -0.0068   -0.0241
           6    0.0059    0.0061   -0.0406   -0.0257    0.0126    0.0171   -0.0029    0.0018
           7    0.0003    0.0002   -0.0049   -0.0031    0.0044   -0.0048   -0.0066   -0.0220
           8   -0.0173    0.0151   -0.0069    0.0146   -0.0186    0.0120    0.0044    0.0025
           9   -0.0425   -0.0289   -0.0244   -0.0009   -0.0094   -0.0207   -0.0195    0.0275
          10    0.0026   -0.0181    0.0347   -0.0295   -0.0299    0.0216    0.0176    0.0263
          11    0.0154    0.0315    0.0073    0.0231    0.0280   -0.0088    0.0069    0.0394
          12    0.0128    0.0049   -0.0177   -0.0038    0.0028   -0.0279    0.0406    0.0006
          13   -0.0034   -0.0031   -0.0031   -0.0068    0.0068   -0.0039   -0.0042   -0.0179
          14   -0.0057   -0.0069    0.0082   -0.0299    0.0126   -0.0073   -0.0059   -0.0173
          15    0.0453    0.0288   -0.0156   -0.0248   -0.0314   -0.0069   -0.0318    0.0320
          16   -0.0063    0.0078   -0.0141    0.0127   -0.0119    0.0025   -0.0054   -0.0272
          17   -0.0142    0.0095   -0.0050    0.0023   -0.0119    0.0056    0.0028    0.0044
          18   -0.0238   -0.0180    0.0351    0.0289    0.0350    0.0141   -0.0129    0.0073
          19   -0.0096    0.0052   -0.0143    0.0125   -0.0092    0.0035   -0.0084   -0.0256
          20   -0.0087   -0.0020    0.0009   -0.0210    0.0035   -0.0035   -0.0095   -0.0182
          21    0.0315    0.0175    0.0437    0.0142   -0.0001   -0.0045    0.0312   -0.0287
          22   -0.0273    0.0701    0.0188   -0.0044   -0.0080    0.0108    0.0153    0.0301
          23    0.0378   -0.0418    0.0179    0.0010    0.0105   -0.0021    0.0146    0.0420
          24    0.0388    0.0120    0.0180    0.0150   -0.0045    0.0143   -0.0322   -0.0267
          25    0.0210   -0.0285   -0.0272    0.0675   -0.0046    0.0008    0.0060    0.0170
          26    0.0092   -0.0083   -0.0238    0.0302   -0.0124    0.0104   -0.0009   -0.0221
          27   -0.0447   -0.0137    0.0374    0.0163   -0.0172   -0.0183   -0.0025   -0.0026
          28    0.0131   -0.0184    0.0007   -0.0109    0.0226   -0.0159   -0.0127    0.0012
          29    0.0011   -0.0036    0.0000   -0.0125   -0.0014   -0.0133   -0.0139   -0.0296
          30   -0.0191   -0.0039   -0.0163   -0.0143    0.0253    0.0810    0.0137    0.0002
          31    0.0131   -0.0087   -0.0023   -0.0432    0.0401   -0.0040   -0.0120   -0.0015
          32   -0.0424   -0.0021   -0.0126    0.0056   -0.0289    0.0122   -0.0103    0.0246
          33    0.0074    0.0014   -0.0273   -0.0096    0.0013   -0.0351    0.0463   -0.0149
          34    0.0024    0.0019   -0.0035   -0.0022    0.0048   -0.0037   -0.0034   -0.0262
          35   -0.0218    0.0239   -0.0133    0.0331   -0.0324    0.0207    0.0026   -0.0199
          36   -0.0839   -0.0555   -0.0535   -0.0058   -0.0278   -0.0330   -0.0804    0.0920
          37    0.0250   -0.0968    0.0730   -0.0547   -0.1076    0.0915    0.0280    0.0203
          38    0.0196    0.1088    0.0070    0.0613    0.0892   -0.0391   -0.0345    0.0507
          39    0.0028    0.0058   -0.0317   -0.0084    0.0092   -0.0420    0.0504   -0.0020
          40   -0.0059   -0.0052   -0.0017   -0.0057    0.0112   -0.0027   -0.0012   -0.0205
          41   -0.0022   -0.0159    0.0158   -0.0463    0.0310   -0.0131   -0.0021   -0.0022
          42    0.0840    0.0542   -0.0324   -0.0495   -0.0862   -0.0292   -0.0742    0.0808
          43   -0.0091    0.0164   -0.0204    0.0272   -0.0259    0.0086    0.0040   -0.0226
          44   -0.0158    0.0134   -0.0077    0.0094   -0.0183    0.0089    0.0067    0.0066
          45   -0.0501   -0.0355    0.0653    0.0560    0.0748    0.0459   -0.0646    0.0447
          46   -0.0175    0.0100   -0.0222    0.0288   -0.0180    0.0122   -0.0083   -0.0177
          47   -0.0072   -0.0064    0.0009   -0.0317    0.0106   -0.0064   -0.0149   -0.0180
          48    0.0599    0.0340    0.0866    0.0276   -0.0191   -0.0252    0.0834   -0.0700
          49   -0.0503    0.1496   -0.0204    0.0201    0.0725   -0.0691    0.0269    0.0572
          50    0.0346   -0.1190    0.0179   -0.0385   -0.0493    0.0201    0.0883    0.0572
          51    0.0493    0.0117    0.0338    0.0214   -0.0124    0.0377   -0.0680   -0.0442
          52   -0.0307    0.0689    0.0439   -0.0058   -0.0683    0.0817   -0.0000    0.0068
          53    0.0610   -0.0296    0.0279    0.0204    0.0542   -0.0178   -0.0525    0.0297
          54    0.0514    0.0188    0.0348    0.0262   -0.0039    0.0354   -0.0803   -0.0452
          55    0.0175   -0.0413   -0.0678    0.0945    0.0194    0.0486    0.0665   -0.0111
          56   -0.0128   -0.0226   -0.0009    0.0673   -0.0381   -0.0674    0.0138   -0.0432
          57   -0.0595   -0.0194    0.0689    0.0338   -0.0449   -0.0934   -0.0137   -0.0076
          58    0.0315   -0.0245   -0.0110    0.1092   -0.0528   -0.0316   -0.0367    0.0609
          59    0.0385    0.0019   -0.0685    0.0299    0.0047    0.1149   -0.0026    0.0052
          60   -0.0530   -0.0164    0.0597    0.0289   -0.0385   -0.0695   -0.0148   -0.0004


   Root No.       9        10        11        12        13        14        15        16

                 9 A      10 A      11 A      12 A      13 A      14 A      15 A      16 A   

                 450.2     494.0     546.7     579.9     581.7     651.4     674.0     764.5
  
           1    0.0079    0.0052    0.0020    0.0145   -0.0310    0.0055   -0.0077    0.0061
           2    0.0089    0.0154    0.0063    0.0349    0.0083   -0.0108   -0.0279    0.0006
           3   -0.0049    0.0178   -0.0061    0.0099   -0.0019   -0.0059   -0.0271    0.0017
           4    0.0128    0.0124    0.0024    0.0242   -0.0127    0.0129   -0.0273   -0.0013
           5   -0.0111   -0.0280    0.0030    0.0082   -0.0041    0.0043   -0.0193   -0.0026
           6   -0.0268    0.0295    0.0150    0.0479   -0.0105   -0.0123    0.0691    0.0311
           7    0.0022    0.0157   -0.0114   -0.0433   -0.0363    0.0182    0.0319    0.0081
           8    0.0133    0.0322   -0.0021    0.0072    0.0113   -0.0224   -0.0184    0.0071
           9    0.0379   -0.0303   -0.0062    0.0080    0.0008    0.0066    0.0201   -0.0288
          10   -0.0082   -0.0147   -0.0006   -0.0093   -0.0238   -0.0448    0.0100    0.0041
          11   -0.0035   -0.0097    0.0073    0.0061    0.0214    0.0362    0.0155   -0.0066
          12   -0.0219   -0.0018   -0.0147   -0.0292    0.0104    0.0054   -0.0155    0.0052
          13   -0.0136   -0.0320    0.0112    0.0480    0.0077    0.0061   -0.0436    0.0018
          14    0.0044    0.0033   -0.0044   -0.0017   -0.0277    0.0213   -0.0093   -0.0080
          15   -0.0144    0.0019    0.0174   -0.0139   -0.0028   -0.0026   -0.0095   -0.0238
          16   -0.0076   -0.0139   -0.0022   -0.0145    0.0047    0.0037    0.0124   -0.0044
          17    0.0241    0.0500   -0.0101   -0.0145   -0.0164   -0.0145   -0.0031    0.0167
          18   -0.0363    0.0205    0.0058   -0.0099   -0.0014   -0.0068   -0.0136   -0.0241
          19   -0.0139   -0.0157    0.0003   -0.0114    0.0046    0.0036    0.0046   -0.0064
          20    0.0050    0.0167   -0.0106   -0.0354   -0.0371    0.0233    0.0145   -0.0141
          21    0.0283   -0.0096   -0.0094    0.0144   -0.0025    0.0009    0.0243   -0.0134
          22   -0.0085   -0.0080    0.0043   -0.0009    0.0036    0.0018    0.0149   -0.0011
          23   -0.0061   -0.0186    0.0038   -0.0026   -0.0003   -0.0019    0.0181   -0.0032
          24    0.0116    0.0098   -0.0006    0.0056   -0.0026   -0.0005   -0.0074    0.0023
          25    0.0112    0.0188   -0.0017    0.0030   -0.0092    0.0060   -0.0079   -0.0047
          26   -0.0230   -0.0354    0.0052    0.0022   -0.0029   -0.0072    0.0105    0.0085
          27   -0.0037   -0.0054    0.0004   -0.0029    0.0002   -0.0001   -0.0052   -0.0031
          28    0.0240    0.0285   -0.0087   -0.0188    0.1014   -0.0216    0.0079   -0.0011
          29   -0.0152   -0.0203    0.0013   -0.0085    0.0614   -0.0210    0.0173    0.0070
          30    0.0219   -0.0256   -0.0097   -0.0200    0.0107    0.0001   -0.0154   -0.0038
          31   -0.0082    0.0130    0.0266    0.0613   -0.0408    0.0125    0.0099    0.0324
          32    0.0475    0.0193    0.0084    0.0566    0.0021   -0.0303   -0.0121   -0.0217
          33   -0.0193    0.0129   -0.0160   -0.0183    0.0059    0.0021   -0.0416    0.0045
          34   -0.0013    0.0192   -0.0122   -0.0425   -0.0361    0.0135    0.0292   -0.0023
          35    0.0018    0.0233   -0.0051   -0.0085    0.0346   -0.0315   -0.0149   -0.0093
          36    0.0939   -0.1081    0.0090   -0.0120    0.0168    0.0824    0.0717    0.1639
          37   -0.0278    0.0175    0.0141    0.0002    0.0188   -0.0030    0.0335    0.0097
          38    0.0186   -0.0517    0.0033   -0.0073   -0.0099    0.0050    0.0407   -0.0189
          39   -0.0217    0.0023   -0.0182   -0.0262    0.0056    0.0011   -0.0334    0.0076
          40   -0.0146   -0.0281    0.0082    0.0555    0.0073    0.0034   -0.0334   -0.0042
          41    0.0169    0.0268   -0.0060    0.0298   -0.0411    0.0275   -0.0241   -0.0116
          42    0.0138   -0.0348    0.0588   -0.1118    0.0026    0.0392   -0.1724    0.0655
          43   -0.0029   -0.0156    0.0025    0.0205    0.0410   -0.0308   -0.0110   -0.0100
          44    0.0256    0.0493   -0.0076    0.0018    0.0012   -0.0309   -0.0154    0.0160
          45   -0.1108    0.0448    0.0421   -0.0716    0.0068    0.0255   -0.0904    0.2166
          46   -0.0126    0.0145   -0.0059   -0.0360    0.0104   -0.0216    0.0298   -0.0068
          47   -0.0057    0.0061   -0.0059   -0.0202   -0.0416    0.0328    0.0025   -0.0363
          48    0.1272   -0.0683   -0.0199    0.0087    0.0053    0.0500   -0.0069    0.1992
          49   -0.0029   -0.0696   -0.0211   -0.0505   -0.0616   -0.1225    0.0029    0.0158
          50   -0.0550    0.0094    0.0047   -0.0230    0.0738    0.1069    0.0290   -0.0074
          51    0.0300    0.0235    0.0097    0.0352   -0.0072    0.0046   -0.0069   -0.0029
          52   -0.0137    0.0622    0.0371    0.0627    0.1055    0.2007    0.0350   -0.0299
          53    0.0406   -0.0575   -0.0015    0.0064   -0.1039   -0.1716    0.0118    0.0091
          54    0.0383    0.0171    0.0103    0.0391   -0.0221   -0.0183   -0.0040   -0.0024
          55    0.0669    0.0064    0.2592   -0.0493   -0.0795    0.0139   -0.0293   -0.0358
          56   -0.0277   -0.0130    0.1744    0.0067   -0.0509   -0.0114    0.0482    0.0165
          57   -0.0274    0.0168    0.0302    0.0198   -0.0097   -0.0059    0.0306    0.0140
          58   -0.0569    0.0230   -0.2559    0.0798   -0.0719    0.0366   -0.0080    0.0193
          59   -0.0252   -0.0786   -0.1616    0.0065   -0.0311    0.0162   -0.0406    0.0002
          60   -0.0239    0.0125   -0.0099    0.0189   -0.0076   -0.0005    0.0159    0.0082


   Root No.      17        18        19        20        21        22        23        24

                17 A      18 A      19 A      20 A      21 A      22 A      23 A      24 A   

                 803.0     837.5     895.2     922.1     932.3     968.4     972.5     988.0
  
           1    0.0401   -0.0022    0.0164   -0.0037   -0.0053    0.0076    0.0314    0.0031
           2   -0.0039    0.0041    0.0204   -0.0040   -0.0008    0.0026    0.0296   -0.0019
           3    0.0127    0.0091    0.0409   -0.0089   -0.0021    0.0012    0.0076   -0.0001
           4   -0.0031   -0.0073   -0.0088    0.0005    0.0012    0.0007   -0.0005    0.0019
           5    0.0050   -0.0074   -0.0033   -0.0021    0.0004   -0.0010   -0.0013    0.0011
           6   -0.0180    0.0241   -0.0138    0.0212   -0.0002    0.0104   -0.0105   -0.0018
           7    0.0537   -0.0100   -0.0072    0.0001    0.0160   -0.0094   -0.0098   -0.0066
           8   -0.0106   -0.0071   -0.0090    0.0011   -0.0066    0.0054   -0.0066    0.0028
           9    0.0148    0.0231   -0.0108    0.0049   -0.0004   -0.0361    0.0027    0.0013
          10   -0.0058    0.0038    0.0025   -0.0007   -0.0435    0.0026   -0.0082    0.0006
          11    0.0056    0.0046    0.0071   -0.0010    0.0368   -0.0032   -0.0012   -0.0007
          12   -0.0087   -0.0127   -0.0125   -0.0003    0.0031    0.0015   -0.0090   -0.0000
          13   -0.0035   -0.0152   -0.0298    0.0027    0.0089   -0.0061   -0.0317   -0.0079
          14   -0.0329    0.0031   -0.0069    0.0010    0.0015   -0.0001   -0.0103   -0.0032
          15   -0.0046   -0.0338    0.0059    0.0004   -0.0035   -0.0396   -0.0060    0.0020
          16   -0.0228    0.0083    0.0120   -0.0010   -0.0040   -0.0002    0.0093    0.0022
          17    0.0359   -0.0206   -0.0239    0.0024    0.0021   -0.0000   -0.0200   -0.0007
          18    0.0113    0.0231   -0.0133    0.0023    0.0093    0.0288   -0.0154    0.0003
          19   -0.0289    0.0126    0.0102   -0.0001   -0.0058    0.0027    0.0094    0.0015
          20   -0.0511    0.0174    0.0129   -0.0000   -0.0056    0.0016    0.0084   -0.0014
          21   -0.0096   -0.0312    0.0095   -0.0100   -0.0007    0.0275    0.0130   -0.0026
          22   -0.0002    0.0055    0.0057   -0.0006   -0.0118    0.0015   -0.0089   -0.0028
          23    0.0016    0.0074    0.0099   -0.0018    0.0114   -0.0037   -0.0056    0.0018
          24   -0.0040   -0.0074   -0.0291    0.0092   -0.0024    0.0008    0.0322    0.0007
          25   -0.0200    0.0014   -0.0006    0.0008   -0.0004   -0.0013   -0.0023   -0.0772
          26    0.0335   -0.0018    0.0007   -0.0090   -0.0001    0.0006    0.0073   -0.0432
          27    0.0072   -0.0054    0.0110    0.0645    0.0002    0.0042   -0.0012   -0.0052
          28   -0.0102    0.0034    0.0022   -0.0006    0.0007   -0.0005   -0.0012    0.0282
          29    0.0217    0.0002    0.0032    0.0073    0.0007    0.0011    0.0019    0.0174
          30    0.0040   -0.0011   -0.0060   -0.0605   -0.0003   -0.0060    0.0032    0.0024
          31    0.0492    0.0139    0.0092    0.0145   -0.0157    0.0575    0.1167    0.0205
          32    0.0023    0.0275    0.0002    0.0137   -0.0128   -0.0434    0.1309   -0.0150
          33    0.0046   -0.0094    0.0531   -0.0245    0.0075    0.0083   -0.0766    0.0010
          34    0.0567    0.0006   -0.0100    0.0018    0.0144   -0.0210   -0.0096   -0.0061
          35   -0.0799    0.0079   -0.0240    0.0064   -0.0180   -0.0069   -0.0541    0.0067
          36   -0.0763   -0.1724    0.0332   -0.0230    0.0194    0.1811   -0.0358   -0.0040
          37   -0.0394    0.0014   -0.0281    0.0179    0.3168   -0.0198    0.0361   -0.0019
          38    0.0113    0.0084   -0.0577    0.0183   -0.2622   -0.0001    0.0065    0.0005
          39    0.0023   -0.0126    0.0243   -0.0146   -0.0212    0.0087   -0.0283    0.0004
          40   -0.0066   -0.0319   -0.0285    0.0039    0.0074   -0.0221   -0.0352   -0.0071
          41   -0.0321   -0.0303   -0.0363    0.0063    0.0114   -0.0288   -0.0529   -0.0059
          42    0.0422    0.1929   -0.0418   -0.0137    0.0262    0.1823    0.0082   -0.0132
          43   -0.0227    0.0029   -0.0092    0.0013   -0.0184    0.0309   -0.0064    0.0205
          44    0.0343   -0.0244   -0.0344    0.0036   -0.0056    0.0135   -0.0283    0.0080
          45   -0.0575   -0.0695    0.0825   -0.0079   -0.0526   -0.1504    0.0694    0.0008
          46    0.0164   -0.0039    0.0226   -0.0061   -0.0147    0.0343    0.0428    0.0174
          47   -0.0780    0.0062    0.0100   -0.0033    0.0001    0.0005   -0.0049   -0.0121
          48   -0.0158    0.1670   -0.0353    0.0551   -0.0079   -0.1356   -0.0482    0.0111
          49   -0.0538   -0.0154   -0.0751    0.0272    0.2133   -0.0186    0.0933    0.0099
          50   -0.0008   -0.0177   -0.1117    0.0333   -0.1884    0.0121    0.0679   -0.0065
          51    0.0195    0.0124    0.0568   -0.0172   -0.0108    0.0023   -0.0407   -0.0011
          52    0.0703    0.0299    0.0999   -0.0299    0.0187   -0.0127   -0.0626    0.0104
          53   -0.0102    0.0369    0.1176   -0.0311    0.0013    0.0049   -0.1072   -0.0115
          54    0.0198    0.0208    0.0789   -0.0221    0.0047    0.0003   -0.0537   -0.0017
          55   -0.0291   -0.0250    0.0099    0.1309    0.0002    0.0017   -0.0213    0.3079
          56    0.0320    0.0051   -0.0383   -0.2048   -0.0003   -0.0121    0.0115    0.1852
          57    0.0068    0.0099   -0.0224   -0.1314   -0.0002   -0.0067    0.0082    0.0228
          58   -0.0329    0.0232   -0.0230   -0.1304    0.0018   -0.0004   -0.0052    0.3077
          59    0.0618   -0.0182    0.0429    0.2301    0.0013    0.0215    0.0037    0.1833
          60   -0.0060    0.0079   -0.0130   -0.0729    0.0002   -0.0039    0.0000    0.0213


   Root No.      25        26        27        28        29        30        31        32

                25 A      26 A      27 A      28 A      29 A      30 A      31 A      32 A   

                1000.5    1024.9    1036.2    1076.6    1135.2    1149.7    1153.2    1176.6
  
           1    0.0191    0.0058   -0.0094    0.0082    0.0018    0.0029    0.0085   -0.0211
           2    0.0095   -0.0194    0.0197   -0.0018   -0.0057    0.0135    0.0001   -0.0220
           3    0.0023   -0.0074    0.0096    0.0048   -0.0104    0.0381    0.0064    0.0311
           4    0.0023    0.0043   -0.0064    0.0119    0.0170    0.0061   -0.0111   -0.0103
           5    0.0029    0.0030   -0.0050   -0.0013    0.0019    0.0004   -0.0053    0.0044
           6   -0.0162    0.0010    0.0052   -0.0047    0.0063   -0.0000    0.0025   -0.0106
           7   -0.0144   -0.0233    0.0264    0.0134   -0.0132    0.0030   -0.0006    0.0015
           8    0.0038    0.0115   -0.0107    0.0032   -0.0087   -0.0005    0.0011   -0.0043
           9   -0.0271    0.0128   -0.0262   -0.0006   -0.0023   -0.0021   -0.0006   -0.0098
          10   -0.0012    0.0232    0.0197   -0.0020   -0.0027    0.0005   -0.0010   -0.0055
          11   -0.0017   -0.0182   -0.0167    0.0016    0.0026    0.0000    0.0010   -0.0087
          12    0.0009    0.0008   -0.0006   -0.0020    0.0072   -0.0488   -0.0121    0.0218
          13   -0.0182   -0.0049    0.0081   -0.0335   -0.0114   -0.0045    0.0004    0.0091
          14   -0.0077    0.0003    0.0011    0.0020    0.0072   -0.0032    0.0040    0.0059
          15    0.0359   -0.0030    0.0011   -0.0002   -0.0018    0.0001   -0.0002    0.0037
          16   -0.0007   -0.0009    0.0019    0.0378   -0.0019    0.0027    0.0040   -0.0062
          17   -0.0036    0.0112   -0.0129   -0.0293   -0.0022   -0.0055    0.0031    0.0072
          18    0.0409   -0.0085    0.0139    0.0035   -0.0012    0.0015    0.0006    0.0026
          19    0.0117    0.0052   -0.0076   -0.0364    0.0050   -0.0007    0.0004    0.0004
          20    0.0091    0.0036   -0.0049   -0.0232    0.0017   -0.0030    0.0043    0.0008
          21   -0.0443    0.0054   -0.0064   -0.0056    0.0004   -0.0008   -0.0000   -0.0016
          22   -0.0037   -0.0389   -0.0240    0.0012    0.0006   -0.0034   -0.0006   -0.0067
          23   -0.0032    0.0323    0.0203   -0.0009   -0.0015   -0.0031   -0.0016   -0.0062
          24    0.0063   -0.0012    0.0029    0.0019   -0.0024    0.0117    0.0030   -0.0243
          25    0.0015    0.0032   -0.0013   -0.0029   -0.0012   -0.0009    0.0001    0.0024
          26    0.0044    0.0029   -0.0025    0.0084    0.0044    0.0017   -0.0011   -0.0043
          27   -0.0020    0.0008   -0.0003    0.0009    0.0007    0.0002   -0.0001   -0.0010
          28   -0.0027   -0.0044    0.0044   -0.0047   -0.0034    0.0002    0.0011   -0.0003
          29   -0.0013   -0.0022    0.0023   -0.0009   -0.0018   -0.0002    0.0007    0.0012
          30    0.0047   -0.0010    0.0001    0.0005   -0.0009    0.0008   -0.0000    0.0020
          31    0.0815    0.0797   -0.1594    0.0415   -0.1409   -0.1247   -0.0877    0.1301
          32   -0.0371   -0.1235    0.1956    0.0036    0.0658   -0.1500   -0.0240    0.1032
          33    0.0052    0.0222   -0.0311   -0.0085    0.0018    0.1705    0.0520   -0.0876
          34   -0.0225   -0.0201    0.0213    0.0236   -0.0194    0.0036   -0.0082   -0.0008
          35   -0.0296    0.0240   -0.0033    0.2007   -0.1373    0.0369   -0.2133   -0.0182
          36    0.1047   -0.0331    0.0637    0.0127   -0.0105    0.0147   -0.0064    0.0201
          37   -0.0107   -0.0578   -0.0666    0.0053   -0.0070    0.0954    0.0260    0.1749
          38   -0.0169    0.0472    0.0472   -0.0067   -0.0176    0.1376    0.0325    0.2233
          39    0.0099    0.0067    0.0085   -0.0016    0.0161   -0.1358   -0.0341   -0.1280
          40   -0.0069   -0.0058    0.0085   -0.0287   -0.0057   -0.0029   -0.0036    0.0111
          41   -0.0241   -0.0115    0.0222    0.2110    0.1667    0.0427   -0.0744    0.0305
          42   -0.1471    0.0064    0.0041    0.0078    0.0149    0.0042   -0.0029   -0.0019
          43    0.0321    0.0580   -0.0620    0.1804    0.0990   -0.0813    0.2278    0.0420
          44    0.0103    0.0409   -0.0452    0.0379    0.0447   -0.0466    0.1110    0.0310
          45   -0.1559    0.0295   -0.0437    0.0089    0.0104   -0.0043    0.0201    0.0043
          46    0.0310    0.0470   -0.0692   -0.1014    0.2228    0.0503   -0.1681    0.0355
          47   -0.0243   -0.0177    0.0276    0.0127   -0.1229   -0.0333    0.1028   -0.0191
          48    0.1707   -0.0131    0.0136   -0.0036    0.0087    0.0028   -0.0050    0.0024
          49    0.0096    0.1259    0.0789    0.0017   -0.0132    0.0401    0.0070   -0.0314
          50    0.0055   -0.1191   -0.0603    0.0078   -0.0084    0.0442    0.0110   -0.0382
          51   -0.0030   -0.0055   -0.0050   -0.0018    0.0058   -0.0287   -0.0063   -0.0004
          52   -0.0100    0.1680    0.0917   -0.0049   -0.0005   -0.0398   -0.0125    0.0435
          53   -0.0244   -0.1256   -0.0728   -0.0016    0.0045   -0.0489   -0.0141    0.0522
          54   -0.0088   -0.0081   -0.0039   -0.0012    0.0013   -0.0343   -0.0102    0.0310
          55   -0.0154   -0.0130    0.0084   -0.0177   -0.0086   -0.0064    0.0026    0.0114
          56    0.0071   -0.0072    0.0009    0.0172    0.0143    0.0068   -0.0036   -0.0277
          57    0.0060   -0.0008   -0.0011    0.0113    0.0095    0.0053   -0.0025   -0.0193
          58   -0.0124   -0.0151    0.0074   -0.0151   -0.0129   -0.0026    0.0022    0.0217
          59   -0.0116   -0.0049    0.0005    0.0194    0.0152    0.0092   -0.0040   -0.0290
          60    0.0005   -0.0016    0.0010   -0.0058   -0.0060   -0.0028    0.0015    0.0128


   Root No.      33        34        35        36        37        38        39        40

                33 A      34 A      35 A      36 A      37 A      38 A      39 A      40 A   

                1199.4    1220.0    1258.7    1321.9    1342.0    1393.2    1474.6    1531.0
  
           1   -0.0246    0.0090    0.0228   -0.0421   -0.0078   -0.0445   -0.0825    0.0286
           2    0.0236   -0.0057    0.0363    0.0433    0.0237   -0.0516    0.0395   -0.0177
           3   -0.0002   -0.0093   -0.0412   -0.0020   -0.0231    0.0267    0.0031   -0.0011
           4   -0.0312    0.0163    0.0116   -0.0070    0.0245    0.0584    0.1044   -0.0451
           5   -0.0086   -0.0321    0.0145    0.0069    0.0172    0.0353    0.0204    0.1372
           6   -0.0044   -0.0025    0.0092    0.0005    0.0044    0.0000    0.0005    0.0168
           7    0.0086   -0.0163    0.0020    0.0294    0.0055   -0.0083    0.0203   -0.0053
           8    0.0093    0.0155    0.0086   -0.0192    0.0115    0.0428   -0.0560   -0.0149
           9    0.0039    0.0001    0.0075    0.0036    0.0033   -0.0038    0.0005   -0.0011
          10    0.0070   -0.0015    0.0047    0.0102   -0.0146    0.0058    0.0045   -0.0034
          11   -0.0045   -0.0012    0.0006   -0.0001   -0.0238    0.0099   -0.0026    0.0025
          12   -0.0050    0.0182    0.0438   -0.0002    0.0226   -0.0205   -0.0024   -0.0004
          13    0.0055   -0.0003   -0.0182    0.0095   -0.0143   -0.0266   -0.0379   -0.0323
          14   -0.0092   -0.0125   -0.0071    0.0252    0.0036    0.0041   -0.0637   -0.0377
          15   -0.0002   -0.0008   -0.0035    0.0025   -0.0012   -0.0007   -0.0064   -0.0060
          16    0.0164    0.0033    0.0170   -0.0002    0.0223    0.0534   -0.0632   -0.0164
          17    0.0025    0.0071   -0.0104   -0.0156   -0.0085    0.0022    0.0129    0.0172
          18    0.0007    0.0001   -0.0010   -0.0007    0.0006    0.0047   -0.0038   -0.0007
          19    0.0112    0.0191   -0.0068   -0.0296   -0.0175   -0.0261    0.0693    0.0459
          20   -0.0075    0.0074   -0.0091    0.0012   -0.0095   -0.0225    0.0053   -0.0294
          21    0.0007    0.0020    0.0000   -0.0019   -0.0015   -0.0037    0.0050    0.0015
          22    0.0000   -0.0045   -0.0125    0.0004   -0.0169    0.0134    0.0007    0.0007
          23    0.0038   -0.0056   -0.0138    0.0039   -0.0191    0.0160    0.0035   -0.0004
          24    0.0038   -0.0087   -0.0144    0.0006   -0.0060    0.0030    0.0001    0.0003
          25    0.0007   -0.0035   -0.0026    0.0150    0.0033    0.0018   -0.0154    0.0576
          26   -0.0040    0.0055    0.0053   -0.0257   -0.0041    0.0004    0.0289   -0.0951
          27   -0.0005    0.0007    0.0008   -0.0034   -0.0005    0.0000    0.0039   -0.0127
          28    0.0037    0.0078   -0.0047    0.0075   -0.0012   -0.0064   -0.0022   -0.0118
          29    0.0050   -0.0125    0.0052   -0.0089   -0.0027   -0.0040   -0.0037    0.0143
          30    0.0007   -0.0020   -0.0006   -0.0012   -0.0009    0.0002   -0.0005    0.0022
          31    0.1244   -0.0118   -0.0492    0.0794   -0.0177    0.0162    0.0392   -0.0480
          32   -0.0765    0.0070   -0.0490   -0.0531   -0.0472    0.0435   -0.0256    0.0300
          33   -0.0016   -0.0074    0.0325    0.0058    0.0184   -0.0451   -0.0041    0.0001
          34    0.0020   -0.0191    0.0027    0.0313    0.0040   -0.0166    0.0217   -0.0041
          35   -0.1738   -0.0298   -0.0253   -0.0240   -0.0599   -0.1424    0.0431    0.0323
          36   -0.0060   -0.0043   -0.0152   -0.0000   -0.0070    0.0023    0.0026    0.0000
          37   -0.0371    0.0440    0.0704   -0.0133    0.0157   -0.0243   -0.0157    0.0049
          38   -0.0222    0.0483    0.0895    0.0070    0.0280   -0.0295    0.0004   -0.0018
          39    0.0176   -0.0161   -0.0113    0.0062   -0.0081    0.0044    0.0035   -0.0020
          40    0.0136    0.0028   -0.0207    0.0059   -0.0181   -0.0321   -0.0338   -0.0331
          41    0.2283    0.0592   -0.0237   -0.0831   -0.0600   -0.0845    0.0392    0.0843
          42    0.0161    0.0034   -0.0006   -0.0059   -0.0053   -0.0088   -0.0009    0.0068
          43   -0.0794   -0.0703   -0.0417    0.0680   -0.0241   -0.0839    0.0627   -0.0199
          44   -0.0447   -0.0271   -0.0405    0.0145   -0.0332   -0.0659    0.0779    0.0188
          45   -0.0078   -0.0061   -0.0080    0.0040   -0.0053   -0.0049    0.0069   -0.0005
          46   -0.0482   -0.0718   -0.0258    0.0722   -0.0031   -0.0331   -0.0735   -0.0654
          47    0.0276    0.0615   -0.0001   -0.0590   -0.0205   -0.0237    0.0921    0.0315
          48   -0.0025   -0.0016   -0.0018    0.0016   -0.0014   -0.0039   -0.0009   -0.0023
          49    0.0169   -0.0311   -0.1056   -0.0287    0.1212   -0.0327    0.0049   -0.0029
          50    0.0065   -0.0364   -0.1351   -0.0518    0.1535   -0.0424   -0.0071    0.0027
          51   -0.0036    0.0137    0.0665    0.0323   -0.1220    0.0426    0.0026    0.0005
          52   -0.0011    0.0008   -0.0541   -0.0401    0.1345   -0.0425   -0.0080    0.0021
          53   -0.0007   -0.0002   -0.0614   -0.0369    0.1548   -0.0470    0.0033   -0.0031
          54    0.0003   -0.0016   -0.0525   -0.0381    0.1534   -0.0572   -0.0040   -0.0007
          55    0.0204   -0.0948    0.0380   -0.0453   -0.0043   -0.0022    0.0131   -0.0253
          56   -0.0317    0.1491   -0.0494    0.0689    0.0108    0.0001   -0.0147    0.0320
          57   -0.0255    0.1274   -0.0500    0.0834    0.0126    0.0013   -0.0392    0.1172
          58    0.0214   -0.0981    0.0303   -0.0470   -0.0081    0.0026    0.0144   -0.0284
          59   -0.0365    0.1755   -0.0640    0.0874    0.0120    0.0030   -0.0235    0.0597
          60    0.0163   -0.0840    0.0344   -0.0625   -0.0098   -0.0007    0.0339   -0.1047


   Root No.      41        42        43        44        45        46        47        48

                41 A      42 A      43 A      44 A      45 A      46 A      47 A      48 A   

                1830.0    1854.5    1861.0    2249.5    2842.7    3049.1    3050.9    3052.2
  
           1    0.0000   -0.0072    0.0093   -0.0038   -0.0218   -0.0001   -0.0003    0.0004
           2   -0.0113   -0.0238   -0.0087    0.0028   -0.0327    0.0001   -0.0004    0.0002
           3    0.0013    0.0109   -0.0081   -0.0006   -0.0605   -0.0002   -0.0014    0.0002
           4   -0.0033    0.0009    0.0038    0.0872   -0.0011    0.0002    0.0001   -0.0001
           5   -0.0297    0.0139    0.0161   -0.1456    0.0002   -0.0003    0.0001    0.0003
           6   -0.0029    0.0022    0.0006   -0.0186    0.0000   -0.0000   -0.0002    0.0000
           7    0.0468    0.0302    0.0440   -0.0034    0.0013   -0.0278   -0.0007    0.0156
           8    0.0902    0.0661    0.1007   -0.0017   -0.0010    0.0006    0.0001   -0.0001
           9    0.0045    0.0039    0.0038   -0.0002    0.0001   -0.0015   -0.0002    0.0008
          10    0.0130    0.0791   -0.0610   -0.0005    0.0006    0.0007   -0.0233    0.0008
          11    0.0137    0.0973   -0.0766   -0.0016    0.0005    0.0008   -0.0236    0.0007
          12   -0.0010   -0.0121    0.0102    0.0006    0.0009    0.0017   -0.0538    0.0018
          13   -0.0604    0.0179    0.0164    0.0025    0.0003   -0.0106   -0.0031   -0.0320
          14    0.1612   -0.0576   -0.0595   -0.0034    0.0001    0.0005    0.0002    0.0018
          15    0.0069   -0.0027   -0.0029    0.0000   -0.0002   -0.0007   -0.0002   -0.0021
          16   -0.0997   -0.0416   -0.0657    0.0033    0.0004    0.0110    0.0006   -0.0034
          17   -0.0688   -0.0562   -0.0830    0.0016    0.0005   -0.0218   -0.0013    0.0055
          18   -0.0079   -0.0040   -0.0063    0.0003   -0.0002    0.0002   -0.0000   -0.0001
          19    0.1253   -0.0243   -0.0188   -0.0049   -0.0002    0.0062    0.0013    0.0110
          20   -0.1303    0.0476    0.0491    0.0090    0.0000    0.0109    0.0021    0.0173
          21    0.0003    0.0012    0.0017    0.0003    0.0001    0.0011    0.0002    0.0019
          22   -0.0112   -0.0699    0.0542    0.0004    0.0000   -0.0000    0.0008   -0.0000
          23   -0.0135   -0.0850    0.0658    0.0006    0.0001   -0.0000    0.0006   -0.0000
          24   -0.0010   -0.0057    0.0041   -0.0000   -0.0005   -0.0002    0.0051   -0.0002
          25   -0.0016    0.0024    0.0022    0.0794   -0.0001   -0.0000    0.0000   -0.0000
          26    0.0029   -0.0039   -0.0035   -0.1327    0.0001    0.0000   -0.0000    0.0000
          27    0.0004   -0.0005   -0.0005   -0.0177   -0.0000    0.0000    0.0000    0.0000
          28   -0.0032   -0.0013   -0.0012   -0.1675   -0.0000   -0.0001   -0.0000   -0.0001
          29   -0.0021    0.0033    0.0029    0.2814   -0.0003    0.0000   -0.0000   -0.0003
          30   -0.0002    0.0006    0.0004    0.0370   -0.0001   -0.0000   -0.0000   -0.0000
          31    0.0160    0.0140   -0.0061    0.0080    0.2613   -0.0002    0.0025   -0.0003
          32   -0.0098    0.0112   -0.0192   -0.0057    0.3919    0.0028    0.0039   -0.0022
          33   -0.0014   -0.0130    0.0054    0.0034    0.7377    0.0027    0.0147   -0.0031
          34    0.0588    0.0390    0.0576   -0.0071   -0.0129    0.3283    0.0086   -0.1837
          35   -0.0116   -0.0238   -0.0302    0.0020   -0.0033   -0.0151   -0.0006    0.0079
          36    0.0053    0.0031    0.0039   -0.0004   -0.0024    0.0171    0.0003   -0.0096
          37    0.0011    0.0037   -0.0019   -0.0001   -0.0085   -0.0074    0.2394   -0.0079
          38   -0.0003   -0.0031    0.0014    0.0000   -0.0097   -0.0074    0.2360   -0.0078
          39    0.0123    0.0771   -0.0596   -0.0005   -0.0143   -0.0200    0.6457   -0.0214
          40   -0.0927    0.0299    0.0285    0.0101    0.0022    0.1238    0.0360    0.3750
          41   -0.0304    0.0194    0.0213   -0.0146    0.0003   -0.0041   -0.0013   -0.0137
          42   -0.0099    0.0045    0.0040   -0.0022   -0.0001    0.0083    0.0024    0.0250
          43    0.0033    0.0457    0.0601    0.0001   -0.0009   -0.1268   -0.0073    0.0373
          44   -0.0367   -0.0260   -0.0409    0.0010    0.0029    0.2618    0.0155   -0.0719
          45   -0.0006    0.0027    0.0027    0.0000   -0.0008   -0.0022   -0.0001    0.0008
          46   -0.0526    0.0431    0.0512    0.0052    0.0001   -0.0721   -0.0145   -0.1257
          47   -0.0560    0.0183    0.0183    0.0108    0.0002   -0.1279   -0.0252   -0.2140
          48   -0.0082    0.0045    0.0049    0.0007    0.0000   -0.0132   -0.0026   -0.0226
          49   -0.0002   -0.0042    0.0031    0.0003    0.0028   -0.0001    0.0037   -0.0001
          50    0.0002    0.0027   -0.0018   -0.0001    0.0031   -0.0001    0.0040   -0.0001
          51   -0.0138   -0.0865    0.0667    0.0006    0.0024   -0.0001    0.0062   -0.0001
          52   -0.0010   -0.0081    0.0077   -0.0001    0.0009   -0.0006    0.0244   -0.0009
          53   -0.0019   -0.0174    0.0139    0.0007    0.0012   -0.0010    0.0352   -0.0012
          54    0.0131    0.0807   -0.0624   -0.0005   -0.0015    0.0018   -0.0656    0.0023
          55   -0.0006    0.0004    0.0005    0.0357    0.0002    0.0002   -0.0002    0.0001
          56   -0.0007   -0.0008   -0.0006   -0.0740    0.0004   -0.0003    0.0003   -0.0001
          57   -0.0041    0.0035    0.0033    0.1036   -0.0004    0.0004   -0.0005    0.0002
          58    0.0008    0.0003    0.0002    0.0349   -0.0005    0.0002   -0.0000    0.0001
          59   -0.0008    0.0002    0.0002   -0.0442   -0.0001   -0.0002    0.0001   -0.0000
          60    0.0039   -0.0036   -0.0034   -0.1194    0.0003   -0.0005    0.0003   -0.0002


   Root No.      49        50        51        52        53        54

                49 A      50 A      51 A      52 A      53 A      54 A   

                3066.0    3076.1    3113.9    3118.6    3133.9    3146.5
  
           1   -0.0002    0.0003    0.0001   -0.0000   -0.0002   -0.0003
           2   -0.0002    0.0004    0.0000    0.0000   -0.0002   -0.0004
           3   -0.0002    0.0002    0.0000   -0.0000    0.0004   -0.0002
           4    0.0001   -0.0003    0.0004   -0.0000    0.0000    0.0001
           5    0.0003    0.0008   -0.0005    0.0001   -0.0000    0.0000
           6    0.0000    0.0001   -0.0001   -0.0002    0.0000   -0.0000
           7   -0.0222    0.0144   -0.0002    0.0000   -0.0000   -0.0000
           8   -0.0021    0.0019   -0.0000    0.0000   -0.0000    0.0001
           9   -0.0013    0.0008   -0.0000    0.0000    0.0000    0.0000
          10   -0.0001    0.0000   -0.0000   -0.0000    0.0021   -0.0060
          11    0.0000   -0.0000   -0.0000   -0.0000    0.0027   -0.0069
          12   -0.0001    0.0001    0.0000   -0.0000   -0.0013   -0.0054
          13   -0.0179   -0.0177    0.0001   -0.0000    0.0000   -0.0000
          14    0.0029    0.0035   -0.0004    0.0000   -0.0000    0.0000
          15   -0.0010   -0.0010   -0.0000   -0.0000    0.0000   -0.0000
          16   -0.0076    0.0086    0.0000   -0.0000   -0.0000    0.0000
          17    0.0225   -0.0215    0.0001   -0.0000    0.0001   -0.0001
          18    0.0000    0.0001    0.0000   -0.0000    0.0000   -0.0000
          19   -0.0070   -0.0125    0.0001   -0.0000    0.0000   -0.0000
          20   -0.0171   -0.0260    0.0004   -0.0000    0.0000   -0.0000
          21   -0.0016   -0.0025    0.0000   -0.0000    0.0000   -0.0000
          22   -0.0000   -0.0000    0.0001   -0.0000   -0.0180    0.0278
          23    0.0000   -0.0000    0.0001   -0.0000   -0.0168    0.0366
          24    0.0000   -0.0000    0.0001    0.0000   -0.0640   -0.0325
          25   -0.0000    0.0001    0.0241   -0.0023    0.0001   -0.0001
          26    0.0000   -0.0001   -0.0398    0.0115   -0.0001    0.0001
          27    0.0000   -0.0000   -0.0101   -0.0638   -0.0000   -0.0000
          28    0.0000    0.0001   -0.0043    0.0003   -0.0000    0.0000
          29   -0.0003   -0.0004    0.0073   -0.0005    0.0000   -0.0000
          30   -0.0000   -0.0001    0.0009   -0.0005    0.0000   -0.0000
          31    0.0003   -0.0004   -0.0000    0.0000   -0.0021    0.0006
          32    0.0025   -0.0019   -0.0002    0.0000   -0.0028    0.0010
          33    0.0032   -0.0027   -0.0002    0.0000   -0.0013    0.0032
          34    0.2451   -0.1499    0.0014   -0.0001    0.0004    0.0001
          35   -0.0084    0.0048    0.0000    0.0000   -0.0000   -0.0000
          36    0.0128   -0.0079    0.0001   -0.0000    0.0001   -0.0001
          37    0.0004   -0.0002   -0.0001    0.0001    0.0076    0.0235
          38    0.0004   -0.0002   -0.0002    0.0001    0.0082    0.0236
          39    0.0013   -0.0007   -0.0004    0.0002    0.0129    0.0586
          40    0.1991    0.1869   -0.0015    0.0002   -0.0004    0.0003
          41   -0.0093   -0.0092    0.0000   -0.0000    0.0000   -0.0000
          42    0.0131    0.0123   -0.0001    0.0000    0.0000    0.0000
          43    0.1100   -0.1093    0.0006   -0.0000    0.0003   -0.0003
          44   -0.2351    0.2251   -0.0012    0.0001   -0.0005    0.0005
          45    0.0018   -0.0020    0.0000    0.0000    0.0000   -0.0000
          46    0.0989    0.1567   -0.0019    0.0002   -0.0002    0.0002
          47    0.1780    0.2724   -0.0032    0.0003   -0.0003    0.0003
          48    0.0183    0.0284   -0.0003    0.0000   -0.0000    0.0000
          49   -0.0000    0.0002   -0.0007    0.0000    0.2530   -0.0521
          50   -0.0000    0.0002   -0.0007    0.0000    0.2576   -0.0506
          51   -0.0001    0.0005   -0.0019    0.0001    0.6348   -0.1607
          52    0.0001    0.0000   -0.0005    0.0001   -0.0665   -0.2281
          53    0.0001    0.0001   -0.0007    0.0002   -0.0919   -0.3244
          54   -0.0002   -0.0002    0.0012   -0.0003    0.1281    0.5533
          55   -0.0001   -0.0007   -0.1136    0.1422   -0.0004    0.0004
          56    0.0003    0.0014    0.2336   -0.2877    0.0007   -0.0009
          57   -0.0004   -0.0019   -0.3429    0.3866   -0.0011    0.0013
          58   -0.0001   -0.0006   -0.1271   -0.1180   -0.0004    0.0003
          59    0.0002    0.0008    0.1631    0.1559    0.0005   -0.0004
          60    0.0004    0.0022    0.4541    0.3831    0.0015   -0.0012


           MASS-WEIGHTED COORDINATE ANALYSIS (NORMAL COORDINATES)


   Root No.       1         2         3         4         5         6         7         8

                 1 A       2 A       3 A       4 A       5 A       6 A       7 A       8 A   

                  34.2      40.8     138.1     151.2     250.2     317.3     360.3     362.2
  
           1    0.0436   -0.0767    0.0441   -0.1887    0.1714   -0.0958   -0.0137    0.0643
           2   -0.1141    0.0760   -0.0169    0.0219   -0.1026    0.0592    0.0749    0.1149
           3   -0.0362   -0.0347   -0.2797   -0.1116   -0.0060   -0.2324    0.2997   -0.1060
           4    0.0436   -0.0746    0.0476   -0.1940    0.1789   -0.0974   -0.0464    0.0431
           5   -0.0501   -0.0012    0.0495   -0.1471   -0.0042   -0.0265   -0.0593   -0.1805
           6    0.0447    0.0440   -0.3093   -0.1889    0.1095    0.1295   -0.0251    0.0134
           7    0.0026    0.0011   -0.0370   -0.0230    0.0385   -0.0365   -0.0574   -0.1654
           8   -0.1301    0.1092   -0.0527    0.1069   -0.1622    0.0907    0.0385    0.0184
           9   -0.3198   -0.2085   -0.1858   -0.0063   -0.0815   -0.1571   -0.1695    0.2066
          10    0.0193   -0.1303    0.2644   -0.2167   -0.2607    0.1634    0.1532    0.1973
          11    0.1159    0.2273    0.0552    0.1699    0.2440   -0.0668    0.0602    0.2959
          12    0.0960    0.0353   -0.1350   -0.0277    0.0248   -0.2110    0.3531    0.0046
          13   -0.0259   -0.0226   -0.0234   -0.0499    0.0589   -0.0297   -0.0363   -0.1342
          14   -0.0427   -0.0494    0.0626   -0.2193    0.1101   -0.0553   -0.0509   -0.1299
          15    0.3408    0.2080   -0.1188   -0.1817   -0.2735   -0.0525   -0.2765    0.2405
          16   -0.0470    0.0562   -0.1074    0.0935   -0.1032    0.0186   -0.0470   -0.2041
          17   -0.1069    0.0685   -0.0378    0.0166   -0.1035    0.0425    0.0244    0.0333
          18   -0.1791   -0.1296    0.2674    0.2124    0.3046    0.1069   -0.1125    0.0546
          19   -0.0719    0.0371   -0.1086    0.0919   -0.0802    0.0264   -0.0733   -0.1919
          20   -0.0655   -0.0142    0.0065   -0.1538    0.0308   -0.0267   -0.0823   -0.1366
          21    0.2365    0.1265    0.3328    0.1043   -0.0011   -0.0343    0.2714   -0.2156
          22   -0.2051    0.5057    0.1431   -0.0320   -0.0693    0.0816    0.1327    0.2259
          23    0.2841   -0.3013    0.1363    0.0071    0.0916   -0.0163    0.1272    0.3151
          24    0.2921    0.0864    0.1371    0.1102   -0.0394    0.1083   -0.2801   -0.2004
          25    0.1576   -0.2055   -0.2074    0.4956   -0.0399    0.0064    0.0523    0.1275
          26    0.0689   -0.0601   -0.1815    0.2216   -0.1082    0.0791   -0.0076   -0.1661
          27   -0.3364   -0.0985    0.2849    0.1199   -0.1499   -0.1384   -0.0216   -0.0195
          28    0.0984   -0.1330    0.0053   -0.0802    0.1968   -0.1207   -0.1107    0.0088
          29    0.0079   -0.0260    0.0003   -0.0919   -0.0125   -0.1007   -0.1211   -0.2218
          30   -0.1438   -0.0284   -0.1240   -0.1049    0.2203    0.6135    0.1187    0.0011
          31    0.0285   -0.0181   -0.0050   -0.0917    0.1012   -0.0087   -0.0302   -0.0033
          32   -0.0924   -0.0043   -0.0277    0.0119   -0.0730    0.0267   -0.0259    0.0535
          33    0.0162    0.0029   -0.0603   -0.0205    0.0032   -0.0769    0.1166   -0.0324
          34    0.0052    0.0040   -0.0077   -0.0047    0.0121   -0.0082   -0.0084   -0.0568
          35   -0.0474    0.0499   -0.0293    0.0704   -0.0817    0.0453    0.0065   -0.0432
          36   -0.1828   -0.1159   -0.1181   -0.0123   -0.0702   -0.0725   -0.2025    0.1999
          37    0.0544   -0.2021    0.1611   -0.1163   -0.2714    0.2008    0.0706    0.0442
          38    0.0428    0.2272    0.0154    0.1304    0.2250   -0.0857   -0.0868    0.1102
          39    0.0061    0.0121   -0.0701   -0.0178    0.0231   -0.0922    0.1269   -0.0043
          40   -0.0128   -0.0109   -0.0037   -0.0121    0.0282   -0.0059   -0.0031   -0.0445
          41   -0.0048   -0.0333    0.0348   -0.0985    0.0782   -0.0288   -0.0054   -0.0048
          42    0.1830    0.1131   -0.0714   -0.1053   -0.2174   -0.0641   -0.1868    0.1755
          43   -0.0199    0.0342   -0.0450    0.0579   -0.0654    0.0188    0.0100   -0.0490
          44   -0.0344    0.0281   -0.0171    0.0200   -0.0463    0.0194    0.0170    0.0143
          45   -0.1091   -0.0742    0.1442    0.1191    0.1888    0.1007   -0.1626    0.0972
          46   -0.0381    0.0208   -0.0490    0.0613   -0.0455    0.0269   -0.0210   -0.0386
          47   -0.0156   -0.0135    0.0021   -0.0675    0.0268   -0.0140   -0.0375   -0.0392
          48    0.1306    0.0711    0.1912    0.0588   -0.0481   -0.0554    0.2099   -0.1521
[...]
 REDUCED MASS        1.1189         C  1 -- C  2          +9.1% ( 43.2%)     48.1%
 EFFECTIVE MASS      7.2487
 FORCE CONSTANT      1.1519

 VIBRATION         37   37A           ATOM PAIR      ENERGY CONTRIBUTION    RADIAL
 FREQUENCY          1342.02         C  8 -- H 18         +21.3% ( 54.5%)      1.0%
 TRANSITION DIPOLE   0.0465         C  8 -- H 17         +17.5% ( 49.4%)      2.9%
 TRAVEL (Ang.)       0.3560         C  1 -- C  4         +11.5% ( 40.0%)     88.3%
 REDUCED MASS        0.3964         C  1 -- C  2          +6.7% ( 30.6%)     56.7%
 EFFECTIVE MASS      4.4071
 FORCE CONSTANT      0.4206

 VIBRATION         38   38A           ATOM PAIR      ENERGY CONTRIBUTION    RADIAL
 FREQUENCY          1393.25         C  1 -- C  2         +16.5% ( 60.9%)     56.2%
 TRANSITION DIPOLE   0.1528         C  1 -- C  3         +11.6% ( 51.0%)     46.4%
 TRAVEL (Ang.)       0.1791         C  1 -- C  4          +9.2% ( 45.3%)     85.2%
 REDUCED MASS        1.5088         C  6 -- C  7          +9.0% ( 44.8%)     89.0%
 EFFECTIVE MASS      9.4783
 FORCE CONSTANT      1.7256

 VIBRATION         39   39A           ATOM PAIR      ENERGY CONTRIBUTION    RADIAL
 FREQUENCY          1474.55         C  1 -- C  2         +16.8% ( 62.9%)     98.9%
 TRANSITION DIPOLE   0.1087         C  2 -- C  5         +15.3% ( 60.0%)     75.1%
 TRAVEL (Ang.)       0.1536         C  1 -- C  3          +9.9% ( 48.4%)     84.1%
 REDUCED MASS        1.9384         C  6 -- C  7          +9.8% ( 48.0%)    100.0%
 EFFECTIVE MASS     11.3101
 FORCE CONSTANT      2.4832

 VIBRATION         40   40A           ATOM PAIR      ENERGY CONTRIBUTION    RADIAL
 FREQUENCY          1531.05         C  2 -- C  5         +20.6% ( 72.9%)     69.4%
 TRANSITION DIPOLE   0.0530         C  1 -- C  2         +18.2% ( 68.7%)     18.2%
 TRAVEL (Ang.)       0.1108         C  2 -- C 10         +14.6% ( 61.4%)     92.8%
 REDUCED MASS        3.5888         C  9 -- C 10         +13.1% ( 58.3%)     99.9%
 EFFECTIVE MASS     11.2187         C  9 -- H 19         +10.3% ( 51.6%)      9.6%
 FORCE CONSTANT      4.9565         C  9 -- H 20         +10.3% ( 51.6%)      9.6%

 VIBRATION         41   41A           ATOM PAIR      ENERGY CONTRIBUTION    RADIAL
 FREQUENCY          1830.00         C  5 -- C  7         +30.8% ( 83.1%)     99.6%
 TRANSITION DIPOLE   0.2533         C  6 -- C  7         +16.1% ( 60.0%)     94.7%
 TRAVEL (Ang.)       0.1057         C  3 -- C  6         +12.2% ( 52.3%)     97.3%
 REDUCED MASS        3.3006         C  2 -- C  5         +10.1% ( 47.6%)     47.9%
 EFFECTIVE MASS     11.9574
 FORCE CONSTANT      6.5124

 VIBRATION         42   42A           ATOM PAIR      ENERGY CONTRIBUTION    RADIAL
 FREQUENCY          1854.53         C  4 -- C  8         +28.7% ( 79.0%)     99.1%
 TRANSITION DIPOLE   0.3027         C  1 -- C  4         +10.5% ( 47.7%)     51.1%
 TRAVEL (Ang.)       0.1217         C  3 -- C  6          +9.9% ( 46.5%)     99.8%
 REDUCED MASS        2.4534         C  4 -- H 13          +9.5% ( 45.4%)      4.5%
 EFFECTIVE MASS     11.7959
 FORCE CONSTANT      4.9715

 VIBRATION         43   43A           ATOM PAIR      ENERGY CONTRIBUTION    RADIAL
 FREQUENCY          1861.00         C  3 -- C  6         +22.1% ( 68.8%)     99.8%
 TRANSITION DIPOLE   0.3031         C  4 -- C  8         +17.0% ( 60.3%)     99.0%
 TRAVEL (Ang.)       0.1297         C  6 -- C  7          +8.0% ( 41.4%)      9.1%
 REDUCED MASS        2.1542         C  1 -- C  3          +7.2% ( 39.4%)     55.9%
 EFFECTIVE MASS     11.8036
 FORCE CONSTANT      4.3958

 VIBRATION         44   44A           ATOM PAIR      ENERGY CONTRIBUTION    RADIAL
 FREQUENCY          2249.50         C  2 -- C 10         +42.1% ( 85.5%)    100.0%
 TRANSITION DIPOLE   0.5522         C  9 -- C 10         +41.5% ( 84.9%)    100.0%
 TRAVEL (Ang.)       0.0717         C  1 -- C  2          +4.5% ( 28.1%)     27.1%
 REDUCED MASS        5.8275         C  2 -- C  5          +4.5% ( 27.9%)     25.0%
 EFFECTIVE MASS     11.9014
 FORCE CONSTANT     17.3742

 VIBRATION         45   45A           ATOM PAIR      ENERGY CONTRIBUTION    RADIAL
 FREQUENCY          2842.67         C  1 -- H 11         +96.8% (100.0%)    100.0%
 TRANSITION DIPOLE   0.0945         C  1 -- C  4          +1.0% ( 10.4%)     11.8%
 TRAVEL (Ang.)       0.1598         C  1 -- C  2          +1.0% ( 10.4%)      8.3%
 REDUCED MASS        0.9284         C  1 -- C  3          +1.0% ( 10.4%)      7.5%
 EFFECTIVE MASS      1.4435
 FORCE CONSTANT      4.4204

 VIBRATION         46   46A           ATOM PAIR      ENERGY CONTRIBUTION    RADIAL
 FREQUENCY          3049.06         C  3 -- H 12         +45.7% ( 68.7%)    100.0%
 TRANSITION DIPOLE   0.2552         C  6 -- H 15         +35.8% ( 60.8%)    100.0%
 TRAVEL (Ang.)       0.2541         C  7 -- H 16          +9.2% ( 30.9%)    100.0%
 REDUCED MASS        0.3426         C  5 -- H 14          +6.5% ( 26.0%)    100.0%
 EFFECTIVE MASS      1.4701
 FORCE CONSTANT      1.8763

 VIBRATION         47   47A           ATOM PAIR      ENERGY CONTRIBUTION    RADIAL
 FREQUENCY          3050.88         C  4 -- H 13         +95.7% ( 99.2%)    100.0%
 TRANSITION DIPOLE   0.2687         C  4 -- C  8          +1.4% ( 12.0%)     31.0%
 TRAVEL (Ang.)       0.1567         C  1 -- C  4          +1.3% ( 11.7%)     13.5%
 REDUCED MASS        0.9004         C  8 -- H 18          +1.1% ( 10.6%)     96.2%
 EFFECTIVE MASS      1.5003
 FORCE CONSTANT      4.9376

 VIBRATION         48   48A           ATOM PAIR      ENERGY CONTRIBUTION    RADIAL
 FREQUENCY          3052.23         C  5 -- H 14         +56.4% ( 76.2%)    100.0%
 TRANSITION DIPOLE   0.2733         C  7 -- H 16         +24.7% ( 50.5%)    100.0%
 TRAVEL (Ang.)       0.2380         C  3 -- H 12         +13.5% ( 37.3%)    100.0%
 REDUCED MASS        0.3901         C  6 -- H 15          +2.6% ( 16.3%)     99.8%
 EFFECTIVE MASS      1.4673
 FORCE CONSTANT      2.1411

 VIBRATION         49   49A           ATOM PAIR      ENERGY CONTRIBUTION    RADIAL
 FREQUENCY          3066.00         C  6 -- H 15         +31.1% ( 56.6%)     99.9%
 TRANSITION DIPOLE   0.3991         C  3 -- H 12         +27.7% ( 53.5%)     99.9%
 TRAVEL (Ang.)       0.2997         C  7 -- H 16         +19.3% ( 44.6%)     99.8%
 REDUCED MASS        0.2448         C  5 -- H 14         +18.3% ( 43.5%)     99.9%
 EFFECTIVE MASS      1.5738
 FORCE CONSTANT      1.3559

 VIBRATION         50   50A           ATOM PAIR      ENERGY CONTRIBUTION    RADIAL
 FREQUENCY          3076.07         C  7 -- H 16         +43.6% ( 66.9%)    100.0%
 TRANSITION DIPOLE   0.4252         C  6 -- H 15         +27.4% ( 53.1%)    100.0%
 TRAVEL (Ang.)       0.2705         C  5 -- H 14         +15.4% ( 39.8%)     99.8%
 REDUCED MASS        0.2996         C  3 -- H 12          +9.9% ( 31.9%)     99.8%
 EFFECTIVE MASS      1.6041
 FORCE CONSTANT      1.6701

 VIBRATION         51   51A           ATOM PAIR      ENERGY CONTRIBUTION    RADIAL
 FREQUENCY          3113.85         C  9 -- H 20         +56.5% ( 75.3%)     96.4%
 TRANSITION DIPOLE   0.3693         C  9 -- H 19         +41.7% ( 64.6%)     93.5%
 TRAVEL (Ang.)       0.2090         C  9 -- C 10          +1.8% ( 13.3%)     99.3%
 REDUCED MASS        0.4956
 EFFECTIVE MASS      1.4145
 FORCE CONSTANT      2.8315

 VIBRATION         52   52A           ATOM PAIR      ENERGY CONTRIBUTION    RADIAL
 FREQUENCY          3118.57         C  9 -- H 19         +56.5% ( 76.9%)     97.9%
 TRANSITION DIPOLE   0.2328         C  9 -- H 20         +42.3% ( 66.6%)     96.1%
 TRAVEL (Ang.)       0.1997         C  9 -- C 10          +1.2% ( 11.2%)      0.5%
 REDUCED MASS        0.5424
 EFFECTIVE MASS      1.5929
 FORCE CONSTANT      3.1081

 VIBRATION         53   53A           ATOM PAIR      ENERGY CONTRIBUTION    RADIAL
 FREQUENCY          3133.94         C  8 -- H 17         +91.5% ( 97.4%)     99.9%
 TRANSITION DIPOLE   0.1993         C  8 -- H 18          +7.2% ( 27.3%)     72.5%
 TRAVEL (Ang.)       0.1592         C  4 -- C  8          +1.3% ( 11.7%)     21.8%
 REDUCED MASS        0.8486
 EFFECTIVE MASS      1.5399
 FORCE CONSTANT      4.9108

 VIBRATION         54   54A           ATOM PAIR      ENERGY CONTRIBUTION    RADIAL
 FREQUENCY          3146.53         C  8 -- H 18         +91.3% ( 96.2%)     99.7%
 TRANSITION DIPOLE   0.2631         C  8 -- H 17          +6.1% ( 24.9%)     43.7%
 TRAVEL (Ang.)       0.1627         C  4 -- C  8          +1.6% ( 12.8%)     74.8%
 REDUCED MASS        0.8100         C  4 -- H 13          +1.0% (  9.8%)     95.6%
 EFFECTIVE MASS      1.4661
 FORCE CONSTANT      4.7250

      SYMMETRY NUMBER FOR POINT-GROUP C1  =  1


          SYSTEM IS A GROUND STATE



 InChI=1S/C10H10/c1-3-9-7-5-6-8-10(9)4-2/h3,5-9H,1-2H2


          MOLECULE IS NOT LINEAR

          THERE ARE 54 GENUINE VIBRATIONS IN THIS SYSTEM
          THIS THERMODYNAMICS CALCULATION IS LIMITED TO
          MOLECULES WHICH HAVE NO INTERNAL ROTATIONS




                    CALCULATED THERMODYNAMIC PROPERTIES
                                          *
   TEMP. (K)   PARTITION FUNCTION   H.O.F.    ENTHALPY  HEAT CAPACITY ENTROPY
                                   KCAL/MOL   CAL/MOLE    CAL/K/MOL  CAL/K/MOL


 298.00  VIB.     0.7733D+03                  4199.7174    30.0625    27.3091
         ROT.     0.6523D+06                   888.2803     2.9808    29.5861
         INT.     0.5044D+09                  5087.9977    33.0433    56.8953
         TRA.     0.1436D+28                  1480.4672     4.9680    40.5022
         TOT.                       93.531    6568.4648    38.0113    97.3974

 200.00  VIB.     0.7883D+02                  1817.8805    18.6643    17.7682
         ROT.     0.3587D+06                   596.1613     2.9808    28.3975
         INT.     0.2828D+08                  2414.0418    21.6451    46.1657
         TRA.     0.7896D+27                   993.6021     4.9680    38.5210
         TOT.                       90.370    3407.6439    26.6131    84.6867

 210.00  VIB.     0.9912D+02                  2010.0786    19.7786    18.7057
         ROT.     0.3859D+06                   625.9693     2.9808    28.5429
         INT.     0.3825D+08                  2636.0479    22.7594    47.2486
         TRA.     0.8496D+27                  1043.2822     4.9680    38.7634
         TOT.                       90.642    3679.3301    27.7274    86.0120

 220.00  VIB.     0.1247D+03                  2213.5131    20.9112    19.6519
         ROT.     0.4138D+06                   655.7774     2.9808    28.6816
         INT.     0.5161D+08                  2869.2905    23.8920    48.3335
         TRA.     0.9110D+27                  1092.9623     4.9680    38.9945
         TOT.                       90.925    3962.2528    28.8600    87.3280

 230.00  VIB.     0.1571D+03                  2428.3551    22.0596    20.6067
         ROT.     0.4423D+06                   685.5855     2.9808    28.8141
         INT.     0.6947D+08                  3113.9406    25.0404    49.4208
         TRA.     0.9738D+27                  1142.6424     4.9680    39.2154
         TOT.                       91.219    4256.5830    30.0084    88.6361

 240.00  VIB.     0.1980D+03                  2654.7488    23.2210    21.5701
         ROT.     0.4715D+06                   715.3935     2.9808    28.9409
         INT.     0.9334D+08                  3370.1423    26.2019    50.5110
         TRA.     0.1038D+28                  1192.3226     4.9680    39.4268
         TOT.                       91.525    4562.4649    31.1699    89.9378

 250.00  VIB.     0.2498D+03                  2892.8095    24.3925    22.5417
         ROT.     0.5013D+06                   745.2016     2.9808    29.0626
         INT.     0.1252D+09                  3638.0111    27.3733    51.6043
         TRA.     0.1103D+28                  1242.0027     4.9680    39.6296
         TOT.                       91.842    4880.0137    32.3413    91.2339

 260.00  VIB.     0.3154D+03                  3142.6226    25.5710    23.5213
         ROT.     0.5316D+06                   775.0097     2.9808    29.1795
         INT.     0.1677D+09                  3917.6323    28.5518    52.7009
         TRA.     0.1170D+28                  1291.6828     4.9680    39.8245
         TOT.                       92.172    5209.3150    33.5199    92.5253

 270.00  VIB.     0.3988D+03                  3404.2437    26.7536    24.5086
         ROT.     0.5626D+06                   804.8177     2.9808    29.2920
         INT.     0.2244D+09                  4209.0615    29.7344    53.8006
         TRA.     0.1239D+28                  1341.3629     4.9680    40.0120
         TOT.                       92.513    5550.4243    34.7024    93.8125

 280.00  VIB.     0.5047D+03                  3677.6991    27.9374    25.5029
         ROT.     0.5941D+06                   834.6258     2.9808    29.4004
         INT.     0.2999D+09                  4512.3248    30.9182    54.9034
         TRA.     0.1308D+28                  1391.0430     4.9680    40.1926
         TOT.                       92.866    5903.3678    35.8862    95.0960

 290.00  VIB.     0.6394D+03                  3962.9866    29.1196    26.5039
         ROT.     0.6262D+06                   864.4339     2.9808    29.5050
         INT.     0.4004D+09                  4827.4204    32.1004    56.0089
         TRA.     0.1379D+28                  1440.7231     4.9680    40.3670
         TOT.                       93.230    6268.1435    37.0684    96.3759

 300.00  VIB.     0.8110D+03                  4260.0776    30.2977    27.5110
         ROT.     0.6589D+06                   894.2419     2.9808    29.6061
         INT.     0.5344D+09                  5154.3195    33.2785    57.1171
         TRA.     0.1451D+28                  1490.4032     4.9680    40.5354
         TOT.                       93.607    6644.7227    38.2465    97.6525

 310.00  VIB.     0.1030D+04                  4568.9188    31.4693    28.5236
         ROT.     0.6921D+06                   924.0500     2.9808    29.7038
         INT.     0.7126D+09                  5492.9688    34.4501    58.2274
         TRA.     0.1524D+28                  1540.0833     4.9680    40.6983
         TOT.                       93.995    7033.0521    39.4181    98.9257

 320.00  VIB.     0.1309D+04                  4889.4343    32.6322    29.5411
         ROT.     0.7259D+06                   953.8580     2.9808    29.7984
         INT.     0.9499D+09                  5843.2923    35.6130    59.3395
         TRA.     0.1598D+28                  1589.7634     4.9680    40.8560
         TOT.                       94.395    7433.0557    40.5810   100.1955

 330.00  VIB.     0.1665D+04                  5221.5275    33.7845    30.5629
         ROT.     0.7602D+06                   983.6661     2.9808    29.8902
         INT.     0.1266D+10                  6205.1936    36.7653    60.4531
         TRA.     0.1674D+28                  1639.4435     4.9680    41.0089
         TOT.                       94.807    7844.6371    41.7334   101.4620

 340.00  VIB.     0.2120D+04                  5565.0841    34.9246    31.5884
         ROT.     0.7950D+06                  1013.4742     2.9808    29.9792
         INT.     0.1686D+10                  6578.5582    37.9054    61.5676
         TRA.     0.1750D+28                  1689.1236     4.9680    41.1572
         TOT.                       95.230    8267.6819    42.8734   102.7248

 350.00  VIB.     0.2703D+04                  5919.9737    36.0509    32.6171
         ROT.     0.8303D+06                  1043.2822     2.9808    30.0656
         INT.     0.2244D+10                  6963.2560    39.0317    62.6826
         TRA.     0.1828D+28                  1738.8037     4.9680    41.3012
         TOT.                       95.664    8702.0597    43.9997   103.9839

 360.00  VIB.     0.3448D+04                  6286.0525    37.1622    33.6483
         ROT.     0.8662D+06                  1073.0903     2.9808    30.1495
         INT.     0.2987D+10                  7359.1428    40.1430    63.7978
         TRA.     0.1907D+28                  1788.4838     4.9680    41.4412
         TOT.                       96.110    9147.6266    45.1110   105.2390

 370.00  VIB.     0.4403D+04                  6663.1648    38.2575    34.6815
         ROT.     0.9025D+06                  1102.8984     2.9808    30.2312
         INT.     0.3974D+10                  7766.0631    41.2383    64.9127
         TRA.     0.1987D+28                  1838.1639     4.9680    41.5773
         TOT.                       96.567    9604.2271    46.2063   106.4900

 380.00  VIB.     0.5628D+04                  7051.1455    39.3358    35.7161
         ROT.     0.9393D+06                  1132.7064     2.9808    30.3107
         INT.     0.5286D+10                  8183.8519    42.3166    66.0268
         TRA.     0.2068D+28                  1887.8440     4.9680    41.7098
         TOT.                       97.034   10071.6960    47.2846   107.7366

 390.00  VIB.     0.7198D+04                  7449.8217    40.3965    36.7516
         ROT.     0.9767D+06                  1162.5145     2.9808    30.3881
         INT.     0.7030D+10                  8612.3362    43.3773    67.1397
         TRA.     0.2150D+28                  1937.5242     4.9680    41.8388
         TOT.                       97.512   10549.8604    48.3453   108.9786

 400.00  VIB.     0.9213D+04                  7859.0145    41.4390    37.7875
         ROT.     0.1014D+07                  1192.3226     2.9808    30.4636
         INT.     0.9347D+10                  9051.3371    44.4198    68.2511
         TRA.     0.2233D+28                  1987.2043     4.9680    41.9646
         TOT.                       98.001   11038.5413    49.3878   110.2157

   *: NOTE: HEATS OF FORMATION ARE RELATIVE TO THE
            ELEMENTS IN THEIR STANDARD STATE AT 298K
              (=  Standard Enthalpy of Formation).

            Hvib:  Zero-point energy is not included.
                   frequencies of less than zero cm-1 are not included.
            Hrot = (3/2)RT
            Htra = (3/2)RT + pV = (5/2)RT

            Heat capacity is Cp, not Cv

          For more information, see: HTTP://OpenMOPAC.net/Manual/thermochemistry.html


           FORCE CONSTANT IN CARTESIAN COORDINATES (Millidynes/A)

    ATOM   CHEMICAL       X               Y               Z
   NUMBER   SYMBOL  FORCE CONSTANT  FORCE CONSTANT  FORCE CONSTANT

      1       C        8.839820        9.008447        8.129276
      2       C       10.839690       14.386335        2.733406
      3       C       11.371442       13.094108        2.497113
      4       C        7.792195       10.290744        8.877939
      5       C       11.327096       13.775515        2.235235
      6       C       11.680359       13.686585        2.243677
      7       C       11.354695       13.874685        2.251262
      8       C        7.402127       10.049988        9.010539
      9       C        5.518122       12.222011        8.445813
     10       C        7.871658       18.454634        1.887089
     11       H        1.030427        1.421964        3.377354
     12       H        5.114717        0.769560        0.356348
     13       H        0.989405        1.051063        4.186141
     14       H        5.109132        0.776870        0.365622
     15       H        1.581800        4.324702        0.347427
     16       H        1.837029        4.041224        0.381050
     17       H        1.048072        1.138701        4.268210
     18       H        1.027026        1.650579        3.791937
     19       H        0.738047        2.022304        3.487451
     20       H        0.706874        1.087189        4.449703

 **********************
 *                    *
 * JOB ENDED NORMALLY *
 *                    *
 **********************



 TOTAL JOB TIME:             2.84 SECONDS

 == MOPAC DONE ==
