 *******************************************************************************
 **                                                                           **
 **                              MOPAC v23.1.2                                **
 **                                                                           **
 *******************************************************************************
 **          Digital Object Identifier (DOI): 10.5281/zenodo.6511958          **
 **    Visit the DOI location for information on how to cite this program.    **
 *******************************************************************************

                              PM3 CALCULATION RESULTS

 *******************************************************************************
 *  CALCULATION DONE: (MAX THREADS = 1)              Tue Jun  3 16:36:40 2025  *
 *  PM3        - The PM3 Hamiltonian to be used
 *  PRECISE    - TIGHTER CRITERIA TO BE USED
 *  NOSYM      - POINT-GROUP SYMMETRY SET TO C1
 *  THREADS=1  - MULTI-THREADING NOT USED
 *  T=         - A TIME OF 172800.0 SECONDS REQUESTED
 *  DUMP=N     - RESTART FILE WRITTEN EVERY 7200.0 SECONDS REQUESTED
 *******************************************************************************
pm3  precise nosym THREADS=1
 InChI=1S/C12H22/c1-4-7-10(5-2)12-9-8-11(12)6-3/h5,10-12H,2,4,6-9H2,1,3H3

   ATOM   CHEMICAL          X               Y               Z
  NUMBER   SYMBOL      (ANGSTROMS)     (ANGSTROMS)     (ANGSTROMS)

     1       C          0.54000000  *  -0.89130000  *  -0.40050000  *
     2       C          1.68110000  *  -0.04940000  *   0.19320000  *
     3       C         -0.84910000  *  -0.60200000  *   0.21580000  *
     4       C          2.35530000  *  -1.32500000  *   0.69960000  *
     5       C          1.21090000  *  -2.15840000  *   0.13930000  *
     6       C         -1.37020000  *   0.77250000  *  -0.25690000  *
     7       C          2.48850000  *   0.71040000  *  -0.87370000  *
     8       C         -2.65700000  *   1.18610000  *   0.47340000  *
     9       C          3.65340000  *   1.47420000  *  -0.25010000  *
    10       C         -3.12000000  *   2.57130000  *   0.03160000  *
    11       C         -1.81390000  *  -1.69030000  *  -0.20200000  *
    12       C         -2.44670000  *  -2.45720000  *   0.69100000  *
    13       H          1.35900000  *   0.60710000  *   1.03310000  *
    14       H          0.51940000  *  -0.88650000  *  -1.51500000  *
    15       H         -0.75070000  *  -0.57990000  *   1.32600000  *
    16       H          2.87830000  *   0.01020000  *  -1.64520000  *
    17       H          1.81800000  *   1.43860000  *  -1.37920000  *
    18       H          2.40280000  *  -1.36510000  *   1.80970000  *
    19       H          3.32430000  *  -1.55800000  *   0.20540000  *
    20       H         -2.47730000  *   1.20060000  *   1.57050000  *
    21       H         -3.46780000  *   0.45690000  *   0.25950000  *
    22       H          0.63810000  *  -2.67260000  *   0.94230000  *
    23       H         -0.59680000  *   1.54710000  *  -0.06340000  *
    24       H          1.54310000  *  -2.84000000  *  -0.67400000  *
    25       H         -1.55410000  *   0.74850000  *  -1.35430000  *
    26       H          3.27850000  *   2.20510000  *   0.49770000  *
    27       H          4.20140000  *   2.02660000  *  -1.04220000  *
    28       H          4.35810000  *   0.77300000  *   0.24460000  *
    29       H         -4.05210000  *   2.84150000  *   0.57120000  *
    30       H         -2.34300000  *   3.33060000  *   0.26360000  *
    31       H         -3.32640000  *   2.57880000  *  -1.05990000  *
    32       H         -2.00280000  *  -1.85020000  *  -1.25990000  *
    33       H         -2.28810000  *  -2.32710000  *   1.75690000  *
    34       H         -3.13400000  *  -3.22620000  *   0.35390000  *



          CARTESIAN COORDINATES 

    NO.       ATOM           X           Y           Z

     1         C          0.5400     -0.8913     -0.4005
     2         C          1.6811     -0.0494      0.1932
     3         C         -0.8491     -0.6020      0.2158
     4         C          2.3553     -1.3250      0.6996
     5         C          1.2109     -2.1584      0.1393
     6         C         -1.3702      0.7725     -0.2569
     7         C          2.4885      0.7104     -0.8737
     8         C         -2.6570      1.1861      0.4734
     9         C          3.6534      1.4742     -0.2501
    10         C         -3.1200      2.5713      0.0316
    11         C         -1.8139     -1.6903     -0.2020
    12         C         -2.4467     -2.4572      0.6910
    13         H          1.3590      0.6071      1.0331
    14         H          0.5194     -0.8865     -1.5150
    15         H         -0.7507     -0.5799      1.3260
    16         H          2.8783      0.0102     -1.6452
    17         H          1.8180      1.4386     -1.3792
    18         H          2.4028     -1.3651      1.8097
    19         H          3.3243     -1.5580      0.2054
    20         H         -2.4773      1.2006      1.5705
    21         H         -3.4678      0.4569      0.2595
    22         H          0.6381     -2.6726      0.9423
    23         H         -0.5968      1.5471     -0.0634
    24         H          1.5431     -2.8400     -0.6740
    25         H         -1.5541      0.7485     -1.3543
    26         H          3.2785      2.2051      0.4977
    27         H          4.2014      2.0266     -1.0422
    28         H          4.3581      0.7730      0.2446
    29         H         -4.0521      2.8415      0.5712
    30         H         -2.3430      3.3306      0.2636
    31         H         -3.3264      2.5788     -1.0599
    32         H         -2.0028     -1.8502     -1.2599
    33         H         -2.2881     -2.3271      1.7569
    34         H         -3.1340     -3.2262      0.3539

  H: (PM3): J. J. P. STEWART, J. COMP. CHEM. 10, 209 (1989).
  C: (PM3): J. J. P. STEWART, J. COMP. CHEM. 10, 209 (1989).

           Empirical Formula: C12 H22  =    34 atoms



      MOLECULAR POINT GROUP   :   C1  


      RHF CALCULATION, NO. OF DOUBLY OCCUPIED LEVELS = 35


          Geometry optimization using L-BFGS
 CYCLE:     1 TIME:   0.012 TIME LEFT:  2.00D  GRAD.:    83.819 HEAT: -12.32977
 CYCLE:     2 TIME:   0.008 TIME LEFT:  2.00D  GRAD.:    82.435 HEAT: -12.39945
 CYCLE:     3 TIME:   0.012 TIME LEFT:  2.00D  GRAD.:    34.770 HEAT: -15.25849
 CYCLE:     4 TIME:   0.012 TIME LEFT:  2.00D  GRAD.:    82.438 HEAT: -12.39950
 CYCLE:     5 TIME:   0.008 TIME LEFT:  2.00D  GRAD.:    34.772 HEAT: -15.25849
 CYCLE:     6 TIME:   0.012 TIME LEFT:  2.00D  GRAD.:    34.504 HEAT: -15.85694
 CYCLE:     7 TIME:   0.012 TIME LEFT:  2.00D  GRAD.:    24.364 HEAT: -16.61264
 CYCLE:     8 TIME:   0.008 TIME LEFT:  2.00D  GRAD.:    23.618 HEAT: -17.15226
 CYCLE:     9 TIME:   0.012 TIME LEFT:  2.00D  GRAD.:    16.063 HEAT: -17.40653
 CYCLE:    10 TIME:   0.008 TIME LEFT:  2.00D  GRAD.:     6.253 HEAT: -17.48795
 CYCLE:    11 TIME:   0.012 TIME LEFT:  2.00D  GRAD.:     4.190 HEAT: -17.50806
 CYCLE:    12 TIME:   0.012 TIME LEFT:  2.00D  GRAD.:     3.803 HEAT: -17.53215
 CYCLE:    13 TIME:   0.008 TIME LEFT:  2.00D  GRAD.:     4.133 HEAT: -17.55278
 CYCLE:    14 TIME:   0.012 TIME LEFT:  2.00D  GRAD.:     6.368 HEAT: -17.56117
 CYCLE:    15 TIME:   0.008 TIME LEFT:  2.00D  GRAD.:     2.203 HEAT: -17.57454
 CYCLE:    16 TIME:   0.012 TIME LEFT:  2.00D  GRAD.:     2.068 HEAT: -17.57906
 CYCLE:    17 TIME:   0.012 TIME LEFT:  2.00D  GRAD.:     2.544 HEAT: -17.58738
 CYCLE:    18 TIME:   0.008 TIME LEFT:  2.00D  GRAD.:     3.585 HEAT: -17.59601
 CYCLE:    19 TIME:   0.012 TIME LEFT:  2.00D  GRAD.:     2.264 HEAT: -17.60154
 CYCLE:    20 TIME:   0.008 TIME LEFT:  2.00D  GRAD.:     1.187 HEAT: -17.60449
 CYCLE:    21 TIME:   0.012 TIME LEFT:  2.00D  GRAD.:     1.370 HEAT: -17.60691
 CYCLE:    22 TIME:   0.012 TIME LEFT:  2.00D  GRAD.:     1.774 HEAT: -17.60904
 CYCLE:    23 TIME:   0.012 TIME LEFT:  2.00D  GRAD.:     2.217 HEAT: -17.61155
 CYCLE:    24 TIME:   0.008 TIME LEFT:  2.00D  GRAD.:     1.456 HEAT: -17.61369
 CYCLE:    25 TIME:   0.012 TIME LEFT:  2.00D  GRAD.:     1.540 HEAT: -17.61526
 CYCLE:    26 TIME:   0.012 TIME LEFT:  2.00D  GRAD.:     1.793 HEAT: -17.61828
 CYCLE:    27 TIME:   0.012 TIME LEFT:  2.00D  GRAD.:     2.458 HEAT: -17.62249
 CYCLE:    28 TIME:   0.008 TIME LEFT:  2.00D  GRAD.:     1.891 HEAT: -17.62649
 CYCLE:    29 TIME:   0.012 TIME LEFT:  2.00D  GRAD.:     1.429 HEAT: -17.62986
 CYCLE:    30 TIME:   0.012 TIME LEFT:  2.00D  GRAD.:     2.277 HEAT: -17.63644
 CYCLE:    31 TIME:   0.012 TIME LEFT:  2.00D  GRAD.:     2.870 HEAT: -17.64179
 CYCLE:    32 TIME:   0.008 TIME LEFT:  2.00D  GRAD.:     2.474 HEAT: -17.64858
 CYCLE:    33 TIME:   0.012 TIME LEFT:  2.00D  GRAD.:     2.697 HEAT: -17.65484
 CYCLE:    34 TIME:   0.008 TIME LEFT:  2.00D  GRAD.:     1.914 HEAT: -17.66090
 CYCLE:    35 TIME:   0.012 TIME LEFT:  2.00D  GRAD.:     3.066 HEAT: -17.66430
 CYCLE:    36 TIME:   0.012 TIME LEFT:  2.00D  GRAD.:     4.879 HEAT: -17.66955
 CYCLE:    37 TIME:   0.008 TIME LEFT:  2.00D  GRAD.:     3.321 HEAT: -17.67268
 CYCLE:    38 TIME:   0.012 TIME LEFT:  2.00D  GRAD.:     2.341 HEAT: -17.67784
 CYCLE:    39 TIME:   0.012 TIME LEFT:  2.00D  GRAD.:     2.138 HEAT: -17.67932
 CYCLE:    40 TIME:   0.008 TIME LEFT:  2.00D  GRAD.:     1.200 HEAT: -17.68104
 CYCLE:    41 TIME:   0.012 TIME LEFT:  2.00D  GRAD.:     1.216 HEAT: -17.68264
 CYCLE:    42 TIME:   0.008 TIME LEFT:  2.00D  GRAD.:     1.434 HEAT: -17.68449
 CYCLE:    43 TIME:   0.012 TIME LEFT:  2.00D  GRAD.:     2.274 HEAT: -17.68698
 CYCLE:    44 TIME:   0.012 TIME LEFT:  2.00D  GRAD.:     1.835 HEAT: -17.68964
 CYCLE:    45 TIME:   0.012 TIME LEFT:  2.00D  GRAD.:     1.325 HEAT: -17.69156
 CYCLE:    46 TIME:   0.012 TIME LEFT:  2.00D  GRAD.:     1.134 HEAT: -17.69332
 CYCLE:    47 TIME:   0.012 TIME LEFT:  2.00D  GRAD.:     1.445 HEAT: -17.69694
 CYCLE:    48 TIME:   0.008 TIME LEFT:  2.00D  GRAD.:     2.996 HEAT: -17.69934
 CYCLE:    49 TIME:   0.012 TIME LEFT:  2.00D  GRAD.:     1.340 HEAT: -17.70296
 CYCLE:    50 TIME:   0.008 TIME LEFT:  2.00D  GRAD.:     1.157 HEAT: -17.70526
 CYCLE:    51 TIME:   0.012 TIME LEFT:  2.00D  GRAD.:     1.179 HEAT: -17.70723
 CYCLE:    52 TIME:   0.012 TIME LEFT:  2.00D  GRAD.:     3.041 HEAT: -17.70759
 CYCLE:    53 TIME:   0.012 TIME LEFT:  2.00D  GRAD.:     0.807 HEAT: -17.71004
 CYCLE:    54 TIME:   0.008 TIME LEFT:  2.00D  GRAD.:     0.651 HEAT: -17.71062
 CYCLE:    55 TIME:   0.012 TIME LEFT:  2.00D  GRAD.:     0.844 HEAT: -17.71165
 CYCLE:    56 TIME:   0.012 TIME LEFT:  2.00D  GRAD.:     3.253 HEAT: -17.71140
 CYCLE:    57 TIME:   0.012 TIME LEFT:  2.00D  GRAD.:     0.870 HEAT: -17.71291
 CYCLE:    58 TIME:   0.008 TIME LEFT:  2.00D  GRAD.:     0.616 HEAT: -17.71325
 CYCLE:    59 TIME:   0.012 TIME LEFT:  2.00D  GRAD.:     0.687 HEAT: -17.71372
 CYCLE:    60 TIME:   0.012 TIME LEFT:  2.00D  GRAD.:     0.726 HEAT: -17.71435
 CYCLE:    61 TIME:   0.012 TIME LEFT:  2.00D  GRAD.:     2.888 HEAT: -17.71386
 CYCLE:    62 TIME:   0.008 TIME LEFT:  2.00D  GRAD.:     0.618 HEAT: -17.71574
 CYCLE:    63 TIME:   0.012 TIME LEFT:  2.00D  GRAD.:     0.451 HEAT: -17.71605
 CYCLE:    64 TIME:   0.008 TIME LEFT:  2.00D  GRAD.:     0.558 HEAT: -17.71658
 CYCLE:    65 TIME:   0.012 TIME LEFT:  2.00D  GRAD.:     0.988 HEAT: -17.71707
 CYCLE:    66 TIME:   0.012 TIME LEFT:  2.00D  GRAD.:     0.653 HEAT: -17.71777
 CYCLE:    67 TIME:   0.012 TIME LEFT:  2.00D  GRAD.:     0.626 HEAT: -17.71864
 CYCLE:    68 TIME:   0.008 TIME LEFT:  2.00D  GRAD.:     1.247 HEAT: -17.71957
 CYCLE:    69 TIME:   0.012 TIME LEFT:  2.00D  GRAD.:     1.204 HEAT: -17.72072
 CYCLE:    70 TIME:   0.012 TIME LEFT:  2.00D  GRAD.:     1.090 HEAT: -17.72221
 CYCLE:    71 TIME:   0.012 TIME LEFT:  2.00D  GRAD.:     2.497 HEAT: -17.72334
 CYCLE:    72 TIME:   0.008 TIME LEFT:  2.00D  GRAD.:     1.415 HEAT: -17.72464
 CYCLE:    73 TIME:   0.012 TIME LEFT:  2.00D  GRAD.:     0.828 HEAT: -17.72504
 CYCLE:    74 TIME:   0.008 TIME LEFT:  2.00D  GRAD.:     0.656 HEAT: -17.72563
 CYCLE:    75 TIME:   0.012 TIME LEFT:  2.00D  GRAD.:     0.664 HEAT: -17.72606
 CYCLE:    76 TIME:   0.012 TIME LEFT:  2.00D  GRAD.:     0.852 HEAT: -17.72698
 CYCLE:    77 TIME:   0.008 TIME LEFT:  2.00D  GRAD.:     1.944 HEAT: -17.72639
 CYCLE:    78 TIME:   0.012 TIME LEFT:  2.00D  GRAD.:     0.360 HEAT: -17.72754
 CYCLE:    79 TIME:   0.008 TIME LEFT:  2.00D  GRAD.:     0.282 HEAT: -17.72764
 CYCLE:    80 TIME:   0.012 TIME LEFT:  2.00D  GRAD.:     0.532 HEAT: -17.72784
 CYCLE:    81 TIME:   0.012 TIME LEFT:  2.00D  GRAD.:     0.664 HEAT: -17.72800
 CYCLE:    82 TIME:   0.008 TIME LEFT:  2.00D  GRAD.:     0.345 HEAT: -17.72818
 CYCLE:    83 TIME:   0.012 TIME LEFT:  2.00D  GRAD.:     0.257 HEAT: -17.72829
 CYCLE:    84 TIME:   0.012 TIME LEFT:  2.00D  GRAD.:     0.316 HEAT: -17.72840
 CYCLE:    85 TIME:   0.008 TIME LEFT:  2.00D  GRAD.:     0.480 HEAT: -17.72854
 CYCLE:    86 TIME:   0.012 TIME LEFT:  2.00D  GRAD.:     0.468 HEAT: -17.72871
 CYCLE:    87 TIME:   0.012 TIME LEFT:  2.00D  GRAD.:     0.426 HEAT: -17.72886
 CYCLE:    88 TIME:   0.008 TIME LEFT:  2.00D  GRAD.:     0.378 HEAT: -17.72901
 CYCLE:    89 TIME:   0.012 TIME LEFT:  2.00D  GRAD.:     0.472 HEAT: -17.72918
 CYCLE:    90 TIME:   0.008 TIME LEFT:  2.00D  GRAD.:     0.390 HEAT: -17.72942
 CYCLE:    91 TIME:   0.012 TIME LEFT:  2.00D  GRAD.:     0.365 HEAT: -17.72961
 CYCLE:    92 TIME:   0.012 TIME LEFT:  2.00D  GRAD.:     0.395 HEAT: -17.72980
 CYCLE:    93 TIME:   0.008 TIME LEFT:  2.00D  GRAD.:     0.506 HEAT: -17.72996
 CYCLE:    94 TIME:   0.012 TIME LEFT:  2.00D  GRAD.:     0.516 HEAT: -17.73008
 CYCLE:    95 TIME:   0.012 TIME LEFT:  2.00D  GRAD.:     0.456 HEAT: -17.73024
 CYCLE:    96 TIME:   0.008 TIME LEFT:  2.00D  GRAD.:     0.366 HEAT: -17.73038
 CYCLE:    97 TIME:   0.012 TIME LEFT:  2.00D  GRAD.:     0.296 HEAT: -17.73051
 CYCLE:    98 TIME:   0.012 TIME LEFT:  2.00D  GRAD.:     0.456 HEAT: -17.73069
 CYCLE:    99 TIME:   0.012 TIME LEFT:  2.00D  GRAD.:     0.549 HEAT: -17.73097
 CYCLE:   100 TIME:   0.008 TIME LEFT:  2.00D  GRAD.:     0.851 HEAT: -17.73121
 CYCLE:   101 TIME:   0.012 TIME LEFT:  2.00D  GRAD.:     0.655 HEAT: -17.73155
 CYCLE:   102 TIME:   0.012 TIME LEFT:  2.00D  GRAD.:     0.533 HEAT: -17.73187
 CYCLE:   103 TIME:   0.008 TIME LEFT:  2.00D  GRAD.:     0.597 HEAT: -17.73212
 CYCLE:   104 TIME:   0.012 TIME LEFT:  2.00D  GRAD.:     0.743 HEAT: -17.73242
 CYCLE:   105 TIME:   0.012 TIME LEFT:  2.00D  GRAD.:     0.500 HEAT: -17.73285
 CYCLE:   106 TIME:   0.008 TIME LEFT:  2.00D  GRAD.:     0.429 HEAT: -17.73312
 CYCLE:   107 TIME:   0.012 TIME LEFT:  2.00D  GRAD.:     0.511 HEAT: -17.73336
 CYCLE:   108 TIME:   0.012 TIME LEFT:  2.00D  GRAD.:     0.480 HEAT: -17.73366
 CYCLE:   109 TIME:   0.012 TIME LEFT:  2.00D  GRAD.:     0.514 HEAT: -17.73385
 CYCLE:   110 TIME:   0.012 TIME LEFT:  2.00D  GRAD.:     1.113 HEAT: -17.73386
 CYCLE:   111 TIME:   0.012 TIME LEFT:  2.00D  GRAD.:     0.547 HEAT: -17.73418
 CYCLE:   112 TIME:   0.012 TIME LEFT:  2.00D  GRAD.:     0.389 HEAT: -17.73434
 CYCLE:   113 TIME:   0.012 TIME LEFT:  2.00D  GRAD.:     0.252 HEAT: -17.73443
 CYCLE:   114 TIME:   0.012 TIME LEFT:  2.00D  GRAD.:     0.503 HEAT: -17.73448
 CYCLE:   115 TIME:   0.008 TIME LEFT:  2.00D  GRAD.:     0.328 HEAT: -17.73455
 CYCLE:   116 TIME:   0.012 TIME LEFT:  2.00D  GRAD.:     0.432 HEAT: -17.73461
 CYCLE:   117 TIME:   0.008 TIME LEFT:  2.00D  GRAD.:     0.261 HEAT: -17.73466
 CYCLE:   118 TIME:   0.012 TIME LEFT:  2.00D  GRAD.:     0.398 HEAT: -17.73468
 CYCLE:   119 TIME:   0.012 TIME LEFT:  2.00D  GRAD.:     0.254 HEAT: -17.73474
 CYCLE:   120 TIME:   0.008 TIME LEFT:  2.00D  GRAD.:     0.172 HEAT: -17.73480

 -------------------------------------------------------------------------------
 pm3  precise nosym THREADS=1
 InChI=1S/C12H22/c1-4-7-10(5-2)12-9-8-11(12)6-3/h5,10-12H,2,4,6-9H2,1,3H3



     HERBERTS TEST WAS SATISFIED IN BFGS                      
     SCF FIELD WAS ACHIEVED                                   


                              PM3 CALCULATION
                                                       MOPAC v23.1.2 MacOS
                                                       Tue Jun  3 16:36:42 2025




          FINAL HEAT OF FORMATION =        -17.73480 KCAL/MOL =     -74.20239 KJ/MOL


          COSMO AREA              =        241.17 SQUARE ANGSTROMS
          COSMO VOLUME            =        260.35 CUBIC ANGSTROMS

          GRADIENT NORM           =          0.17228          =       0.02955 PER ATOM
          IONIZATION POTENTIAL    =         10.193185 EV
          HOMO LUMO ENERGIES (EV) =        -10.193  1.160
          NO. OF FILLED LEVELS    =         35
          MOLECULAR WEIGHT        =        166.3058         POINT GROUP:  C1  

          MOLECULAR DIMENSIONS (Angstroms)

            Atom       Atom       Distance
            H    34    H    27     9.09861
            H    29    H    24     7.97605
            H    18    H    31     3.99256


          SCF CALCULATIONS        =        121

          WALL-CLOCK TIME         =      1.277 SECONDS
          COMPUTATION TIME        =      0.897 SECONDS




   ATOM   CHEMICAL          X               Y               Z
  NUMBER   SYMBOL      (ANGSTROMS)     (ANGSTROMS)     (ANGSTROMS)

     1       C          0.50393935  *  -0.90772390  *  -0.37857622  *
     2       C          1.67704883  *  -0.06197790  *   0.20187379  *
     3       C         -0.86981712  *  -0.60037749  *   0.20928228  *
     4       C          2.36838143  *  -1.36237511  *   0.67652512  *
     5       C          1.18261944  *  -2.19248178  *   0.15537086  *
     6       C         -1.36020241  *   0.76499470  *  -0.28176665  *
     7       C          2.43314964  *   0.75084523  *  -0.82753292  *
     8       C         -2.57732654  *   1.24333346  *   0.49312204  *
     9       C          3.58877535  *   1.50506157  *  -0.20925628  *
    10       C         -3.07606921  *   2.57244820  *  -0.02684357  *
    11       C         -1.83538804  *  -1.67094538  *  -0.19978323  *
    12       C         -2.39096700  *  -2.51414997  *   0.66216553  *
    13       H          1.36679158  *   0.59343467  *   1.04503774  *
    14       H          0.45278821  *  -0.87215825  *  -1.48851414  *
    15       H         -0.78527380  *  -0.57238318  *   1.32528516  *
    16       H          2.80138849  *   0.09299127  *  -1.64019381  *
    17       H          1.72895581  *   1.45866645  *  -1.31004681  *
    18       H          2.53649221  *  -1.42297988  *   1.76184608  *
    19       H          3.33205254  *  -1.57304970  *   0.18665042  *
    20       H         -2.33030596  *   1.32711459  *   1.57032652  *
    21       H         -3.38118130  *   0.48238715  *   0.43093155  *
    22       H          0.60810615  *  -2.72015529  *   0.93332499  *
    23       H         -0.53942110  *   1.50631501  *  -0.18753237  *
    24       H          1.43673418  *  -2.93155037  *  -0.61851454  *
    25       H         -1.59372072  *   0.71743359  *  -1.36497261  *
    26       H          3.24981911  *   2.20045465  *   0.57016086  *
    27       H          4.12906518  *   2.09299033  *  -0.96191681  *
    28       H          4.31121290  *   0.82064598  *   0.25575554  *
    29       H         -3.95175963  *   2.91754274  *   0.53737444  *
    30       H         -2.30698384  *   3.35246191  *   0.05137506  *
    31       H         -3.36999671  *   2.51000284  *  -1.08311454  *
    32       H         -2.06021499  *  -1.72483166  *  -1.27228435  *
    33       H         -2.18983655  *  -2.49442538  *   1.73007860  *
    34       H         -3.08865549  *  -3.28765909  *   0.35636229  *

                             CARTESIAN COORDINATES

   1    C        0.503939350    -0.907723896    -0.378576221
   2    C        1.677048829    -0.061977904     0.201873787
   3    C       -0.869817117    -0.600377492     0.209282280
   4    C        2.368381433    -1.362375113     0.676525116
   5    C        1.182619436    -2.192481778     0.155370861
   6    C       -1.360202413     0.764994699    -0.281766649
   7    C        2.433149641     0.750845232    -0.827532923
   8    C       -2.577326536     1.243333462     0.493122037
   9    C        3.588775349     1.505061572    -0.209256281
  10    C       -3.076069210     2.572448197    -0.026843568
  11    C       -1.835388039    -1.670945384    -0.199783234
  12    C       -2.390967004    -2.514149973     0.662165535
  13    H        1.366791580     0.593434669     1.045037737
  14    H        0.452788209    -0.872158250    -1.488514137
  15    H       -0.785273801    -0.572383180     1.325285156
  16    H        2.801388491     0.092991272    -1.640193814
  17    H        1.728955809     1.458666446    -1.310046810
  18    H        2.536492206    -1.422979883     1.761846084
  19    H        3.332052538    -1.573049697     0.186650418
  20    H       -2.330305959     1.327114587     1.570326515
  21    H       -3.381181296     0.482387154     0.430931551
  22    H        0.608106148    -2.720155288     0.933324988
  23    H       -0.539421096     1.506315008    -0.187532369
  24    H        1.436734178    -2.931550373    -0.618514541
  25    H       -1.593720715     0.717433590    -1.364972612
  26    H        3.249819113     2.200454647     0.570160858
  27    H        4.129065182     2.092990333    -0.961916808
  28    H        4.311212901     0.820645979     0.255755540
  29    H       -3.951759630     2.917542741     0.537374437
  30    H       -2.306983838     3.352461911     0.051375060
  31    H       -3.369996708     2.510002836    -1.083114540
  32    H       -2.060214990    -1.724831657    -1.272284348
  33    H       -2.189836549    -2.494425378     1.730078600
  34    H       -3.088655491    -3.287659086     0.356362292


           Empirical Formula: C12 H22  =    34 atoms



      MOLECULAR POINT GROUP   :   C1  


                  EIGENVALUES  
 -42.38611 -37.59990 -34.07133 -32.36609 -28.98116 -25.16906 -24.98459 -22.39451
 -21.17201 -20.89986 -19.70377 -18.54480 -16.82586 -16.55020 -16.10246 -15.83561
 -15.35393 -14.94462 -14.48556 -14.21966 -14.07696 -13.75815 -13.19282 -12.91573
 -12.85920 -12.63465 -12.35226 -12.16225 -12.00988 -11.85853 -11.47285 -11.28991
 -11.22744 -11.14410 -10.19318   1.16030   3.13243   3.26174   3.43455   3.54788
   3.62299   3.74583   3.77933   3.86802   3.92957   3.97572   4.00516   4.04582
   4.05294   4.11758   4.16481   4.21522   4.33652   4.35265   4.36498   4.47073
   4.51955   4.61098   4.62635   4.72906   4.87769   4.93447   4.97703   5.05502
   5.08926   5.14399   5.49566   5.61966   5.66971   5.91951


              NET ATOMIC CHARGES AND DIPOLE CONTRIBUTIONS

  ATOM NO.   TYPE          CHARGE      No. of ELECS.   s-Pop       p-Pop       
    1          C          -0.091049        4.0910     1.19657     2.89447
    2          C          -0.096076        4.0961     1.19473     2.90134
    3          C          -0.041510        4.0415     1.16881     2.87270
    4          C          -0.109215        4.1092     1.17328     2.93594
    5          C          -0.109128        4.1091     1.17336     2.93577
    6          C          -0.103670        4.1037     1.16618     2.93749
    7          C          -0.090195        4.0902     1.15753     2.93267
    8          C          -0.101190        4.1012     1.15879     2.94240
    9          C          -0.109656        4.1097     1.13800     2.97165
   10          C          -0.108693        4.1087     1.13822     2.97047
   11          C          -0.130894        4.1309     1.19776     2.93313
   12          C          -0.166488        4.1665     1.18308     2.98341
   13          H           0.076802        0.9232     0.92320
   14          H           0.075840        0.9242     0.92416
   15          H           0.071933        0.9281     0.92807
   16          H           0.051860        0.9481     0.94814
   17          H           0.050359        0.9496     0.94964
   18          H           0.054682        0.9453     0.94532
   19          H           0.059668        0.9403     0.94033
   20          H           0.048562        0.9514     0.95144
   21          H           0.054238        0.9458     0.94576
   22          H           0.062232        0.9378     0.93777
   23          H           0.056586        0.9434     0.94341
   24          H           0.055821        0.9442     0.94418
   25          H           0.053234        0.9468     0.94677
   26          H           0.037827        0.9622     0.96217
   27          H           0.037115        0.9629     0.96289
   28          H           0.039501        0.9605     0.96050
   29          H           0.037052        0.9629     0.96295
   30          H           0.036926        0.9631     0.96307
   31          H           0.037423        0.9626     0.96258
   32          H           0.098836        0.9012     0.90116
   33          H           0.082042        0.9180     0.91796
   34          H           0.079223        0.9208     0.92078
 DIPOLE           X         Y         Z       TOTAL
 POINT-CHG.     0.108     0.149    -0.038     0.188
 HYBRID        -0.013    -0.021    -0.024     0.035
 SUM            0.094     0.128    -0.063     0.171


          ATOMIC ORBITAL ELECTRON POPULATIONS

     Atom    s        px        py        pz   
    1  C   1.19657   0.93070   0.96435   0.99943
    2  C   1.19473   0.96109   0.95514   0.98512
    3  C   1.16881   0.93398   0.93797   1.00075
    4  C   1.17328   0.97137   0.96062   1.00395
    5  C   1.17336   0.97268   0.95560   1.00749
    6  C   1.16618   0.97994   0.96120   0.99634
    7  C   1.15753   0.97282   0.98804   0.97181
    8  C   1.15879   0.97934   0.97204   0.99102
    9  C   1.13800   0.97736   0.99377   1.00053
   10  C   1.13822   1.00127   0.96633   1.00287
   11  C   1.19776   0.97563   0.96773   0.98978
   12  C   1.18308   1.00339   0.98980   0.99022
   13  H   0.92320
   14  H   0.92416
   15  H   0.92807
   16  H   0.94814
   17  H   0.94964
   18  H   0.94532
   19  H   0.94033
   20  H   0.95144
   21  H   0.94576
   22  H   0.93777
   23  H   0.94341
   24  H   0.94418
   25  H   0.94677
   26  H   0.96217
   27  H   0.96289
   28  H   0.96050
   29  H   0.96295
   30  H   0.96307
   31  H   0.96258
   32  H   0.90116
   33  H   0.91796
   34  H   0.92078
 *******************************************************************************
 **                                                                           **
 **                              MOPAC v23.1.2                                **
 **                                                                           **
 *******************************************************************************
 **          Digital Object Identifier (DOI): 10.5281/zenodo.6511958          **
 **    Visit the DOI location for information on how to cite this program.    **
 *******************************************************************************

                              PM3 CALCULATION RESULTS

 *******************************************************************************
 *  CALCULATION DONE: (MAX THREADS = 1)              Tue Jun  3 16:36:42 2025  *
 *  PM3        - The PM3 Hamiltonian to be used
 *  OLDGEO     - PREVIOUS GEOMETRY TO BE USED
 *  PRECISE    - TIGHTER CRITERIA TO BE USED
 *  NOSYM      - POINT-GROUP SYMMETRY SET TO C1
 *  THREADS=1  - MULTI-THREADING NOT USED
 *  T=         - A TIME OF 172800.0 SECONDS REQUESTED
 *  DUMP=N     - RESTART FILE WRITTEN EVERY 7200.0 SECONDS REQUESTED
 *  THERMO     - THERMODYNAMIC QUANTITIES TO BE CALCULATED
 *******************************************************************************
oldgeo thermo nosym precise THREADS=1  pm3
 InChI=1S/C12H22/c1-4-7-10(5-2)12-9-8-11(12)6-3/h5,10-12H,2,4,6-9H2,1,3H3

   ATOM   CHEMICAL          X               Y               Z
  NUMBER   SYMBOL      (ANGSTROMS)     (ANGSTROMS)     (ANGSTROMS)

     1       C          0.50393935  *  -0.90772390  *  -0.37857622  *
     2       C          1.67704883  *  -0.06197790  *   0.20187379  *
     3       C         -0.86981712  *  -0.60037749  *   0.20928228  *
     4       C          2.36838143  *  -1.36237511  *   0.67652512  *
     5       C          1.18261944  *  -2.19248178  *   0.15537086  *
     6       C         -1.36020241  *   0.76499470  *  -0.28176665  *
     7       C          2.43314964  *   0.75084523  *  -0.82753292  *
     8       C         -2.57732654  *   1.24333346  *   0.49312204  *
     9       C          3.58877535  *   1.50506157  *  -0.20925628  *
    10       C         -3.07606921  *   2.57244820  *  -0.02684357  *
    11       C         -1.83538804  *  -1.67094538  *  -0.19978323  *
    12       C         -2.39096700  *  -2.51414997  *   0.66216553  *
    13       H          1.36679158  *   0.59343467  *   1.04503774  *
    14       H          0.45278821  *  -0.87215825  *  -1.48851414  *
    15       H         -0.78527380  *  -0.57238318  *   1.32528516  *
    16       H          2.80138849  *   0.09299127  *  -1.64019381  *
    17       H          1.72895581  *   1.45866645  *  -1.31004681  *
    18       H          2.53649221  *  -1.42297988  *   1.76184608  *
    19       H          3.33205254  *  -1.57304970  *   0.18665042  *
    20       H         -2.33030596  *   1.32711459  *   1.57032652  *
    21       H         -3.38118130  *   0.48238715  *   0.43093155  *
    22       H          0.60810615  *  -2.72015529  *   0.93332499  *
    23       H         -0.53942110  *   1.50631501  *  -0.18753237  *
    24       H          1.43673418  *  -2.93155037  *  -0.61851454  *
    25       H         -1.59372072  *   0.71743359  *  -1.36497261  *
    26       H          3.24981911  *   2.20045465  *   0.57016086  *
    27       H          4.12906518  *   2.09299033  *  -0.96191681  *
    28       H          4.31121290  *   0.82064598  *   0.25575554  *
    29       H         -3.95175963  *   2.91754274  *   0.53737444  *
    30       H         -2.30698384  *   3.35246191  *   0.05137506  *
    31       H         -3.36999671  *   2.51000284  *  -1.08311454  *
    32       H         -2.06021499  *  -1.72483166  *  -1.27228435  *
    33       H         -2.18983655  *  -2.49442538  *   1.73007860  *
    34       H         -3.08865549  *  -3.28765909  *   0.35636229  *



          CARTESIAN COORDINATES 

    NO.       ATOM           X           Y           Z

     1         C          0.5039     -0.9077     -0.3786
     2         C          1.6770     -0.0620      0.2019
     3         C         -0.8698     -0.6004      0.2093
     4         C          2.3684     -1.3624      0.6765
     5         C          1.1826     -2.1925      0.1554
     6         C         -1.3602      0.7650     -0.2818
     7         C          2.4331      0.7508     -0.8275
     8         C         -2.5773      1.2433      0.4931
     9         C          3.5888      1.5051     -0.2093
    10         C         -3.0761      2.5724     -0.0268
    11         C         -1.8354     -1.6709     -0.1998
    12         C         -2.3910     -2.5141      0.6622
    13         H          1.3668      0.5934      1.0450
    14         H          0.4528     -0.8722     -1.4885
    15         H         -0.7853     -0.5724      1.3253
    16         H          2.8014      0.0930     -1.6402
    17         H          1.7290      1.4587     -1.3100
    18         H          2.5365     -1.4230      1.7618
    19         H          3.3321     -1.5730      0.1867
    20         H         -2.3303      1.3271      1.5703
    21         H         -3.3812      0.4824      0.4309
    22         H          0.6081     -2.7202      0.9333
    23         H         -0.5394      1.5063     -0.1875
    24         H          1.4367     -2.9316     -0.6185
    25         H         -1.5937      0.7174     -1.3650
    26         H          3.2498      2.2005      0.5702
    27         H          4.1291      2.0930     -0.9619
    28         H          4.3112      0.8206      0.2558
    29         H         -3.9518      2.9175      0.5374
    30         H         -2.3070      3.3525      0.0514
    31         H         -3.3700      2.5100     -1.0831
    32         H         -2.0602     -1.7248     -1.2723
    33         H         -2.1898     -2.4944      1.7301
    34         H         -3.0887     -3.2877      0.3564

  H: (PM3): J. J. P. STEWART, J. COMP. CHEM. 10, 209 (1989).
  C: (PM3): J. J. P. STEWART, J. COMP. CHEM. 10, 209 (1989).

           Empirical Formula: C12 H22  =    34 atoms



      MOLECULAR POINT GROUP   :   C1  


      RHF CALCULATION, NO. OF DOUBLY OCCUPIED LEVELS = 35



          HEAT OF FORMATION =     -17.734796 KCALS/MOLE


          CARTESIAN COORDINATE DERIVATIVES

   NUMBER  ATOM         X            Y            Z

     1       C     -0.007492    -0.006455     0.005169
     2       C     -0.000274     0.005862     0.018384
     3       C     -0.016482    -0.019854    -0.007186
     4       C      0.000916    -0.006485    -0.001572
     5       C      0.010139    -0.005582     0.012606
     6       C     -0.014747    -0.002145    -0.004248
     7       C     -0.018567     0.000877    -0.002024
     8       C     -0.005463     0.002385    -0.001308
     9       C     -0.030136     0.015616     0.004706
    10       C     -0.000105    -0.021356     0.022046
    11       C      0.006820     0.049235     0.030129
    12       C      0.019003    -0.021116    -0.045583
    13       H      0.008428     0.018502    -0.017634
    14       H      0.005646    -0.005597    -0.024544
    15       H      0.014335    -0.023873    -0.008310
    16       H      0.004283    -0.006904     0.020959
    17       H     -0.007241    -0.000642    -0.014760
    18       H      0.023824    -0.027030    -0.010771
    19       H      0.016293    -0.004013    -0.015732
    20       H      0.018958     0.002360    -0.009021
    21       H     -0.000284    -0.005870     0.004094
    22       H      0.016277     0.011178    -0.006069
    23       H     -0.006960    -0.016144     0.018638
    24       H     -0.006420     0.015017     0.012848
    25       H     -0.031553    -0.009543    -0.009685
    26       H     -0.011394     0.007635     0.019239
    27       H      0.003204     0.030178     0.019311
    28       H     -0.007434     0.001635    -0.014698
    29       H      0.026705    -0.019189    -0.005331
    30       H     -0.013475     0.018844     0.005216
    31       H      0.007330    -0.008122     0.021978
    32       H      0.015707     0.012706     0.018162
    33       H     -0.047070    -0.015911     0.002470
    34       H      0.027230     0.033801    -0.037477



          GRADIENT NORM =   0.17207

          MOLECULAR WEIGHT =  166.31



          ROTATIONAL CONSTANTS IN CM(-1)

          A =    0.03567127   B =    0.01913141   C =    0.01334134



           PRINCIPAL MOMENTS OF INERTIA IN UNITS OF 10**(-40)*GRAM-CM**2

          A =      784.7421   B =     1463.1828   C =     2098.1957


          ORIENTATION OF MOLECULE IN FORCE CALCULATION

    NO.       ATOM         X         Y         Z

     1          C      -0.1624   -0.9445    0.2967
     2          C       1.3959   -0.9445    0.2967
     3          C      -0.8108    0.4364    0.2967
     4          C       1.3874   -1.7237    1.6335
     5          C      -0.1499   -1.6725    1.6628
     6          C      -0.6218    1.1078   -1.0669
     7          C       2.0228   -1.6597   -0.8813
     8          C      -0.9898    2.5822   -1.0295
     9          C       3.5324   -1.6694   -0.7938
    10          C      -0.8376    3.2243   -2.3897
    11          C      -2.2711    0.2989    0.6041
    12          C      -2.8259    0.7703    1.7142
    13          H       1.8321    0.0738    0.3943
    14          H      -0.5950   -1.5614   -0.5207
    15          H      -0.3163    1.0658    1.0794
    16          H       1.6403   -2.6980   -0.9471
    17          H       1.6971   -1.1599   -1.8161
    18          H       1.8853   -1.2085    2.4682
    19          H       1.8161   -2.7365    1.5753
    20          H      -0.3572    3.1107   -0.2887
    21          H      -2.0311    2.6971   -0.6668
    22          H      -0.5790   -1.0887    2.4927
    23          H       0.4335    0.9919   -1.3909
    24          H      -0.6479   -2.6531    1.6637
    25          H      -1.2269    0.5843   -1.8349
    26          H       3.9450   -0.6519   -0.7732
    27          H       3.9779   -2.1873   -1.6526
    28          H       3.8780   -2.1802    0.1151
    29          H      -1.0994    4.2896   -2.3588
    30          H       0.1938    3.1504   -2.7595
    31          H      -1.4862    2.7486   -3.1374
    32          H      -2.8690   -0.2268   -0.1508
    33          H      -2.2660    1.2922    2.4859
    34          H      -3.8848    0.6649    1.9291


    FIRST DERIVATIVES WILL BE USED IN THE CALCULATION OF SECOND DERIVATIVES

          ESTIMATED TIME TO COMPLETE CALCULATION =        4.78 SECONDS

    FOR POINT-GROUP C1   THERE ARE   1 UNIQUE SYMMETRY FUNCTIONS.

 STEP:   1 TIME =     0.04 SECS, INTEGRAL =      0.04 TIME LEFT: 172799.95
 STEP:   2 TIME =     0.04 SECS, INTEGRAL =      0.08 TIME LEFT: 172799.91
 STEP:   3 TIME =     0.04 SECS, INTEGRAL =      0.12 TIME LEFT: 172799.87
 STEP:   4 TIME =     0.04 SECS, INTEGRAL =      0.16 TIME LEFT: 172799.83
 STEP:   5 TIME =     0.04 SECS, INTEGRAL =      0.20 TIME LEFT: 172799.79
 STEP:   6 TIME =     0.04 SECS, INTEGRAL =      0.24 TIME LEFT: 172799.75
 STEP:   7 TIME =     0.04 SECS, INTEGRAL =      0.28 TIME LEFT: 172799.71
 STEP:   8 TIME =     0.04 SECS, INTEGRAL =      0.32 TIME LEFT: 172799.66
 STEP:   9 TIME =     0.04 SECS, INTEGRAL =      0.36 TIME LEFT: 172799.62
 STEP:  10 TIME =     0.04 SECS, INTEGRAL =      0.40 TIME LEFT: 172799.59
 STEP:  11 TIME =     0.04 SECS, INTEGRAL =      0.45 TIME LEFT: 172799.54
 STEP:  12 TIME =     0.04 SECS, INTEGRAL =      0.48 TIME LEFT: 172799.50
 STEP:  13 TIME =     0.04 SECS, INTEGRAL =      0.52 TIME LEFT: 172799.46
 STEP:  14 TIME =     0.04 SECS, INTEGRAL =      0.56 TIME LEFT: 172799.43
 STEP:  15 TIME =     0.04 SECS, INTEGRAL =      0.60 TIME LEFT: 172799.39
 STEP:  16 TIME =     0.04 SECS, INTEGRAL =      0.64 TIME LEFT: 172799.34
 STEP:  17 TIME =     0.04 SECS, INTEGRAL =      0.68 TIME LEFT: 172799.30
 STEP:  18 TIME =     0.04 SECS, INTEGRAL =      0.72 TIME LEFT: 172799.27
 STEP:  19 TIME =     0.04 SECS, INTEGRAL =      0.76 TIME LEFT: 172799.23
 STEP:  20 TIME =     0.04 SECS, INTEGRAL =      0.80 TIME LEFT: 172799.19
 STEP:  21 TIME =     0.04 SECS, INTEGRAL =      0.84 TIME LEFT: 172799.15
 STEP:  22 TIME =     0.04 SECS, INTEGRAL =      0.88 TIME LEFT: 172799.11
 STEP:  23 TIME =     0.04 SECS, INTEGRAL =      0.92 TIME LEFT: 172799.07
 STEP:  24 TIME =     0.04 SECS, INTEGRAL =      0.96 TIME LEFT: 172799.03
 STEP:  25 TIME =     0.04 SECS, INTEGRAL =      1.00 TIME LEFT: 172798.99
 STEP:  26 TIME =     0.04 SECS, INTEGRAL =      1.04 TIME LEFT: 172798.95
 STEP:  27 TIME =     0.04 SECS, INTEGRAL =      1.09 TIME LEFT: 172798.90
 STEP:  28 TIME =     0.04 SECS, INTEGRAL =      1.13 TIME LEFT: 172798.86
 STEP:  29 TIME =     0.04 SECS, INTEGRAL =      1.17 TIME LEFT: 172798.82
 STEP:  30 TIME =     0.04 SECS, INTEGRAL =      1.21 TIME LEFT: 172798.78
 STEP:  31 TIME =     0.04 SECS, INTEGRAL =      1.25 TIME LEFT: 172798.74
 STEP:  32 TIME =     0.04 SECS, INTEGRAL =      1.29 TIME LEFT: 172798.70
 STEP:  33 TIME =     0.04 SECS, INTEGRAL =      1.33 TIME LEFT: 172798.66
 STEP:  34 TIME =     0.04 SECS, INTEGRAL =      1.37 TIME LEFT: 172798.62
 STEP:  35 TIME =     0.04 SECS, INTEGRAL =      1.41 TIME LEFT: 172798.57
 STEP:  36 TIME =     0.04 SECS, INTEGRAL =      1.45 TIME LEFT: 172798.54
 STEP:  37 TIME =     0.04 SECS, INTEGRAL =      1.49 TIME LEFT: 172798.50
 STEP:  38 TIME =     0.04 SECS, INTEGRAL =      1.53 TIME LEFT: 172798.46
 STEP:  39 TIME =     0.04 SECS, INTEGRAL =      1.57 TIME LEFT: 172798.41
 STEP:  40 TIME =     0.04 SECS, INTEGRAL =      1.61 TIME LEFT: 172798.38
 STEP:  41 TIME =     0.04 SECS, INTEGRAL =      1.66 TIME LEFT: 172798.33
 STEP:  42 TIME =     0.04 SECS, INTEGRAL =      1.70 TIME LEFT: 172798.29
 STEP:  43 TIME =     0.04 SECS, INTEGRAL =      1.74 TIME LEFT: 172798.25
 STEP:  44 TIME =     0.04 SECS, INTEGRAL =      1.79 TIME LEFT: 172798.20
 STEP:  45 TIME =     0.04 SECS, INTEGRAL =      1.83 TIME LEFT: 172798.16
 STEP:  46 TIME =     0.04 SECS, INTEGRAL =      1.87 TIME LEFT: 172798.12
 STEP:  47 TIME =     0.04 SECS, INTEGRAL =      1.91 TIME LEFT: 172798.08
 STEP:  48 TIME =     0.04 SECS, INTEGRAL =      1.95 TIME LEFT: 172798.04
 STEP:  49 TIME =     0.04 SECS, INTEGRAL =      1.99 TIME LEFT: 172798.00
 STEP:  50 TIME =     0.04 SECS, INTEGRAL =      2.03 TIME LEFT: 172797.96
 STEP:  51 TIME =     0.04 SECS, INTEGRAL =      2.07 TIME LEFT: 172797.92
 STEP:  52 TIME =     0.04 SECS, INTEGRAL =      2.11 TIME LEFT: 172797.88
 STEP:  53 TIME =     0.04 SECS, INTEGRAL =      2.15 TIME LEFT: 172797.84
 STEP:  54 TIME =     0.04 SECS, INTEGRAL =      2.20 TIME LEFT: 172797.79
 STEP:  55 TIME =     0.04 SECS, INTEGRAL =      2.23 TIME LEFT: 172797.75
 STEP:  56 TIME =     0.04 SECS, INTEGRAL =      2.27 TIME LEFT: 172797.71
 STEP:  57 TIME =     0.05 SECS, INTEGRAL =      2.32 TIME LEFT: 172797.67
 STEP:  58 TIME =     0.04 SECS, INTEGRAL =      2.36 TIME LEFT: 172797.62
 STEP:  59 TIME =     0.04 SECS, INTEGRAL =      2.41 TIME LEFT: 172797.58
 STEP:  60 TIME =     0.04 SECS, INTEGRAL =      2.45 TIME LEFT: 172797.54
 STEP:  61 TIME =     0.04 SECS, INTEGRAL =      2.49 TIME LEFT: 172797.50
 STEP:  62 TIME =     0.04 SECS, INTEGRAL =      2.53 TIME LEFT: 172797.46
 STEP:  63 TIME =     0.04 SECS, INTEGRAL =      2.57 TIME LEFT: 172797.42
 STEP:  64 TIME =     0.04 SECS, INTEGRAL =      2.61 TIME LEFT: 172797.38
 STEP:  65 TIME =     0.04 SECS, INTEGRAL =      2.65 TIME LEFT: 172797.34
 STEP:  66 TIME =     0.04 SECS, INTEGRAL =      2.70 TIME LEFT: 172797.29
 STEP:  67 TIME =     0.04 SECS, INTEGRAL =      2.73 TIME LEFT: 172797.25
 STEP:  68 TIME =     0.05 SECS, INTEGRAL =      2.78 TIME LEFT: 172797.21
 STEP:  69 TIME =     0.04 SECS, INTEGRAL =      2.82 TIME LEFT: 172797.16
 STEP:  70 TIME =     0.04 SECS, INTEGRAL =      2.87 TIME LEFT: 172797.12
 STEP:  71 TIME =     0.04 SECS, INTEGRAL =      2.91 TIME LEFT: 172797.08
 STEP:  72 TIME =     0.04 SECS, INTEGRAL =      2.95 TIME LEFT: 172797.04
 STEP:  73 TIME =     0.04 SECS, INTEGRAL =      2.99 TIME LEFT: 172797.00
 STEP:  74 TIME =     0.04 SECS, INTEGRAL =      3.03 TIME LEFT: 172796.96
 STEP:  75 TIME =     0.04 SECS, INTEGRAL =      3.07 TIME LEFT: 172796.92
 STEP:  76 TIME =     0.04 SECS, INTEGRAL =      3.11 TIME LEFT: 172796.88
 STEP:  77 TIME =     0.04 SECS, INTEGRAL =      3.15 TIME LEFT: 172796.84
 STEP:  78 TIME =     0.05 SECS, INTEGRAL =      3.20 TIME LEFT: 172796.79
 STEP:  79 TIME =     0.04 SECS, INTEGRAL =      3.24 TIME LEFT: 172796.75
 STEP:  80 TIME =     0.04 SECS, INTEGRAL =      3.28 TIME LEFT: 172796.71
 STEP:  81 TIME =     0.05 SECS, INTEGRAL =      3.32 TIME LEFT: 172796.66
 STEP:  82 TIME =     0.04 SECS, INTEGRAL =      3.36 TIME LEFT: 172796.62
 STEP:  83 TIME =     0.04 SECS, INTEGRAL =      3.40 TIME LEFT: 172796.59
 STEP:  84 TIME =     0.04 SECS, INTEGRAL =      3.44 TIME LEFT: 172796.55
 STEP:  85 TIME =     0.04 SECS, INTEGRAL =      3.48 TIME LEFT: 172796.51
 STEP:  86 TIME =     0.04 SECS, INTEGRAL =      3.52 TIME LEFT: 172796.47
 STEP:  87 TIME =     0.04 SECS, INTEGRAL =      3.56 TIME LEFT: 172796.43
 STEP:  88 TIME =     0.04 SECS, INTEGRAL =      3.60 TIME LEFT: 172796.39
 STEP:  89 TIME =     0.04 SECS, INTEGRAL =      3.64 TIME LEFT: 172796.34
 STEP:  90 TIME =     0.04 SECS, INTEGRAL =      3.68 TIME LEFT: 172796.30
 STEP:  91 TIME =     0.04 SECS, INTEGRAL =      3.72 TIME LEFT: 172796.27
 STEP:  92 TIME =     0.04 SECS, INTEGRAL =      3.76 TIME LEFT: 172796.23
 STEP:  93 TIME =     0.04 SECS, INTEGRAL =      3.80 TIME LEFT: 172796.19
 STEP:  94 TIME =     0.04 SECS, INTEGRAL =      3.84 TIME LEFT: 172796.15
 STEP:  95 TIME =     0.05 SECS, INTEGRAL =      3.89 TIME LEFT: 172796.10
 STEP:  96 TIME =     0.04 SECS, INTEGRAL =      3.93 TIME LEFT: 172796.06
 STEP:  97 TIME =     0.04 SECS, INTEGRAL =      3.97 TIME LEFT: 172796.02
 STEP:  98 TIME =     0.04 SECS, INTEGRAL =      4.01 TIME LEFT: 172795.98
 STEP:  99 TIME =     0.04 SECS, INTEGRAL =      4.05 TIME LEFT: 172795.94
 STEP: 100 TIME =     0.04 SECS, INTEGRAL =      4.09 TIME LEFT: 172795.90
 STEP: 101 TIME =     0.04 SECS, INTEGRAL =      4.13 TIME LEFT: 172795.86
 STEP: 102 TIME =     0.04 SECS, INTEGRAL =      4.17 TIME LEFT: 172795.82

(To convert to Hartree/Bohr^2, multiply by (10^(-21) x N x a0^2)/(4.184 x 627.51) =  0.0642)


           FORCE MATRIX IN MILLIDYNES/ANGSTROM


                  C  1       C  2       C  3       C  4       C  5       C  6
 ------------------------------------------------------------------------------
     C    1  14.330448
     C    2   3.149177  14.423730
     C    3   3.931184   0.515012  14.613965
     C    4   1.811664   3.482746   0.041540  14.442575
     C    5   3.469042   1.820837   0.516394   3.780173  14.440487
     C    6   0.645991   0.043749   3.798877   0.004490   0.049299  14.245159
     C    7   0.535155   4.327962   0.033625   0.532923   0.041664   0.006751
     C    8   0.051962   0.002624   0.617880   0.000647   0.008860   4.190086
     C    9   0.049617   0.660921   0.006517   0.031885   0.005755   0.000706
     C   10   0.010233   0.000824   0.053342   0.000273   0.002165   0.664431
     C   11   0.698189   0.048214   4.619386   0.006093   0.042384   0.691286
     C   12   0.040223   0.005814   0.799270   0.001691   0.016259   0.042529
     H   13   0.435714   4.373194   0.032235   0.429456   0.026419   0.012016
     H   14   4.385632   0.437071   0.435441   0.026275   0.429200   0.029492
     H   15   0.431061   0.027569   4.153580   0.001526   0.019327   0.426134
     H   16   0.021530   0.450717   0.001060   0.021929   0.001743   0.000509
     H   17   0.019705   0.434376   0.001909   0.047468   0.003031   0.006447
     H   18   0.031147   0.442080   0.003692   4.707002   0.445034   0.000869
     H   19   0.029109   0.454404   0.001399   4.660152   0.445720   0.000446
     H   20   0.001372   0.000366   0.027412   0.000147   0.000451   0.444771
     H   21   0.001733   0.000309   0.028972   0.000178   0.000514   0.445410
     H   22   0.455415   0.029250   0.026710   0.444973   4.652182   0.003099
     H   23   0.048778   0.018763   0.441099   0.000750   0.002314   4.394961
     H   24   0.443518   0.031385   0.032693   0.444880   4.710512   0.005722
     H   25   0.019483   0.002290   0.450509   0.000476   0.000995   4.421756
     H   26   0.001670   0.024216   0.000474   0.002071   0.000419   0.000207
     H   27   0.008486   0.052498   0.001304   0.002070   0.000796   0.000160
     H   28   0.001849   0.020141   0.000526   0.006712   0.000540   0.000161
     H   29   0.002054   0.000191   0.009301   0.000081   0.000498   0.051669
     H   30   0.000507   0.000136   0.002014   0.000071   0.000127   0.023607
     H   31   0.000567   0.000056   0.001670   0.000065   0.000110   0.023948
     H   32   0.016017   0.001870   0.436710   0.000583   0.002749   0.024178
     H   33   0.013435   0.002411   0.099447   0.000541   0.002097   0.011268
     H   34   0.019991   0.003213   0.139532   0.000370   0.001500   0.019234


                  C  7       C  8       C  9       C 10       C 11       C 12
 ------------------------------------------------------------------------------
     C    7  14.490737
     C    8   0.000522  14.386942
     C    9   4.470231   0.000516  14.377146
     C   10   0.000304   4.482085   0.000269  14.379161
     C   11   0.007206   0.047545   0.002420   0.003568  18.128584
     C   12   0.001461   0.010331   0.000672   0.001849  11.090066  18.025708
     H   13   0.430044   0.001130   0.031959   0.000283   0.002411   0.000829
     H   14   0.036707   0.001456   0.002734   0.000650   0.024568   0.001698
     H   15   0.001206   0.038772   0.000607   0.001897   0.443876   0.053678
     H   16   4.442719   0.000269   0.437271   0.000076   0.000626   0.000152
     H   17   4.429703   0.000729   0.439529   0.000168   0.000498   0.000324
     H   18   0.033330   0.000193   0.001635   0.000065   0.000728   0.000235
     H   19   0.024646   0.000180   0.008436   0.000059   0.000484   0.000377
     H   20   0.000269   4.447221   0.000089   0.437082   0.002470   0.000748
     H   21   0.000171   4.442084   0.000126   0.436741   0.011405   0.006858
     H   22   0.001766   0.000803   0.000489   0.000194   0.008166   0.010007
     H   23   0.008294   0.442341   0.000709   0.025965   0.048479   0.007385
     H   24   0.003916   0.001205   0.000810   0.000441   0.002567   0.000952
     H   25   0.000835   0.444808   0.000158   0.029911   0.038479   0.002392
     H   26   0.464256   0.000159   4.724018   0.000065   0.000240   0.000104
     H   27   0.451364   0.000112   4.754357   0.000102   0.000626   0.000213
     H   28   0.463633   0.000157   4.715577   0.000052   0.000318   0.000105
     H   29   0.000101   0.450168   0.000110   4.752492   0.000812   0.000539
     H   30   0.000131   0.463675   0.000100   4.722001   0.000667   0.000461
     H   31   0.000095   0.463470   0.000072   4.722714   0.000483   0.000283
     H   32   0.000724   0.004094   0.000406   0.000676   4.779758   0.453547
     H   33   0.000502   0.000851   0.000180   0.000620   0.490698   5.065102
     H   34   0.000561   0.000982   0.000281   0.000453   0.462307   5.106228


                  H 13       H 14       H 15       H 16       H 17       H 18
 ------------------------------------------------------------------------------
     H   13   4.883365
     H   14   0.030158   4.895640
     H   15   0.027646   0.040522   4.638814
     H   16   0.043289   0.020519   0.000498   5.056464
     H   17   0.026313   0.011039   0.000307   0.566097   5.036910
     H   18   0.027443   0.001198   0.000739   0.001702   0.005754   5.328702
     H   19   0.031660   0.002551   0.000546   0.022192   0.003373   0.557191
     H   20   0.000399   0.000490   0.027151   0.000084   0.000142   0.000058
     H   21   0.000349   0.000408   0.002527   0.000058   0.000238   0.000068
     H   22   0.002598   0.031873   0.016481   0.000510   0.000578   0.023016
     H   23   0.024392   0.003465   0.020620   0.000526   0.011134   0.000290
     H   24   0.001214   0.026993   0.001342   0.000754   0.000678   0.032638
     H   25   0.000583   0.015460   0.041926   0.000212   0.001045   0.000153
     H   26   0.022389   0.000508   0.000179   0.048250   0.024308   0.000356
     H   27   0.002013   0.000661   0.000133   0.030278   0.028676   0.000328
     H   28   0.001981   0.000459   0.000119   0.024520   0.049137   0.000929
     H   29   0.000102   0.000135   0.000523   0.000027   0.000066   0.000022
     H   30   0.000127   0.000135   0.000360   0.000044   0.000093   0.000031
     H   31   0.000099   0.000179   0.000504   0.000030   0.000069   0.000032
     H   32   0.000738   0.010952   0.037431   0.000203   0.000174   0.000308
     H   33   0.000291   0.000637   0.029983   0.000070   0.000122   0.000170
     H   34   0.000218   0.000547   0.002310   0.000072   0.000106   0.000084


                  H 19       H 20       H 21       H 22       H 23       H 24
 ------------------------------------------------------------------------------
     H   19   5.290515
     H   20   0.000049   5.066071
     H   21   0.000089   0.572173   5.054711
     H   22   0.033565   0.000164   0.000226   5.274194
     H   23   0.000375   0.025911   0.046284   0.000511   5.021501
     H   24   0.022963   0.000075   0.000079   0.554968   0.000431   5.330668
     H   25   0.000096   0.046281   0.022808   0.000454   0.569141   0.000277
     H   26   0.000430   0.000047   0.000041   0.000106   0.000288   0.000187
     H   27   0.000565   0.000026   0.000020   0.000125   0.000179   0.000126
     H   28   0.011679   0.000033   0.000052   0.000271   0.000216   0.000253
     H   29   0.000020   0.030171   0.029420   0.000055   0.001713   0.000113
     H   30   0.000027   0.024126   0.048102   0.000059   0.017822   0.000042
     H   31   0.000015   0.048472   0.024279   0.000050   0.001535   0.000040
     H   32   0.000259   0.000626   0.001614   0.001040   0.001998   0.000751
     H   33   0.000243   0.000315   0.000661   0.004714   0.002142   0.000322
     H   34   0.000125   0.000177   0.000653   0.000655   0.003138   0.000397


                  H 25       H 26       H 27       H 28       H 29       H 30
 ------------------------------------------------------------------------------
     H   25   5.049365
     H   26   0.000091   5.466716
     H   27   0.000052   0.573848   5.490701
     H   28   0.000095   0.576443   0.571234   5.453784
     H   29   0.001863   0.000027   0.000039   0.000023   5.490531
     H   30   0.001659   0.000034   0.000025   0.000039   0.575694   5.465998
     H   31   0.020500   0.000022   0.000017   0.000033   0.574676   0.578248
     H   32   0.026169   0.000083   0.000115   0.000083   0.000119   0.000285
     H   33   0.000688   0.000031   0.000063   0.000045   0.000173   0.000226
     H   34   0.000821   0.000035   0.000074   0.000054   0.000126   0.000148


                  H 31       H 32       H 33       H 34
 ------------------------------------------------------
     H   31   5.466909
     H   32   0.000222   5.155383
     H   33   0.000138   0.120600   5.461974
     H   34   0.000079   0.081546   0.423215   5.495044


          HEAT OF FORMATION =     -17.734796 KCALS/MOLE

          ZERO POINT ENERGY     194.380 KCAL/MOL


           NORMAL COORDINATE ANALYSIS (Total motion = 1 Angstrom)


   Root No.       1         2         3         4         5         6         7         8

                 1 A       2 A       3 A       4 A       5 A       6 A       7 A       8 A   

                  31.5      44.3      56.9      69.3      79.8      95.4     159.9     181.5
  
           1    0.0034   -0.0027   -0.0092   -0.0010   -0.0004    0.0006    0.0015   -0.0076
           2   -0.0107   -0.0001   -0.0057   -0.0015    0.0013    0.0075   -0.0029   -0.0119
           3    0.0049    0.0129   -0.0002   -0.0081    0.0105    0.0115    0.0065   -0.0014
           4    0.0034   -0.0027   -0.0091   -0.0009   -0.0007    0.0007    0.0011   -0.0077
           5   -0.0041    0.0056   -0.0007    0.0061   -0.0100    0.0094   -0.0144    0.0006
           6   -0.0004   -0.0059    0.0042   -0.0066    0.0104    0.0030    0.0044   -0.0033
           7   -0.0024   -0.0094   -0.0083   -0.0062    0.0082   -0.0053    0.0009   -0.0008
           8   -0.0138   -0.0033   -0.0052   -0.0039    0.0052    0.0045   -0.0043   -0.0095
           9    0.0084    0.0032   -0.0005   -0.0083    0.0052    0.0082   -0.0201   -0.0056
          10    0.0112    0.0165   -0.0106    0.0017   -0.0061    0.0081   -0.0027    0.0010
          11   -0.0086    0.0245   -0.0105    0.0215   -0.0185   -0.0171   -0.0236    0.0183
          12   -0.0030    0.0051   -0.0016    0.0025    0.0054   -0.0124   -0.0005    0.0063
          13    0.0111    0.0166   -0.0108    0.0011   -0.0056    0.0092   -0.0001   -0.0002
          14   -0.0131    0.0182   -0.0104    0.0036    0.0023    0.0046    0.0319   -0.0045
          15    0.0035    0.0225   -0.0029   -0.0053    0.0111    0.0096    0.0264    0.0025
          16   -0.0069    0.0003   -0.0174   -0.0154    0.0286   -0.0022   -0.0142    0.0099
          17   -0.0105   -0.0034   -0.0155   -0.0027    0.0066   -0.0016   -0.0098   -0.0091
          18    0.0089    0.0045   -0.0069   -0.0090    0.0087    0.0055   -0.0251   -0.0039
          19    0.0032   -0.0160   -0.0009    0.0034   -0.0068   -0.0030    0.0050   -0.0043
          20    0.0031   -0.0091    0.0132   -0.0072   -0.0043    0.0379   -0.0033    0.0005
          21   -0.0049   -0.0042    0.0003    0.0037    0.0038   -0.0160    0.0003   -0.0008
          22    0.0079    0.0085    0.0209    0.0367    0.0212    0.0114   -0.0060    0.0099
          23   -0.0070   -0.0013   -0.0061    0.0099    0.0049    0.0016   -0.0071   -0.0094
          24    0.0172    0.0046   -0.0087    0.0117    0.0034   -0.0039   -0.0022    0.0048
          25    0.0037   -0.0147   -0.0002    0.0029   -0.0054   -0.0048    0.0052   -0.0044
          26    0.0135    0.0005    0.0483   -0.0116    0.0217   -0.0165    0.0062    0.0059
          27   -0.0114   -0.0269   -0.0084    0.0125   -0.0194    0.0085    0.0042   -0.0008
          28   -0.0056    0.0367    0.0346   -0.0170   -0.0260    0.0048   -0.0060   -0.0043
          29   -0.0059    0.0037   -0.0140    0.0059   -0.0101   -0.0145    0.0265   -0.0009
          30    0.0163    0.0100   -0.0111    0.0039   -0.0090   -0.0125    0.0146    0.0078
          31   -0.0027   -0.0118   -0.0052   -0.0044    0.0032   -0.0061    0.0029   -0.0026
          32   -0.0174   -0.0120    0.0010   -0.0089    0.0109   -0.0028   -0.0046    0.0097
          33    0.0053   -0.0117    0.0157   -0.0017   -0.0154    0.0017   -0.0094   -0.0080
          34   -0.0259   -0.0248    0.0104   -0.0009   -0.0067   -0.0145    0.0138    0.0095
          35    0.0702   -0.0240    0.0018   -0.0115   -0.0101   -0.0086   -0.0009    0.0062
          36   -0.0434   -0.0131    0.0232    0.0012   -0.0115   -0.0000   -0.0056   -0.0003
          37   -0.0009   -0.0046   -0.0141   -0.0052    0.0057   -0.0008    0.0029   -0.0165
          38   -0.0024    0.0083    0.0006    0.0090   -0.0134    0.0081   -0.0160    0.0059
          39    0.0019   -0.0251    0.0140   -0.0195    0.0183    0.0239    0.0147   -0.0133
          40    0.0038   -0.0097   -0.0056    0.0014   -0.0037   -0.0006   -0.0014   -0.0085
          41   -0.0117   -0.0124   -0.0043   -0.0042    0.0021    0.0046   -0.0224   -0.0157
          42    0.0053    0.0259   -0.0030   -0.0071    0.0115    0.0140    0.0229    0.0024
          43   -0.0045   -0.0205    0.0006   -0.0050    0.0009   -0.0115    0.0037    0.0027
          44   -0.0135    0.0000   -0.0020   -0.0019    0.0016    0.0090    0.0066   -0.0131
          45    0.0094    0.0075   -0.0086   -0.0106    0.0125    0.0083   -0.0300   -0.0043
          46    0.0102   -0.0114    0.0219    0.0005    0.0090   -0.0356    0.0112   -0.0008
          47    0.0006   -0.0122    0.0047   -0.0067   -0.0107    0.0530   -0.0050   -0.0005
          48   -0.0057    0.0175    0.0024    0.0117    0.0131   -0.0652   -0.0080   -0.0032
          49   -0.0042   -0.0327   -0.0174    0.0103   -0.0289    0.0286    0.0038   -0.0055
          50    0.0029   -0.0252    0.0058   -0.0154   -0.0128    0.0868    0.0016    0.0017
          51   -0.0024   -0.0070    0.0020   -0.0031    0.0068   -0.0009    0.0033    0.0000
          52    0.0132    0.0241   -0.0113   -0.0088    0.0042    0.0286    0.0339   -0.0097
          53   -0.0101    0.0386   -0.0170    0.0380   -0.0313   -0.0432   -0.0521    0.0388
          54   -0.0033   -0.0081    0.0028   -0.0013    0.0071   -0.0087   -0.0051    0.0002
          55    0.0139    0.0204   -0.0108    0.0145   -0.0203   -0.0091   -0.0437    0.0178
          56   -0.0072    0.0256   -0.0101    0.0261   -0.0240   -0.0229   -0.0400    0.0247
          57   -0.0083    0.0145   -0.0089    0.0172   -0.0034   -0.0407   -0.0193    0.0217
          58    0.0239   -0.0011    0.0372    0.0959    0.0408    0.0237   -0.0025    0.0151
          59   -0.0147   -0.0082   -0.0206   -0.0123    0.0164    0.0028   -0.0247   -0.0119
          60    0.0090    0.0177   -0.0122   -0.0229   -0.0217   -0.0152    0.0078    0.0022
          61    0.0143    0.0030    0.0252    0.0607    0.0315    0.0161   -0.0050    0.0126
          62    0.0025    0.0035    0.0223    0.0454    0.0029    0.0152   -0.0096   -0.0136
          63    0.0329   -0.0131   -0.0059    0.0692    0.0339    0.0048    0.0021    0.0144
          64    0.0139    0.0238   -0.0114   -0.0105    0.0059    0.0308    0.0394   -0.0120
          65   -0.0164    0.0271   -0.0127    0.0009    0.0094    0.0104    0.0738   -0.0076
          66    0.0069    0.0200   -0.0016   -0.0094    0.0121    0.0166    0.0178   -0.0015
          67   -0.0108    0.0011   -0.0257   -0.0274    0.0339   -0.0034   -0.0203    0.0112
          68   -0.0192   -0.0080   -0.0423   -0.0363    0.0113   -0.0113   -0.0165   -0.0081
          69   -0.0006    0.0086   -0.0250   -0.0361    0.0246    0.0043   -0.0412    0.0004
          70    0.0139    0.0210   -0.0112    0.0132   -0.0194   -0.0059   -0.0386    0.0157
          71   -0.0146    0.0159   -0.0102   -0.0026    0.0093    0.0123    0.0518   -0.0126
          72    0.0037    0.0415   -0.0066   -0.0048    0.0143    0.0163    0.0663    0.0054
          73   -0.0187    0.0014   -0.0435   -0.0520    0.0428   -0.0072   -0.0306    0.0133
          74   -0.0022    0.0007   -0.0042    0.0233    0.0039   -0.0006   -0.0014   -0.0060
          75    0.0127    0.0010    0.0060    0.0021   -0.0008    0.0086   -0.0174   -0.0086
          76   -0.0033   -0.0200   -0.0234    0.0062   -0.0221    0.0284   -0.0023   -0.0143
          77    0.0163    0.0031    0.0579   -0.0128    0.0287   -0.0312    0.0089    0.0076
          78   -0.0119   -0.0496   -0.0139    0.0064   -0.0342    0.0717    0.0239    0.1224
          79    0.0036   -0.0250    0.0069    0.0061   -0.0100   -0.0077    0.0117    0.0016
          80    0.0177   -0.0109    0.0561   -0.0202    0.0221    0.0162    0.0252    0.1144
          81   -0.0140   -0.0254   -0.0094    0.0193   -0.0221   -0.0127   -0.0038   -0.0631
          82    0.0111    0.0018    0.0166   -0.0038    0.0168   -0.0366    0.0060    0.0004
          83    0.0147    0.0170    0.0590   -0.0052    0.0349   -0.0781   -0.0077   -0.1003
          84   -0.0135   -0.0240   -0.0088    0.0187   -0.0205   -0.0140   -0.0039   -0.0623
          85    0.0059    0.0422    0.0651    0.0312   -0.0232    0.0228   -0.0002   -0.0571
          86   -0.0032    0.0050   -0.0065    0.0172   -0.0093   -0.0099    0.0272   -0.0137
          87    0.0224    0.0099   -0.0132    0.0217   -0.0113   -0.0202    0.0440    0.0061
          88   -0.0119    0.0429    0.0313   -0.0424   -0.0393   -0.0011   -0.0074    0.0039
          89   -0.0159   -0.0006   -0.0443   -0.0383   -0.0160   -0.0353    0.0310    0.0501
          90    0.0009    0.0283   -0.0143   -0.0582   -0.0448   -0.0249    0.0100    0.0209
          91   -0.0217    0.0475    0.0187   -0.0827   -0.0535   -0.0125   -0.0106    0.0284
          92    0.0024    0.0105    0.0023    0.0356   -0.0171   -0.0115    0.0500   -0.0315
          93    0.0250   -0.0037   -0.0076    0.0420    0.0193    0.0005    0.0038   -0.0011
          94    0.0165   -0.0023   -0.0166   -0.0064    0.0081   -0.0000   -0.0032   -0.0131
          95   -0.0931   -0.0089    0.0048   -0.0107    0.0323   -0.0044   -0.0073    0.0314
          96    0.0428   -0.0215    0.0222    0.0012   -0.0342   -0.0021   -0.0027   -0.0145
          97   -0.0461   -0.0346    0.0222    0.0010   -0.0119   -0.0215    0.0221    0.0225
          98    0.1480   -0.0277   -0.0020   -0.0101   -0.0320   -0.0073    0.0010   -0.0156
          99   -0.0814   -0.0035    0.0173   -0.0010    0.0070    0.0041   -0.0128    0.0051
         100   -0.0271   -0.0262    0.0126    0.0005   -0.0100   -0.0150    0.0159    0.0081
         101    0.0707   -0.0312    0.0063   -0.0153   -0.0073   -0.0153    0.0005    0.0250
         102   -0.0489   -0.0239    0.0360    0.0061   -0.0266   -0.0058    0.0055    0.0015


   Root No.       9        10        11        12        13        14        15        16

                 9 A      10 A      11 A      12 A      13 A      14 A      15 A      16 A   

                 187.1     192.5     224.0     281.0     310.4     358.6     368.7     394.4
  
           1    0.0092   -0.0100    0.0049    0.0075   -0.0009   -0.0007   -0.0123    0.0074
           2    0.0074   -0.0116   -0.0032    0.0070   -0.0016   -0.0149   -0.0126    0.0230
           3   -0.0002   -0.0001    0.0059    0.0069   -0.0186    0.0058    0.0036   -0.0039
           4    0.0094   -0.0098    0.0044    0.0144    0.0046    0.0001   -0.0041    0.0082
           5    0.0005   -0.0016    0.0146    0.0008    0.0003   -0.0028   -0.0057    0.0307
           6    0.0129   -0.0133    0.0243    0.0066   -0.0028    0.0108   -0.0004    0.0041
           7    0.0048   -0.0015    0.0031   -0.0080   -0.0085   -0.0156   -0.0258   -0.0219
           8    0.0056   -0.0079   -0.0073    0.0032   -0.0088   -0.0176   -0.0117    0.0032
           9    0.0010   -0.0005   -0.0105    0.0063   -0.0035   -0.0132   -0.0002   -0.0067
          10   -0.0053    0.0070   -0.0027    0.0117   -0.0226    0.0134   -0.0007    0.0067
          11    0.0006    0.0065    0.0061   -0.0120    0.0110   -0.0086    0.0007   -0.0093
          12    0.0131   -0.0090    0.0196   -0.0013    0.0043    0.0068    0.0026   -0.0207
          13   -0.0059    0.0070   -0.0047    0.0117   -0.0216    0.0132   -0.0004    0.0079
          14   -0.0025   -0.0020   -0.0145   -0.0125    0.0334   -0.0152   -0.0058    0.0070
          15   -0.0056    0.0051   -0.0005   -0.0039   -0.0042    0.0116    0.0087   -0.0160
          16   -0.0037    0.0154    0.0054   -0.0268    0.0015   -0.0181    0.0200    0.0144
          17    0.0060   -0.0052   -0.0161   -0.0099    0.0003    0.0300    0.0014   -0.0081
          18   -0.0002    0.0037   -0.0156   -0.0052    0.0113    0.0108    0.0051   -0.0033
          19    0.0001   -0.0001   -0.0114    0.0176    0.0231   -0.0025    0.0204   -0.0091
          20   -0.0061    0.0025    0.0329   -0.0091    0.0110    0.0009    0.0035   -0.0088
          21    0.0113   -0.0098    0.0057    0.0116   -0.0023    0.0085    0.0036    0.0206
          22   -0.0163   -0.0117    0.0030   -0.0048   -0.0030   -0.0110    0.0122    0.0063
          23    0.0032   -0.0122   -0.0171   -0.0044   -0.0038    0.0374    0.0027   -0.0139
          24   -0.0061    0.0031   -0.0020   -0.0002    0.0247    0.0092   -0.0261    0.0043
          25    0.0013   -0.0010   -0.0122    0.0203    0.0255   -0.0027    0.0240   -0.0099
          26   -0.0049    0.0062   -0.0095   -0.0093   -0.0108   -0.0011   -0.0089   -0.0012
          27   -0.0178    0.0155   -0.0181   -0.0115   -0.0225   -0.0001   -0.0144    0.0065
          28    0.0039    0.0005   -0.0039   -0.0007    0.0044    0.0035   -0.0043   -0.0002
          29    0.0042   -0.0046    0.0085    0.0009   -0.0330   -0.0048    0.0324   -0.0077
          30   -0.0037    0.0087    0.0105    0.0033    0.0137   -0.0129   -0.0175    0.0093
          31    0.0065   -0.0053    0.0029   -0.0170   -0.0101   -0.0179   -0.0267   -0.0229
          32   -0.0083    0.0182    0.0023    0.0416   -0.0013   -0.0134   -0.0080   -0.0085
          33    0.0028   -0.0091   -0.0116   -0.0085   -0.0031   -0.0269    0.0153   -0.0057
          34   -0.0008    0.0053    0.0154   -0.0250    0.0043    0.0313   -0.0116    0.0080
          35   -0.0040    0.0084    0.0026    0.0081    0.0042    0.0047    0.0057    0.0037
          36   -0.0028    0.0005   -0.0055    0.0019    0.0022   -0.0102    0.0193    0.0059
          37    0.0158   -0.0183    0.0012    0.0177    0.0011   -0.0081   -0.0152    0.0178
          38   -0.0026    0.0031    0.0145   -0.0017    0.0011    0.0003   -0.0012    0.0246
          39    0.0136   -0.0189    0.0349    0.0092    0.0037    0.0122    0.0014    0.0089
          40    0.0157   -0.0171    0.0197    0.0124    0.0077    0.0070   -0.0101    0.0243
          41    0.0129   -0.0163   -0.0045    0.0112   -0.0078   -0.0266   -0.0204    0.0225
          42   -0.0082    0.0079   -0.0016    0.0010   -0.0175    0.0109    0.0092   -0.0138
          43    0.0023    0.0014    0.0024   -0.0048   -0.0086   -0.0246   -0.0313   -0.0387
          44    0.0086   -0.0150   -0.0005    0.0076   -0.0173   -0.0244   -0.0161    0.0125
          45   -0.0002    0.0040   -0.0150   -0.0001    0.0047   -0.0007    0.0074   -0.0023
          46    0.0012    0.0017   -0.0363    0.0208    0.0162   -0.0031    0.0208   -0.0060
          47   -0.0072    0.0025    0.0432   -0.0115    0.0143    0.0010    0.0038   -0.0143
          48    0.0218   -0.0178   -0.0166    0.0274   -0.0154    0.0079   -0.0043    0.0732
          49   -0.0154    0.0119   -0.0097    0.0081    0.0269   -0.0071    0.0231   -0.0245
          50   -0.0109    0.0050    0.0639   -0.0224    0.0247    0.0033    0.0092   -0.0544
          51    0.0139   -0.0125    0.0210    0.0079    0.0032    0.0114    0.0056    0.0023
          52   -0.0180    0.0126   -0.0226    0.0101   -0.0203    0.0156   -0.0002    0.0203
          53    0.0030    0.0143    0.0095   -0.0218    0.0086   -0.0114    0.0064   -0.0529
          54    0.0192   -0.0171    0.0295    0.0056    0.0044    0.0073   -0.0010   -0.0028
          55   -0.0013    0.0119    0.0129    0.0124   -0.0408    0.0189    0.0035   -0.0099
          56    0.0021    0.0084    0.0129   -0.0114    0.0030   -0.0061    0.0023   -0.0149
          57    0.0193   -0.0070    0.0200   -0.0108    0.0142   -0.0006    0.0064   -0.0633
          58   -0.0313   -0.0323    0.0032    0.0064   -0.0040   -0.0069    0.0062    0.0036
          59    0.0065   -0.0057   -0.0257   -0.0169    0.0003    0.0445    0.0100   -0.0139
          60    0.0044    0.0161    0.0043   -0.0007    0.0223   -0.0003   -0.0258    0.0071
          61   -0.0227   -0.0196    0.0034   -0.0017   -0.0034   -0.0099    0.0106    0.0058
          62   -0.0022   -0.0303   -0.0255    0.0098   -0.0026    0.0559   -0.0067   -0.0243
          63   -0.0234   -0.0134    0.0025    0.0048    0.0230    0.0042   -0.0273    0.0069
          64   -0.0183    0.0117   -0.0253    0.0108   -0.0158    0.0153    0.0015    0.0209
          65   -0.0104    0.0015   -0.0290   -0.0267    0.0674   -0.0166   -0.0031    0.0032
          66   -0.0065    0.0051   -0.0012    0.0053   -0.0237    0.0133    0.0078   -0.0065
          67   -0.0024    0.0240    0.0049   -0.0372    0.0057   -0.0168    0.0369    0.0258
          68    0.0136    0.0141   -0.0152   -0.0293    0.0081    0.0355    0.0110   -0.0005
          69    0.0010    0.0245   -0.0166   -0.0310    0.0204    0.0128    0.0560    0.0295
          70   -0.0036    0.0130    0.0095    0.0136   -0.0410    0.0195    0.0047   -0.0054
          71   -0.0038   -0.0050   -0.0219   -0.0137    0.0437   -0.0184   -0.0085    0.0139
          72   -0.0203    0.0171   -0.0181   -0.0198    0.0254    0.0155    0.0186   -0.0255
          73    0.0010    0.0403    0.0044   -0.0541    0.0115   -0.0158    0.0612    0.0416
          74   -0.0005   -0.0136   -0.0149   -0.0036    0.0053    0.0467   -0.0070   -0.0112
          75    0.0006   -0.0099   -0.0152    0.0116   -0.0003   -0.0027   -0.0202   -0.0219
          76   -0.0026   -0.0033    0.0204    0.0215    0.0440   -0.0011    0.0360   -0.0167
          77   -0.0046    0.0073   -0.0218   -0.0098   -0.0184   -0.0017   -0.0138    0.0015
          78    0.0485    0.0050   -0.0761   -0.0146   -0.0380   -0.0042   -0.0259    0.0117
          79   -0.0137    0.0153   -0.0445    0.0042    0.0010   -0.0095    0.0033   -0.0156
          80    0.0604   -0.0083   -0.0670   -0.0056   -0.0255   -0.0030   -0.0173    0.0096
          81   -0.0651    0.0329   -0.0004   -0.0224   -0.0270   -0.0025   -0.0207   -0.0029
          82    0.0218   -0.0162   -0.0131    0.0370    0.0326    0.0027    0.0349    0.0031
          83   -0.0703    0.0231    0.0241   -0.0141   -0.0108   -0.0006   -0.0101   -0.0073
          84   -0.0626    0.0310    0.0010   -0.0208   -0.0255   -0.0019   -0.0195   -0.0017
          85    0.1027    0.0923   -0.0050   -0.0070    0.0078    0.0093   -0.0112   -0.0027
          86    0.0279    0.0171    0.0077   -0.0007   -0.0318   -0.0024    0.0305   -0.0086
          87    0.0151    0.0331    0.0341    0.0061   -0.0157   -0.0573    0.0161    0.0165
          88   -0.0133   -0.0173   -0.0056    0.0020    0.0066    0.0069   -0.0090   -0.0015
          89   -0.0862   -0.0867    0.0174    0.0083   -0.0466   -0.0248    0.0506   -0.0037
          90   -0.0342   -0.0249    0.0041    0.0095    0.0216   -0.0002   -0.0330    0.0050
          91   -0.0610   -0.0634   -0.0071    0.0066    0.0075    0.0089   -0.0113   -0.0023
          92    0.0714    0.0616    0.0232    0.0001   -0.0509   -0.0298    0.0503   -0.0054
          93    0.0100    0.0222    0.0041   -0.0025    0.0220   -0.0021   -0.0223    0.0096
          94    0.0139   -0.0169   -0.0049   -0.0311   -0.0190   -0.0375   -0.0357   -0.0308
          95   -0.0251    0.0528    0.0143    0.1160    0.0103    0.0104   -0.0197   -0.0186
          96    0.0086   -0.0239   -0.0135   -0.0498   -0.0036   -0.0262    0.0313    0.0091
          97   -0.0090    0.0190    0.0276   -0.0212    0.0197    0.0842   -0.0010    0.0354
          98    0.0130   -0.0262   -0.0099   -0.0687   -0.0084   -0.0239    0.0210    0.0149
          99   -0.0083    0.0140   -0.0058    0.0507   -0.0001   -0.0282    0.0017   -0.0208
         100    0.0005    0.0019    0.0154   -0.0375    0.0043    0.0349   -0.0071    0.0163
         101   -0.0169    0.0342    0.0158    0.0521    0.0225    0.0547    0.0045    0.0067
         102   -0.0025   -0.0041    0.0008   -0.0379    0.0105    0.0286    0.0420    0.0473


   Root No.      17        18        19        20        21        22        23        24

                17 A      18 A      19 A      20 A      21 A      22 A      23 A      24 A   

                 505.6     517.7     542.7     660.6     755.2     781.8     823.4     848.2
  
           1    0.0297    0.0011   -0.0018   -0.0016    0.0207   -0.0015   -0.0014   -0.0087
           2    0.0021    0.0330    0.0038    0.0186   -0.0070    0.0011    0.0006   -0.0020
           3   -0.0165    0.0268    0.0034    0.0206    0.0232   -0.0011   -0.0004   -0.0104
           4    0.0279    0.0037   -0.0056   -0.0065    0.0231   -0.0020   -0.0029   -0.0094
           5   -0.0168   -0.0235    0.0141    0.0031    0.0295   -0.0022   -0.0018   -0.0120
           6    0.0069   -0.0076   -0.0082   -0.0061   -0.0075    0.0001   -0.0022    0.0009
           7   -0.0088   -0.0130    0.0102   -0.0027    0.0015   -0.0015   -0.0003    0.0002
           8   -0.0163    0.0270   -0.0014    0.0060   -0.0232    0.0016    0.0074    0.0031
           9    0.0017    0.0086    0.0418   -0.0196   -0.0058    0.0026    0.0019    0.0003
          10    0.0045   -0.0041   -0.0118   -0.0075   -0.0223    0.0013    0.0012    0.0093
          11   -0.0023    0.0007    0.0063    0.0022    0.0098   -0.0003   -0.0179    0.0020
          12    0.0201    0.0099   -0.0127   -0.0057   -0.0040   -0.0008    0.0014    0.0229
          13    0.0042   -0.0044   -0.0112   -0.0071   -0.0212    0.0012    0.0030    0.0104
          14    0.0158   -0.0054    0.0062   -0.0054   -0.0098    0.0010   -0.0108    0.0212
          15   -0.0150    0.0053   -0.0011    0.0127    0.0237   -0.0019   -0.0051   -0.0041
          16   -0.0005   -0.0010   -0.0111    0.0082   -0.0026   -0.0214    0.0009   -0.0002
          17   -0.0022   -0.0058   -0.0132    0.0069   -0.0015   -0.0062    0.0007    0.0007
          18    0.0087   -0.0016    0.0339   -0.0288    0.0033    0.0024   -0.0033    0.0023
          19   -0.0131    0.0071    0.0021    0.0026    0.0017   -0.0002    0.0011    0.0013
          20   -0.0066   -0.0092    0.0017   -0.0015   -0.0011   -0.0005    0.0214    0.0142
          21   -0.0215   -0.0254    0.0028   -0.0048   -0.0294    0.0028   -0.0108   -0.0080
          22    0.0032    0.0011    0.0037   -0.0009   -0.0026   -0.0242   -0.0008   -0.0000
          23   -0.0009   -0.0087   -0.0104    0.0059    0.0050   -0.0075   -0.0001   -0.0020
          24   -0.0062    0.0016   -0.0168    0.0069    0.0011   -0.0066   -0.0001   -0.0010
          25   -0.0191    0.0103    0.0032    0.0058    0.0022   -0.0000    0.0004    0.0008
          26    0.0080    0.0017   -0.0016   -0.0009   -0.0013    0.0000    0.0048    0.0050
          27    0.0075   -0.0018   -0.0010   -0.0013   -0.0048    0.0006   -0.0030   -0.0040
          28   -0.0004   -0.0003   -0.0017    0.0007   -0.0000   -0.0013   -0.0003   -0.0001
          29    0.0067   -0.0046    0.0150   -0.0052    0.0034   -0.0003   -0.0006   -0.0011
          30   -0.0052    0.0069   -0.0094    0.0048   -0.0037    0.0000    0.0011    0.0003
          31   -0.0137   -0.0199    0.0062    0.0108    0.0018    0.0094   -0.0012    0.0000
          32   -0.0084   -0.0022   -0.0250   -0.0364    0.0099    0.0036   -0.0013   -0.0006
          33    0.0088   -0.0210   -0.0113    0.0263   -0.0016   -0.0011    0.0000   -0.0001
          34   -0.0089    0.0134    0.0205   -0.0041   -0.0001    0.0059   -0.0009    0.0000
          35    0.0060   -0.0018   -0.0013    0.0029    0.0013   -0.0003   -0.0004   -0.0005
          36    0.0071   -0.0049   -0.0175    0.0032    0.0016   -0.0035   -0.0001   -0.0004
          37    0.0499    0.0284   -0.0079    0.0024    0.0393   -0.0008   -0.0053   -0.0309
          38   -0.0266   -0.0331    0.0153   -0.0001    0.0219   -0.0026   -0.0038   -0.0040
          39    0.0119   -0.0111   -0.0119   -0.0103   -0.0170    0.0016    0.0277    0.0100
          40    0.0489   -0.0171   -0.0094   -0.0115    0.0559   -0.0045   -0.0044   -0.0336
          41    0.0032    0.0454    0.0171    0.0115   -0.0386    0.0033    0.0104   -0.0017
          42   -0.0281    0.0254   -0.0026    0.0298    0.0280   -0.0014   -0.0059    0.0023
          43   -0.0153   -0.0392   -0.0024   -0.0108    0.0051    0.0059   -0.0036    0.0036
          44   -0.0193    0.0495   -0.0088    0.0420   -0.0265    0.0072    0.0147   -0.0050
          45    0.0085    0.0066    0.0551   -0.0431   -0.0047   -0.0058   -0.0021    0.0044
          46   -0.0195    0.0105    0.0040    0.0068    0.0163   -0.0021    0.0614    0.0575
          47   -0.0016   -0.0069   -0.0006   -0.0032   -0.0120    0.0009   -0.0108   -0.0129
          48   -0.0485   -0.0592    0.0225    0.0000    0.0394   -0.0046    0.0989    0.0558
          49   -0.0139    0.0197    0.0022    0.0068   -0.0188    0.0019   -0.0625   -0.0543
          50    0.0228    0.0168   -0.0181   -0.0098   -0.0683    0.0075   -0.0853   -0.0533
          51   -0.0058   -0.0160   -0.0075   -0.0104   -0.0561    0.0062   -0.0422   -0.0224
          52   -0.0122   -0.0196   -0.0049   -0.0023   -0.0170    0.0010   -0.0674    0.0919
          53    0.0135    0.0387   -0.0066    0.0048   -0.0317    0.0038    0.0650   -0.0635
          54    0.0209   -0.0033   -0.0095   -0.0106    0.0161   -0.0029   -0.0045    0.0106
          55   -0.0018    0.0092   -0.0197   -0.0058   -0.0454    0.0036    0.0705   -0.0875
          56   -0.0059    0.0052    0.0036    0.0032    0.0019    0.0005    0.0103   -0.0408
          57    0.0520    0.0503   -0.0280   -0.0095   -0.0473    0.0029    0.0812   -0.0065
          58    0.0045    0.0029    0.0054    0.0018    0.0040    0.1303    0.0030    0.0029
          59    0.0003   -0.0120   -0.0073    0.0007    0.0042   -0.0619   -0.0015   -0.0020
          60   -0.0082    0.0029   -0.0201    0.0085   -0.0041   -0.0927   -0.0021   -0.0033
          61    0.0036    0.0017    0.0031    0.0015    0.0001    0.0393    0.0010    0.0011
          62    0.0024   -0.0104    0.0004   -0.0014    0.0149    0.1062   -0.0003   -0.0005
          63   -0.0063    0.0046   -0.0209    0.0147    0.0045    0.1263    0.0049    0.0017
          64   -0.0060   -0.0221   -0.0063   -0.0159   -0.0442    0.0032    0.0721   -0.0880
          65    0.0349   -0.0538    0.0107   -0.0490   -0.0370    0.0020    0.0488   -0.0477
          66   -0.0328    0.0287   -0.0009    0.0372    0.0307   -0.0017   -0.0077   -0.0114
[...]
 EFFECTIVE MASS      1.5318
 FORCE CONSTANT      1.6580

 VIBRATION         81   81A           ATOM PAIR      ENERGY CONTRIBUTION    RADIAL
 FREQUENCY          3021.26         C  6 -- H 25         +52.7% ( 71.5%)     98.3%
 TRANSITION DIPOLE   0.0413         C  6 -- H 23         +41.8% ( 63.7%)     97.1%
 TRAVEL (Ang.)       0.2229         C  7 -- H 16          +1.4% ( 11.5%)     98.7%
 REDUCED MASS        0.4491         C  8 -- H 20          +0.9% (  9.2%)     97.9%
 EFFECTIVE MASS      1.2721
 FORCE CONSTANT      2.4155

 VIBRATION         82   82A           ATOM PAIR      ENERGY CONTRIBUTION    RADIAL
 FREQUENCY          3025.85         C  7 -- H 16         +23.0% ( 48.8%)     98.0%
 TRANSITION DIPOLE   0.0114         C  7 -- H 17         +20.0% ( 45.5%)     97.3%
 TRAVEL (Ang.)       0.3539         C  5 -- H 22         +17.1% ( 42.1%)     97.8%
 REDUCED MASS        0.1779         C  4 -- H 19         +14.8% ( 39.1%)     97.6%
 EFFECTIVE MASS      1.4180         C  5 -- H 24         +11.0% ( 33.7%)     95.1%
 FORCE CONSTANT      0.9598         C  4 -- H 18         +10.3% ( 32.6%)     95.4%

 VIBRATION         83   83A           ATOM PAIR      ENERGY CONTRIBUTION    RADIAL
 FREQUENCY          3026.70         C  7 -- H 16         +24.9% ( 50.6%)     98.0%
 TRANSITION DIPOLE   0.0265         C  7 -- H 17         +22.4% ( 48.0%)     97.4%
 TRAVEL (Ang.)       0.3438         C  5 -- H 22         +17.8% ( 42.7%)     97.8%
 REDUCED MASS        0.1884         C  5 -- H 24         +11.3% ( 34.2%)     95.1%
 EFFECTIVE MASS      1.4096         C  4 -- H 19         +11.2% ( 34.0%)     97.3%
 FORCE CONSTANT      1.0171

 VIBRATION         84   84A           ATOM PAIR      ENERGY CONTRIBUTION    RADIAL
 FREQUENCY          3031.43         C  8 -- H 20         +49.6% ( 69.4%)     97.9%
 TRANSITION DIPOLE   0.0362         C  8 -- H 21         +46.6% ( 67.2%)     97.6%
 TRAVEL (Ang.)       0.2198         C  6 -- H 25          +1.1% ( 10.1%)     98.0%
 REDUCED MASS        0.4605         C  6 -- H 23          +0.8% (  8.8%)     96.4%
 EFFECTIVE MASS      1.2734
 FORCE CONSTANT      2.4934

 VIBRATION         85   85A           ATOM PAIR      ENERGY CONTRIBUTION    RADIAL
 FREQUENCY          3040.29         C 11 -- H 32         +96.0% ( 99.3%)    100.0%
 TRANSITION DIPOLE   0.2230         C 11 -- C 12          +1.4% ( 12.0%)     31.2%
 TRAVEL (Ang.)       0.1564         C  3 -- C 11          +1.3% ( 11.7%)     13.8%
 REDUCED MASS        0.9063         C 12 -- H 34          +0.9% (  9.6%)     95.3%
 EFFECTIVE MASS      1.5006
 FORCE CONSTANT      4.9356

 VIBRATION         86   86A           ATOM PAIR      ENERGY CONTRIBUTION    RADIAL
 FREQUENCY          3040.78         C  4 -- H 19         +32.2% ( 58.9%)     97.9%
 TRANSITION DIPOLE   0.1078         C  5 -- H 22         +26.8% ( 53.7%)     98.2%
 TRAVEL (Ang.)       0.2856         C  4 -- H 18         +21.8% ( 48.5%)     95.7%
 REDUCED MASS        0.2719         C  5 -- H 24         +15.4% ( 40.7%)     95.0%
 EFFECTIVE MASS      1.5286
 FORCE CONSTANT      1.4813

 VIBRATION         87   87A           ATOM PAIR      ENERGY CONTRIBUTION    RADIAL
 FREQUENCY          3076.88         C  9 -- H 28         +55.7% ( 77.0%)     97.9%
 TRANSITION DIPOLE   0.0095         C  9 -- H 26         +41.5% ( 66.4%)     95.9%
 TRAVEL (Ang.)       0.2072         C  9 -- H 27          +1.5% ( 12.5%)     13.5%
 REDUCED MASS        0.5104         C  7 -- C  9          +1.0% ( 10.2%)      0.0%
 EFFECTIVE MASS      1.5014
 FORCE CONSTANT      2.8472

 VIBRATION         88   88A           ATOM PAIR      ENERGY CONTRIBUTION    RADIAL
 FREQUENCY          3078.29         C 10 -- H 30         +50.0% ( 73.0%)     97.2%
 TRANSITION DIPOLE   0.0129         C 10 -- H 31         +47.8% ( 71.3%)     96.9%
 TRAVEL (Ang.)       0.2080         C  8 -- C 10          +1.0% ( 10.2%)      0.0%
 REDUCED MASS        0.5063         C 10 -- H 29          +1.0% ( 10.1%)      0.6%
 EFFECTIVE MASS      1.5009
 FORCE CONSTANT      2.8268

 VIBRATION         89   89A           ATOM PAIR      ENERGY CONTRIBUTION    RADIAL
 FREQUENCY          3084.49         C 10 -- H 29         +60.7% ( 80.3%)     98.7%
 TRANSITION DIPOLE   0.0039         C 10 -- H 31         +19.2% ( 45.2%)     86.7%
 TRAVEL (Ang.)       0.2177         C 10 -- H 30         +17.1% ( 42.6%)     84.8%
 REDUCED MASS        0.4615         C  8 -- C 10          +1.0% ( 10.2%)      0.0%
 EFFECTIVE MASS      1.5029
 FORCE CONSTANT      2.5868

 VIBRATION         90   90A           ATOM PAIR      ENERGY CONTRIBUTION    RADIAL
 FREQUENCY          3084.49         C  9 -- H 27         +59.4% ( 79.5%)     98.7%
 TRANSITION DIPOLE   0.0044         C  9 -- H 26         +24.8% ( 51.4%)     90.3%
 TRAVEL (Ang.)       0.2182         C  9 -- H 28         +12.7% ( 36.8%)     79.1%
 REDUCED MASS        0.4592         C  7 -- C  9          +1.0% ( 10.3%)      0.0%
 EFFECTIVE MASS      1.5038
 FORCE CONSTANT      2.5740

 VIBRATION         91   91A           ATOM PAIR      ENERGY CONTRIBUTION    RADIAL
 FREQUENCY          3101.47         C  5 -- H 24         +54.6% ( 73.3%)     98.5%
 TRANSITION DIPOLE   0.0707         C  5 -- H 22         +31.5% ( 55.7%)     94.8%
 TRAVEL (Ang.)       0.2318         C  4 -- H 18          +7.5% ( 27.1%)     98.4%
 REDUCED MASS        0.4048         C  4 -- H 19          +4.4% ( 20.7%)     94.9%
 EFFECTIVE MASS      1.2858
 FORCE CONSTANT      2.2940

 VIBRATION         92   92A           ATOM PAIR      ENERGY CONTRIBUTION    RADIAL
 FREQUENCY          3103.63         C  4 -- H 18         +50.8% ( 70.7%)     98.2%
 TRANSITION DIPOLE   0.0700         C  4 -- H 19         +35.1% ( 58.8%)     95.8%
 TRAVEL (Ang.)       0.2356         C  5 -- H 24          +7.2% ( 26.6%)     98.3%
 REDUCED MASS        0.3915         C  5 -- H 22          +4.6% ( 21.4%)     95.5%
 EFFECTIVE MASS      1.2890
 FORCE CONSTANT      2.2221

 VIBRATION         93   93A           ATOM PAIR      ENERGY CONTRIBUTION    RADIAL
 FREQUENCY          3134.08         C 12 -- H 33         +92.6% ( 97.9%)     99.9%
 TRANSITION DIPOLE   0.1893         C 12 -- H 34          +6.0% ( 25.0%)     68.7%
 TRAVEL (Ang.)       0.1578         C 11 -- C 12          +1.3% ( 11.7%)     23.6%
 REDUCED MASS        0.8645
 EFFECTIVE MASS      1.5351
 FORCE CONSTANT      5.0031

 VIBRATION         94   94A           ATOM PAIR      ENERGY CONTRIBUTION    RADIAL
 FREQUENCY          3147.09         C 12 -- H 34         +92.5% ( 96.9%)     99.7%
 TRANSITION DIPOLE   0.2559         C 12 -- H 33          +5.1% ( 22.7%)     35.7%
 TRAVEL (Ang.)       0.1606         C 11 -- C 12          +1.6% ( 12.7%)     71.5%
 REDUCED MASS        0.8311         C 11 -- H 32          +0.8% (  8.8%)     94.8%
 EFFECTIVE MASS      1.4687
 FORCE CONSTANT      4.8496

 VIBRATION         95   95A           ATOM PAIR      ENERGY CONTRIBUTION    RADIAL
 FREQUENCY          3179.72         C  9 -- H 27         +37.6% ( 59.0%)     97.7%
 TRANSITION DIPOLE   0.0125         C  9 -- H 26         +32.2% ( 54.6%)     96.9%
 TRAVEL (Ang.)       0.2537         C  9 -- H 28         +29.9% ( 52.6%)     96.5%
 REDUCED MASS        0.3295         C  7 -- C  9          +0.3% (  5.1%)     99.3%
 EFFECTIVE MASS      1.1368
 FORCE CONSTANT      1.9627

 VIBRATION         96   96A           ATOM PAIR      ENERGY CONTRIBUTION    RADIAL
 FREQUENCY          3181.44         C 10 -- H 29         +36.7% ( 58.3%)     97.6%
 TRANSITION DIPOLE   0.0148         C 10 -- H 31         +31.5% ( 54.0%)     96.8%
 TRAVEL (Ang.)       0.2540         C 10 -- H 30         +31.4% ( 53.9%)     96.8%
 REDUCED MASS        0.3285         C  8 -- C 10          +0.3% (  5.1%)     99.5%
 EFFECTIVE MASS      1.1368
 FORCE CONSTANT      1.9587

      SYMMETRY NUMBER FOR POINT-GROUP C1  =  1


          SYSTEM IS A GROUND STATE



 InChI=1S/C12H22/c1-4-7-10(5-2)12-9-8-11(12)6-3/h5,10-12H,2,4,6-9H2,1,3H3


          MOLECULE IS NOT LINEAR

          THERE ARE 96 GENUINE VIBRATIONS IN THIS SYSTEM
          THIS THERMODYNAMICS CALCULATION IS LIMITED TO
          MOLECULES WHICH HAVE NO INTERNAL ROTATIONS




                    CALCULATED THERMODYNAMIC PROPERTIES
                                          *
   TEMP. (K)   PARTITION FUNCTION   H.O.F.    ENTHALPY  HEAT CAPACITY ENTROPY
                                   KCAL/MOL   CAL/MOLE    CAL/K/MOL  CAL/K/MOL


 298.00  VIB.     0.3275D+06                  7333.3781    47.5145    49.8446
         ROT.     0.1751D+07                   888.2803     2.9808    31.5482
         INT.     0.5734D+12                  8221.6584    50.4953    81.3928
         TRA.     0.2073D+28                  1480.4672     4.9680    41.2320
         TOT.                      -17.735    9702.1255    55.4633   122.6248

 200.00  VIB.     0.5093D+04                  3494.4670    31.5686    34.4342
         ROT.     0.9627D+06                   596.1613     2.9808    30.3595
         INT.     0.4903D+10                  4090.6283    34.5494    64.7937
         TRA.     0.1140D+28                   993.6021     4.9680    39.2509
         TOT.                      -22.353    5084.2304    39.5174   104.0446

 210.00  VIB.     0.7888D+04                  3817.1458    32.9761    36.0083
         ROT.     0.1036D+07                   625.9693     2.9808    30.5050
         INT.     0.8170D+10                  4443.1152    35.9569    66.5132
         TRA.     0.1227D+28                  1043.2822     4.9680    39.4932
         TOT.                      -21.951    5486.3974    40.9249   106.0065

 220.00  VIB.     0.1217D+05                  4154.1693    34.4378    37.5758
         ROT.     0.1111D+07                   655.7774     2.9808    30.6436
         INT.     0.1352D+11                  4809.9467    37.4186    68.2195
         TRA.     0.1315D+28                  1092.9623     4.9680    39.7244
         TOT.                      -21.534    5902.9090    42.3866   107.9438

 230.00  VIB.     0.1871D+05                  4506.0858    35.9546    39.1399
         ROT.     0.1187D+07                   685.5855     2.9808    30.7761
         INT.     0.2222D+11                  5191.6713    38.9355    69.9161
         TRA.     0.1406D+28                  1142.6424     4.9680    39.9452
         TOT.                      -21.103    6334.3138    43.9035   109.8613

 240.00  VIB.     0.2869D+05                  4873.4426    37.5256    40.7031
         ROT.     0.1266D+07                   715.3935     2.9808    30.9030
         INT.     0.3631D+11                  5588.8362    40.5064    71.6061
         TRA.     0.1499D+28                  1192.3226     4.9680    40.1566
         TOT.                      -20.656    6781.1587    45.4744   111.7628

 250.00  VIB.     0.4386D+05                  5256.7690    39.1480    42.2677
         ROT.     0.1345D+07                   745.2016     2.9808    31.0247
         INT.     0.5901D+11                  6001.9706    42.1288    73.2924
         TRA.     0.1593D+28                  1242.0027     4.9680    40.3594
         TOT.                      -20.193    7243.9733    47.0968   113.6518

 260.00  VIB.     0.6689D+05                  5656.5628    40.8184    43.8355
         ROT.     0.1427D+07                   775.0097     2.9808    31.1416
         INT.     0.9545D+11                  6431.5725    43.7992    74.9771
         TRA.     0.1690D+28                  1291.6828     4.9680    40.5543
         TOT.                      -19.714    7723.2552    48.7672   115.5314

 270.00  VIB.     0.1018D+06                  6073.2803    42.5319    45.4080
         ROT.     0.1510D+07                   804.8177     2.9808    31.2541
         INT.     0.1538D+12                  6878.0980    45.5127    76.6621
         TRA.     0.1788D+28                  1341.3629     4.9680    40.7418
         TOT.                      -19.217    8219.4609    50.4808   117.4039

 280.00  VIB.     0.1547D+06                  6507.3284    44.2836    46.9864
         ROT.     0.1595D+07                   834.6258     2.9808    31.3625
         INT.     0.2467D+12                  7341.9542    47.2644    78.3489
         TRA.     0.1888D+28                  1391.0430     4.9680    40.9225
         TOT.                      -18.704    8732.9972    52.2324   119.2713

 290.00  VIB.     0.2348D+06                  6959.0599    46.0677    48.5714
         ROT.     0.1681D+07                   864.4339     2.9808    31.4671
         INT.     0.3947D+12                  7823.4938    49.0485    80.0385
         TRA.     0.1990D+28                  1440.7231     4.9680    41.0968
         TOT.                      -18.173    9264.2169    54.0165   121.1353

 300.00  VIB.     0.3559D+06                  7428.7709    47.8785    50.1636
         ROT.     0.1769D+07                   894.2419     2.9808    31.5681
         INT.     0.6294D+12                  8323.0128    50.8593    81.7317
         TRA.     0.2094D+28                  1490.4032     4.9680    41.2652
         TOT.                      -17.624    9813.4160    55.8273   122.9970

 310.00  VIB.     0.5389D+06                  7916.6995    49.7103    51.7633
         ROT.     0.1858D+07                   924.0500     2.9808    31.6659
         INT.     0.1001D+13                  8840.7494    52.6911    83.4292
         TRA.     0.2200D+28                  1540.0833     4.9680    41.4281
         TOT.                      -17.056   10380.8327    57.6591   124.8573

 320.00  VIB.     0.8154D+06                  8423.0270    51.5574    53.3707
         ROT.     0.1948D+07                   953.8580     2.9808    31.7605
         INT.     0.1589D+13                  9376.8850    54.5382    85.1312
         TRA.     0.2307D+28                  1589.7634     4.9680    41.5859
         TOT.                      -16.470   10966.6484    59.5062   126.7171

 330.00  VIB.     0.1233D+07                  8947.8796    53.4144    54.9856
         ROT.     0.2040D+07                   983.6661     2.9808    31.8522
         INT.     0.2516D+13                  9931.5457    56.3952    86.8379
         TRA.     0.2416D+28                  1639.4435     4.9680    41.7387
         TOT.                      -15.866   11570.9892    61.3632   128.5766

 340.00  VIB.     0.1864D+07                  9491.3310    55.2763    56.6078
         ROT.     0.2134D+07                  1013.4742     2.9808    31.9412
         INT.     0.3978D+13                 10504.8051    58.2571    88.5491
         TRA.     0.2527D+28                  1689.1236     4.9680    41.8870
         TOT.                      -15.243   12193.9287    63.2251   130.4361

 350.00  VIB.     0.2818D+07                 10053.4059    57.1383    58.2370
         ROT.     0.2229D+07                  1043.2822     2.9808    32.0276
         INT.     0.6280D+13                 11096.6881    60.1192    90.2647
         TRA.     0.2639D+28                  1738.8037     4.9680    42.0310
         TOT.                      -14.601   12835.4918    65.0872   132.2957

 360.00  VIB.     0.4259D+07                 10634.0839    58.9962    59.8727
         ROT.     0.2325D+07                  1073.0903     2.9808    32.1116
         INT.     0.9901D+13                 11707.1742    61.9770    91.9843
         TRA.     0.2753D+28                  1788.4838     4.9680    42.1710
         TOT.                      -13.941   13495.6581    66.9451   134.1553

 370.00  VIB.     0.6436D+07                 11233.3036    60.8461    61.5144
         ROT.     0.2422D+07                  1102.8984     2.9808    32.1933
         INT.     0.1559D+14                 12336.2020    63.8269    93.7077
         TRA.     0.2869D+28                  1838.1639     4.9680    42.3071
         TOT.                      -13.263   14174.3659    68.7949   136.0148

 380.00  VIB.     0.9726D+07                 11850.9664    62.6843    63.1615
         ROT.     0.2521D+07                  1132.7064     2.9808    32.2728
         INT.     0.2452D+14                 12983.6728    65.6651    95.4343
         TRA.     0.2986D+28                  1887.8440     4.9680    42.4396
         TOT.                      -12.565   14871.5169    70.6331   137.8739

 390.00  VIB.     0.1470D+08                 12486.9411    64.5080    64.8134
         ROT.     0.2621D+07                  1162.5145     2.9808    32.3502
         INT.     0.3854D+14                 13649.4556    67.4888    97.1636
         TRA.     0.3104D+28                  1937.5242     4.9680    42.5687
         TOT.                      -11.850   15586.9798    72.4568   139.7322

 400.00  VIB.     0.2222D+08                 13141.0678    66.3143    66.4694
         ROT.     0.2723D+07                  1192.3226     2.9808    32.4257
         INT.     0.6051D+14                 14333.3903    69.2951    98.8951
         TRA.     0.3224D+28                  1987.2043     4.9680    42.6944
         TOT.                      -11.116   16320.5946    74.2631   141.5895

   *: NOTE: HEATS OF FORMATION ARE RELATIVE TO THE
            ELEMENTS IN THEIR STANDARD STATE AT 298K
              (=  Standard Enthalpy of Formation).

            Hvib:  Zero-point energy is not included.
                   frequencies of less than zero cm-1 are not included.
            Hrot = (3/2)RT
            Htra = (3/2)RT + pV = (5/2)RT

            Heat capacity is Cp, not Cv

          For more information, see: HTTP://OpenMOPAC.net/Manual/thermochemistry.html


           FORCE CONSTANT IN CARTESIAN COORDINATES (Millidynes/A)

    ATOM   CHEMICAL       X               Y               Z
   NUMBER   SYMBOL  FORCE CONSTANT  FORCE CONSTANT  FORCE CONSTANT

      1       C        7.855171        8.324197        8.294706
      2       C        7.894697        8.504516        8.203112
      3       C        8.893737        8.146974        8.243585
      4       C        8.129419        8.389065        8.039412
      5       C        8.151649        8.425003        7.978834
      6       C        8.286303        8.291885        8.092917
      7       C        8.496237        8.275094        8.325512
      8       C        8.188080        8.179289        8.544747
      9       C        8.320985        8.245578        8.332427
     10       C        8.202731        8.446888        8.253114
     11       C        9.910432        4.980107       12.230648
     12       C       10.055770        4.434525       11.961538
     13       H        1.387404        4.097702        0.765595
     14       H        1.367344        1.979326        2.901894
     15       H        1.500372        1.933696        2.594406
     16       H        1.205336        4.473216        0.716727
     17       H        1.056118        1.632459        3.665291
     18       H        1.589797        1.756296        3.283452
     19       H        1.344635        4.527411        0.738613
     20       H        2.182951        1.684083        2.537931
     21       H        4.516549        0.753638        1.104998
     22       H        1.334849        2.008259        3.236231
     23       H        4.563523        0.786146        1.037831
     24       H        1.591842        4.335051        0.704790
     25       H        2.056682        1.654749        2.697576
     26       H        1.322702        4.783343        0.672492
     27       H        1.423810        1.739480        3.629734
     28       H        1.127184        1.703768        3.923204
     29       H        0.947342        5.112143        0.734526
     30       H        4.873681        0.712361        1.188727
     31       H        2.360897        1.629543        2.786292
     32       H        2.068989        1.445397        2.701293
     33       H        1.955891        1.507590        2.987619
     34       H        5.207284        0.470787        0.794703

 **********************
 *                    *
 * JOB ENDED NORMALLY *
 *                    *
 **********************



 TOTAL JOB TIME:             6.97 SECONDS

 == MOPAC DONE ==
