 *******************************************************************************
 **                                                                           **
 **                              MOPAC v23.1.2                                **
 **                                                                           **
 *******************************************************************************
 **          Digital Object Identifier (DOI): 10.5281/zenodo.6511958          **
 **    Visit the DOI location for information on how to cite this program.    **
 *******************************************************************************

                              PM3 CALCULATION RESULTS

 *******************************************************************************
 *  CALCULATION DONE: (MAX THREADS = 1)              Tue Jun  3 16:36:21 2025  *
 *  PM3        - The PM3 Hamiltonian to be used
 *  NONR       - DO NOT USE NEWTON-RAPHSON STEP IN EF
 *  PRECISE    - TIGHTER CRITERIA TO BE USED
 *  NOSYM      - POINT-GROUP SYMMETRY SET TO C1
 *  THREADS=1  - MULTI-THREADING NOT USED
 *  T=         - A TIME OF 172800.0 SECONDS REQUESTED
 *  DUMP=N     - RESTART FILE WRITTEN EVERY 7200.0 SECONDS REQUESTED
 *  GNORM      - EXIT WHEN GRADIENT NORM DROPS BELOW 0.000
 *******************************************************************************
pm3  precise nosym gnorm=0.0 nonr THREADS=1
 InChI=1S/C6H10/c1-2-6-4-3-5-6/h4H,2-3,5H2,1H3

   ATOM   CHEMICAL          X               Y               Z
  NUMBER   SYMBOL      (ANGSTROMS)     (ANGSTROMS)     (ANGSTROMS)

     1       C          1.32080000  *  -0.23650000  *   1.12850000  *
     2       C         -1.23470000  *   0.64460000  *   0.58580000  *
     3       C          2.13620000  *  -0.27890000  *  -0.04660000  *
     4       C         -2.20430000  *  -0.26900000  *  -0.15380000  *
     5       C          0.18140000  *   0.25720000  *   0.29850000  *
     6       C          0.97780000  *   0.21880000  *  -0.84540000  *
     7       H         -1.41890000  *   0.56970000  *   1.67850000  *
     8       H         -1.39650000  *   1.69650000  *   0.26880000  *
     9       H          1.11350000  *  -1.24010000  *   1.56110000  *
    10       H          1.65220000  *   0.52270000  *   1.87100000  *
    11       H          2.97400000  *   0.45250000  *  -0.03160000  *
    12       H          2.43220000  *  -1.30910000  *  -0.34390000  *
    13       H         -2.05170000  *  -0.18650000  *  -1.25130000  *
    14       H         -2.05390000  *  -1.32440000  *   0.15960000  *
    15       H         -3.24780000  *   0.02750000  *   0.08280000  *
    16       H          0.81970000  *   0.45500000  *  -1.89210000  *



          CARTESIAN COORDINATES 

    NO.       ATOM           X           Y           Z

     1         C          1.3208     -0.2365      1.1285
     2         C         -1.2347      0.6446      0.5858
     3         C          2.1362     -0.2789     -0.0466
     4         C         -2.2043     -0.2690     -0.1538
     5         C          0.1814      0.2572      0.2985
     6         C          0.9778      0.2188     -0.8454
     7         H         -1.4189      0.5697      1.6785
     8         H         -1.3965      1.6965      0.2688
     9         H          1.1135     -1.2401      1.5611
    10         H          1.6522      0.5227      1.8710
    11         H          2.9740      0.4525     -0.0316
    12         H          2.4322     -1.3091     -0.3439
    13         H         -2.0517     -0.1865     -1.2513
    14         H         -2.0539     -1.3244      0.1596
    15         H         -3.2478      0.0275      0.0828
    16         H          0.8197      0.4550     -1.8921

  H: (PM3): J. J. P. STEWART, J. COMP. CHEM. 10, 209 (1989).
  C: (PM3): J. J. P. STEWART, J. COMP. CHEM. 10, 209 (1989).

           Empirical Formula: C6 H10  =    16 atoms



      MOLECULAR POINT GROUP   :   C1  


      RHF CALCULATION, NO. OF DOUBLY OCCUPIED LEVELS = 17


          Geometry optimization using EF

  GNORM HAS BEEN SET TOO LOW, RESET TO 0.01

  SPECIFY LET AS KEYWORD TO ALLOW GNORM LESS THAN 0.01

          DIAGONAL MATRIX USED AS START HESSIAN

 CYCLE:     1 TIME:   0.004 TIME LEFT:  2.00D  GRAD.:   212.762 HEAT:  35.89395
 CYCLE:     2 TIME:   0.008 TIME LEFT:  2.00D  GRAD.:    62.322 HEAT:  26.97990
 CYCLE:     3 TIME:   0.004 TIME LEFT:  2.00D  GRAD.:    98.094 HEAT:  26.09615
 CYCLE:     4 TIME:   0.008 TIME LEFT:  2.00D  GRAD.:    78.167 HEAT:  24.99883
 CYCLE:     5 TIME:   0.004 TIME LEFT:  2.00D  GRAD.:    40.350 HEAT:  23.98137
 CYCLE:     6 TIME:   0.004 TIME LEFT:  2.00D  GRAD.:    41.158 HEAT:  23.42960
 CYCLE:     7 TIME:   0.008 TIME LEFT:  2.00D  GRAD.:    30.583 HEAT:  23.12771
 CYCLE:     8 TIME:   0.004 TIME LEFT:  2.00D  GRAD.:    34.427 HEAT:  22.97508
 CYCLE:     9 TIME:   0.004 TIME LEFT:  2.00D  GRAD.:    24.981 HEAT:  22.83600
 CYCLE:    10 TIME:   0.008 TIME LEFT:  2.00D  GRAD.:    13.759 HEAT:  22.71648
 CYCLE:    11 TIME:   0.008 TIME LEFT:  2.00D  GRAD.:     5.835 HEAT:  22.66656
 CYCLE:    12 TIME:   0.004 TIME LEFT:  2.00D  GRAD.:     5.178 HEAT:  22.65391
 CYCLE:    13 TIME:   0.008 TIME LEFT:  2.00D  GRAD.:     5.667 HEAT:  22.64019
 CYCLE:    14 TIME:   0.004 TIME LEFT:  2.00D  GRAD.:     6.807 HEAT:  22.63008
 CYCLE:    15 TIME:   0.008 TIME LEFT:  2.00D  GRAD.:     5.009 HEAT:  22.61982
 CYCLE:    16 TIME:   0.004 TIME LEFT:  2.00D  GRAD.:     4.673 HEAT:  22.61705
 CYCLE:    17 TIME:   0.004 TIME LEFT:  2.00D  GRAD.:     1.639 HEAT:  22.60973
 CYCLE:    18 TIME:   0.004 TIME LEFT:  2.00D  GRAD.:     1.365 HEAT:  22.60816
 CYCLE:    19 TIME:   0.004 TIME LEFT:  2.00D  GRAD.:     0.903 HEAT:  22.60673
 CYCLE:    20 TIME:   0.008 TIME LEFT:  2.00D  GRAD.:     0.719 HEAT:  22.60564
 CYCLE:    21 TIME:   0.004 TIME LEFT:  2.00D  GRAD.:     1.206 HEAT:  22.60399
 CYCLE:    22 TIME:   0.004 TIME LEFT:  2.00D  GRAD.:     1.504 HEAT:  22.60321
 CYCLE:    23 TIME:   0.004 TIME LEFT:  2.00D  GRAD.:     1.151 HEAT:  22.60176
 CYCLE:    24 TIME:   0.004 TIME LEFT:  2.00D  GRAD.:     1.236 HEAT:  22.60029
 CYCLE:    25 TIME:   0.008 TIME LEFT:  2.00D  GRAD.:     0.887 HEAT:  22.59957
 CYCLE:    26 TIME:   0.004 TIME LEFT:  2.00D  GRAD.:     0.775 HEAT:  22.59883
 CYCLE:    27 TIME:   0.004 TIME LEFT:  2.00D  GRAD.:     0.741 HEAT:  22.59765
 CYCLE:    28 TIME:   0.004 TIME LEFT:  2.00D  GRAD.:     0.704 HEAT:  22.59644
 CYCLE:    29 TIME:   0.008 TIME LEFT:  2.00D  GRAD.:     0.514 HEAT:  22.59580
 CYCLE:    30 TIME:   0.004 TIME LEFT:  2.00D  GRAD.:     0.513 HEAT:  22.59530
 CYCLE:    31 TIME:   0.004 TIME LEFT:  2.00D  GRAD.:     0.523 HEAT:  22.59493
 CYCLE:    32 TIME:   0.004 TIME LEFT:  2.00D  GRAD.:     0.558 HEAT:  22.59449
 CYCLE:    33 TIME:   0.004 TIME LEFT:  2.00D  GRAD.:     0.514 HEAT:  22.59394
 CYCLE:    34 TIME:   0.004 TIME LEFT:  2.00D  GRAD.:     0.434 HEAT:  22.59347
 CYCLE:    35 TIME:   0.008 TIME LEFT:  2.00D  GRAD.:     0.377 HEAT:  22.59310
 CYCLE:    36 TIME:   0.004 TIME LEFT:  2.00D  GRAD.:     0.316 HEAT:  22.59284
 CYCLE:    37 TIME:   0.004 TIME LEFT:  2.00D  GRAD.:     0.259 HEAT:  22.59262
 CYCLE:    38 TIME:   0.004 TIME LEFT:  2.00D  GRAD.:     0.185 HEAT:  22.59249
 CYCLE:    39 TIME:   0.004 TIME LEFT:  2.00D  GRAD.:     0.123 HEAT:  22.59242
 CYCLE:    40 TIME:   0.004 TIME LEFT:  2.00D  GRAD.:     0.093 HEAT:  22.59238
 CYCLE:    41 TIME:   0.008 TIME LEFT:  2.00D  GRAD.:     0.086 HEAT:  22.59236
 CYCLE:    42 TIME:   0.004 TIME LEFT:  2.00D  GRAD.:     0.075 HEAT:  22.59234
 CYCLE:    43 TIME:   0.004 TIME LEFT:  2.00D  GRAD.:     0.078 HEAT:  22.59233
 CYCLE:    44 TIME:   0.008 TIME LEFT:  2.00D  GRAD.:     0.082 HEAT:  22.59232
 CYCLE:    45 TIME:   0.004 TIME LEFT:  2.00D  GRAD.:     0.087 HEAT:  22.59230
 CYCLE:    46 TIME:   0.004 TIME LEFT:  2.00D  GRAD.:     0.091 HEAT:  22.59226
 CYCLE:    47 TIME:   0.004 TIME LEFT:  2.00D  GRAD.:     0.070 HEAT:  22.59224
 CYCLE:    48 TIME:   0.004 TIME LEFT:  2.00D  GRAD.:     0.060 HEAT:  22.59223
 CYCLE:    49 TIME:   0.004 TIME LEFT:  2.00D  GRAD.:     0.089 HEAT:  22.59222
 CYCLE:    50 TIME:   0.008 TIME LEFT:  2.00D  GRAD.:     0.068 HEAT:  22.59221
 CYCLE:    51 TIME:   0.004 TIME LEFT:  2.00D  GRAD.:     0.044 HEAT:  22.59219
 CYCLE:    52 TIME:   0.000 TIME LEFT:  2.00D  GRAD.:     0.051 HEAT:  22.59218
 CYCLE:    53 TIME:   0.004 TIME LEFT:  2.00D  GRAD.:     0.056 HEAT:  22.59216
 CYCLE:    54 TIME:   0.008 TIME LEFT:  2.00D  GRAD.:     0.064 HEAT:  22.59214
 CYCLE:    55 TIME:   0.004 TIME LEFT:  2.00D  GRAD.:     0.057 HEAT:  22.59213
 CYCLE:    56 TIME:   0.004 TIME LEFT:  2.00D  GRAD.:     0.055 HEAT:  22.59212
 CYCLE:    57 TIME:   0.004 TIME LEFT:  2.00D  GRAD.:     0.111 HEAT:  22.59209
 CYCLE:    58 TIME:   0.004 TIME LEFT:  2.00D  GRAD.:     0.095 HEAT:  22.59208
 CYCLE:    59 TIME:   0.004 TIME LEFT:  2.00D  GRAD.:     0.087 HEAT:  22.59207
 CYCLE:    60 TIME:   0.004 TIME LEFT:  2.00D  GRAD.:     0.060 HEAT:  22.59203
 CYCLE:    61 TIME:   0.008 TIME LEFT:  2.00D  GRAD.:     0.064 HEAT:  22.59202
 CYCLE:    62 TIME:   0.004 TIME LEFT:  2.00D  GRAD.:     0.069 HEAT:  22.59200
 CYCLE:    63 TIME:   0.004 TIME LEFT:  2.00D  GRAD.:     0.075 HEAT:  22.59193
 CYCLE:    64 TIME:   0.004 TIME LEFT:  2.00D  GRAD.:     0.082 HEAT:  22.59191
 CYCLE:    65 TIME:   0.008 TIME LEFT:  2.00D  GRAD.:     0.066 HEAT:  22.59188
 CYCLE:    66 TIME:   0.004 TIME LEFT:  2.00D  GRAD.:     0.069 HEAT:  22.59183
 CYCLE:    67 TIME:   0.004 TIME LEFT:  2.00D  GRAD.:     0.083 HEAT:  22.59182
 CYCLE:    68 TIME:   0.004 TIME LEFT:  2.00D  GRAD.:     0.060 HEAT:  22.59180
 CYCLE:    69 TIME:   0.004 TIME LEFT:  2.00D  GRAD.:     0.049 HEAT:  22.59178
 CYCLE:    70 TIME:   0.008 TIME LEFT:  2.00D  GRAD.:     0.092 HEAT:  22.59173
 CYCLE:    71 TIME:   0.004 TIME LEFT:  2.00D  GRAD.:     0.094 HEAT:  22.59172
 CYCLE:    72 TIME:   0.008 TIME LEFT:  2.00D  GRAD.:     0.071 HEAT:  22.59169
 CYCLE:    73 TIME:   0.004 TIME LEFT:  2.00D  GRAD.:     0.052 HEAT:  22.59167
 CYCLE:    74 TIME:   0.004 TIME LEFT:  2.00D  GRAD.:     0.055 HEAT:  22.59165
 CYCLE:    75 TIME:   0.016 TIME LEFT:  2.00D  GRAD.:     1.149 HEAT:  22.59239
 CYCLE:    76 TIME:   0.004 TIME LEFT:  2.00D  GRAD.:     1.195 HEAT:  22.59236
 CYCLE:    77 TIME:   0.004 TIME LEFT:  2.00D  GRAD.:     0.288 HEAT:  22.59149
 CYCLE:    78 TIME:   0.008 TIME LEFT:  2.00D  GRAD.:     0.291 HEAT:  22.59122
 CYCLE:    79 TIME:   0.004 TIME LEFT:  2.00D  GRAD.:     0.318 HEAT:  22.59098
 CYCLE:    80 TIME:   0.004 TIME LEFT:  2.00D  GRAD.:     0.368 HEAT:  22.59058
 CYCLE:    81 TIME:   0.008 TIME LEFT:  2.00D  GRAD.:     0.737 HEAT:  22.58951
 CYCLE:    82 TIME:   0.004 TIME LEFT:  2.00D  GRAD.:     1.393 HEAT:  22.58821
 CYCLE:    83 TIME:   0.004 TIME LEFT:  2.00D  GRAD.:     1.670 HEAT:  22.59004
 CYCLE:    84 TIME:   0.008 TIME LEFT:  2.00D  GRAD.:     0.666 HEAT:  22.58636
 CYCLE:    85 TIME:   0.004 TIME LEFT:  2.00D  GRAD.:     1.639 HEAT:  22.58536
 CYCLE:    86 TIME:   0.004 TIME LEFT:  2.00D  GRAD.:     1.022 HEAT:  22.58311
 CYCLE:    87 TIME:   0.004 TIME LEFT:  2.00D  GRAD.:     0.995 HEAT:  22.58274
 CYCLE:    88 TIME:   0.008 TIME LEFT:  2.00D  GRAD.:     0.914 HEAT:  22.58158
 CYCLE:    89 TIME:   0.004 TIME LEFT:  2.00D  GRAD.:     0.904 HEAT:  22.57849
 CYCLE:    90 TIME:   0.004 TIME LEFT:  2.00D  GRAD.:     1.768 HEAT:  22.56952
 CYCLE:    91 TIME:   0.008 TIME LEFT:  2.00D  GRAD.:     7.620 HEAT:  22.56557
 CYCLE:    92 TIME:   0.008 TIME LEFT:  2.00D  GRAD.:     7.369 HEAT:  22.55482
 CYCLE:    93 TIME:   0.008 TIME LEFT:  2.00D  GRAD.:     8.344 HEAT:  22.52927
 CYCLE:    94 TIME:   0.004 TIME LEFT:  2.00D  GRAD.:     2.473 HEAT:  22.49908
 CYCLE:    95 TIME:   0.008 TIME LEFT:  2.00D  GRAD.:     2.205 HEAT:  22.48926
 CYCLE:    96 TIME:   0.004 TIME LEFT:  2.00D  GRAD.:     2.536 HEAT:  22.48171
 CYCLE:    97 TIME:   0.004 TIME LEFT:  2.00D  GRAD.:     6.894 HEAT:  22.46664
 CYCLE:    98 TIME:   0.004 TIME LEFT:  2.00D  GRAD.:     5.824 HEAT:  22.44128
 CYCLE:    99 TIME:   0.004 TIME LEFT:  2.00D  GRAD.:     2.179 HEAT:  22.43966
 CYCLE:   100 TIME:   0.008 TIME LEFT:  2.00D  GRAD.:     2.127 HEAT:  22.42595
 CYCLE:   101 TIME:   0.004 TIME LEFT:  2.00D  GRAD.:     4.470 HEAT:  22.41633
 CYCLE:   102 TIME:   0.004 TIME LEFT:  2.00D  GRAD.:     2.202 HEAT:  22.40264
 CYCLE:   103 TIME:   0.008 TIME LEFT:  2.00D  GRAD.:     2.044 HEAT:  22.39548
 CYCLE:   104 TIME:   0.004 TIME LEFT:  2.00D  GRAD.:     2.691 HEAT:  22.38091
 CYCLE:   105 TIME:   0.004 TIME LEFT:  2.00D  GRAD.:     2.072 HEAT:  22.37616
 CYCLE:   106 TIME:   0.004 TIME LEFT:  2.00D  GRAD.:     1.795 HEAT:  22.37368
 CYCLE:   107 TIME:   0.004 TIME LEFT:  2.00D  GRAD.:     1.685 HEAT:  22.36738
 CYCLE:   108 TIME:   0.008 TIME LEFT:  2.00D  GRAD.:     2.457 HEAT:  22.36299
 CYCLE:   109 TIME:   0.004 TIME LEFT:  2.00D  GRAD.:     1.648 HEAT:  22.35696
 CYCLE:   110 TIME:   0.004 TIME LEFT:  2.00D  GRAD.:     1.436 HEAT:  22.35426
 CYCLE:   111 TIME:   0.008 TIME LEFT:  2.00D  GRAD.:     1.518 HEAT:  22.34827
 CYCLE:   112 TIME:   0.004 TIME LEFT:  2.00D  GRAD.:     2.332 HEAT:  22.33845
 CYCLE:   113 TIME:   0.008 TIME LEFT:  2.00D  GRAD.:     4.857 HEAT:  22.34136
 CYCLE:   114 TIME:   0.004 TIME LEFT:  2.00D  GRAD.:     3.095 HEAT:  22.32690
 CYCLE:   115 TIME:   0.004 TIME LEFT:  2.00D  GRAD.:     2.348 HEAT:  22.31823
 CYCLE:   116 TIME:   0.004 TIME LEFT:  2.00D  GRAD.:     2.289 HEAT:  22.31199
 CYCLE:   117 TIME:   0.008 TIME LEFT:  2.00D  GRAD.:     1.928 HEAT:  22.29425
 CYCLE:   118 TIME:   0.008 TIME LEFT:  2.00D  GRAD.:     3.395 HEAT:  22.28477
 CYCLE:   119 TIME:   0.004 TIME LEFT:  2.00D  GRAD.:     1.985 HEAT:  22.28363
 CYCLE:   120 TIME:   0.004 TIME LEFT:  2.00D  GRAD.:     1.073 HEAT:  22.27807
 CYCLE:   121 TIME:   0.008 TIME LEFT:  2.00D  GRAD.:     1.618 HEAT:  22.27588
 CYCLE:   122 TIME:   0.004 TIME LEFT:  2.00D  GRAD.:     1.763 HEAT:  22.27327
 CYCLE:   123 TIME:   0.004 TIME LEFT:  2.00D  GRAD.:     1.023 HEAT:  22.26885
 CYCLE:   124 TIME:   0.008 TIME LEFT:  2.00D  GRAD.:     1.127 HEAT:  22.26801
 CYCLE:   125 TIME:   0.004 TIME LEFT:  2.00D  GRAD.:     0.599 HEAT:  22.26720
 CYCLE:   126 TIME:   0.008 TIME LEFT:  2.00D  GRAD.:     0.463 HEAT:  22.26685
 CYCLE:   127 TIME:   0.004 TIME LEFT:  2.00D  GRAD.:     0.468 HEAT:  22.26663
 CYCLE:   128 TIME:   0.004 TIME LEFT:  2.00D  GRAD.:     0.492 HEAT:  22.26654
 CYCLE:   129 TIME:   0.004 TIME LEFT:  2.00D  GRAD.:     0.658 HEAT:  22.26635
 CYCLE:   130 TIME:   0.008 TIME LEFT:  2.00D  GRAD.:     0.494 HEAT:  22.26600
 CYCLE:   131 TIME:   0.004 TIME LEFT:  2.00D  GRAD.:     0.429 HEAT:  22.26559
 CYCLE:   132 TIME:   0.004 TIME LEFT:  2.00D  GRAD.:     0.486 HEAT:  22.26530
 CYCLE:   133 TIME:   0.008 TIME LEFT:  2.00D  GRAD.:     0.610 HEAT:  22.26475
 CYCLE:   134 TIME:   0.004 TIME LEFT:  2.00D  GRAD.:     0.376 HEAT:  22.26440
 CYCLE:   135 TIME:   0.008 TIME LEFT:  2.00D  GRAD.:     0.354 HEAT:  22.26433
 CYCLE:   136 TIME:   0.004 TIME LEFT:  2.00D  GRAD.:     0.940 HEAT:  22.26449
 CYCLE:   137 TIME:   0.004 TIME LEFT:  2.00D  GRAD.:     0.344 HEAT:  22.26396
 CYCLE:   138 TIME:   0.008 TIME LEFT:  2.00D  GRAD.:     0.204 HEAT:  22.26386
 CYCLE:   139 TIME:   0.004 TIME LEFT:  2.00D  GRAD.:     0.163 HEAT:  22.26378
 CYCLE:   140 TIME:   0.004 TIME LEFT:  2.00D  GRAD.:     0.147 HEAT:  22.26364
 CYCLE:   141 TIME:   0.008 TIME LEFT:  2.00D  GRAD.:     0.096 HEAT:  22.26360
 CYCLE:   142 TIME:   0.004 TIME LEFT:  2.00D  GRAD.:     0.108 HEAT:  22.26359
 CYCLE:   143 TIME:   0.004 TIME LEFT:  2.00D  GRAD.:     0.075 HEAT:  22.26358
 CYCLE:   144 TIME:   0.008 TIME LEFT:  2.00D  GRAD.:     0.048 HEAT:  22.26357
 CYCLE:   145 TIME:   0.004 TIME LEFT:  2.00D  GRAD.:     0.048 HEAT:  22.26357
 CYCLE:   146 TIME:   0.004 TIME LEFT:  2.00D  GRAD.:     0.044 HEAT:  22.26357
 CYCLE:   147 TIME:   0.008 TIME LEFT:  2.00D  GRAD.:     0.023 HEAT:  22.26357
 CYCLE:   148 TIME:   0.004 TIME LEFT:  2.00D  GRAD.:     0.017 HEAT:  22.26357
 CYCLE:   149 TIME:   0.004 TIME LEFT:  2.00D  GRAD.:     0.013 HEAT:  22.26357
 CYCLE:   150 TIME:   0.004 TIME LEFT:  2.00D  GRAD.:     0.006 HEAT:  22.26357

     GRADIENT =  0.00635 IS LESS THAN CUTOFF =  0.01000



 -------------------------------------------------------------------------------
 pm3  precise nosym gnorm=0.0 nonr THREADS=1
 InChI=1S/C6H10/c1-2-6-4-3-5-6/h4H,2-3,5H2,1H3



     GEOMETRY OPTIMISED USING EIGENVECTOR FOLLOWING (EF).     
     SCF FIELD WAS ACHIEVED                                   


                              PM3 CALCULATION
                                                       MOPAC v23.1.2 MacOS
                                                       Tue Jun  3 16:36:21 2025




          FINAL HEAT OF FORMATION =         22.26357 KCAL/MOL =      93.15076 KJ/MOL


          COSMO AREA              =        136.95 SQUARE ANGSTROMS
          COSMO VOLUME            =        126.26 CUBIC ANGSTROMS

          GRADIENT NORM           =          0.00635          =       0.00159 PER ATOM
          IONIZATION POTENTIAL    =          9.423914 EV
          HOMO LUMO ENERGIES (EV) =         -9.424  1.015
          NO. OF FILLED LEVELS    =         17
          MOLECULAR WEIGHT        =         82.1450         POINT GROUP:  C1  

          MOLECULAR DIMENSIONS (Angstroms)

            Atom       Atom       Distance
            H    15    H    11     6.14309
            H    16    H     9     3.87580
            H     8    H    12     2.70020


          SCF CALCULATIONS        =        160

          WALL-CLOCK TIME         =      0.789 SECONDS
          COMPUTATION TIME        =      0.389 SECONDS




   ATOM   CHEMICAL          X               Y               Z
  NUMBER   SYMBOL      (ANGSTROMS)     (ANGSTROMS)     (ANGSTROMS)

     1       C          1.41998342  *   0.13741243  *   1.19914437  *
     2       C         -1.23926469  *   0.27555101  *   0.75428266  *
     3       C          2.18345294  *  -0.22632938  *  -0.11964800  *
     4       C         -2.21793709  *   0.10657606  *  -0.38672801  *
     5       C          0.15523773  *   0.06115089  *   0.35398710  *
     6       C          0.81815902  *  -0.25248963  *  -0.78132905  *
     7       H         -1.48008024  *  -0.42792676  *   1.57702668  *
     8       H         -1.32660894  *   1.29122963  *   1.19080370  *
     9       H          1.49016034  *  -0.60403854  *   2.00726751  *
    10       H          1.64500773  *   1.12765879  *   1.61928220  *
    11       H          2.87205778  *   0.54413782  *  -0.49405775  *
    12       H          2.71727069  *  -1.18697553  *  -0.10620916  *
    13       H         -2.01673072  *   0.81474853  *  -1.20118185  *
    14       H         -2.16973961  *  -0.90292904  *  -0.81556458  *
    15       H         -3.24904319  *   0.27388646  *  -0.05064976  *
    16       H          0.53923786  *  -0.45707017  *  -1.80577293  *

                             CARTESIAN COORDINATES

   1    C        1.419983417     0.137412426     1.199144368
   2    C       -1.239264687     0.275551013     0.754282661
   3    C        2.183452936    -0.226329383    -0.119647998
   4    C       -2.217937093     0.106576058    -0.386728011
   5    C        0.155237729     0.061150892     0.353987095
   6    C        0.818159016    -0.252489629    -0.781329050
   7    H       -1.480080243    -0.427926764     1.577026685
   8    H       -1.326608936     1.291229628     1.190803695
   9    H        1.490160344    -0.604038540     2.007267513
  10    H        1.645007727     1.127658789     1.619282204
  11    H        2.872057781     0.544137817    -0.494057753
  12    H        2.717270688    -1.186975531    -0.106209158
  13    H       -2.016730721     0.814748527    -1.201181849
  14    H       -2.169739614    -0.902929038    -0.815564576
  15    H       -3.249043194     0.273886458    -0.050649764
  16    H        0.539237856    -0.457070166    -1.805772932


           Empirical Formula: C6 H10  =    16 atoms



      MOLECULAR POINT GROUP   :   C1  


                  EIGENVALUES  
 -39.84166 -33.53176 -25.20619 -24.48993 -21.66729 -17.51755 -16.63812 -16.20919
 -15.05333 -14.96558 -13.57991 -12.82300 -12.49577 -12.14111 -12.07015 -11.78427
  -9.42391   1.01482   3.18856   3.39668   3.50992   3.87239   4.00338   4.00752
   4.10758   4.14015   4.40054   4.58243   4.61207   4.85389   4.89002   5.04912
   5.37346   6.26884


              NET ATOMIC CHARGES AND DIPOLE CONTRIBUTIONS

  ATOM NO.   TYPE          CHARGE      No. of ELECS.   s-Pop       p-Pop       
    1          C          -0.073650        4.0737     1.16864     2.90501
    2          C          -0.021901        4.0219     1.13126     2.89065
    3          C          -0.077487        4.0775     1.16661     2.91088
    4          C          -0.108141        4.1081     1.13661     2.97153
    5          C          -0.148557        4.1486     1.22290     2.92566
    6          C          -0.168346        4.1683     1.21594     2.95241
    7          H           0.054972        0.9450     0.94503
    8          H           0.054975        0.9450     0.94502
    9          H           0.060782        0.9392     0.93922
   10          H           0.060781        0.9392     0.93922
   11          H           0.060506        0.9395     0.93949
   12          H           0.060507        0.9395     0.93949
   13          H           0.040716        0.9593     0.95928
   14          H           0.040723        0.9593     0.95928
   15          H           0.037444        0.9626     0.96256
   16          H           0.126677        0.8733     0.87332
 DIPOLE           X         Y         Z       TOTAL
 POINT-CHG.    -0.081     0.060     0.234     0.255
 HYBRID         0.003    -0.006    -0.024     0.025
 SUM           -0.078     0.054     0.210     0.230


          ATOMIC ORBITAL ELECTRON POPULATIONS

     Atom    s        px        py        pz   
    1  C   1.16864   0.94022   1.00918   0.95561
    2  C   1.13126   0.91044   1.00652   0.97368
    3  C   1.16661   0.94720   1.00817   0.95551
    4  C   1.13661   0.97909   1.01276   0.97968
    5  C   1.22290   0.94944   1.00635   0.96987
    6  C   1.21594   0.95539   1.02632   0.97069
    7  H   0.94503
    8  H   0.94502
    9  H   0.93922
   10  H   0.93922
   11  H   0.93949
   12  H   0.93949
   13  H   0.95928
   14  H   0.95928
   15  H   0.96256
   16  H   0.87332
 *******************************************************************************
 **                                                                           **
 **                              MOPAC v23.1.2                                **
 **                                                                           **
 *******************************************************************************
 **          Digital Object Identifier (DOI): 10.5281/zenodo.6511958          **
 **    Visit the DOI location for information on how to cite this program.    **
 *******************************************************************************

                              PM3 CALCULATION RESULTS

 *******************************************************************************
 *  CALCULATION DONE: (MAX THREADS = 1)              Tue Jun  3 16:36:21 2025  *
 *  PM3        - The PM3 Hamiltonian to be used
 *  OLDGEO     - PREVIOUS GEOMETRY TO BE USED
 *  PRECISE    - TIGHTER CRITERIA TO BE USED
 *  NOSYM      - POINT-GROUP SYMMETRY SET TO C1
 *  THREADS=1  - MULTI-THREADING NOT USED
 *  T=         - A TIME OF 172800.0 SECONDS REQUESTED
 *  DUMP=N     - RESTART FILE WRITTEN EVERY 7200.0 SECONDS REQUESTED
 *  THERMO     - THERMODYNAMIC QUANTITIES TO BE CALCULATED
 *******************************************************************************
oldgeo thermo nosym precise THREADS=1  pm3
 InChI=1S/C6H10/c1-2-6-4-3-5-6/h4H,2-3,5H2,1H3

   ATOM   CHEMICAL          X               Y               Z
  NUMBER   SYMBOL      (ANGSTROMS)     (ANGSTROMS)     (ANGSTROMS)

     1       C          1.41998342  *   0.13741243  *   1.19914437  *
     2       C         -1.23926469  *   0.27555101  *   0.75428266  *
     3       C          2.18345294  *  -0.22632938  *  -0.11964800  *
     4       C         -2.21793709  *   0.10657606  *  -0.38672801  *
     5       C          0.15523773  *   0.06115089  *   0.35398710  *
     6       C          0.81815902  *  -0.25248963  *  -0.78132905  *
     7       H         -1.48008024  *  -0.42792676  *   1.57702668  *
     8       H         -1.32660894  *   1.29122963  *   1.19080370  *
     9       H          1.49016034  *  -0.60403854  *   2.00726751  *
    10       H          1.64500773  *   1.12765879  *   1.61928220  *
    11       H          2.87205778  *   0.54413782  *  -0.49405775  *
    12       H          2.71727069  *  -1.18697553  *  -0.10620916  *
    13       H         -2.01673072  *   0.81474853  *  -1.20118185  *
    14       H         -2.16973961  *  -0.90292904  *  -0.81556458  *
    15       H         -3.24904319  *   0.27388646  *  -0.05064976  *
    16       H          0.53923786  *  -0.45707017  *  -1.80577293  *



          CARTESIAN COORDINATES 

    NO.       ATOM           X           Y           Z

     1         C          1.4200      0.1374      1.1991
     2         C         -1.2393      0.2756      0.7543
     3         C          2.1835     -0.2263     -0.1196
     4         C         -2.2179      0.1066     -0.3867
     5         C          0.1552      0.0612      0.3540
     6         C          0.8182     -0.2525     -0.7813
     7         H         -1.4801     -0.4279      1.5770
     8         H         -1.3266      1.2912      1.1908
     9         H          1.4902     -0.6040      2.0073
    10         H          1.6450      1.1277      1.6193
    11         H          2.8721      0.5441     -0.4941
    12         H          2.7173     -1.1870     -0.1062
    13         H         -2.0167      0.8147     -1.2012
    14         H         -2.1697     -0.9029     -0.8156
    15         H         -3.2490      0.2739     -0.0506
    16         H          0.5392     -0.4571     -1.8058

  H: (PM3): J. J. P. STEWART, J. COMP. CHEM. 10, 209 (1989).
  C: (PM3): J. J. P. STEWART, J. COMP. CHEM. 10, 209 (1989).

           Empirical Formula: C6 H10  =    16 atoms



      MOLECULAR POINT GROUP   :   C1  


      RHF CALCULATION, NO. OF DOUBLY OCCUPIED LEVELS = 17



          HEAT OF FORMATION =      22.263567 KCALS/MOLE


          CARTESIAN COORDINATE DERIVATIVES

   NUMBER  ATOM         X            Y            Z

     1       C     -0.001530    -0.000613    -0.000187
     2       C     -0.001298     0.000940     0.000970
     3       C     -0.002222    -0.000884     0.003645
     4       C      0.000526     0.000676     0.001954
     5       C      0.001026     0.001044    -0.000313
     6       C      0.000719    -0.001362    -0.003302
     7       H      0.000930    -0.001852     0.000533
     8       H     -0.000912    -0.000238    -0.001172
     9       H     -0.000144     0.000097     0.000032
    10       H      0.000859    -0.000070    -0.000770
    11       H      0.002319     0.000613     0.000230
    12       H     -0.001755     0.000166     0.000401
    13       H      0.000575    -0.000001    -0.000148
    14       H     -0.000994     0.000971    -0.000912
    15       H      0.001366    -0.000635    -0.000391
    16       H      0.000534     0.001148    -0.000570



          GRADIENT NORM =   0.00837

          MOLECULAR WEIGHT =   82.15



          ROTATIONAL CONSTANTS IN CM(-1)

          A =    0.29783351   B =    0.07728418   C =    0.06433439



           PRINCIPAL MOMENTS OF INERTIA IN UNITS OF 10**(-40)*GRAM-CM**2

          A =       93.9879   B =      362.2055   C =      435.1134


          ORIENTATION OF MOLECULE IN FORCE CALCULATION

    NO.       ATOM         X         Y         Z

     1          C      -1.4124   -0.8251   -0.0001
     2          C       1.2873   -0.8251   -0.0001
     3          C      -1.9657    0.6405   -0.0001
     4          C       2.4307    0.1653    0.0007
     5          C      -0.0313   -0.1832   -0.0001
     6          C      -0.5132    1.0796   -0.0002
     7          H       1.3529   -1.4915    0.8838
     8          H       1.3534   -1.4905   -0.8848
     9          H      -1.6527   -1.4224    0.8905
    10          H      -1.6526   -1.4224   -0.8908
    11          H      -2.5429    0.9270   -0.8905
    12          H      -2.5429    0.9270    0.8902
    13          H       2.4029    0.8167   -0.8826
    14          H       2.4022    0.8161    0.8845
    15          H       3.3995   -0.3500    0.0009
    16          H      -0.0802    2.0703   -0.0002


    FIRST DERIVATIVES WILL BE USED IN THE CALCULATION OF SECOND DERIVATIVES

          ESTIMATED TIME TO COMPLETE CALCULATION =        0.75 SECONDS

    FOR POINT-GROUP C1   THERE ARE   1 UNIQUE SYMMETRY FUNCTIONS.

 STEP:   1 TIME =     0.01 SECS, INTEGRAL =      0.01 TIME LEFT: 172799.99
 STEP:   2 TIME =     0.01 SECS, INTEGRAL =      0.02 TIME LEFT: 172799.98
 STEP:   3 TIME =     0.01 SECS, INTEGRAL =      0.03 TIME LEFT: 172799.97
 STEP:   4 TIME =     0.01 SECS, INTEGRAL =      0.04 TIME LEFT: 172799.96
 STEP:   5 TIME =     0.01 SECS, INTEGRAL =      0.05 TIME LEFT: 172799.95
 STEP:   6 TIME =     0.01 SECS, INTEGRAL =      0.06 TIME LEFT: 172799.94
 STEP:   7 TIME =     0.01 SECS, INTEGRAL =      0.07 TIME LEFT: 172799.93
 STEP:   8 TIME =     0.01 SECS, INTEGRAL =      0.08 TIME LEFT: 172799.92
 STEP:   9 TIME =     0.01 SECS, INTEGRAL =      0.09 TIME LEFT: 172799.91
 STEP:  10 TIME =     0.01 SECS, INTEGRAL =      0.10 TIME LEFT: 172799.90
 STEP:  11 TIME =     0.01 SECS, INTEGRAL =      0.11 TIME LEFT: 172799.89
 STEP:  12 TIME =     0.01 SECS, INTEGRAL =      0.12 TIME LEFT: 172799.88
 STEP:  13 TIME =     0.01 SECS, INTEGRAL =      0.13 TIME LEFT: 172799.87
 STEP:  14 TIME =     0.01 SECS, INTEGRAL =      0.14 TIME LEFT: 172799.86
 STEP:  15 TIME =     0.01 SECS, INTEGRAL =      0.15 TIME LEFT: 172799.85
 STEP:  16 TIME =     0.01 SECS, INTEGRAL =      0.16 TIME LEFT: 172799.84
 STEP:  17 TIME =     0.01 SECS, INTEGRAL =      0.18 TIME LEFT: 172799.82
 STEP:  18 TIME =     0.01 SECS, INTEGRAL =      0.19 TIME LEFT: 172799.81
 STEP:  19 TIME =     0.01 SECS, INTEGRAL =      0.20 TIME LEFT: 172799.80
 STEP:  20 TIME =     0.01 SECS, INTEGRAL =      0.21 TIME LEFT: 172799.79
 STEP:  21 TIME =     0.01 SECS, INTEGRAL =      0.21 TIME LEFT: 172799.79
 STEP:  22 TIME =     0.01 SECS, INTEGRAL =      0.23 TIME LEFT: 172799.77
 STEP:  23 TIME =     0.01 SECS, INTEGRAL =      0.24 TIME LEFT: 172799.76
 STEP:  24 TIME =     0.01 SECS, INTEGRAL =      0.25 TIME LEFT: 172799.75
 STEP:  25 TIME =     0.01 SECS, INTEGRAL =      0.26 TIME LEFT: 172799.74
 STEP:  26 TIME =     0.01 SECS, INTEGRAL =      0.27 TIME LEFT: 172799.73
 STEP:  27 TIME =     0.01 SECS, INTEGRAL =      0.28 TIME LEFT: 172799.72
 STEP:  28 TIME =     0.01 SECS, INTEGRAL =      0.29 TIME LEFT: 172799.71
 STEP:  29 TIME =     0.01 SECS, INTEGRAL =      0.30 TIME LEFT: 172799.70
 STEP:  30 TIME =     0.01 SECS, INTEGRAL =      0.31 TIME LEFT: 172799.69
 STEP:  31 TIME =     0.01 SECS, INTEGRAL =      0.32 TIME LEFT: 172799.68
 STEP:  32 TIME =     0.01 SECS, INTEGRAL =      0.34 TIME LEFT: 172799.66
 STEP:  33 TIME =     0.01 SECS, INTEGRAL =      0.35 TIME LEFT: 172799.65
 STEP:  34 TIME =     0.01 SECS, INTEGRAL =      0.36 TIME LEFT: 172799.64
 STEP:  35 TIME =     0.01 SECS, INTEGRAL =      0.37 TIME LEFT: 172799.63
 STEP:  36 TIME =     0.01 SECS, INTEGRAL =      0.38 TIME LEFT: 172799.62
 STEP:  37 TIME =     0.01 SECS, INTEGRAL =      0.39 TIME LEFT: 172799.61
 STEP:  38 TIME =     0.01 SECS, INTEGRAL =      0.40 TIME LEFT: 172799.60
 STEP:  39 TIME =     0.01 SECS, INTEGRAL =      0.41 TIME LEFT: 172799.59
 STEP:  40 TIME =     0.01 SECS, INTEGRAL =      0.43 TIME LEFT: 172799.57
 STEP:  41 TIME =     0.01 SECS, INTEGRAL =      0.44 TIME LEFT: 172799.56
 STEP:  42 TIME =     0.01 SECS, INTEGRAL =      0.45 TIME LEFT: 172799.55
 STEP:  43 TIME =     0.01 SECS, INTEGRAL =      0.46 TIME LEFT: 172799.54
 STEP:  44 TIME =     0.01 SECS, INTEGRAL =      0.47 TIME LEFT: 172799.53
 STEP:  45 TIME =     0.01 SECS, INTEGRAL =      0.48 TIME LEFT: 172799.52
 STEP:  46 TIME =     0.01 SECS, INTEGRAL =      0.50 TIME LEFT: 172799.50
 STEP:  47 TIME =     0.01 SECS, INTEGRAL =      0.51 TIME LEFT: 172799.49
 STEP:  48 TIME =     0.01 SECS, INTEGRAL =      0.52 TIME LEFT: 172799.48

(To convert to Hartree/Bohr^2, multiply by (10^(-21) x N x a0^2)/(4.184 x 627.51) =  0.0642)


           FORCE MATRIX IN MILLIDYNES/ANGSTROM


                  C  1       C  2       C  3       C  4       C  5       C  6
 ------------------------------------------------------------------------------
     C    1  14.262365
     C    2   0.374055  14.960211
     C    3   3.121378   0.131532  14.369554
     C    4   0.037778   4.460977   0.007208  14.394564
     C    5   3.916176   5.607364   2.271227   0.716669  19.040674
     C    6   2.245129   0.554395   4.142299   0.038197  10.009147  18.264314
     H    7   0.010847   4.412497   0.017837   0.438801   0.426734   0.028956
     H    8   0.010836   4.412444   0.017847   0.438809   0.426692   0.028933
     H    9   4.716742   0.007413   0.427116   0.001706   0.439336   0.040568
     H   10   4.716712   0.007408   0.427118   0.001704   0.439333   0.040568
     H   11   0.427698   0.018399   4.708783   0.000861   0.040485   0.433794
     H   12   0.427699   0.018398   4.708744   0.000862   0.040484   0.433799
     H   13   0.001783   0.463354   0.000820   4.738173   0.019938   0.005120
     H   14   0.001785   0.463353   0.000820   4.738230   0.019953   0.005122
     H   15   0.006412   0.448138   0.001086   4.753963   0.056748   0.003402
     H   16   0.112316   0.035444   0.337435   0.003090   0.430295   5.283619


                  H  7       H  8       H  9       H 10       H 11       H 12
 ------------------------------------------------------------------------------
     H    7   5.002349
     H    8   0.569436   5.002303
     H    9   0.003007   0.000862   5.334281
     H   10   0.000860   0.002999   0.533974   5.334250
     H   11   0.002243   0.003167   0.026462   0.022343   5.328463
     H   12   0.003166   0.002244   0.022342   0.026463   0.536077   5.328433
     H   13   0.048464   0.023903   0.000365   0.000256   0.000184   0.000285
     H   14   0.023886   0.048464   0.000256   0.000365   0.000285   0.000184
     H   15   0.029174   0.029156   0.000322   0.000322   0.000138   0.000138
     H   16   0.004157   0.004163   0.014849   0.014849   0.005619   0.005619


                  H 13       H 14       H 15       H 16
 ------------------------------------------------------
     H   13   5.478274
     H   14   0.580639   5.478318
     H   15   0.571406   0.571379   5.488251
     H   16   0.003697   0.003691   0.000758   5.674064


          HEAT OF FORMATION =      22.263567 KCALS/MOLE

          ZERO POINT ENERGY      89.293 KCAL/MOL


           NORMAL COORDINATE ANALYSIS (Total motion = 1 Angstrom)


   Root No.       1         2         3         4         5         6         7         8

                 1 A       2 A       3 A       4 A       5 A       6 A       7 A       8 A   

                  34.4     148.2     201.1     230.3     437.8     439.1     704.9     777.3
  
           1    0.0000    0.0000    0.0243    0.0000   -0.0610    0.0022    0.0041    0.0000
           2   -0.0000   -0.0000   -0.0025   -0.0000   -0.0016    0.0001   -0.0419    0.0000
           3    0.0376   -0.0029    0.0000   -0.0266   -0.0007   -0.0164   -0.0000   -0.0099
           4    0.0000    0.0000   -0.0093   -0.0000    0.0273   -0.0010   -0.0507   -0.0000
           5    0.0000    0.0000    0.0226    0.0000    0.0391   -0.0014    0.0572   -0.0000
           6   -0.0434   -0.0140   -0.0000    0.0324    0.0000   -0.0003    0.0000    0.0264
           7   -0.0000   -0.0000   -0.0293   -0.0000   -0.0184    0.0007    0.0474   -0.0000
           8   -0.0000   -0.0000   -0.0255   -0.0000    0.0167   -0.0006   -0.0122    0.0000
           9    0.0120    0.0258   -0.0001    0.0438    0.0002    0.0059   -0.0000   -0.0142
          10   -0.0000   -0.0000    0.0500    0.0000    0.0667   -0.0024   -0.0151    0.0000
          11   -0.0000   -0.0000   -0.0496   -0.0000    0.0111   -0.0004    0.0037   -0.0000
          12    0.0475    0.0125   -0.0000    0.0072   -0.0002   -0.0054   -0.0000    0.0030
          13    0.0000    0.0000    0.0026    0.0000   -0.0219    0.0008   -0.0320    0.0000
          14    0.0000    0.0000    0.0468    0.0001   -0.0395    0.0014   -0.0054    0.0000
          15   -0.0205   -0.0226    0.0001   -0.0363    0.0034    0.0834   -0.0000   -0.0004
          16   -0.0000   -0.0000   -0.0430   -0.0000   -0.0076    0.0003    0.0361   -0.0000
          17    0.0000    0.0000    0.0292    0.0000   -0.0353    0.0013    0.0076    0.0000
          18   -0.0429   -0.0076    0.0000   -0.0369   -0.0014   -0.0331   -0.0000   -0.0180
          19   -0.0142   -0.0171   -0.0406   -0.0277    0.0497    0.0552   -0.0730    0.0232
          20   -0.0644   -0.0013    0.0183    0.0570    0.0381   -0.0762    0.0614   -0.1009
          21   -0.0910   -0.0134   -0.0001    0.0779   -0.0023   -0.0625    0.0049   -0.0549
          22    0.0142    0.0171   -0.0407    0.0276    0.0450   -0.0586   -0.0730   -0.0231
          23    0.0645    0.0013    0.0184   -0.0570    0.0443    0.0734    0.0615    0.1010
          24   -0.0910   -0.0133   -0.0000    0.0779   -0.0029   -0.0624   -0.0049   -0.0548
          25    0.0262    0.0180    0.0482    0.0194   -0.0932   -0.0818    0.0071    0.0188
          26    0.0254   -0.0118   -0.0124   -0.0434    0.0072   -0.0713   -0.0461    0.0592
          27    0.0617   -0.0059   -0.0000   -0.0509   -0.0040   -0.0898   -0.0015    0.0379
          28   -0.0262   -0.0180    0.0483   -0.0192   -0.0863    0.0882    0.0070   -0.0188
          29   -0.0254    0.0118   -0.0125    0.0434    0.0131    0.0706   -0.0462   -0.0592
          30    0.0617   -0.0059    0.0002   -0.0509   -0.0034   -0.0898    0.0015    0.0379
          31   -0.0261   -0.0264   -0.0404   -0.0725   -0.0108   -0.0478    0.0580   -0.0882
          32   -0.0252    0.0094   -0.0476    0.0256    0.0399    0.0090   -0.0094    0.0164
          33    0.0209    0.0462   -0.0000    0.1001    0.0025    0.0418   -0.0044    0.0524
          34    0.0261    0.0264   -0.0406    0.0725   -0.0068    0.0485    0.0580    0.0882
          35    0.0252   -0.0095   -0.0475   -0.0257    0.0390   -0.0118   -0.0094   -0.0164
          36    0.0209    0.0462   -0.0003    0.1001    0.0010    0.0419    0.0044    0.0524
          37    0.0093    0.1463    0.0958   -0.0422    0.1081    0.0015    0.0597   -0.0460
          38    0.0702   -0.1438   -0.0488    0.0249    0.0111   -0.0135    0.0035   -0.0438
          39    0.0989   -0.0978   -0.0004    0.0269   -0.0006   -0.0155   -0.0014   -0.0299
          40   -0.0094   -0.1463    0.0957    0.0424    0.1076   -0.0092    0.0597    0.0460
          41   -0.0703    0.1439   -0.0487   -0.0250    0.0122    0.0127    0.0036    0.0439
          42    0.0988   -0.0978    0.0003    0.0269   -0.0007   -0.0155    0.0014   -0.0298
          43   -0.0000   -0.0001    0.0152    0.0000    0.0401   -0.0014   -0.0736    0.0000
          44   -0.0000   -0.0001   -0.1165   -0.0001   -0.0429    0.0015   -0.1097    0.0000
          45    0.0172    0.2551    0.0000   -0.0529    0.0003    0.0072   -0.0001   -0.0268
          46   -0.0000   -0.0000   -0.0846   -0.0001    0.0226   -0.0008    0.0919   -0.0000
          47    0.0000    0.0000    0.0471    0.0001   -0.0484    0.0017   -0.0174    0.0000
          48   -0.0837   -0.0087    0.0001   -0.0595   -0.0067   -0.1627    0.0001    0.1729


   Root No.       9        10        11        12        13        14        15        16

                 9 A      10 A      11 A      12 A      13 A      14 A      15 A      16 A   

                 834.8     864.2     932.0     964.8     984.3    1002.1    1005.6    1042.9
  
           1   -0.0000   -0.0000    0.0571    0.0000   -0.0037   -0.0023    0.0000   -0.0000
           2   -0.0000    0.0000   -0.0008   -0.0000    0.0537   -0.0030    0.0000   -0.0000
           3   -0.0004    0.0306   -0.0000   -0.0185   -0.0000    0.0000    0.0108   -0.0030
           4    0.0000    0.0000   -0.0045   -0.0000    0.0005   -0.0087   -0.0000    0.0000
           5    0.0000    0.0000    0.0082   -0.0000    0.0004    0.0039   -0.0000    0.0000
           6   -0.0254   -0.0009    0.0000    0.0156    0.0000   -0.0000    0.0070   -0.0282
           7    0.0000   -0.0000   -0.0429    0.0000   -0.0180   -0.0185    0.0000   -0.0000
           8   -0.0000   -0.0000    0.0548    0.0000   -0.0363   -0.0017   -0.0000   -0.0000
           9   -0.0168    0.0120    0.0000    0.0073   -0.0000    0.0000    0.0269   -0.0065
          10    0.0000   -0.0000   -0.0150    0.0000   -0.0207    0.0324   -0.0000   -0.0000
          11    0.0000   -0.0000    0.0039   -0.0000    0.0107   -0.0113    0.0000   -0.0000
          12   -0.0083   -0.0004   -0.0000   -0.0134   -0.0000    0.0000   -0.0040    0.0120
          13    0.0000   -0.0000   -0.0042   -0.0000    0.0116   -0.0170    0.0000    0.0000
          14   -0.0000   -0.0000   -0.0250    0.0000   -0.0057    0.0053   -0.0000    0.0000
          15    0.0221   -0.0045   -0.0000    0.0113    0.0000   -0.0000   -0.0041    0.0420
          16    0.0000    0.0000   -0.0196    0.0000    0.0279    0.0152   -0.0000   -0.0000
          17   -0.0000   -0.0000   -0.0372    0.0000   -0.0025    0.0126   -0.0000   -0.0000
          18   -0.0094   -0.0323   -0.0000   -0.0106    0.0000   -0.0000   -0.0439   -0.0201
          19    0.0224   -0.0009    0.0119    0.1352    0.0298   -0.0667    0.0394   -0.1236
          20    0.0984    0.0013    0.0112   -0.0076    0.0031    0.0028   -0.0092    0.0445
          21    0.0507   -0.0001    0.0019    0.0011    0.0008    0.0013   -0.0030    0.0147
          22   -0.0225    0.0009    0.0118   -0.1353    0.0297   -0.0666   -0.0394    0.1236
          23   -0.0984   -0.0013    0.0112    0.0076    0.0031    0.0028    0.0092   -0.0445
          24    0.0506   -0.0001   -0.0019    0.0010   -0.0007   -0.0013   -0.0030    0.0147
          25   -0.0514   -0.0279    0.1347    0.1690   -0.0186    0.0219   -0.0877    0.1313
          26    0.0422   -0.1527   -0.0158   -0.0191    0.0618   -0.0167    0.0183   -0.0401
          27    0.0154   -0.0877    0.0085    0.0159    0.0026   -0.0019   -0.0000    0.0068
          28    0.0514    0.0279    0.1347   -0.1690   -0.0187    0.0220    0.0877   -0.1313
          29   -0.0422    0.1527   -0.0158    0.0191    0.0618   -0.0167   -0.0183    0.0401
          30    0.0154   -0.0877   -0.0085    0.0159   -0.0026    0.0019   -0.0000    0.0068
          31   -0.0866    0.0132   -0.0405    0.0316   -0.0704   -0.0484    0.1577    0.0199
          32    0.0146   -0.1573    0.0662   -0.0115   -0.1206   -0.0548    0.1757    0.0653
          33    0.0484   -0.0522    0.0031   -0.0193    0.0053    0.0026   -0.0207    0.0014
          34    0.0866   -0.0132   -0.0405   -0.0316   -0.0703   -0.0484   -0.1576   -0.0199
          35   -0.0146    0.1572    0.0662    0.0115   -0.1206   -0.0548   -0.1757   -0.0653
          36    0.0484   -0.0522   -0.0031   -0.0193   -0.0053   -0.0026   -0.0207    0.0014
          37    0.0711    0.0015    0.0375    0.0686    0.0586   -0.0753    0.0178   -0.0492
          38    0.0648    0.0018    0.0023    0.0585    0.0085   -0.0060    0.0152   -0.0413
          39    0.0404    0.0010   -0.0018    0.0306   -0.0027    0.0048    0.0074   -0.0189
          40   -0.0711   -0.0016    0.0375   -0.0687    0.0586   -0.0753   -0.0178    0.0492
          41   -0.0648   -0.0018    0.0022   -0.0585    0.0084   -0.0060   -0.0152    0.0413
          42    0.0403    0.0010    0.0018    0.0305    0.0027   -0.0048    0.0074   -0.0189
          43   -0.0000   -0.0000   -0.0562    0.0000   -0.0810    0.1152   -0.0000    0.0000
          44   -0.0000   -0.0000   -0.0770    0.0001   -0.1077    0.1519   -0.0000    0.0000
          45    0.0391    0.0004   -0.0000    0.0336   -0.0001    0.0001    0.0081   -0.0212
          46    0.0000    0.0000    0.1150    0.0000    0.1119    0.2074   -0.0000    0.0000
          47   -0.0000    0.0000   -0.0970    0.0000   -0.0402   -0.0707    0.0000   -0.0000
          48    0.1069    0.2218    0.0000    0.0092   -0.0000    0.0000    0.1116    0.0572


   Root No.      17        18        19        20        21        22        23        24

                17 A      18 A      19 A      20 A      21 A      22 A      23 A      24 A   

                1082.5    1088.9    1118.1    1122.4    1173.2    1189.5    1236.9    1288.4
  
           1   -0.0000   -0.0157    0.0000    0.0070   -0.0364    0.0363   -0.0267    0.0448
           2   -0.0000   -0.0402    0.0000    0.0064    0.0352   -0.0039   -0.0270   -0.0127
           3    0.0558   -0.0000   -0.0037    0.0000   -0.0000   -0.0000    0.0000   -0.0000
           4   -0.0000    0.0136    0.0000    0.0279   -0.0139   -0.0189    0.0367   -0.0273
           5   -0.0000   -0.0223    0.0000    0.0693    0.0069    0.0020    0.0094    0.0003
           6    0.0121    0.0000    0.0395    0.0000   -0.0000   -0.0000    0.0000   -0.0000
           7    0.0000   -0.0065    0.0000    0.0035   -0.0080    0.0230   -0.0261   -0.0546
           8    0.0000    0.0165   -0.0000   -0.0038   -0.0186    0.0547    0.0250   -0.0294
           9   -0.0540    0.0000    0.0029   -0.0000    0.0000    0.0000    0.0000    0.0000
          10    0.0000   -0.0097   -0.0000   -0.0321    0.0079    0.0116   -0.0134    0.0053
          11    0.0000   -0.0004   -0.0000   -0.0648   -0.0080   -0.0023    0.0003   -0.0030
          12   -0.0063   -0.0000   -0.0496   -0.0000    0.0000    0.0000   -0.0000    0.0000
          13   -0.0000   -0.0254    0.0000    0.0086   -0.0272   -0.0333    0.0329   -0.0119
          14    0.0000    0.0199   -0.0000   -0.0020   -0.0201   -0.0364    0.0087   -0.0076
          15   -0.0264    0.0000    0.0068   -0.0000    0.0000    0.0000   -0.0000    0.0000
          16    0.0000    0.0041   -0.0000   -0.0064    0.0389    0.0108    0.0424    0.0589
          17    0.0000    0.0504   -0.0000   -0.0121   -0.0006   -0.0009    0.0005    0.0108
          18    0.0208   -0.0000   -0.0017    0.0000   -0.0000   -0.0000    0.0000   -0.0000
          19    0.0304    0.1854   -0.2059    0.1270    0.0599    0.0294   -0.1002    0.0437
          20   -0.0223   -0.0307   -0.1019    0.1045    0.0161    0.0057    0.0179    0.0102
          21   -0.0072   -0.0153   -0.0232    0.0180    0.0010   -0.0009    0.0142    0.0015
          22   -0.0304    0.1854    0.2059    0.1266    0.0599    0.0294   -0.1002    0.0437
          23    0.0223   -0.0306    0.1021    0.1043    0.0161    0.0057    0.0179    0.0102
          24   -0.0071    0.0153   -0.0231   -0.0178   -0.0010    0.0009   -0.0143   -0.0015
          25    0.0313    0.0059    0.0047   -0.0399    0.2137   -0.0422    0.0056   -0.1026
          26   -0.1527   -0.0712    0.0081    0.0300   -0.0497    0.0292   -0.0791    0.0371
          27   -0.0422   -0.0133    0.0034    0.0026    0.0105    0.0012   -0.0243   -0.0046
          28   -0.0313    0.0059   -0.0047   -0.0399    0.2137   -0.0422    0.0056   -0.1026
          29    0.1527   -0.0713   -0.0080    0.0300   -0.0497    0.0292   -0.0791    0.0371
          30   -0.0422    0.0133    0.0034   -0.0027   -0.0105   -0.0012    0.0243    0.0046
          31   -0.0670   -0.0271    0.0039    0.0049    0.0158   -0.0992   -0.0937   -0.0352
          32    0.1456   -0.0219   -0.0071   -0.0012    0.0153   -0.1760   -0.0152    0.1337
          33    0.0401    0.0017   -0.0021   -0.0004   -0.0038    0.0049    0.0281    0.0376
          34    0.0670   -0.0271   -0.0039    0.0050    0.0158   -0.0992   -0.0937   -0.0352
          35   -0.1457   -0.0218    0.0071   -0.0012    0.0153   -0.1761   -0.0152    0.1337
          36    0.0401   -0.0017   -0.0021    0.0004    0.0038   -0.0049   -0.0281   -0.0376
          37    0.0211    0.0340    0.1283   -0.1499   -0.0136   -0.0004   -0.0281    0.0172
          38    0.0181   -0.0010    0.1171   -0.0841   -0.0049    0.0032   -0.0170    0.0121
          39    0.0071   -0.0010    0.0348   -0.0099    0.0023    0.0036   -0.0100    0.0085
          40   -0.0211    0.0339   -0.1286   -0.1498   -0.0136   -0.0004   -0.0281    0.0172
          41   -0.0181   -0.0010   -0.1172   -0.0839   -0.0049    0.0032   -0.0170    0.0121
          42    0.0071    0.0011    0.0347    0.0097   -0.0023   -0.0036    0.0099   -0.0085
          43   -0.0000   -0.0299   -0.0000    0.0018    0.0330    0.0366   -0.0504    0.0331
          44   -0.0000   -0.0454   -0.0000    0.0058    0.0384    0.0433   -0.0636    0.0457
          45    0.0079   -0.0000    0.0400   -0.0000    0.0000    0.0000   -0.0000    0.0000
          46    0.0000    0.1053   -0.0000    0.0129   -0.1237   -0.1634   -0.0621   -0.0602
          47    0.0000    0.0103   -0.0000   -0.0213    0.0693    0.0752    0.0483    0.0639
          48   -0.0292    0.0000    0.0026   -0.0000    0.0000    0.0000   -0.0000   -0.0000


   Root No.      25        26        27        28        29        30        31        32

                25 A      26 A      27 A      28 A      29 A      30 A      31 A      32 A   

                1365.2    1394.2    1400.1    1402.0    1410.0    1417.7    1457.2    1884.5
  
           1   -0.0078   -0.0203   -0.0053    0.0000   -0.0002    0.0084    0.0234    0.0242
           2   -0.0003   -0.0312    0.0112   -0.0001    0.0040    0.0259    0.0243    0.0121
           3   -0.0000    0.0000    0.0000    0.0000   -0.0000   -0.0000    0.0000   -0.0000
           4   -0.0095   -0.0008   -0.0189    0.0001   -0.0069   -0.0148    0.0834    0.0692
           5   -0.0276    0.0019    0.0299   -0.0001    0.0031   -0.0134    0.0073   -0.0335
           6   -0.0000    0.0000    0.0000   -0.0008   -0.0000   -0.0000    0.0000    0.0000
           7    0.0041    0.0349    0.0108   -0.0001    0.0053    0.0312    0.0157    0.0257
           8    0.0053   -0.0091    0.0028   -0.0000   -0.0009   -0.0127   -0.0213   -0.0005
           9    0.0000   -0.0000    0.0000   -0.0000    0.0000   -0.0000    0.0000    0.0000
          10   -0.0219   -0.0051   -0.0218    0.0001    0.0249    0.0207   -0.0361   -0.0048
          11   -0.0202   -0.0037   -0.0183    0.0001   -0.0265    0.0190   -0.0250    0.0012
          12   -0.0000   -0.0000   -0.0001   -0.0428   -0.0000    0.0000   -0.0000   -0.0000
          13    0.0178    0.0053    0.0248   -0.0001    0.0038   -0.0038   -0.0642   -0.1664
          14    0.0088    0.0065    0.0102   -0.0000    0.0011   -0.0051   -0.0410    0.2140
          15    0.0000   -0.0000   -0.0000   -0.0003   -0.0000    0.0000   -0.0000   -0.0000
          16   -0.0046   -0.0072   -0.0017    0.0000   -0.0021   -0.0160   -0.0153    0.0667
          17   -0.0066    0.0006   -0.0194    0.0001   -0.0031   -0.0006    0.0419   -0.1751
          18   -0.0000    0.0000    0.0000    0.0001    0.0000   -0.0000   -0.0000    0.0000
          19    0.0126    0.0045    0.0262    0.0021    0.0143    0.0172   -0.1023    0.0078
          20    0.1657   -0.0095   -0.0982   -0.0004   -0.0217    0.0398   -0.0214   -0.0141
          21    0.1241   -0.0077   -0.0862   -0.0020   -0.0170    0.0326   -0.0067    0.0126
          22    0.0126    0.0045    0.0261   -0.0023    0.0143    0.0172   -0.1023    0.0077
          23    0.1659   -0.0095   -0.0983    0.0012   -0.0217    0.0398   -0.0214   -0.0141
          24   -0.1239    0.0076    0.0861   -0.0027    0.0170   -0.0325    0.0067   -0.0126
          25   -0.0023    0.0671   -0.0159   -0.0001   -0.0042   -0.0216   -0.0041   -0.0264
          26   -0.0284    0.1454   -0.0716    0.0002   -0.0191   -0.0922   -0.0247    0.0094
          27   -0.0163    0.1284   -0.0537    0.0002   -0.0151   -0.0789   -0.0343   -0.0203
          28   -0.0023    0.0671   -0.0159    0.0002   -0.0042   -0.0216   -0.0041   -0.0264
          29   -0.0284    0.1454   -0.0716    0.0004   -0.0191   -0.0922   -0.0247    0.0094
          30    0.0163   -0.1284    0.0537   -0.0003    0.0151    0.0789    0.0343    0.0202
          31   -0.0107   -0.1403   -0.0426    0.0003   -0.0175   -0.0896   -0.0198   -0.0132
          32   -0.0080    0.0597    0.0075    0.0000    0.0075    0.0553    0.0481   -0.0187
          33    0.0045    0.1226    0.0323   -0.0002    0.0157    0.0902    0.0412    0.0272
          34   -0.0107   -0.1403   -0.0426    0.0002   -0.0175   -0.0896   -0.0198   -0.0132
          35   -0.0080    0.0597    0.0075   -0.0001    0.0075    0.0553    0.0481   -0.0187
          36   -0.0045   -0.1226   -0.0323    0.0002   -0.0157   -0.0902   -0.0412   -0.0272
          37    0.1001    0.0173    0.0786   -0.2439   -0.1118   -0.0528    0.0723    0.0054
          38    0.0650    0.0072    0.0193    0.0756    0.2334   -0.0465    0.0407    0.0031
          39    0.0472    0.0055    0.0166    0.0499    0.1806   -0.0375    0.0357    0.0011
          40    0.1001    0.0174    0.0793    0.2434   -0.1115   -0.0528    0.0723    0.0054
          41    0.0650    0.0072    0.0191   -0.0760    0.2335   -0.0466    0.0408    0.0031
          42   -0.0471   -0.0055   -0.0164    0.0503   -0.1805    0.0374   -0.0356   -0.0011
          43    0.0549    0.0090    0.0558   -0.0004   -0.0568   -0.0231    0.0104   -0.0138
          44    0.1064    0.0193    0.1099   -0.0005   -0.1313   -0.0547    0.0473   -0.0187
          45    0.0001    0.0000    0.0007    0.4275    0.0001    0.0000    0.0000   -0.0000
          46    0.0067    0.0125   -0.0039    0.0000   -0.0008    0.0112    0.0159   -0.1070
          47   -0.0118   -0.0074   -0.0205    0.0001   -0.0039   -0.0135    0.0317   -0.1571
          48    0.0000    0.0000   -0.0000   -0.0000    0.0000    0.0000   -0.0000    0.0000


   Root No.      33        34        35        36        37        38        39        40

                33 A      34 A      35 A      36 A      37 A      38 A      39 A      40 A   

                2937.9    3017.8    3042.9    3056.0    3081.9    3086.9    3105.9    3107.0
  
           1   -0.0000    0.0001    0.0000   -0.0000   -0.0000   -0.0000   -0.0034    0.0131
           2    0.0000   -0.0001    0.0000   -0.0000    0.0000   -0.0000   -0.0065    0.0327
           3   -0.0000    0.0000    0.0281   -0.0335   -0.0000    0.0000    0.0000   -0.0000
           4    0.0000    0.0040   -0.0000    0.0000    0.0000   -0.0003   -0.0001   -0.0000
           5    0.0000   -0.0402    0.0000   -0.0000    0.0000    0.0023    0.0001   -0.0000
           6   -0.0585   -0.0000   -0.0000   -0.0000   -0.0026    0.0000   -0.0000    0.0000
           7   -0.0000    0.0000    0.0000    0.0000    0.0000    0.0000   -0.0319   -0.0067
           8   -0.0000    0.0000   -0.0000   -0.0000   -0.0000   -0.0000    0.0155    0.0041
           9   -0.0000   -0.0000   -0.0336   -0.0279   -0.0000    0.0000   -0.0000   -0.0000
          10   -0.0000   -0.0027    0.0000   -0.0000   -0.0000   -0.0320   -0.0000   -0.0000
          11   -0.0000    0.0022   -0.0000    0.0000    0.0001    0.0374    0.0000    0.0000
          12    0.0027   -0.0000    0.0000    0.0000   -0.0552    0.0001    0.0000    0.0000
          13    0.0000    0.0004   -0.0000   -0.0000    0.0000    0.0004    0.0011    0.0005
          14   -0.0000   -0.0004    0.0000    0.0000    0.0000    0.0002   -0.0010    0.0006
          15   -0.0001    0.0000   -0.0001   -0.0004   -0.0000    0.0000   -0.0000   -0.0000
          16    0.0000   -0.0004    0.0000    0.0000    0.0000    0.0001   -0.0008   -0.0000
          17    0.0000    0.0002   -0.0000   -0.0000    0.0000   -0.0000    0.0003    0.0001
          18   -0.0002   -0.0000   -0.0000   -0.0004   -0.0000    0.0000   -0.0000   -0.0000
          19    0.0254   -0.0222   -0.0001    0.0001   -0.0014   -0.0009   -0.0000    0.0001
          20   -0.2736    0.2433   -0.0001   -0.0000   -0.0143   -0.0134   -0.0001    0.0001
          21    0.3526   -0.3738    0.0002   -0.0000    0.0147    0.0198    0.0002   -0.0002
          22   -0.0255   -0.0224    0.0001   -0.0001    0.0014   -0.0009   -0.0000    0.0001
          23    0.2733    0.2428    0.0001    0.0000    0.0142   -0.0134   -0.0001    0.0001
          24    0.3529    0.3740    0.0002   -0.0000    0.0146   -0.0198   -0.0002    0.0002
          25   -0.0002    0.0003    0.0493   -0.0565   -0.0001   -0.0001    0.0166   -0.0792
          26   -0.0001    0.0001    0.1181   -0.1448   -0.0001   -0.0001    0.0427   -0.1973
          27    0.0000   -0.0002   -0.1707    0.2022    0.0002    0.0001   -0.0698    0.3243
          28    0.0002    0.0002   -0.0493    0.0565    0.0001   -0.0001    0.0166   -0.0792
          29    0.0001    0.0001   -0.1181    0.1448    0.0001   -0.0001    0.0427   -0.1973
          30    0.0000    0.0002   -0.1707    0.2023    0.0002   -0.0001    0.0698   -0.3243
          31   -0.0002    0.0000    0.1382    0.1159    0.0001   -0.0003    0.1913    0.0407
          32    0.0001   -0.0000   -0.0672   -0.0598   -0.0000    0.0001   -0.0957   -0.0199
          33   -0.0002    0.0001    0.2039    0.1686    0.0001   -0.0005    0.3264    0.0692
          34    0.0002    0.0000   -0.1383   -0.1159   -0.0001   -0.0003    0.1913    0.0407
          35   -0.0001   -0.0000    0.0673    0.0598    0.0000    0.0001   -0.0957   -0.0199
          36   -0.0002   -0.0001    0.2039    0.1687    0.0001    0.0005   -0.3263   -0.0692
          37   -0.0040    0.0002    0.0000   -0.0000    0.0208   -0.0056   -0.0000   -0.0000
          38    0.0105   -0.0070   -0.0000    0.0001   -0.2665   -0.1178   -0.0001   -0.0001
          39   -0.0179    0.0115    0.0000   -0.0002    0.3448    0.1926    0.0002    0.0001
          40    0.0040    0.0002   -0.0000    0.0000   -0.0211   -0.0054   -0.0000   -0.0000
          41   -0.0105   -0.0069    0.0000   -0.0001    0.2659   -0.1184   -0.0001   -0.0001
          42   -0.0179   -0.0115    0.0000   -0.0002    0.3443   -0.1936   -0.0002   -0.0001
          43   -0.0000    0.0263   -0.0000    0.0000    0.0006    0.3921    0.0006   -0.0001
          44    0.0000   -0.0187    0.0000   -0.0000   -0.0003   -0.2113   -0.0003    0.0000
          45    0.0003    0.0000   -0.0000    0.0000   -0.0284    0.0001    0.0000    0.0000
          46    0.0000    0.0007   -0.0000    0.0000   -0.0000    0.0001    0.0023   -0.0057
          47    0.0000    0.0015   -0.0000    0.0000   -0.0000   -0.0004    0.0053   -0.0130
          48    0.0005    0.0000   -0.0003   -0.0006   -0.0002    0.0000   -0.0000    0.0000


   Root No.      41        42

                41 A      42 A   

                3183.4    3207.0
  
           1    0.0000    0.0016
           2    0.0000    0.0033
           3    0.0000   -0.0000
           4   -0.0004    0.0004
           5   -0.0001   -0.0001
           6   -0.0000    0.0000
           7    0.0000    0.0016
           8    0.0000   -0.0005
           9   -0.0000    0.0000
          10   -0.0189    0.0003
          11   -0.0158    0.0003
          12   -0.0000   -0.0000
          13    0.0001   -0.0044
          14    0.0000    0.0068
          15    0.0000   -0.0000
          16   -0.0002   -0.0274
          17   -0.0004   -0.0741
          18   -0.0000    0.0000
          19   -0.0006    0.0002
          20   -0.0017   -0.0010
          21    0.0017    0.0012
          22   -0.0006    0.0002
          23   -0.0017   -0.0010
          24   -0.0017   -0.0012
          25   -0.0000   -0.0030
          26   -0.0001   -0.0073
          27    0.0002    0.0119
          28   -0.0000   -0.0030
          29   -0.0001   -0.0073
          30   -0.0002   -0.0119
          31   -0.0000   -0.0009
          32    0.0000   -0.0002
          33   -0.0000   -0.0016
          34   -0.0000   -0.0009
          35    0.0000   -0.0002
          36    0.0000    0.0016
          37   -0.0230    0.0006
          38    0.1806   -0.0028
          39   -0.2635    0.0038
          40   -0.0232    0.0006
          41    0.1804   -0.0028
          42    0.2637   -0.0038
          43    0.2766   -0.0038
          44   -0.1678    0.0022
          45    0.0000   -0.0000
          46    0.0017    0.3418
          47    0.0045    0.7864
          48   -0.0000   -0.0000


           MASS-WEIGHTED COORDINATE ANALYSIS (NORMAL COORDINATES)


   Root No.       1         2         3         4         5         6         7         8

                 1 A       2 A       3 A       4 A       5 A       6 A       7 A       8 A   

                  34.4     148.2     201.1     230.3     437.8     439.1     704.9     777.3
  
           1    0.0001    0.0001    0.1820    0.0003   -0.4380    0.0168    0.0306    0.0001
           2   -0.0000   -0.0000   -0.0187   -0.0000   -0.0117    0.0004   -0.3126    0.0001
           3    0.3139   -0.0223    0.0003   -0.2362   -0.0049   -0.1261   -0.0000   -0.1004
           4    0.0001    0.0000   -0.0699   -0.0001    0.1960   -0.0076   -0.3784   -0.0000
           5    0.0002    0.0000    0.1691    0.0001    0.2812   -0.0108    0.4272   -0.0002
           6   -0.3622   -0.1094   -0.0002    0.2878    0.0000   -0.0021    0.0002    0.2677
           7   -0.0000   -0.0000   -0.2196   -0.0002   -0.1320    0.0051    0.3537   -0.0001
           8   -0.0000   -0.0000   -0.1912   -0.0002    0.1198   -0.0046   -0.0908    0.0000
           9    0.1004    0.2019   -0.0006    0.3895    0.0018    0.0456   -0.0000   -0.1442
          10   -0.0001   -0.0001    0.3743    0.0004    0.4796   -0.0184   -0.1127    0.0000
          11   -0.0002   -0.0000   -0.3711   -0.0004    0.0795   -0.0030    0.0277   -0.0000
          12    0.3971    0.0974   -0.0001    0.0641   -0.0015   -0.0415   -0.0000    0.0301
          13    0.0000    0.0000    0.0193    0.0001   -0.1574    0.0060   -0.2388    0.0000
          14    0.0001    0.0000    0.3504    0.0005   -0.2839    0.0108   -0.0400    0.0000
          15   -0.1713   -0.1765    0.0005   -0.3232    0.0245    0.6405   -0.0001   -0.0044
          16   -0.0000   -0.0000   -0.3215   -0.0004   -0.0543    0.0021    0.2693   -0.0001
          17    0.0000    0.0000    0.2185    0.0003   -0.2536    0.0097    0.0564    0.0000
          18   -0.3582   -0.0597    0.0003   -0.3279   -0.0099   -0.2539   -0.0000   -0.1828
          19   -0.0343   -0.0388   -0.0881   -0.0714    0.1034    0.1228   -0.1579    0.0680
          20   -0.1558   -0.0030    0.0396    0.1469    0.0794   -0.1696    0.1329   -0.2963
          21   -0.2203   -0.0302   -0.0003    0.2009   -0.0047   -0.1390    0.0107   -0.1612
          22    0.0344    0.0388   -0.0882    0.0711    0.0937   -0.1304   -0.1580   -0.0679
          23    0.1561    0.0030    0.0399   -0.1470    0.0923    0.1632    0.1330    0.2964
          24   -0.2201   -0.0302   -0.0001    0.2007   -0.0059   -0.1388   -0.0107   -0.1609
          25    0.0635    0.0407    0.1046    0.0499   -0.1941   -0.1819    0.0153    0.0552
          26    0.0615   -0.0267   -0.0268   -0.1118    0.0151   -0.1586   -0.0998    0.1739
          27    0.1494   -0.0134   -0.0001   -0.1313   -0.0082   -0.1998   -0.0032    0.1113
          28   -0.0634   -0.0407    0.1047   -0.0496   -0.1796    0.1963    0.0152   -0.0551
          29   -0.0615    0.0267   -0.0271    0.1117    0.0272    0.1569   -0.0999   -0.1739
          30    0.1494   -0.0134    0.0003   -0.1313   -0.0071   -0.1998    0.0033    0.1113
          31   -0.0632   -0.0598   -0.0877   -0.1869   -0.0226   -0.1064    0.1254   -0.2590
          32   -0.0610    0.0214   -0.1032    0.0660    0.0830    0.0199   -0.0203    0.0480
          33    0.0505    0.1046   -0.0001    0.2579    0.0052    0.0931   -0.0094    0.1539
          34    0.0632    0.0598   -0.0881    0.1867   -0.0143    0.1079    0.1255    0.2589
          35    0.0609   -0.0214   -0.1030   -0.0662    0.0812   -0.0262   -0.0203   -0.0480
          36    0.0505    0.1046   -0.0006    0.2579    0.0020    0.0932    0.0095    0.1539
          37    0.0226    0.3311    0.2078   -0.1088    0.2250    0.0033    0.1291   -0.1350
          38    0.1698   -0.3254   -0.1057    0.0641    0.0232   -0.0301    0.0076   -0.1287
          39    0.2394   -0.2213   -0.0008    0.0692   -0.0012   -0.0345   -0.0030   -0.0878
          40   -0.0228   -0.3310    0.2075    0.1092    0.2240   -0.0205    0.1292    0.1349
          41   -0.1700    0.3256   -0.1055   -0.0644    0.0254    0.0282    0.0077    0.1288
          42    0.2392   -0.2213    0.0006    0.0693   -0.0014   -0.0345    0.0030   -0.0876
          43   -0.0000   -0.0002    0.0330    0.0001    0.0835   -0.0032   -0.1593    0.0001
          44   -0.0001   -0.0002   -0.2525   -0.0002   -0.0892    0.0034   -0.2374    0.0001
          45    0.0416    0.5773    0.0001   -0.1364    0.0006    0.0159   -0.0002   -0.0787
          46   -0.0000   -0.0000   -0.1834   -0.0002    0.0470   -0.0018    0.1988   -0.0000
          47    0.0000    0.0000    0.1022    0.0001   -0.1007    0.0038   -0.0376    0.0000
          48   -0.2026   -0.0196    0.0001   -0.1532   -0.0139   -0.3619    0.0001    0.5076


   Root No.       9        10        11        12        13        14        15        16

                 9 A      10 A      11 A      12 A      13 A      14 A      15 A      16 A   

                 834.8     864.2     932.0     964.8     984.3    1002.1    1005.6    1042.9
  
           1   -0.0000   -0.0000    0.4269    0.0000   -0.0323   -0.0204    0.0000   -0.0000
           2   -0.0000    0.0000   -0.0063   -0.0000    0.4628   -0.0275    0.0001   -0.0000
           3   -0.0039    0.2399   -0.0000   -0.1773   -0.0000    0.0001    0.0883   -0.0282
           4    0.0001    0.0000   -0.0338   -0.0000    0.0042   -0.0792   -0.0000    0.0001
           5    0.0001    0.0000    0.0611   -0.0001    0.0036    0.0351   -0.0000    0.0002
           6   -0.2666   -0.0067    0.0000    0.1493    0.0000   -0.0001    0.0571   -0.2672
           7    0.0000   -0.0000   -0.3207    0.0000   -0.1552   -0.1682    0.0000   -0.0000
           8   -0.0000   -0.0000    0.4098    0.0000   -0.3131   -0.0150   -0.0000   -0.0000
           9   -0.1765    0.0943    0.0000    0.0694   -0.0000    0.0000    0.2193   -0.0613
          10    0.0000   -0.0000   -0.1118    0.0002   -0.1783    0.2944   -0.0000   -0.0001
          11    0.0000   -0.0000    0.0292   -0.0000    0.0925   -0.1027    0.0000   -0.0001
          12   -0.0870   -0.0029   -0.0000   -0.1282   -0.0001    0.0001   -0.0324    0.1138
          13    0.0000   -0.0000   -0.0311   -0.0000    0.0999   -0.1539    0.0000    0.0000
          14   -0.0000   -0.0000   -0.1867    0.0000   -0.0491    0.0477   -0.0000    0.0000
          15    0.2313   -0.0349   -0.0000    0.1086    0.0000   -0.0001   -0.0336    0.3989
          16    0.0000    0.0000   -0.1464    0.0000    0.2402    0.1383   -0.0000   -0.0000
          17   -0.0000   -0.0000   -0.2782    0.0001   -0.0214    0.1143   -0.0000   -0.0000
          18   -0.0981   -0.2531   -0.0000   -0.1013    0.0000   -0.0000   -0.3582   -0.1910
          19    0.0681   -0.0020    0.0257    0.3749    0.0743   -0.1753    0.0931   -0.3395
          20    0.2988    0.0029    0.0243   -0.0210    0.0077    0.0073   -0.0218    0.1223
          21    0.1540   -0.0001    0.0042    0.0030    0.0019    0.0033   -0.0070    0.0405
          22   -0.0682    0.0020    0.0256   -0.3752    0.0741   -0.1751   -0.0931    0.3396
          23   -0.2989   -0.0029    0.0243    0.0210    0.0077    0.0073    0.0218   -0.1223
          24    0.1536   -0.0001   -0.0041    0.0029   -0.0019   -0.0034   -0.0071    0.0405
          25   -0.1561   -0.0634    0.2917    0.4687   -0.0464    0.0575   -0.2071    0.3608
          26    0.1280   -0.3472   -0.0341   -0.0529    0.1542   -0.0438    0.0432   -0.1103
          27    0.0469   -0.1993    0.0185    0.0440    0.0065   -0.0050   -0.0001    0.0187
          28    0.1560    0.0634    0.2916   -0.4687   -0.0466    0.0579    0.2071   -0.3609
          29   -0.1280    0.3472   -0.0341    0.0529    0.1543   -0.0438   -0.0431    0.1103
          30    0.0469   -0.1993   -0.0185    0.0440   -0.0065    0.0049   -0.0001    0.0187
          31   -0.2631    0.0299   -0.0877    0.0877   -0.1756   -0.1272    0.3722    0.0546
          32    0.0444   -0.3574    0.1433   -0.0319   -0.3011   -0.1439    0.4149    0.1794
          33    0.1471   -0.1186    0.0067   -0.0537    0.0131    0.0067   -0.0489    0.0038
          34    0.2631   -0.0299   -0.0877   -0.0877   -0.1756   -0.1273   -0.3721   -0.0546
          35   -0.0443    0.3574    0.1433    0.0319   -0.3010   -0.1440   -0.4149   -0.1794
          36    0.1471   -0.1186   -0.0067   -0.0537   -0.0131   -0.0067   -0.0489    0.0038
          37    0.2159    0.0035    0.0812    0.1903    0.1464   -0.1979    0.0421   -0.1353
          38    0.1967    0.0040    0.0049    0.1622    0.0211   -0.0159    0.0358   -0.1136
          39    0.1226    0.0022   -0.0039    0.0848   -0.0066    0.0125    0.0175   -0.0520
          40   -0.2160   -0.0035    0.0812   -0.1906    0.1463   -0.1978   -0.0420    0.1352
          41   -0.1969   -0.0040    0.0048   -0.1622    0.0210   -0.0159   -0.0358    0.1136
          42    0.1223    0.0022    0.0040    0.0845    0.0068   -0.0127    0.0175   -0.0518
          43   -0.0001   -0.0000   -0.1216    0.0001   -0.2022    0.3027   -0.0001    0.0000
          44   -0.0001   -0.0000   -0.1667    0.0002   -0.2690    0.3991   -0.0001    0.0000
          45    0.1187    0.0010   -0.0001    0.0932   -0.0002    0.0003    0.0190   -0.0584
          46    0.0000    0.0000    0.2489    0.0000    0.2795    0.5449   -0.0001    0.0001
          47   -0.0000    0.0000   -0.2101    0.0000   -0.1005   -0.1859    0.0000   -0.0001
          48    0.3248    0.5042    0.0000    0.0254   -0.0000    0.0000    0.2633    0.1571


   Root No.      17        18        19        20        21        22        23        24

                17 A      18 A      19 A      20 A      21 A      22 A      23 A      24 A   

                1082.5    1088.9    1118.1    1122.4    1173.2    1189.5    1236.9    1288.4
  
           1   -0.0000   -0.1282    0.0001    0.0477   -0.2809    0.2682   -0.2326    0.3398
           2   -0.0000   -0.3286    0.0001    0.0443    0.2719   -0.0285   -0.2356   -0.0967
           3    0.4310   -0.0001   -0.0274    0.0000   -0.0000   -0.0000    0.0000   -0.0000
           4   -0.0000    0.1110    0.0000    0.1916   -0.1075   -0.1398    0.3195   -0.2068
           5   -0.0001   -0.1820    0.0003    0.4754    0.0533    0.0147    0.0821    0.0024
           6    0.0935    0.0001    0.2907    0.0001   -0.0001   -0.0001    0.0001   -0.0001
           7    0.0000   -0.0530    0.0000    0.0241   -0.0617    0.1696   -0.2278   -0.4146
           8    0.0000    0.1347   -0.0001   -0.0258   -0.1438    0.4039    0.2182   -0.2234
           9   -0.4170    0.0001    0.0217   -0.0000    0.0000    0.0000    0.0000    0.0000
          10    0.0000   -0.0794   -0.0000   -0.2206    0.0607    0.0856   -0.1167    0.0399
          11    0.0000   -0.0035   -0.0002   -0.4450   -0.0615   -0.0172    0.0029   -0.0226
          12   -0.0483   -0.0002   -0.3648   -0.0000    0.0000    0.0000   -0.0000    0.0000
          13   -0.0001   -0.2076    0.0001    0.0592   -0.2099   -0.2457    0.2864   -0.0899
          14    0.0000    0.1625   -0.0000   -0.0136   -0.1551   -0.2689    0.0762   -0.0576
          15   -0.2035    0.0001    0.0502   -0.0001    0.0000    0.0000   -0.0000    0.0000
          16    0.0000    0.0339   -0.0000   -0.0436    0.3004    0.0800    0.3699    0.4469
          17    0.0001    0.4118   -0.0002   -0.0831   -0.0045   -0.0065    0.0040    0.0823
          18    0.1608   -0.0001   -0.0125    0.0000   -0.0000   -0.0000    0.0000   -0.0000
          19    0.0681    0.4386   -0.4386    0.2525    0.1341    0.0628   -0.2530    0.0960
          20   -0.0499   -0.0725   -0.2170    0.2077    0.0360    0.0123    0.0451    0.0225
          21   -0.0160   -0.0361   -0.0495    0.0358    0.0023   -0.0019    0.0359    0.0033
          22   -0.0680    0.4386    0.4388    0.2518    0.1341    0.0629   -0.2530    0.0960
          23    0.0499   -0.0724    0.2175    0.2075    0.0360    0.0122    0.0451    0.0225
          24   -0.0160    0.0362   -0.0491   -0.0354   -0.0022    0.0020   -0.0360   -0.0032
          25    0.0700    0.0140    0.0099   -0.0794    0.4782   -0.0901    0.0141   -0.2255
          26   -0.3416   -0.1685    0.0172    0.0597   -0.1111    0.0624   -0.1998    0.0816
          27   -0.0943   -0.0314    0.0073    0.0053    0.0235    0.0025   -0.0615   -0.0102
          28   -0.0700    0.0140   -0.0100   -0.0794    0.4782   -0.0902    0.0141   -0.2255
          29    0.3416   -0.1686   -0.0171    0.0597   -0.1111    0.0624   -0.1998    0.0816
          30   -0.0943    0.0315    0.0073   -0.0053   -0.0235   -0.0025    0.0615    0.0102
          31   -0.1499   -0.0640    0.0084    0.0098    0.0354   -0.2122   -0.2365   -0.0773
          32    0.3258   -0.0517   -0.0152   -0.0024    0.0342   -0.3764   -0.0384    0.2939
          33    0.0898    0.0041   -0.0044   -0.0008   -0.0085    0.0106    0.0710    0.0826
          34    0.1499   -0.0641   -0.0083    0.0099    0.0354   -0.2122   -0.2365   -0.0773
          35   -0.3259   -0.0517    0.0152   -0.0024    0.0342   -0.3765   -0.0385    0.2939
          36    0.0898   -0.0041   -0.0044    0.0008    0.0085   -0.0106   -0.0710   -0.0826
          37    0.0472    0.0803    0.2735   -0.2982   -0.0304   -0.0009   -0.0710    0.0377
          38    0.0405   -0.0023    0.2495   -0.1672   -0.0110    0.0068   -0.0429    0.0265
          39    0.0159   -0.0024    0.0742   -0.0197    0.0051    0.0078   -0.0251    0.0187
          40   -0.0472    0.0801   -0.2740   -0.2978   -0.0303   -0.0009   -0.0710    0.0377
          41   -0.0405   -0.0024   -0.2498   -0.1669   -0.0110    0.0068   -0.0429    0.0266
          42    0.0158    0.0025    0.0738    0.0193   -0.0051   -0.0078    0.0250   -0.0187
          43   -0.0000   -0.0707   -0.0000    0.0036    0.0739    0.0782   -0.1273    0.0727
          44   -0.0000   -0.1073   -0.0000    0.0115    0.0860    0.0925   -0.1604    0.1004
          45    0.0176   -0.0000    0.0852   -0.0001    0.0001    0.0001   -0.0001    0.0001
          46    0.0000    0.2492   -0.0000    0.0256   -0.2769   -0.3495   -0.1568   -0.1324
          47    0.0000    0.0244   -0.0000   -0.0423    0.1551    0.1608    0.1220    0.1404
          48   -0.0652    0.0000    0.0055   -0.0000    0.0000    0.0000   -0.0000   -0.0000


   Root No.      25        26        27        28        29        30        31        32

                25 A      26 A      27 A      28 A      29 A      30 A      31 A      32 A   

                1365.2    1394.2    1400.1    1402.0    1410.0    1417.7    1457.2    1884.5
  
           1   -0.0664   -0.1582   -0.0509    0.0001   -0.0012    0.0798    0.1537    0.0701
           2   -0.0022   -0.2433    0.1081   -0.0003    0.0279    0.2468    0.1596    0.0351
           3   -0.0000    0.0000    0.0000    0.0002   -0.0000   -0.0000    0.0000   -0.0000
           4   -0.0813   -0.0061   -0.1824    0.0005   -0.0487   -0.1412    0.5484    0.2001
           5   -0.2356    0.0150    0.2887   -0.0007    0.0220   -0.1277    0.0478   -0.0968
           6   -0.0001    0.0000    0.0001   -0.0048   -0.0000   -0.0001    0.0001    0.0000
           7    0.0346    0.2714    0.1041   -0.0003    0.0370    0.2969    0.1029    0.0743
           8    0.0453   -0.0705    0.0271   -0.0000   -0.0063   -0.1209   -0.1398   -0.0014
           9    0.0000   -0.0000    0.0000   -0.0000    0.0000   -0.0000    0.0000    0.0000
          10   -0.1870   -0.0394   -0.2100    0.0005    0.1753    0.1975   -0.2373   -0.0139
          11   -0.1722   -0.0287   -0.1760    0.0006   -0.1859    0.1807   -0.1643    0.0034
          12   -0.0001   -0.0000   -0.0008   -0.2536   -0.0001    0.0001   -0.0001   -0.0000
          13    0.1523    0.0416    0.2386   -0.0006    0.0267   -0.0360   -0.4222   -0.4814
          14    0.0751    0.0504    0.0984   -0.0003    0.0079   -0.0489   -0.2700    0.6190
          15    0.0000   -0.0000   -0.0000   -0.0020   -0.0000    0.0000   -0.0000   -0.0000
          16   -0.0391   -0.0562   -0.0166    0.0001   -0.0147   -0.1527   -0.1007    0.1930
          17   -0.0566    0.0044   -0.1870    0.0005   -0.0219   -0.0058    0.2759   -0.5067
          18   -0.0000    0.0000    0.0000    0.0005    0.0000   -0.0000   -0.0000    0.0000
          19    0.0310    0.0102    0.0731    0.0035    0.0291    0.0475   -0.1950    0.0065
          20    0.4099   -0.0214   -0.2743   -0.0007   -0.0442    0.1098   -0.0408   -0.0118
          21    0.3069   -0.0173   -0.2407   -0.0034   -0.0346    0.0899   -0.0128    0.0106
          22    0.0312    0.0102    0.0729   -0.0039    0.0291    0.0476   -0.1949    0.0065
          23    0.4102   -0.0214   -0.2745    0.0021   -0.0442    0.1099   -0.0408   -0.0118
          24   -0.3064    0.0172    0.2405   -0.0047    0.0345   -0.0898    0.0127   -0.0106
          25   -0.0057    0.1513   -0.0445   -0.0001   -0.0086   -0.0597   -0.0078   -0.0221
          26   -0.0703    0.3279   -0.2001    0.0004   -0.0389   -0.2544   -0.0470    0.0079
          27   -0.0403    0.2897   -0.1499    0.0003   -0.0308   -0.2177   -0.0653   -0.0170
          28   -0.0058    0.1513   -0.0445    0.0003   -0.0086   -0.0597   -0.0078   -0.0221
          29   -0.0703    0.3279   -0.2001    0.0007   -0.0389   -0.2544   -0.0470    0.0079
          30    0.0403   -0.2897    0.1499   -0.0005    0.0308    0.2176    0.0653    0.0170
          31   -0.0264   -0.3165   -0.1191    0.0004   -0.0357   -0.2473   -0.0376   -0.0110
          32   -0.0197    0.1347    0.0210    0.0000    0.0152    0.1527    0.0916   -0.0157
          33    0.0111    0.2765    0.0901   -0.0003    0.0319    0.2489    0.0785    0.0228
          34   -0.0264   -0.3165   -0.1191    0.0003   -0.0357   -0.2473   -0.0376   -0.0110
          35   -0.0197    0.1346    0.0210   -0.0002    0.0152    0.1527    0.0916   -0.0157
          36   -0.0111   -0.2765   -0.0901    0.0003   -0.0319   -0.2489   -0.0785   -0.0228
          37    0.2475    0.0391    0.2194   -0.4184   -0.2277   -0.1458    0.1377    0.0046
          38    0.1606    0.0162    0.0540    0.1296    0.4751   -0.1284    0.0776    0.0026
          39    0.1168    0.0124    0.0464    0.0856    0.3676   -0.1035    0.0681    0.0009
          40    0.2476    0.0392    0.2215    0.4175   -0.2270   -0.1458    0.1378    0.0046
          41    0.1607    0.0162    0.0533   -0.1303    0.4753   -0.1285    0.0777    0.0026
          42   -0.1165   -0.0123   -0.0457    0.0864   -0.3674    0.1033   -0.0679   -0.0009
          43    0.1358    0.0203    0.1559   -0.0006   -0.1156   -0.0637    0.0199   -0.0115
          44    0.2630    0.0434    0.3069   -0.0009   -0.2673   -0.1509    0.0901   -0.0156
          45    0.0002    0.0001    0.0020    0.7332    0.0002    0.0000    0.0000   -0.0000
          46    0.0165    0.0282   -0.0110    0.0000   -0.0016    0.0308    0.0303   -0.0897
          47   -0.0292   -0.0167   -0.0574    0.0002   -0.0079   -0.0374    0.0604   -0.1316
          48    0.0000    0.0000   -0.0000   -0.0000    0.0000    0.0000   -0.0000    0.0000


   Root No.      33        34        35        36        37        38        39        40

                33 A      34 A      35 A      36 A      37 A      38 A      39 A      40 A   

                2937.9    3017.8    3042.9    3056.0    3081.9    3086.9    3105.9    3107.0
  
[...]
 TRANSITION DIPOLE   0.1785         C  3 -- H 12          +9.6% ( 47.1%)      3.1%
 TRAVEL (Ang.)       0.1975         C  3 -- H 11          +9.6% ( 47.1%)      3.1%
 REDUCED MASS        1.3424         C  1 -- C  3          +9.4% ( 46.6%)      3.7%
 EFFECTIVE MASS      7.4353
 FORCE CONSTANT      1.3129

 VIBRATION         25   25A           ATOM PAIR      ENERGY CONTRIBUTION    RADIAL
 FREQUENCY          1365.16         C  2 -- H  8         +21.5% ( 47.6%)      3.6%
 TRANSITION DIPOLE   0.0390         C  2 -- H  7         +21.5% ( 47.6%)      3.6%
 TRAVEL (Ang.)       0.4238         C  4 -- H 14         +12.1% ( 35.8%)      2.7%
 REDUCED MASS        0.2750         C  4 -- H 13         +12.1% ( 35.8%)      2.7%
 EFFECTIVE MASS      2.3808         C  4 -- H 15         +11.3% ( 34.6%)      2.2%
 FORCE CONSTANT      0.3020

 VIBRATION         26   26A           ATOM PAIR      ENERGY CONTRIBUTION    RADIAL
 FREQUENCY          1394.16         C  1 -- H 10         +17.6% ( 46.5%)      4.1%
 TRANSITION DIPOLE   0.0183         C  1 -- H  9         +17.6% ( 46.5%)      4.1%
 TRAVEL (Ang.)       0.3835         C  3 -- H 11         +16.2% ( 44.6%)      4.1%
 REDUCED MASS        0.3289         C  3 -- H 12         +16.2% ( 44.6%)      4.1%
 EFFECTIVE MASS      2.6681
 FORCE CONSTANT      0.3766

 VIBRATION         27   27A           ATOM PAIR      ENERGY CONTRIBUTION    RADIAL
 FREQUENCY          1400.13         C  2 -- H  7         +11.9% ( 41.7%)      5.9%
 TRANSITION DIPOLE   0.0549         C  2 -- H  8         +11.9% ( 41.7%)      5.9%
 TRAVEL (Ang.)       0.3601         C  2 -- C  5         +10.6% ( 39.3%)     99.9%
 REDUCED MASS        0.3714         C  4 -- H 15          +9.8% ( 37.9%)      2.5%
 EFFECTIVE MASS      4.2883
 FORCE CONSTANT      0.4290

 VIBRATION         28   28A           ATOM PAIR      ENERGY CONTRIBUTION    RADIAL
 FREQUENCY          1402.01         C  4 -- H 15         +54.0% ( 63.4%)      0.0%
 TRANSITION DIPOLE   0.0386         C  4 -- H 13         +20.5% ( 39.1%)     11.2%
 TRAVEL (Ang.)       0.3381         C  4 -- H 14         +20.5% ( 39.1%)     11.2%
 REDUCED MASS        0.4208         C  2 -- C  4          +5.1% ( 19.4%)      0.0%
 EFFECTIVE MASS      1.5547
 FORCE CONSTANT      0.4874

 VIBRATION         29   29A           ATOM PAIR      ENERGY CONTRIBUTION    RADIAL
 FREQUENCY          1410.02         C  4 -- H 13         +40.5% ( 55.8%)      1.5%
 TRANSITION DIPOLE   0.0505         C  4 -- H 14         +40.5% ( 55.7%)      1.6%
 TRAVEL (Ang.)       0.3450         C  4 -- H 15          +9.3% ( 26.7%)     52.4%
 REDUCED MASS        0.4018         C  2 -- C  4          +5.6% ( 20.8%)      1.2%
 EFFECTIVE MASS      1.6453
 FORCE CONSTANT      0.4707

 VIBRATION         30   30A           ATOM PAIR      ENERGY CONTRIBUTION    RADIAL
 FREQUENCY          1417.70         C  3 -- H 11         +11.7% ( 42.2%)      5.6%
 TRANSITION DIPOLE   0.0048         C  3 -- H 12         +11.7% ( 42.2%)      5.6%
 TRAVEL (Ang.)       0.3729         C  1 -- C  3          +8.9% ( 36.9%)     97.1%
 REDUCED MASS        0.3420         C  1 -- H 10          +8.5% ( 36.0%)      5.0%
 EFFECTIVE MASS      4.2002
 FORCE CONSTANT      0.4050

 VIBRATION         31   31A           ATOM PAIR      ENERGY CONTRIBUTION    RADIAL
 FREQUENCY          1457.20         C  2 -- C  5         +17.1% ( 66.4%)     51.6%
 TRANSITION DIPOLE   0.0786         C  2 -- C  4         +11.9% ( 55.3%)     81.1%
 TRAVEL (Ang.)       0.1492         C  5 -- C  6         +10.5% ( 52.0%)     38.9%
 REDUCED MASS        2.0789         C  2 -- H  7          +9.3% ( 49.0%)      0.0%
 EFFECTIVE MASS      9.7319
 FORCE CONSTANT      2.6009

 VIBRATION         32   32A           ATOM PAIR      ENERGY CONTRIBUTION    RADIAL
 FREQUENCY          1884.53         C  5 -- C  6         +32.1% ( 95.2%)     97.0%
 TRANSITION DIPOLE   0.1994         C  2 -- C  5         +17.6% ( 70.5%)     87.8%
 TRAVEL (Ang.)       0.0799         C  3 -- C  5         +14.9% ( 64.9%)     82.0%
 REDUCED MASS        5.6101         C  1 -- C  5         +14.8% ( 64.6%)     10.0%
 EFFECTIVE MASS     11.9290
 FORCE CONSTANT     11.7390

 VIBRATION         33   33A           ATOM PAIR      ENERGY CONTRIBUTION    RADIAL
 FREQUENCY          2937.94         C  2 -- H  8         +48.8% ( 72.5%)     96.5%
 TRANSITION DIPOLE   0.0116         C  2 -- H  7         +48.8% ( 72.5%)     96.5%
 TRAVEL (Ang.)       0.2109         C  2 -- C  4          +1.1% ( 11.0%)      0.0%
 REDUCED MASS        0.5158         C  2 -- C  5          +1.1% ( 10.9%)      0.0%
 EFFECTIVE MASS      1.5397
 FORCE CONSTANT      2.6230

 VIBRATION         34   34A           ATOM PAIR      ENERGY CONTRIBUTION    RADIAL
 FREQUENCY          3017.84         C  2 -- H  7         +49.2% ( 69.1%)     97.7%
 TRANSITION DIPOLE   0.0665         C  2 -- H  8         +49.1% ( 69.1%)     97.7%
 TRAVEL (Ang.)       0.2156         C  2 -- C  4          +0.7% (  8.0%)     27.8%
 REDUCED MASS        0.4806         C  2 -- C  5          +0.6% (  7.8%)     26.8%
 EFFECTIVE MASS      1.2772
 FORCE CONSTANT      2.5787

 VIBRATION         35   35A           ATOM PAIR      ENERGY CONTRIBUTION    RADIAL
 FREQUENCY          3042.90         C  3 -- H 12         +28.4% ( 55.6%)     96.9%
 TRANSITION DIPOLE   0.0039         C  3 -- H 11         +28.4% ( 55.6%)     96.8%
 TRAVEL (Ang.)       0.2877         C  1 -- H 10         +19.9% ( 46.5%)     96.8%
 REDUCED MASS        0.2678         C  1 -- H  9         +19.9% ( 46.5%)     96.8%
 EFFECTIVE MASS      1.5538
 FORCE CONSTANT      1.4610

 VIBRATION         36   36A           ATOM PAIR      ENERGY CONTRIBUTION    RADIAL
 FREQUENCY          3055.99         C  1 -- H 10         +28.5% ( 55.4%)     97.1%
 TRANSITION DIPOLE   0.0818         C  1 -- H  9         +28.5% ( 55.4%)     97.1%
 TRAVEL (Ang.)       0.2873         C  3 -- H 12         +19.9% ( 46.3%)     97.2%
 REDUCED MASS        0.2674         C  3 -- H 11         +19.9% ( 46.3%)     97.2%
 EFFECTIVE MASS      1.5278
 FORCE CONSTANT      1.4713

 VIBRATION         37   37A           ATOM PAIR      ENERGY CONTRIBUTION    RADIAL
 FREQUENCY          3081.87         C  4 -- H 13         +49.0% ( 72.2%)     97.0%
 TRANSITION DIPOLE   0.0153         C  4 -- H 14         +48.9% ( 72.1%)     97.0%
 TRAVEL (Ang.)       0.2077         C  2 -- C  4          +1.0% ( 10.2%)      0.0%
 REDUCED MASS        0.5070         C  4 -- H 15          +0.9% ( 10.0%)      0.0%
 EFFECTIVE MASS      1.5016
 FORCE CONSTANT      2.8372

 VIBRATION         38   38A           ATOM PAIR      ENERGY CONTRIBUTION    RADIAL
 FREQUENCY          3086.92         C  4 -- H 15         +64.4% ( 82.8%)     98.9%
 TRANSITION DIPOLE   0.0108         C  4 -- H 14         +17.2% ( 42.8%)     84.9%
 TRAVEL (Ang.)       0.2086         C  4 -- H 13         +17.1% ( 42.6%)     84.8%
 REDUCED MASS        0.5019         C  2 -- C  4          +1.0% ( 10.4%)      0.0%
 EFFECTIVE MASS      1.5056
 FORCE CONSTANT      2.8178

 VIBRATION         39   39A           ATOM PAIR      ENERGY CONTRIBUTION    RADIAL
 FREQUENCY          3105.88         C  3 -- H 11         +46.8% ( 67.9%)     97.0%
 TRANSITION DIPOLE   0.0973         C  3 -- H 12         +46.8% ( 67.9%)     97.0%
 TRAVEL (Ang.)       0.2212         C  1 -- H  9          +2.1% ( 14.5%)     97.2%
 REDUCED MASS        0.4436         C  1 -- H 10          +2.1% ( 14.5%)     97.2%
 EFFECTIVE MASS      1.2842
 FORCE CONSTANT      2.5214

 VIBRATION         40   40A           ATOM PAIR      ENERGY CONTRIBUTION    RADIAL
 FREQUENCY          3106.98         C  1 -- H  9         +46.8% ( 67.9%)     97.0%
 TRANSITION DIPOLE   0.1083         C  1 -- H 10         +46.8% ( 67.9%)     97.0%
 TRAVEL (Ang.)       0.2213         C  3 -- H 11          +2.1% ( 14.5%)     96.7%
 REDUCED MASS        0.4432         C  3 -- H 12          +2.1% ( 14.5%)     96.7%
 EFFECTIVE MASS      1.2803
 FORCE CONSTANT      2.5206

 VIBRATION         41   41A           ATOM PAIR      ENERGY CONTRIBUTION    RADIAL
 FREQUENCY          3183.37         C  4 -- H 15         +33.7% ( 55.9%)     97.2%
 TRANSITION DIPOLE   0.0251         C  4 -- H 14         +33.0% ( 55.3%)     97.1%
 TRAVEL (Ang.)       0.2545         C  4 -- H 13         +33.0% ( 55.2%)     97.1%
 REDUCED MASS        0.3270         C  2 -- C  4          +0.3% (  5.1%)    100.0%
 EFFECTIVE MASS      1.1360
 FORCE CONSTANT      1.9525

 VIBRATION         42   42A           ATOM PAIR      ENERGY CONTRIBUTION    RADIAL
 FREQUENCY          3207.00         C  6 -- H 16         +94.1% ( 99.9%)    100.0%
 TRANSITION DIPOLE   0.4436         C  5 -- C  6          +2.0% ( 14.7%)     64.1%
 TRAVEL (Ang.)       0.1504         C  1 -- C  6          +1.9% ( 14.1%)     99.3%
 REDUCED MASS        0.9292         C  3 -- C  6          +1.8% ( 14.0%)     38.6%
 EFFECTIVE MASS      1.6005
 FORCE CONSTANT      5.6308

      SYMMETRY NUMBER FOR POINT-GROUP C1  =  1


          SYSTEM IS A GROUND STATE



 InChI=1S/C6H10/c1-2-6-4-3-5-6/h4H,2-3,5H2,1H3


          MOLECULE IS NOT LINEAR

          THERE ARE 42 GENUINE VIBRATIONS IN THIS SYSTEM
          THIS THERMODYNAMICS CALCULATION IS LIMITED TO
          MOLECULES WHICH HAVE NO INTERNAL ROTATIONS




                    CALCULATED THERMODYNAMIC PROPERTIES
                                          *
   TEMP. (K)   PARTITION FUNCTION   H.O.F.    ENTHALPY  HEAT CAPACITY ENTROPY
                                   KCAL/MOL   CAL/MOLE    CAL/K/MOL  CAL/K/MOL


 298.00  VIB.     0.4754D+02                  2449.9014    17.9119    15.8950
         ROT.     0.1373D+06                   888.2803     2.9808    26.4892
         INT.     0.6527D+07                  3338.1817    20.8927    42.3842
         TRA.     0.7198D+27                  1480.4672     4.9680    39.1295
         TOT.                       22.264    4818.6489    25.8607    81.5137

 200.00  VIB.     0.1254D+02                  1070.7441    10.6146    10.3796
         ROT.     0.7549D+05                   596.1613     2.9808    25.3005
         INT.     0.9468D+06                  1666.9054    13.5954    35.6801
         TRA.     0.3957D+27                   993.6021     4.9680    37.1484
         TOT.                       20.105    2660.5075    18.5635    72.8285

 210.00  VIB.     0.1435D+02                  1179.9990    11.2416    10.9125
         ROT.     0.8122D+05                   625.9693     2.9808    25.4460
         INT.     0.1166D+07                  1805.9683    14.2224    36.3585
         TRA.     0.4258D+27                  1043.2822     4.9680    37.3907
         TOT.                       20.294    2849.2506    19.1904    73.7492

 220.00  VIB.     0.1642D+02                  1295.6818    11.9001    11.4505
         ROT.     0.8709D+05                   655.7774     2.9808    25.5846
         INT.     0.1430D+07                  1951.4592    14.8809    37.0352
         TRA.     0.4566D+27                  1092.9623     4.9680    37.6219
         TOT.                       20.489    3044.4215    19.8489    74.6570

 230.00  VIB.     0.1879D+02                  1418.1037    12.5892    11.9946
         ROT.     0.9309D+05                   685.5855     2.9808    25.7171
         INT.     0.1749D+07                  2103.6891    15.5700    37.7118
         TRA.     0.4880D+27                  1142.6424     4.9680    37.8427
         TOT.                       20.691    3246.3316    20.5380    75.5545

 240.00  VIB.     0.2150D+02                  1547.5630    13.3073    12.5455
         ROT.     0.9923D+05                   715.3935     2.9808    25.8440
         INT.     0.2134D+07                  2262.9565    16.2881    38.3895
         TRA.     0.5202D+27                  1192.3226     4.9680    38.0541
         TOT.                       20.900    3455.2791    21.2561    76.4436

 250.00  VIB.     0.2462D+02                  1684.3388    14.0521    13.1037
         ROT.     0.1055D+06                   745.2016     2.9808    25.9657
         INT.     0.2598D+07                  2429.5404    17.0329    39.0694
         TRA.     0.5531D+27                  1242.0027     4.9680    38.2569
         TOT.                       21.116    3671.5430    22.0009    77.3264

 260.00  VIB.     0.2821D+02                  1828.6859    14.8211    13.6698
         ROT.     0.1119D+06                   775.0097     2.9808    26.0826
         INT.     0.3156D+07                  2603.6956    17.8019    39.7524
         TRA.     0.5866D+27                  1291.6828     4.9680    38.4518
         TOT.                       21.340    3895.3784    22.7699    78.2042

 270.00  VIB.     0.3233D+02                  1980.8320    15.6114    14.2439
         ROT.     0.1184D+06                   804.8177     2.9808    26.1951
         INT.     0.3828D+07                  2785.6497    18.5922    40.4390
         TRA.     0.6208D+27                  1341.3629     4.9680    38.6393
         TOT.                       21.572    4127.0126    23.5602    79.0783

 280.00  VIB.     0.3708D+02                  2140.9752    16.4200    14.8262
         ROT.     0.1250D+06                   834.6258     2.9808    26.3035
         INT.     0.4637D+07                  2975.6010    19.4008    41.1297
         TRA.     0.6556D+27                  1391.0430     4.9680    38.8200
         TOT.                       21.812    4366.6439    24.3688    79.9497

 290.00  VIB.     0.4256D+02                  2309.2831    17.2439    15.4167
         ROT.     0.1318D+06                   864.4339     2.9808    26.4081
         INT.     0.5609D+07                  3173.7170    20.2247    41.8248
         TRA.     0.6910D+27                  1440.7231     4.9680    38.9943
         TOT.                       22.059    4614.4401    25.1927    80.8191

 300.00  VIB.     0.4888D+02                  2485.8932    18.0799    16.0154
         ROT.     0.1387D+06                   894.2419     2.9808    26.5092
         INT.     0.6779D+07                  3380.1351    21.0607    42.5245
         TRA.     0.7270D+27                  1490.4032     4.9680    39.1627
         TOT.                       22.315    4870.5383    26.0287    81.6873

 310.00  VIB.     0.5620D+02                  2670.9127    18.9253    16.6220
         ROT.     0.1457D+06                   924.0500     2.9808    26.6069
         INT.     0.8186D+07                  3594.9627    21.9061    43.2289
         TRA.     0.7637D+27                  1540.0833     4.9680    39.3256
         TOT.                       22.580    5135.0460    26.8741    82.5545

 320.00  VIB.     0.6466D+02                  2864.4204    19.7771    17.2363
         ROT.     0.1528D+06                   953.8580     2.9808    26.7015
         INT.     0.9879D+07                  3818.2785    22.7579    43.9378
         TRA.     0.8009D+27                  1589.7634     4.9680    39.4834
         TOT.                       22.853    5408.0419    27.7259    83.4211

 330.00  VIB.     0.7447D+02                  3066.4681    20.6328    17.8579
         ROT.     0.1600D+06                   983.6661     2.9808    26.7933
         INT.     0.1191D+08                  4050.1342    23.6136    44.6512
         TRA.     0.8388D+27                  1639.4435     4.9680    39.6362
         TOT.                       23.134    5689.5777    28.5817    84.2874

 340.00  VIB.     0.8585D+02                  3277.0821    21.4900    18.4866
         ROT.     0.1673D+06                  1013.4742     2.9808    26.8822
         INT.     0.1436D+08                  4290.5562    24.4708    45.3689
         TRA.     0.8772D+27                  1689.1236     4.9680    39.7845
         TOT.                       23.425    5979.6799    29.4388    85.1534

 350.00  VIB.     0.9906D+02                  3496.2656    22.3464    19.1219
         ROT.     0.1748D+06                  1043.2822     2.9808    26.9686
         INT.     0.1731D+08                  4539.5479    25.3272    46.0906
         TRA.     0.9162D+27                  1738.8037     4.9680    39.9285
         TOT.                       23.723    6278.3516    30.2952    86.0191

 360.00  VIB.     0.1144D+03                  3724.0009    23.2000    19.7634
         ROT.     0.1823D+06                  1073.0903     2.9808    27.0526
         INT.     0.2086D+08                  4797.0912    26.1808    46.8160
         TRA.     0.9557D+27                  1788.4838     4.9680    40.0685
         TOT.                       24.030    6585.5751    31.1489    86.8845

 370.00  VIB.     0.1323D+03                  3960.2513    24.0491    20.4107
         ROT.     0.1899D+06                  1102.8984     2.9808    27.1343
         INT.     0.2513D+08                  5063.1497    27.0299    47.5449
         TRA.     0.9958D+27                  1838.1639     4.9680    40.2046
         TOT.                       24.346    6901.3136    31.9979    87.7496

 380.00  VIB.     0.1531D+03                  4204.9632    24.8921    21.0632
         ROT.     0.1977D+06                  1132.7064     2.9808    27.2138
         INT.     0.3026D+08                  5337.6696    27.8729    48.2770
         TRA.     0.1036D+28                  1887.8440     4.9680    40.3371
         TOT.                       24.670    7225.5136    32.8409    88.6141

 390.00  VIB.     0.1773D+03                  4458.0684    25.7276    21.7206
         ROT.     0.2056D+06                  1162.5145     2.9808    27.2912
         INT.     0.3645D+08                  5620.5829    28.7084    49.0118
         TRA.     0.1078D+28                  1937.5242     4.9680    40.4662
         TOT.                       25.003    7558.1070    33.6764    89.4780

 400.00  VIB.     0.2056D+03                  4719.4859    26.5544    22.3824
         ROT.     0.2135D+06                  1192.3226     2.9808    27.3667
         INT.     0.4390D+08                  5911.8085    29.5352    49.7491
         TRA.     0.1119D+28                  1987.2043     4.9680    40.5919
         TOT.                       25.344    7899.0127    34.5032    90.3410

   *: NOTE: HEATS OF FORMATION ARE RELATIVE TO THE
            ELEMENTS IN THEIR STANDARD STATE AT 298K
              (=  Standard Enthalpy of Formation).

            Hvib:  Zero-point energy is not included.
                   frequencies of less than zero cm-1 are not included.
            Hrot = (3/2)RT
            Htra = (3/2)RT + pV = (5/2)RT

            Heat capacity is Cp, not Cv

          For more information, see: HTTP://OpenMOPAC.net/Manual/thermochemistry.html


           FORCE CONSTANT IN CARTESIAN COORDINATES (Millidynes/A)

    ATOM   CHEMICAL       X               Y               Z
   NUMBER   SYMBOL  FORCE CONSTANT  FORCE CONSTANT  FORCE CONSTANT

      1       C        6.455831        9.202839        8.356156
      2       C        9.380135        8.558735        7.897525
      3       C        9.751164        6.094421        8.341125
      4       C        8.456506        8.269246        8.203817
      5       C       12.562509       12.735279        2.551347
      6       C        8.048785       16.247759        2.139722
      7       H        0.680949        2.095992        3.465026
      8       H        0.681076        2.091558        3.469233
      9       H        0.827506        2.020446        3.725966
     10       H        0.827483        2.020410        3.725999
     11       H        1.896670        0.949948        3.720935
     12       H        1.896736        0.949956        3.720836
     13       H        0.703234        2.281287        3.787547
     14       H        0.703521        2.277938        3.790669
     15       H        4.286803        1.837849        0.664297
     16       H        1.416817        4.835813        0.325504

 **********************
 *                    *
 * JOB ENDED NORMALLY *
 *                    *
 **********************



 TOTAL JOB TIME:             2.20 SECONDS

 == MOPAC DONE ==
