 *******************************************************************************
 **                                                                           **
 **                              MOPAC v23.1.2                                **
 **                                                                           **
 *******************************************************************************
 **          Digital Object Identifier (DOI): 10.5281/zenodo.6511958          **
 **    Visit the DOI location for information on how to cite this program.    **
 *******************************************************************************

                              PM3 CALCULATION RESULTS

 *******************************************************************************
 *  CALCULATION DONE: (MAX THREADS = 1)              Tue Jun  3 16:27:47 2025  *
 *  PM3        - The PM3 Hamiltonian to be used
 *  NONR       - DO NOT USE NEWTON-RAPHSON STEP IN EF
 *  PRECISE    - TIGHTER CRITERIA TO BE USED
 *  NOSYM      - POINT-GROUP SYMMETRY SET TO C1
 *  THREADS=1  - MULTI-THREADING NOT USED
 *  T=         - A TIME OF 2000.0 SECONDS REQUESTED
 *  DUMP=N     - RESTART FILE WRITTEN EVERY 7200.0 SECONDS REQUESTED
 *  CYCLES=    - DO A MAXIMUM OF 2000 STEPS
 *  RECALC=    - DO  10 CYCLES BETWEEN HESSIAN RECALC
 *  DMAX=      - STARTING TRUST RADIUS  0.100 ANG/RAD
 *******************************************************************************
pm3  precise nosym recalc=10 dmax=0.10 nonr cycles=2000 t=2000 THREADS=1
 InChI=1S/C10H10/c1-8-6-7-9-4-2-3-5-10(8)9/h2-5,7H,6H2,1H3

   ATOM   CHEMICAL          X               Y               Z
  NUMBER   SYMBOL      (ANGSTROMS)     (ANGSTROMS)     (ANGSTROMS)

     1       C         -1.89750000  *  -0.95790000  *   0.06750000  *
     2       C         -2.00010000  *   1.67870000  *  -0.25150000  *
     3       C         -1.25720000  *   0.39090000  *  -0.07840000  *
     4       C          0.06250000  *   0.25260000  *  -0.02880000  *
     5       C          0.39690000  *  -1.07180000  *   0.13850000  *
     6       C         -0.68610000  *  -1.83030000  *   0.20250000  *
     7       C          1.04870000  *   1.24170000  *  -0.12280000  *
     8       C          1.72940000  *  -1.48220000  *   0.22110000  *
     9       C          2.39580000  *   0.85100000  *  -0.04220000  *
    10       C          2.73480000  *  -0.50560000  *   0.12910000  *
    11       H         -2.47750000  *  -1.22430000  *  -0.84120000  *
    12       H         -2.52310000  *  -1.00530000  *   0.98370000  *
    13       H         -1.75830000  *   2.36730000  *   0.58510000  *
    14       H         -3.09410000  *   1.49060000  *  -0.25630000  *
    15       H         -1.71330000  *   2.15140000  *  -1.21410000  *
    16       H         -0.69030000  *  -2.90520000  *   0.33140000  *
    17       H          0.79040000  *   2.28480000  *  -0.25440000  *
    18       H          3.77530000  *  -0.79710000  *   0.19010000  *
    19       H          1.98660000  *  -2.52590000  *   0.35280000  *
    20       H          3.17720000  *   1.59640000  *  -0.11210000  *



          CARTESIAN COORDINATES 

    NO.       ATOM           X           Y           Z

     1         C         -1.8975     -0.9579      0.0675
     2         C         -2.0001      1.6787     -0.2515
     3         C         -1.2572      0.3909     -0.0784
     4         C          0.0625      0.2526     -0.0288
     5         C          0.3969     -1.0718      0.1385
     6         C         -0.6861     -1.8303      0.2025
     7         C          1.0487      1.2417     -0.1228
     8         C          1.7294     -1.4822      0.2211
     9         C          2.3958      0.8510     -0.0422
    10         C          2.7348     -0.5056      0.1291
    11         H         -2.4775     -1.2243     -0.8412
    12         H         -2.5231     -1.0053      0.9837
    13         H         -1.7583      2.3673      0.5851
    14         H         -3.0941      1.4906     -0.2563
    15         H         -1.7133      2.1514     -1.2141
    16         H         -0.6903     -2.9052      0.3314
    17         H          0.7904      2.2848     -0.2544
    18         H          3.7753     -0.7971      0.1901
    19         H          1.9866     -2.5259      0.3528
    20         H          3.1772      1.5964     -0.1121

  H: (PM3): J. J. P. STEWART, J. COMP. CHEM. 10, 209 (1989).
  C: (PM3): J. J. P. STEWART, J. COMP. CHEM. 10, 209 (1989).

           Empirical Formula: C10 H10  =    20 atoms



      MOLECULAR POINT GROUP   :   C1  


      RHF CALCULATION, NO. OF DOUBLY OCCUPIED LEVELS = 25


          Geometry optimization using EF

          DIAGONAL MATRIX USED AS START HESSIAN

 CYCLE:     1 TIME:   0.008 TIME LEFT: 33.33M  GRAD.:   260.913 HEAT:  65.27076
 CYCLE:     2 TIME:   0.004 TIME LEFT: 33.33M  GRAD.:    95.065 HEAT:  53.04105
 CYCLE:     3 TIME:   0.012 TIME LEFT: 33.33M  GRAD.:    75.196 HEAT:  51.46804
 CYCLE:     4 TIME:   0.008 TIME LEFT: 33.33M  GRAD.:    57.764 HEAT:  50.63612
 CYCLE:     5 TIME:   0.008 TIME LEFT: 33.33M  GRAD.:    65.551 HEAT:  50.56904
 CYCLE:     6 TIME:   0.008 TIME LEFT: 33.33M  GRAD.:    56.968 HEAT:  50.24085
 CYCLE:     7 TIME:   0.008 TIME LEFT: 33.33M  GRAD.:    29.205 HEAT:  49.48257
 CYCLE:     8 TIME:   0.012 TIME LEFT: 33.33M  GRAD.:    18.810 HEAT:  49.23554
 CYCLE:     9 TIME:   0.008 TIME LEFT: 33.33M  GRAD.:    25.554 HEAT:  49.13925
 CYCLE:    10 TIME:   0.008 TIME LEFT: 33.33M  GRAD.:    17.508 HEAT:  48.85542

          HESSIAN CALCULATED NUMERICALLY

 CYCLE:    11 TIME:   0.227 TIME LEFT: 33.33M  GRAD.:    22.864 HEAT:  48.79915
 CYCLE:    12 TIME:   0.008 TIME LEFT: 33.33M  GRAD.:     4.404 HEAT:  48.59490
 CYCLE:    13 TIME:   0.008 TIME LEFT: 33.33M  GRAD.:     4.390 HEAT:  48.58627
 CYCLE:    14 TIME:   0.004 TIME LEFT: 33.33M  GRAD.:     2.396 HEAT:  48.39848
 CYCLE:    15 TIME:   0.008 TIME LEFT: 33.33M  GRAD.:     1.623 HEAT:  48.32117
 CYCLE:    16 TIME:   0.012 TIME LEFT: 33.33M  GRAD.:     2.413 HEAT:  48.32011
 CYCLE:    17 TIME:   0.004 TIME LEFT: 33.33M  GRAD.:     0.481 HEAT:  48.30305
 CYCLE:    18 TIME:   0.008 TIME LEFT: 33.33M  GRAD.:     2.795 HEAT:  48.30135
 CYCLE:    19 TIME:   0.008 TIME LEFT: 33.33M  GRAD.:     0.869 HEAT:  48.29947
 CYCLE:    20 TIME:   0.008 TIME LEFT: 33.33M  GRAD.:     0.728 HEAT:  48.29638

          HESSIAN CALCULATED NUMERICALLY

 CYCLE:    21 TIME:   0.242 TIME LEFT: 33.32M  GRAD.:     1.401 HEAT:  48.29206
 CYCLE:    22 TIME:   0.012 TIME LEFT: 33.32M  GRAD.:     5.583 HEAT:  48.29966
 CYCLE:    23 TIME:   0.008 TIME LEFT: 33.32M  GRAD.:     4.637 HEAT:  48.29348
 CYCLE:    24 TIME:   0.008 TIME LEFT: 33.32M  GRAD.:     0.264 HEAT:  48.27583
 CYCLE:    25 TIME:   0.008 TIME LEFT: 33.32M  GRAD.:     1.828 HEAT:  48.26822
 CYCLE:    26 TIME:   0.008 TIME LEFT: 33.32M  GRAD.:     3.969 HEAT:  48.26453
 CYCLE:    27 TIME:   0.008 TIME LEFT: 33.32M  GRAD.:     2.563 HEAT:  48.25643
 CYCLE:    28 TIME:   0.008 TIME LEFT: 33.32M  GRAD.:     2.291 HEAT:  48.25054
 CYCLE:    29 TIME:   0.035 TIME LEFT: 33.32M  GRAD.:     2.910 HEAT:  48.25056
 CYCLE:    30 TIME:   0.012 TIME LEFT: 33.32M  GRAD.:     2.908 HEAT:  48.25026

          HESSIAN CALCULATED NUMERICALLY

 CYCLE:    31 TIME:   0.227 TIME LEFT: 33.32M  GRAD.:     2.529 HEAT:  48.24873
 CYCLE:    32 TIME:   0.008 TIME LEFT: 33.32M  GRAD.:     2.483 HEAT:  48.24709
 CYCLE:    33 TIME:   0.008 TIME LEFT: 33.32M  GRAD.:     1.344 HEAT:  48.24114
 CYCLE:    34 TIME:   0.008 TIME LEFT: 33.32M  GRAD.:     2.432 HEAT:  48.23532
 CYCLE:    35 TIME:   0.004 TIME LEFT: 33.32M  GRAD.:     3.386 HEAT:  48.22896
 CYCLE:    36 TIME:   0.008 TIME LEFT: 33.32M  GRAD.:     4.455 HEAT:  48.21883
 CYCLE:    37 TIME:   0.012 TIME LEFT: 33.32M  GRAD.:     3.703 HEAT:  48.21212
 CYCLE:    38 TIME:   0.008 TIME LEFT: 33.32M  GRAD.:     4.414 HEAT:  48.18798
 CYCLE:    39 TIME:   0.012 TIME LEFT: 33.32M  GRAD.:     1.607 HEAT:  48.17898
 CYCLE:    40 TIME:   0.004 TIME LEFT: 33.32M  GRAD.:     1.076 HEAT:  48.16946

          HESSIAN CALCULATED NUMERICALLY

 CYCLE:    41 TIME:   0.242 TIME LEFT: 33.31M  GRAD.:     1.637 HEAT:  48.16232
 CYCLE:    42 TIME:   0.008 TIME LEFT: 33.31M  GRAD.:     4.619 HEAT:  48.14262
 CYCLE:    43 TIME:   0.004 TIME LEFT: 33.31M  GRAD.:     5.065 HEAT:  48.13130
 CYCLE:    44 TIME:   0.008 TIME LEFT: 33.31M  GRAD.:     4.043 HEAT:  48.12160
 CYCLE:    45 TIME:   0.008 TIME LEFT: 33.31M  GRAD.:     1.136 HEAT:  48.09850
 CYCLE:    46 TIME:   0.012 TIME LEFT: 33.31M  GRAD.:     4.269 HEAT:  48.09215
 CYCLE:    47 TIME:   0.004 TIME LEFT: 33.31M  GRAD.:     1.352 HEAT:  48.08951
 CYCLE:    48 TIME:   0.008 TIME LEFT: 33.31M  GRAD.:     2.071 HEAT:  48.08485
 CYCLE:    49 TIME:   0.008 TIME LEFT: 33.31M  GRAD.:     2.455 HEAT:  48.08169
 CYCLE:    50 TIME:   0.008 TIME LEFT: 33.31M  GRAD.:     2.794 HEAT:  48.06847

          HESSIAN CALCULATED NUMERICALLY

 CYCLE:    51 TIME:   0.223 TIME LEFT: 33.31M  GRAD.:     3.132 HEAT:  48.05138
 CYCLE:    52 TIME:   0.055 TIME LEFT: 33.31M  GRAD.:     2.544 HEAT:  48.04853
 CYCLE:    53 TIME:   0.008 TIME LEFT: 33.31M  GRAD.:     2.550 HEAT:  48.04838
 CYCLE:    54 TIME:   0.008 TIME LEFT: 33.31M  GRAD.:     0.726 HEAT:  48.04571
 CYCLE:    55 TIME:   0.004 TIME LEFT: 33.31M  GRAD.:     1.730 HEAT:  48.04446
 CYCLE:    56 TIME:   0.008 TIME LEFT: 33.31M  GRAD.:     1.024 HEAT:  48.04327
 CYCLE:    57 TIME:   0.008 TIME LEFT: 33.31M  GRAD.:     0.803 HEAT:  48.04248
 CYCLE:    58 TIME:   0.008 TIME LEFT: 33.31M  GRAD.:     0.526 HEAT:  48.04045
 CYCLE:    59 TIME:   0.004 TIME LEFT: 33.31M  GRAD.:     0.779 HEAT:  48.03543
 CYCLE:    60 TIME:   0.016 TIME LEFT: 33.31M  GRAD.:     4.919 HEAT:  48.03478

          HESSIAN CALCULATED NUMERICALLY

 CYCLE:    61 TIME:   0.246 TIME LEFT: 33.30M  GRAD.:     3.451 HEAT:  48.02733
 CYCLE:    62 TIME:   0.008 TIME LEFT: 33.30M  GRAD.:     3.423 HEAT:  48.02719
 CYCLE:    63 TIME:   0.004 TIME LEFT: 33.30M  GRAD.:     2.931 HEAT:  48.02590
 CYCLE:    64 TIME:   0.008 TIME LEFT: 33.30M  GRAD.:     2.075 HEAT:  48.02393
 CYCLE:    65 TIME:   0.008 TIME LEFT: 33.30M  GRAD.:     0.504 HEAT:  48.02119
 CYCLE:    66 TIME:   0.012 TIME LEFT: 33.30M  GRAD.:     4.606 HEAT:  48.02488
 CYCLE:    67 TIME:   0.004 TIME LEFT: 33.30M  GRAD.:     3.306 HEAT:  48.02203
 CYCLE:    68 TIME:   0.008 TIME LEFT: 33.30M  GRAD.:     0.964 HEAT:  48.01968
 CYCLE:    69 TIME:   0.008 TIME LEFT: 33.30M  GRAD.:     0.184 HEAT:  48.01854
 CYCLE:    70 TIME:   0.008 TIME LEFT: 33.30M  GRAD.:     0.380 HEAT:  48.01816

          HESSIAN CALCULATED NUMERICALLY

 CYCLE:    71 TIME:   0.242 TIME LEFT: 33.30M  GRAD.:     0.347 HEAT:  48.01762
 CYCLE:    72 TIME:   0.012 TIME LEFT: 33.30M  GRAD.:     0.822 HEAT:  48.01782
 CYCLE:    73 TIME:   0.008 TIME LEFT: 33.30M  GRAD.:     0.185 HEAT:  48.01685
 CYCLE:    74 TIME:   0.004 TIME LEFT: 33.30M  GRAD.:     0.113 HEAT:  48.01636
 CYCLE:    75 TIME:   0.008 TIME LEFT: 33.30M  GRAD.:     0.181 HEAT:  48.01606
 CYCLE:    76 TIME:   0.004 TIME LEFT: 33.30M  GRAD.:     0.072 HEAT:  48.01584
 CYCLE:    77 TIME:   0.008 TIME LEFT: 33.30M  GRAD.:     0.093 HEAT:  48.01568
 CYCLE:    78 TIME:   0.008 TIME LEFT: 33.30M  GRAD.:     0.103 HEAT:  48.01545
 CYCLE:    79 TIME:   0.008 TIME LEFT: 33.30M  GRAD.:     0.331 HEAT:  48.01535
 CYCLE:    80 TIME:   0.008 TIME LEFT: 33.30M  GRAD.:     0.387 HEAT:  48.01590

          HESSIAN CALCULATED NUMERICALLY

 CYCLE:    81 TIME:   0.238 TIME LEFT: 33.29M  GRAD.:     0.377 HEAT:  48.01564
 CYCLE:    82 TIME:   0.016 TIME LEFT: 33.29M  GRAD.:     0.806 HEAT:  48.01844
 CYCLE:    83 TIME:   0.008 TIME LEFT: 33.29M  GRAD.:     0.018 HEAT:  48.01555

     GRADIENT =  0.01774 IS LESS THAN CUTOFF =  0.05000



 -------------------------------------------------------------------------------
 pm3  precise nosym recalc=10 dmax=0.10 nonr cycles=2000 t=2000 THREADS=1
 InChI=1S/C10H10/c1-8-6-7-9-4-2-3-5-10(8)9/h2-5,7H,6H2,1H3



     GEOMETRY OPTIMISED USING EIGENVECTOR FOLLOWING (EF).     
     SCF FIELD WAS ACHIEVED                                   


                              PM3 CALCULATION
                                                       MOPAC v23.1.2 MacOS
                                                       Tue Jun  3 16:27:49 2025




          FINAL HEAT OF FORMATION =         48.01555 KCAL/MOL =     200.89707 KJ/MOL


          COSMO AREA              =        173.14 SQUARE ANGSTROMS
          COSMO VOLUME            =        172.98 CUBIC ANGSTROMS

          GRADIENT NORM           =          0.01774          =       0.00397 PER ATOM
          IONIZATION POTENTIAL    =          8.058575 EV
          HOMO LUMO ENERGIES (EV) =         -8.059 -0.704
          NO. OF FILLED LEVELS    =         25
          MOLECULAR WEIGHT        =        130.1890         POINT GROUP:  C1  

          MOLECULAR DIMENSIONS (Angstroms)

            Atom       Atom       Distance
            H    18    H    14     7.09276
            H    20    H    16     5.67411
            H    15    H    12     2.03955


          SCF CALCULATIONS        =        591

          WALL-CLOCK TIME         =      2.566 SECONDS
          COMPUTATION TIME        =      1.971 SECONDS




   ATOM   CHEMICAL          X               Y               Z
  NUMBER   SYMBOL      (ANGSTROMS)     (ANGSTROMS)     (ANGSTROMS)

     1       C         -1.90002104  *  -0.93698133  *   0.00742856  *
     2       C         -2.08735587  *   1.64983524  *  -0.25270943  *
     3       C         -1.28082948  *   0.43192470  *  -0.09840151  *
     4       C          0.07633489  *   0.30667413  *  -0.02691817  *
     5       C          0.41901381  *  -1.11419601  *   0.12575129  *
     6       C         -0.72165154  *  -1.85396765  *   0.14774304  *
     7       C          1.13640188  *   1.27717908  *  -0.07456964  *
     8       C          1.80296009  *  -1.49514946  *   0.22288727  *
     9       C          2.41840012  *   0.85980733  *   0.02159000  *
    10       C          2.75449484  *  -0.53705220  *   0.17139728  *
    11       H         -2.49861345  *  -1.18145635  *  -0.88952791  *
    12       H         -2.57562791  *  -1.00971302  *   0.87972961  *
    13       H         -1.46457367  *   2.55340383  *  -0.28847415  *
    14       H         -2.79133342  *   1.75960152  *   0.58346667  *
    15       H         -2.67648139  *   1.61121834  *  -1.17923969  *
    16       H         -0.81661297  *  -2.93245528  *   0.24820203  *
    17       H          0.87610476  *   2.33486824  *  -0.18804506  *
    18       H          3.81576677  *  -0.79720960  *   0.24269792  *
    19       H          2.04726663  *  -2.55581842  *   0.33631004  *
    20       H          3.24442673  *   1.57785740  *  -0.01187406  *

                             CARTESIAN COORDINATES

   1    C       -1.900021043    -0.936981332     0.007428560
   2    C       -2.087355868     1.649835241    -0.252709427
   3    C       -1.280829484     0.431924699    -0.098401509
   4    C        0.076334891     0.306674134    -0.026918165
   5    C        0.419013810    -1.114196009     0.125751288
   6    C       -0.721651544    -1.853967652     0.147743038
   7    C        1.136401885     1.277179080    -0.074569642
   8    C        1.802960092    -1.495149462     0.222887270
   9    C        2.418400121     0.859807328     0.021589999
  10    C        2.754494842    -0.537052203     0.171397276
  11    H       -2.498613449    -1.181456347    -0.889527909
  12    H       -2.575627914    -1.009713019     0.879729610
  13    H       -1.464573667     2.553403835    -0.288474150
  14    H       -2.791333421     1.759601523     0.583466668
  15    H       -2.676481390     1.611218342    -1.179239687
  16    H       -0.816612968    -2.932455283     0.248202025
  17    H        0.876104759     2.334868244    -0.188045065
  18    H        3.815766767    -0.797209596     0.242697920
  19    H        2.047266632    -2.555818420     0.336310038
  20    H        3.244426733     1.577857402    -0.011874056


           Empirical Formula: C10 H10  =    20 atoms



      MOLECULAR POINT GROUP   :   C1  


                  EIGENVALUES  
 -41.27122 -35.56760 -31.90384 -28.77159 -26.88842 -23.94213 -21.68337 -19.84323
 -18.99277 -17.16512 -16.27170 -15.81765 -15.56452 -14.86991 -14.19861 -13.94786
 -13.69826 -13.45092 -13.00777 -12.76797 -12.39536 -11.87280 -10.44614 -10.10300
  -8.05857  -0.70397   1.16900   1.33101   3.03169   3.13475   3.20787   3.42691
   3.48902   3.61879   3.81679   3.92663   3.99492   4.09362   4.25180   4.34149
   4.38622   4.48487   4.77700   4.91836   5.41634   5.43264   5.64262   5.96792
   6.40119   6.52770


              NET ATOMIC CHARGES AND DIPOLE CONTRIBUTIONS

  ATOM NO.   TYPE          CHARGE      No. of ELECS.   s-Pop       p-Pop       
    1          C          -0.040860        4.0409     1.14376     2.89710
    2          C          -0.047875        4.0479     1.11511     2.93277
    3          C          -0.120095        4.1201     1.20458     2.91551
    4          C          -0.067259        4.0673     1.17104     2.89622
    5          C          -0.058448        4.0584     1.17349     2.88496
    6          C          -0.154360        4.1544     1.20308     2.95128
    7          C          -0.065994        4.0660     1.17074     2.89525
    8          C          -0.072156        4.0722     1.17196     2.90019
    9          C          -0.106433        4.1064     1.18028     2.92616
   10          C          -0.100467        4.1005     1.18017     2.92030
   11          H           0.086543        0.9135     0.91346
   12          H           0.086565        0.9134     0.91344
   13          H           0.046257        0.9537     0.95374
   14          H           0.045619        0.9544     0.95438
   15          H           0.045894        0.9541     0.95411
   16          H           0.118859        0.8811     0.88114
   17          H           0.103164        0.8968     0.89684
   18          H           0.098978        0.9010     0.90102
   19          H           0.102836        0.8972     0.89716
   20          H           0.099233        0.9008     0.90077
 DIPOLE           X         Y         Z       TOTAL
 POINT-CHG.    -0.863     0.067    -0.046     0.867
 HYBRID        -0.056    -0.037     0.000     0.067
 SUM           -0.919     0.030    -0.046     0.921


          ATOMIC ORBITAL ELECTRON POPULATIONS

     Atom    s        px        py        pz   
    1  C   1.14376   0.96767   0.92252   1.00691
    2  C   1.11511   0.98264   0.94767   1.00247
    3  C   1.20458   0.94755   0.95609   1.01186
    4  C   1.17104   0.93086   0.93886   1.02650
    5  C   1.17349   0.93806   0.93745   1.00945
    6  C   1.20308   0.94469   0.97757   1.02901
    7  C   1.17074   0.93098   0.96851   0.99577
    8  C   1.17196   0.92373   0.97676   0.99970
    9  C   1.18028   0.96325   0.95415   1.00875
   10  C   1.18017   0.97821   0.93878   1.00332
   11  H   0.91346
   12  H   0.91344
   13  H   0.95374
   14  H   0.95438
   15  H   0.95411
   16  H   0.88114
   17  H   0.89684
   18  H   0.90102
   19  H   0.89716
   20  H   0.90077
 *******************************************************************************
 **                                                                           **
 **                              MOPAC v23.1.2                                **
 **                                                                           **
 *******************************************************************************
 **          Digital Object Identifier (DOI): 10.5281/zenodo.6511958          **
 **    Visit the DOI location for information on how to cite this program.    **
 *******************************************************************************

                              PM3 CALCULATION RESULTS

 *******************************************************************************
 *  CALCULATION DONE: (MAX THREADS = 1)              Tue Jun  3 16:27:49 2025  *
 *  PM3        - The PM3 Hamiltonian to be used
 *  OLDGEO     - PREVIOUS GEOMETRY TO BE USED
 *  PRECISE    - TIGHTER CRITERIA TO BE USED
 *  NOSYM      - POINT-GROUP SYMMETRY SET TO C1
 *  THREADS=1  - MULTI-THREADING NOT USED
 *  T=         - A TIME OF 172800.0 SECONDS REQUESTED
 *  DUMP=N     - RESTART FILE WRITTEN EVERY 7200.0 SECONDS REQUESTED
 *  THERMO     - THERMODYNAMIC QUANTITIES TO BE CALCULATED
 *******************************************************************************
oldgeo thermo nosym precise THREADS=1  pm3
 InChI=1S/C10H10/c1-8-6-7-9-4-2-3-5-10(8)9/h2-5,7H,6H2,1H3

   ATOM   CHEMICAL          X               Y               Z
  NUMBER   SYMBOL      (ANGSTROMS)     (ANGSTROMS)     (ANGSTROMS)

     1       C         -1.90002104  *  -0.93698133  *   0.00742856  *
     2       C         -2.08735587  *   1.64983524  *  -0.25270943  *
     3       C         -1.28082948  *   0.43192470  *  -0.09840151  *
     4       C          0.07633489  *   0.30667413  *  -0.02691817  *
     5       C          0.41901381  *  -1.11419601  *   0.12575129  *
     6       C         -0.72165154  *  -1.85396765  *   0.14774304  *
     7       C          1.13640188  *   1.27717908  *  -0.07456964  *
     8       C          1.80296009  *  -1.49514946  *   0.22288727  *
     9       C          2.41840012  *   0.85980733  *   0.02159000  *
    10       C          2.75449484  *  -0.53705220  *   0.17139728  *
    11       H         -2.49861345  *  -1.18145635  *  -0.88952791  *
    12       H         -2.57562791  *  -1.00971302  *   0.87972961  *
    13       H         -1.46457367  *   2.55340383  *  -0.28847415  *
    14       H         -2.79133342  *   1.75960152  *   0.58346667  *
    15       H         -2.67648139  *   1.61121834  *  -1.17923969  *
    16       H         -0.81661297  *  -2.93245528  *   0.24820203  *
    17       H          0.87610476  *   2.33486824  *  -0.18804506  *
    18       H          3.81576677  *  -0.79720960  *   0.24269792  *
    19       H          2.04726663  *  -2.55581842  *   0.33631004  *
    20       H          3.24442673  *   1.57785740  *  -0.01187406  *



          CARTESIAN COORDINATES 

    NO.       ATOM           X           Y           Z

     1         C         -1.9000     -0.9370      0.0074
     2         C         -2.0874      1.6498     -0.2527
     3         C         -1.2808      0.4319     -0.0984
     4         C          0.0763      0.3067     -0.0269
     5         C          0.4190     -1.1142      0.1258
     6         C         -0.7217     -1.8540      0.1477
     7         C          1.1364      1.2772     -0.0746
     8         C          1.8030     -1.4951      0.2229
     9         C          2.4184      0.8598      0.0216
    10         C          2.7545     -0.5371      0.1714
    11         H         -2.4986     -1.1815     -0.8895
    12         H         -2.5756     -1.0097      0.8797
    13         H         -1.4646      2.5534     -0.2885
    14         H         -2.7913      1.7596      0.5835
    15         H         -2.6765      1.6112     -1.1792
    16         H         -0.8166     -2.9325      0.2482
    17         H          0.8761      2.3349     -0.1880
    18         H          3.8158     -0.7972      0.2427
    19         H          2.0473     -2.5558      0.3363
    20         H          3.2444      1.5779     -0.0119

  H: (PM3): J. J. P. STEWART, J. COMP. CHEM. 10, 209 (1989).
  C: (PM3): J. J. P. STEWART, J. COMP. CHEM. 10, 209 (1989).

           Empirical Formula: C10 H10  =    20 atoms



      MOLECULAR POINT GROUP   :   C1  


      RHF CALCULATION, NO. OF DOUBLY OCCUPIED LEVELS = 25



          HEAT OF FORMATION =      48.015552 KCALS/MOLE


          CARTESIAN COORDINATE DERIVATIVES

   NUMBER  ATOM         X            Y            Z

     1       C     -0.000052     0.000150    -0.002044
     2       C      0.003063    -0.003768    -0.001153
     3       C      0.000743    -0.000855    -0.001686
     4       C      0.000177    -0.000733     0.002949
     5       C     -0.000668    -0.000048     0.001729
     6       C      0.000179    -0.000105    -0.001815
     7       C      0.000134     0.000586     0.001008
     8       C     -0.000065     0.000654    -0.002702
     9       C      0.001028    -0.000729    -0.000368
    10       C     -0.001218    -0.000088     0.004527
    11       H      0.000016    -0.000171    -0.000323
    12       H     -0.000110     0.000533    -0.000167
    13       H     -0.004063    -0.004453    -0.006666
    14       H     -0.002949    -0.000053     0.010971
    15       H      0.003175     0.009830    -0.003184
    16       H     -0.000069     0.000293    -0.000934
    17       H      0.000100     0.000047     0.000315
    18       H      0.000351    -0.000376    -0.000351
    19       H      0.000213    -0.000500    -0.000469
    20       H      0.000017    -0.000215     0.000363



          GRADIENT NORM =   0.02028

          MOLECULAR WEIGHT =  130.19



          ROTATIONAL CONSTANTS IN CM(-1)

          A =    0.08444832   B =    0.04187508   C =    0.02829258



           PRINCIPAL MOMENTS OF INERTIA IN UNITS OF 10**(-40)*GRAM-CM**2

          A =      331.4779   B =      668.4823   C =      989.4027


          ORIENTATION OF MOLECULE IN FORCE CALCULATION

    NO.       ATOM         X         Y         Z

     1          C      -0.6574   -2.1745   -0.0013
     2          C       1.9492   -2.1745   -0.0013
     3          C       0.6672   -1.4575   -0.0013
     4          C       0.4382   -0.1121   -0.0005
     5          C      -1.0118    0.1272    0.0004
     6          C      -1.6661   -1.0647   -0.0002
     7          C       1.3299    1.0161   -0.0003
     8          C      -1.4990    1.4809    0.0016
     9          C       0.8140    2.2654    0.0009
    10          C      -0.6114    2.4998    0.0020
    11          H      -0.7675   -2.8225    0.8878
    12          H      -0.7681   -2.8211   -0.8914
    13          H       2.8047   -1.4867   -0.0258
    14          H       2.0253   -2.8369   -0.8744
    15          H       2.0457   -2.7985    0.8977
    16          H      -2.7396   -1.2374    0.0002
    17          H       2.4096    0.8328   -0.0014
    18          H      -0.9530    3.5402    0.0031
    19          H      -2.5805    1.6481    0.0023
    20          H       1.4705    3.1417    0.0011


    FIRST DERIVATIVES WILL BE USED IN THE CALCULATION OF SECOND DERIVATIVES

          ESTIMATED TIME TO COMPLETE CALCULATION =        1.88 SECONDS

    FOR POINT-GROUP C1   THERE ARE   1 UNIQUE SYMMETRY FUNCTIONS.

 STEP:   1 TIME =     0.02 SECS, INTEGRAL =      0.02 TIME LEFT: 172799.97
 STEP:   2 TIME =     0.02 SECS, INTEGRAL =      0.04 TIME LEFT: 172799.95
 STEP:   3 TIME =     0.02 SECS, INTEGRAL =      0.06 TIME LEFT: 172799.93
 STEP:   4 TIME =     0.02 SECS, INTEGRAL =      0.08 TIME LEFT: 172799.91
 STEP:   5 TIME =     0.02 SECS, INTEGRAL =      0.10 TIME LEFT: 172799.89
 STEP:   6 TIME =     0.02 SECS, INTEGRAL =      0.12 TIME LEFT: 172799.87
 STEP:   7 TIME =     0.02 SECS, INTEGRAL =      0.14 TIME LEFT: 172799.85
 STEP:   8 TIME =     0.02 SECS, INTEGRAL =      0.16 TIME LEFT: 172799.83
 STEP:   9 TIME =     0.02 SECS, INTEGRAL =      0.18 TIME LEFT: 172799.81
 STEP:  10 TIME =     0.02 SECS, INTEGRAL =      0.21 TIME LEFT: 172799.79
 STEP:  11 TIME =     0.02 SECS, INTEGRAL =      0.23 TIME LEFT: 172799.76
 STEP:  12 TIME =     0.02 SECS, INTEGRAL =      0.25 TIME LEFT: 172799.74
 STEP:  13 TIME =     0.02 SECS, INTEGRAL =      0.28 TIME LEFT: 172799.71
 STEP:  14 TIME =     0.02 SECS, INTEGRAL =      0.30 TIME LEFT: 172799.70
 STEP:  15 TIME =     0.02 SECS, INTEGRAL =      0.32 TIME LEFT: 172799.68
 STEP:  16 TIME =     0.02 SECS, INTEGRAL =      0.34 TIME LEFT: 172799.66
 STEP:  17 TIME =     0.02 SECS, INTEGRAL =      0.36 TIME LEFT: 172799.63
 STEP:  18 TIME =     0.02 SECS, INTEGRAL =      0.38 TIME LEFT: 172799.61
 STEP:  19 TIME =     0.02 SECS, INTEGRAL =      0.40 TIME LEFT: 172799.59
 STEP:  20 TIME =     0.02 SECS, INTEGRAL =      0.42 TIME LEFT: 172799.57
 STEP:  21 TIME =     0.02 SECS, INTEGRAL =      0.45 TIME LEFT: 172799.55
 STEP:  22 TIME =     0.02 SECS, INTEGRAL =      0.46 TIME LEFT: 172799.53
 STEP:  23 TIME =     0.02 SECS, INTEGRAL =      0.48 TIME LEFT: 172799.51
 STEP:  24 TIME =     0.02 SECS, INTEGRAL =      0.51 TIME LEFT: 172799.48
 STEP:  25 TIME =     0.02 SECS, INTEGRAL =      0.53 TIME LEFT: 172799.46
 STEP:  26 TIME =     0.02 SECS, INTEGRAL =      0.55 TIME LEFT: 172799.45
 STEP:  27 TIME =     0.02 SECS, INTEGRAL =      0.57 TIME LEFT: 172799.43
 STEP:  28 TIME =     0.02 SECS, INTEGRAL =      0.59 TIME LEFT: 172799.41
 STEP:  29 TIME =     0.02 SECS, INTEGRAL =      0.61 TIME LEFT: 172799.39
 STEP:  30 TIME =     0.02 SECS, INTEGRAL =      0.63 TIME LEFT: 172799.36
 STEP:  31 TIME =     0.02 SECS, INTEGRAL =      0.65 TIME LEFT: 172799.34
 STEP:  32 TIME =     0.02 SECS, INTEGRAL =      0.68 TIME LEFT: 172799.32
 STEP:  33 TIME =     0.02 SECS, INTEGRAL =      0.70 TIME LEFT: 172799.30
 STEP:  34 TIME =     0.02 SECS, INTEGRAL =      0.72 TIME LEFT: 172799.27
 STEP:  35 TIME =     0.02 SECS, INTEGRAL =      0.74 TIME LEFT: 172799.25
 STEP:  36 TIME =     0.02 SECS, INTEGRAL =      0.76 TIME LEFT: 172799.23
 STEP:  37 TIME =     0.02 SECS, INTEGRAL =      0.78 TIME LEFT: 172799.21
 STEP:  38 TIME =     0.02 SECS, INTEGRAL =      0.80 TIME LEFT: 172799.20
 STEP:  39 TIME =     0.02 SECS, INTEGRAL =      0.82 TIME LEFT: 172799.17
 STEP:  40 TIME =     0.02 SECS, INTEGRAL =      0.84 TIME LEFT: 172799.15
 STEP:  41 TIME =     0.02 SECS, INTEGRAL =      0.86 TIME LEFT: 172799.13
 STEP:  42 TIME =     0.02 SECS, INTEGRAL =      0.88 TIME LEFT: 172799.11
 STEP:  43 TIME =     0.02 SECS, INTEGRAL =      0.91 TIME LEFT: 172799.09
 STEP:  44 TIME =     0.02 SECS, INTEGRAL =      0.93 TIME LEFT: 172799.07
 STEP:  45 TIME =     0.02 SECS, INTEGRAL =      0.94 TIME LEFT: 172799.05
 STEP:  46 TIME =     0.02 SECS, INTEGRAL =      0.96 TIME LEFT: 172799.04
 STEP:  47 TIME =     0.02 SECS, INTEGRAL =      0.98 TIME LEFT: 172799.02
 STEP:  48 TIME =     0.02 SECS, INTEGRAL =      1.00 TIME LEFT: 172799.00
 STEP:  49 TIME =     0.02 SECS, INTEGRAL =      1.02 TIME LEFT: 172798.98
 STEP:  50 TIME =     0.02 SECS, INTEGRAL =      1.04 TIME LEFT: 172798.96
 STEP:  51 TIME =     0.02 SECS, INTEGRAL =      1.06 TIME LEFT: 172798.93
 STEP:  52 TIME =     0.02 SECS, INTEGRAL =      1.08 TIME LEFT: 172798.91
 STEP:  53 TIME =     0.02 SECS, INTEGRAL =      1.10 TIME LEFT: 172798.89
 STEP:  54 TIME =     0.02 SECS, INTEGRAL =      1.12 TIME LEFT: 172798.87
 STEP:  55 TIME =     0.02 SECS, INTEGRAL =      1.14 TIME LEFT: 172798.85
 STEP:  56 TIME =     0.02 SECS, INTEGRAL =      1.16 TIME LEFT: 172798.83
 STEP:  57 TIME =     0.02 SECS, INTEGRAL =      1.18 TIME LEFT: 172798.81
 STEP:  58 TIME =     0.02 SECS, INTEGRAL =      1.20 TIME LEFT: 172798.80
 STEP:  59 TIME =     0.02 SECS, INTEGRAL =      1.21 TIME LEFT: 172798.78
 STEP:  60 TIME =     0.02 SECS, INTEGRAL =      1.23 TIME LEFT: 172798.76

(To convert to Hartree/Bohr^2, multiply by (10^(-21) x N x a0^2)/(4.184 x 627.51) =  0.0642)


           FORCE MATRIX IN MILLIDYNES/ANGSTROM


                  C  1       C  2       C  3       C  4       C  5       C  6
 ------------------------------------------------------------------------------
     C    1  14.744534
     C    2   0.494349  14.836095
     C    3   4.158574   5.531797  18.053980
     C    4   1.293947   0.671874   8.500790  19.311795
     C    5   1.356244   0.097948   1.491604   4.982123  19.441953
     C    6   4.422728   0.050181   1.069682   1.487825   8.885409  17.540311
     C    7   0.136721   0.055229   1.021509   5.850276   0.745847   0.171055
     C    8   0.146883   0.010163   0.178527   0.730941   5.872833   1.012042
     C    9   0.084402   0.020156   0.325069   1.400629   0.418496   0.213433
     C   10   0.084910   0.011421   0.222081   0.428996   1.374200   0.307728
     H   11   4.492831   0.012656   0.419535   0.041658   0.042477   0.407894
     H   12   4.492492   0.012793   0.419509   0.041628   0.042472   0.407800
     H   13   0.043916   4.729051   0.472805   0.018365   0.002641   0.008596
     H   14   0.013638   4.692041   0.449594   0.030329   0.013029   0.006978
     H   15   0.013176   4.688087   0.447872   0.029178   0.013271   0.007040
     H   16   0.399848   0.013749   0.044855   0.089015   0.451755   5.089026
     H   17   0.007419   0.014363   0.010967   0.443055   0.048631   0.007181
     H   18   0.010455   0.000560   0.002070   0.004135   0.121470   0.007582
     H   19   0.006311   0.003801   0.007307   0.047659   0.442982   0.013388
     H   20   0.010412   0.002667   0.007679   0.120854   0.003733   0.001806


                  C  7       C  8       C  9       C 10       H 11       H 12
 ------------------------------------------------------------------------------
     C    7  18.096624
     C    8   0.452925  18.135169
     C    9   9.378404   1.337714  17.854680
     C   10   1.342706   9.420181   5.557263  17.880743
     H   11   0.018432   0.019943   0.004227   0.004296   5.100175
     H   12   0.018417   0.019937   0.004237   0.004306   0.545140   5.099806
     H   13   0.016023   0.001125   0.001891   0.000670   0.001302   0.001302
     H   14   0.006520   0.001379   0.002294   0.001613   0.001842   0.004253
     H   15   0.006715   0.001374   0.002350   0.001646   0.003839   0.001946
     H   16   0.006690   0.047511   0.005448   0.004615   0.011370   0.011365
     H   17   4.836556   0.011144   0.442809   0.120369   0.001097   0.001095
     H   18   0.051564   0.438005   0.434490   4.851439   0.001702   0.001702
     H   19   0.011015   4.867680   0.119728   0.443210   0.000993   0.000993
     H   20   0.438372   0.051661   4.851137   0.434986   0.001679   0.001677


                  H 13       H 14       H 15       H 16       H 17       H 18
 ------------------------------------------------------------------------------
     H   13   5.431505
     H   14   0.558912   5.403020
     H   15   0.559764   0.572002   5.399817
     H   16   0.001523   0.001186   0.001268   5.492289
     H   17   0.019398   0.001452   0.001456   0.003319   5.209571
     H   18   0.000152   0.000111   0.000114   0.002907   0.007202   5.214086
     H   19   0.000092   0.000528   0.000533   0.006032   0.010263   0.060412
     H   20   0.000339   0.000376   0.000398   0.000611   0.060866   0.033009


                  H 19       H 20
 ------------------------------
     H   19   5.238465
     H   20   0.007037   5.214473


          HEAT OF FORMATION =      48.015552 KCALS/MOLE

          ZERO POINT ENERGY     105.191 KCAL/MOL


           NORMAL COORDINATE ANALYSIS (Total motion = 1 Angstrom)


   Root No.       1         2         3         4         5         6         7         8

                 1 A       2 A       3 A       4 A       5 A       6 A       7 A       8 A   

                  81.8     131.3     173.1     246.6     254.1     364.8     454.9     468.8
  
           1    0.0001    0.0000    0.0000    0.0001   -0.0153   -0.0000   -0.0000   -0.0437
           2    0.0000    0.0000   -0.0000    0.0001   -0.0107    0.0000   -0.0000    0.0081
           3    0.0096   -0.0231    0.0583   -0.0323   -0.0002   -0.0160   -0.0006    0.0000
           4   -0.0001   -0.0000   -0.0000   -0.0002    0.0306    0.0001   -0.0000    0.0269
           5   -0.0003   -0.0001    0.0000   -0.0004    0.0851   -0.0000    0.0000    0.0071
           6   -0.0078    0.0623   -0.0037    0.0230    0.0002   -0.0089    0.0027    0.0000
           7    0.0001    0.0000    0.0000    0.0001   -0.0195    0.0000   -0.0000   -0.0054
           8    0.0001    0.0000    0.0000    0.0001   -0.0051   -0.0001   -0.0000   -0.0405
           9    0.0047   -0.0047   -0.0098   -0.0389   -0.0002    0.0539   -0.0062    0.0000
          10    0.0001    0.0000   -0.0000    0.0001   -0.0291    0.0000    0.0000    0.0375
          11    0.0001    0.0000    0.0000    0.0001   -0.0092   -0.0000   -0.0000   -0.0289
          12    0.0034   -0.0276   -0.0554   -0.0306   -0.0002    0.0328    0.0102   -0.0002
          13    0.0001    0.0000   -0.0000    0.0001   -0.0253    0.0000    0.0000    0.0480
          14    0.0000    0.0000    0.0000    0.0000   -0.0050    0.0000   -0.0000    0.0127
          15    0.0034   -0.0116   -0.0512    0.0130    0.0001    0.0032    0.0634   -0.0001
          16    0.0001    0.0000    0.0000    0.0001   -0.0210   -0.0000   -0.0000    0.0009
          17    0.0000    0.0000   -0.0000   -0.0000   -0.0088    0.0000    0.0000    0.0454
          18    0.0078   -0.0181    0.0094    0.0651    0.0005    0.0169   -0.0266    0.0001
          19   -0.0000   -0.0000   -0.0000    0.0000    0.0004   -0.0000   -0.0000    0.0061
          20    0.0001    0.0001    0.0000    0.0002   -0.0357    0.0000    0.0000   -0.0020
          21    0.0016   -0.0554   -0.0268    0.0040   -0.0000   -0.0346   -0.0523    0.0000
          22   -0.0000    0.0000   -0.0000   -0.0000    0.0065   -0.0000    0.0000   -0.0030
          23   -0.0000   -0.0000    0.0000   -0.0000    0.0074    0.0000   -0.0000   -0.0108
          24   -0.0037    0.0395   -0.0435   -0.0162   -0.0001   -0.0443    0.0127    0.0001
          25   -0.0001   -0.0000    0.0000   -0.0001    0.0268   -0.0000    0.0000   -0.0304
          26    0.0001    0.0000   -0.0000    0.0001   -0.0270   -0.0000   -0.0000   -0.0133
          27   -0.0059   -0.0218    0.0558    0.0249    0.0001    0.0060    0.0491    0.0000
          28   -0.0001    0.0000    0.0000   -0.0002    0.0296    0.0000   -0.0000   -0.0280
          29    0.0000   -0.0000   -0.0000    0.0001   -0.0110   -0.0000    0.0000    0.0046
          30   -0.0099    0.0445    0.0403   -0.0208   -0.0002    0.0275   -0.0313   -0.0001
          31    0.0023   -0.0101    0.0197    0.0353   -0.0149   -0.0314   -0.0117   -0.0802
          32    0.0034   -0.0119    0.0663   -0.0698   -0.0109   -0.0910    0.0374    0.0151
          33    0.0125   -0.0332    0.1098   -0.0800   -0.0006   -0.0886    0.0263    0.0001
          34   -0.0022    0.0102   -0.0196   -0.0351   -0.0153    0.0312    0.0117   -0.0800
          35   -0.0034    0.0119   -0.0664    0.0700   -0.0099    0.0912   -0.0375    0.0153
          36    0.0125   -0.0331    0.1097   -0.0799   -0.0006   -0.0885    0.0263   -0.0002
          37    0.0034    0.0015    0.0001    0.0013   -0.0239   -0.0012    0.0002   -0.0171
          38    0.0053   -0.0001   -0.0000   -0.0013    0.1551    0.0006   -0.0000    0.0643
          39    0.2718    0.1138   -0.0002    0.0500    0.0016   -0.0346    0.0106    0.0003
          40    0.1094    0.0508    0.0026    0.0408    0.0877   -0.0436    0.0108    0.0750
          41    0.2217    0.0016    0.0019   -0.0187    0.0942    0.0232   -0.0044    0.0142
          42   -0.1672    0.0656   -0.0051    0.0409   -0.0010   -0.0309    0.0073   -0.0004
          43   -0.1140   -0.0526   -0.0028   -0.0432    0.0830    0.0452   -0.0111    0.0725
          44   -0.2291   -0.0018   -0.0019    0.0183    0.0943   -0.0239    0.0045    0.0151
          45   -0.1549    0.0669   -0.0049    0.0410    0.0004   -0.0309    0.0073    0.0000
          46    0.0001    0.0000    0.0000    0.0002   -0.0199   -0.0000   -0.0000   -0.0092
          47   -0.0000    0.0000   -0.0000   -0.0000   -0.0151    0.0000    0.0001    0.1079
          48    0.0094   -0.0132    0.0361    0.1393    0.0010    0.0288   -0.1191    0.0003
          49    0.0000   -0.0001   -0.0000    0.0000   -0.0037   -0.0001   -0.0001    0.0137
          50    0.0003    0.0001    0.0001    0.0003   -0.0618    0.0001    0.0001    0.0429
          51    0.0073   -0.1048   -0.0480    0.0225    0.0001   -0.1181   -0.1455    0.0002
          52   -0.0002    0.0000    0.0000   -0.0003    0.0476    0.0000   -0.0001   -0.0324
          53    0.0000   -0.0001   -0.0001    0.0001   -0.0049   -0.0000    0.0001    0.0025
          54   -0.0169    0.0945    0.0845   -0.0577   -0.0004    0.0606   -0.1591   -0.0001
          55   -0.0000    0.0000   -0.0000   -0.0001    0.0110   -0.0001   -0.0000   -0.0105
          56   -0.0001   -0.0001    0.0001   -0.0002    0.0360    0.0001    0.0000   -0.0600
          57   -0.0047    0.0797   -0.0842   -0.0434   -0.0002   -0.1191   -0.0481    0.0003
          58   -0.0001   -0.0001    0.0001   -0.0002    0.0413   -0.0000    0.0001   -0.0380
          59    0.0002    0.0001   -0.0001    0.0002   -0.0382   -0.0000   -0.0001   -0.0070
          60   -0.0080   -0.0441    0.1209    0.0712    0.0004   -0.0150    0.1405    0.0003


   Root No.       9        10        11        12        13        14        15        16

                 9 A      10 A      11 A      12 A      13 A      14 A      15 A      16 A   

                 495.6     541.5     557.0     693.7     712.7     761.2     791.3     820.3
  
           1    0.0001    0.0135   -0.0316    0.0198   -0.0000    0.0000   -0.0000    0.0203
           2    0.0000   -0.0222   -0.0476   -0.0584    0.0001    0.0001   -0.0001    0.0424
           3    0.0035   -0.0001    0.0000    0.0000   -0.0204    0.0130   -0.0362   -0.0000
           4    0.0001    0.0473   -0.0277   -0.0565    0.0001    0.0000    0.0000   -0.0241
           5   -0.0001   -0.0333    0.0179    0.0278   -0.0000   -0.0000   -0.0000    0.0256
           6   -0.0020    0.0000   -0.0000   -0.0001   -0.0016   -0.0054    0.0055   -0.0001
           7    0.0001    0.0231   -0.0357   -0.0374    0.0000    0.0001   -0.0000    0.0074
           8    0.0000   -0.0398   -0.0178   -0.0054    0.0000    0.0000   -0.0000    0.0227
           9    0.0573   -0.0003    0.0001    0.0001   -0.0097   -0.0172    0.0150    0.0001
          10   -0.0001   -0.0276    0.0135    0.0105    0.0000    0.0000    0.0000   -0.0054
          11    0.0000   -0.0396   -0.0028    0.0002   -0.0000   -0.0001    0.0000   -0.0043
          12   -0.0388    0.0000   -0.0000    0.0002    0.0586    0.0401    0.0033    0.0000
          13   -0.0002   -0.0183    0.0205    0.0243   -0.0000   -0.0000   -0.0000    0.0258
          14    0.0000    0.0143   -0.0415    0.0269    0.0000   -0.0000    0.0000   -0.0189
          15   -0.0358    0.0001   -0.0001   -0.0002   -0.0536   -0.0115    0.0256    0.0000
          16   -0.0000    0.0092   -0.0096    0.0741   -0.0001   -0.0001    0.0001   -0.0127
          17   -0.0001   -0.0059   -0.0329   -0.0090    0.0000    0.0000   -0.0000    0.0058
          18   -0.0034    0.0000   -0.0000   -0.0000   -0.0038    0.0125   -0.0107   -0.0001
          19   -0.0001   -0.0723   -0.0209    0.0196   -0.0000   -0.0001    0.0001   -0.0299
          20   -0.0000   -0.0134    0.0518   -0.0160   -0.0000   -0.0000    0.0001   -0.0324
          21   -0.0094    0.0001    0.0000   -0.0001    0.0022   -0.0165   -0.0185   -0.0001
          22   -0.0000    0.0232    0.0692   -0.0144    0.0000    0.0000   -0.0001    0.0652
          23    0.0001    0.0541   -0.0294    0.0311   -0.0000   -0.0000    0.0001   -0.0298
          24    0.0360   -0.0000   -0.0000    0.0000    0.0114   -0.0218   -0.0084    0.0000
          25    0.0000   -0.0157    0.0174   -0.0214    0.0000   -0.0000    0.0000   -0.0318
          26   -0.0000    0.0120    0.0737   -0.0314    0.0000    0.0000    0.0001   -0.0365
          27    0.0181   -0.0000    0.0001    0.0000    0.0232   -0.0042   -0.0196   -0.0001
          28    0.0000    0.0010    0.0153   -0.0156    0.0000   -0.0000    0.0000   -0.0104
          29    0.0001    0.0790    0.0205    0.0337   -0.0000    0.0000   -0.0000    0.0307
          30   -0.0319    0.0001   -0.0000   -0.0000   -0.0126   -0.0249   -0.0033    0.0001
          31   -0.0478    0.0017   -0.0310    0.0261    0.0251    0.0338   -0.0227    0.0527
          32   -0.0582   -0.0216   -0.0519   -0.0680    0.0698   -0.0448    0.1100    0.0488
          33   -0.0470   -0.0009   -0.0024   -0.0043    0.0365   -0.0171    0.0456    0.0071
          34    0.0480    0.0014   -0.0308    0.0262   -0.0251   -0.0337    0.0226    0.0532
          35    0.0583   -0.0221   -0.0516   -0.0674   -0.0697    0.0450   -0.1103    0.0485
          36   -0.0470    0.0012    0.0021    0.0040    0.0364   -0.0171    0.0454   -0.0070
          37   -0.0013    0.0368   -0.0595   -0.0766    0.0005    0.0010   -0.0008    0.0097
          38    0.0004   -0.0195    0.0583    0.0518   -0.0002   -0.0005    0.0004   -0.0192
          39   -0.0356    0.0002    0.0000   -0.0000    0.0083    0.0149   -0.0102   -0.0001
          40   -0.0540    0.0662    0.0004   -0.0536    0.0146    0.0339   -0.0266   -0.0791
          41    0.0278   -0.0338    0.0235    0.0332   -0.0079   -0.0188    0.0144    0.0237
          42   -0.0290    0.0016   -0.0011   -0.0031    0.0062    0.0126   -0.0082   -0.0029
          43    0.0556    0.0653   -0.0012   -0.0549   -0.0149   -0.0350    0.0277   -0.0773
          44   -0.0289   -0.0335    0.0244    0.0342    0.0081    0.0193   -0.0149    0.0230
          45   -0.0290   -0.0016    0.0010    0.0033    0.0062    0.0126   -0.0082    0.0033
          46    0.0000    0.0137   -0.0146    0.0747    0.0000   -0.0001    0.0001   -0.0132
          47   -0.0003   -0.0350   -0.0031   -0.0071   -0.0001    0.0001   -0.0002    0.0154
          48    0.0479   -0.0001    0.0001    0.0001    0.2123   -0.0972    0.1603    0.0009
          49   -0.0001   -0.0726   -0.0182    0.0238   -0.0002   -0.0001    0.0002   -0.0324
          50   -0.0002   -0.0189    0.0653    0.0086    0.0001   -0.0001    0.0000   -0.0438
          51    0.0436   -0.0000    0.0001   -0.0003   -0.1839    0.0094    0.1186    0.0007
          52    0.0001    0.0170   -0.0530    0.0265   -0.0001    0.0001    0.0001   -0.0388
          53    0.0001    0.0845   -0.0019    0.0478    0.0000   -0.0002   -0.0001    0.0201
          54   -0.0738    0.0002   -0.0000    0.0000   -0.0837    0.1666    0.1031   -0.0000
          55    0.0001    0.0248    0.0668   -0.0173    0.0001    0.0001   -0.0001    0.0549
          56    0.0001    0.0674   -0.0416    0.0109   -0.0001   -0.0002    0.0002   -0.1038
          57    0.1349   -0.0002    0.0002    0.0005    0.0740    0.1874   -0.0189   -0.0007
          58    0.0002    0.0424    0.0157   -0.0108   -0.0000    0.0002    0.0000    0.0192
          59   -0.0001   -0.0314    0.0753   -0.0390    0.0000   -0.0001    0.0000   -0.0769
          60    0.1139   -0.0003    0.0002    0.0002   -0.0396    0.1571    0.1361    0.0005


   Root No.      17        18        19        20        21        22        23        24

                17 A      18 A      19 A      20 A      21 A      22 A      23 A      24 A   

                 863.7     891.5     899.5     943.6     964.3     985.1    1002.7    1037.4
  
           1    0.0000   -0.0147   -0.0001   -0.0269   -0.0000   -0.0000   -0.0000    0.0013
           2    0.0000   -0.0062   -0.0001   -0.0388   -0.0000    0.0000   -0.0000   -0.0076
           3   -0.0221   -0.0002    0.0305    0.0000   -0.0124   -0.0232   -0.0076   -0.0090
           4   -0.0001    0.0142    0.0002    0.0345    0.0001    0.0001    0.0000    0.0010
           5    0.0000   -0.0083   -0.0001    0.0345    0.0000    0.0000    0.0000   -0.0022
           6    0.0118    0.0002   -0.0193    0.0001   -0.0129   -0.0228   -0.0095   -0.0259
           7   -0.0000    0.0019    0.0001    0.0114    0.0001    0.0001    0.0000   -0.0008
           8    0.0001    0.0064   -0.0000    0.0143   -0.0000   -0.0001   -0.0000    0.0014
           9    0.0112   -0.0001   -0.0041   -0.0001    0.0108    0.0221    0.0123    0.0470
          10   -0.0000    0.0275    0.0002   -0.0052    0.0000    0.0001    0.0000   -0.0011
          11    0.0001    0.0106    0.0000    0.0059   -0.0000   -0.0001   -0.0000    0.0008
          12   -0.0307    0.0002   -0.0103    0.0001    0.0064   -0.0075    0.0091   -0.0193
          13    0.0000   -0.0305   -0.0002    0.0036   -0.0000   -0.0000   -0.0000    0.0012
          14   -0.0001   -0.0286   -0.0002   -0.0009   -0.0000   -0.0000    0.0000   -0.0001
          15    0.0243   -0.0004    0.0250    0.0000    0.0027   -0.0162   -0.0159    0.0137
          16   -0.0000   -0.0604   -0.0003    0.0026   -0.0000   -0.0000   -0.0001   -0.0087
          17   -0.0001   -0.0347   -0.0001    0.0011   -0.0000   -0.0000    0.0000    0.0045
          18    0.0103    0.0004   -0.0353   -0.0001    0.0132    0.0383    0.0082   -0.0192
          19    0.0001    0.0860    0.0004    0.0034    0.0000    0.0000   -0.0000    0.0007
          20   -0.0001    0.0085    0.0001   -0.0007    0.0000    0.0000    0.0000    0.0001
          21    0.0239   -0.0002    0.0099    0.0000   -0.0323    0.0198   -0.0307    0.0104
          22    0.0001    0.0203    0.0000   -0.0007   -0.0000   -0.0000   -0.0000   -0.0017
          23   -0.0000    0.0219    0.0001    0.0014    0.0001    0.0000   -0.0000    0.0008
          24   -0.0247    0.0002   -0.0082    0.0000   -0.0315    0.0116    0.0376   -0.0076
          25   -0.0001   -0.0329   -0.0001    0.0002    0.0000   -0.0000    0.0000    0.0013
          26   -0.0001   -0.0352   -0.0001   -0.0026   -0.0000    0.0000   -0.0000    0.0005
          27    0.0230   -0.0002    0.0080   -0.0001    0.0232   -0.0168    0.0424   -0.0076
          28   -0.0001   -0.0224   -0.0001   -0.0033    0.0000    0.0000   -0.0000   -0.0010
          29    0.0001    0.0603    0.0003    0.0042   -0.0000   -0.0000    0.0000    0.0005
          30   -0.0220    0.0003   -0.0135   -0.0000    0.0235   -0.0013   -0.0463    0.0066
          31    0.0032    0.0184   -0.1199   -0.0769   -0.0481   -0.1055    0.0369    0.2399
          32    0.0547   -0.0160   -0.0521   -0.0431    0.0371    0.0693    0.0108   -0.0304
          33    0.0204   -0.0028   -0.0252   -0.0087    0.0099    0.0164    0.0056    0.0052
          34   -0.0029    0.0156    0.1197   -0.0774    0.0478    0.1051   -0.0368   -0.1382
          35   -0.0547   -0.0166    0.0520   -0.0428   -0.0371   -0.0692   -0.0108   -0.0091
          36    0.0203    0.0031   -0.0251    0.0086    0.0098    0.0162    0.0056    0.0105
          37   -0.0015    0.0140    0.0025    0.2074    0.0018    0.0026    0.0011    0.0008
          38    0.0007   -0.0070   -0.0013   -0.1869   -0.0010   -0.0013   -0.0005    0.0003
          39   -0.0213   -0.0003    0.0311   -0.0004    0.0186    0.0305    0.0132    0.0346
          40   -0.0560    0.0254    0.0856   -0.1422    0.0523    0.0885    0.0370    0.1045
          41    0.0314   -0.0091   -0.0479    0.0070   -0.0300   -0.0505   -0.0214   -0.0588
          42   -0.0182    0.0015    0.0262    0.0033    0.0157    0.0252    0.0109    0.0283
          43    0.0577    0.0270   -0.0883   -0.1317   -0.0546   -0.0919   -0.0385   -0.0939
          44   -0.0322   -0.0100    0.0492    0.0014    0.0309    0.0521    0.0221    0.0562
          45   -0.0181   -0.0021    0.0261   -0.0030    0.0156    0.0251    0.0109    0.0273
          46   -0.0000   -0.0519   -0.0002   -0.0106   -0.0001   -0.0001   -0.0001   -0.0190
          47   -0.0000   -0.1066   -0.0007    0.0799    0.0000   -0.0001    0.0001    0.0694
          48   -0.0391   -0.0016    0.1494    0.0001   -0.0247   -0.1050   -0.0307    0.0307
          49   -0.0000    0.1057    0.0005   -0.0013    0.0001   -0.0000    0.0001   -0.0005
          50    0.0002    0.1151    0.0006   -0.0269   -0.0001    0.0002   -0.0000   -0.0070
          51   -0.1263    0.0007   -0.0402   -0.0003    0.1530   -0.0846    0.1102   -0.0330
          52    0.0000    0.0199    0.0002    0.0006   -0.0000    0.0001    0.0002    0.0004
          53    0.0000    0.0765    0.0003    0.0056    0.0001    0.0000   -0.0001    0.0010
          54    0.1101   -0.0011    0.0787    0.0002   -0.1189    0.0097    0.1685   -0.0186
          55    0.0002    0.0235    0.0001   -0.0025    0.0001   -0.0000   -0.0001   -0.0028
          56   -0.0003    0.0453    0.0004   -0.0095   -0.0000    0.0003    0.0002   -0.0054
          57    0.1305   -0.0005    0.0246   -0.0002    0.1491   -0.0515   -0.1389    0.0228
          58   -0.0001   -0.0666   -0.0004    0.0021   -0.0001    0.0000   -0.0001    0.0020
          59   -0.0001   -0.0088    0.0001   -0.0042    0.0001    0.0000    0.0001    0.0000
          60   -0.1164    0.0008   -0.0398    0.0003   -0.1166    0.0712   -0.1515    0.0219


   Root No.      25        26        27        28        29        30        31        32

                25 A      26 A      27 A      28 A      29 A      30 A      31 A      32 A   

                1037.6    1055.9    1101.2    1124.6    1150.1    1179.3    1209.2    1273.1
  
           1    0.0048    0.0067    0.0022   -0.0047    0.0018   -0.0028    0.0368   -0.0310
           2   -0.0290    0.0053    0.0120   -0.0052   -0.0023   -0.0085    0.0031    0.0228
           3    0.0029    0.0001    0.0000   -0.0000   -0.0000   -0.0000   -0.0000    0.0000
           4    0.0033   -0.0054   -0.0030   -0.0006   -0.0026    0.0099   -0.0094    0.0083
           5   -0.0087    0.0152    0.0192   -0.0102   -0.0023   -0.0041    0.0042    0.0071
           6    0.0085    0.0002    0.0001   -0.0001   -0.0000   -0.0001    0.0001   -0.0001
           7   -0.0034    0.0022   -0.0036    0.0077    0.0066   -0.0138    0.0188   -0.0388
           8    0.0063   -0.0130   -0.0272    0.0214    0.0083    0.0016   -0.0141   -0.0163
           9   -0.0155   -0.0003   -0.0001    0.0001    0.0000    0.0000   -0.0000    0.0000
          10   -0.0051    0.0171    0.0273   -0.0037    0.0084   -0.0296   -0.0060   -0.0142
          11    0.0039   -0.0216   -0.0310    0.0196    0.0048    0.0047   -0.0220    0.0001
          12    0.0064    0.0001    0.0000    0.0000   -0.0000    0.0000   -0.0000    0.0000
          13    0.0045    0.0017    0.0063    0.0018   -0.0070   -0.0149   -0.0195   -0.0065
          14   -0.0003   -0.0022   -0.0020   -0.0094   -0.0042    0.0277   -0.0102   -0.0093
          15   -0.0045   -0.0001   -0.0000   -0.0000   -0.0000    0.0000   -0.0000   -0.0000
          16   -0.0322   -0.0078   -0.0225    0.0041    0.0042    0.0065   -0.0038    0.0424
          17    0.0166    0.0060    0.0042   -0.0127   -0.0052    0.0204   -0.0146   -0.0402
          18    0.0064    0.0001    0.0000   -0.0000   -0.0000    0.0000   -0.0000   -0.0000
          19    0.0032   -0.0250   -0.0020   -0.0144    0.0008   -0.0002    0.0091    0.0094
          20    0.0000    0.0062    0.0030    0.0093   -0.0013   -0.0098   -0.0090   -0.0021
          21   -0.0034   -0.0000   -0.0000    0.0000   -0.0000   -0.0000   -0.0000   -0.0000
          22   -0.0062    0.0047   -0.0338   -0.0074   -0.0042    0.0180   -0.0079   -0.0030
          23    0.0027    0.0045    0.0094   -0.0064   -0.0047    0.0036    0.0112   -0.0039
          24    0.0025    0.0000    0.0000   -0.0000   -0.0000   -0.0000    0.0000   -0.0000
          25    0.0054   -0.0254    0.0272   -0.0077    0.0038    0.0039    0.0196    0.0064
          26    0.0018   -0.0085    0.0187   -0.0075   -0.0034   -0.0118    0.0042    0.0042
          27    0.0025    0.0000    0.0000   -0.0000   -0.0000   -0.0000   -0.0000   -0.0000
          28   -0.0042    0.0259   -0.0098    0.0053   -0.0096    0.0199   -0.0004   -0.0054
          29    0.0026   -0.0291    0.0096   -0.0013    0.0009   -0.0087    0.0125    0.0097
          30   -0.0022   -0.0001    0.0000   -0.0000    0.0000   -0.0000    0.0000    0.0000
          31    0.1286    0.0464    0.0759   -0.0542   -0.0301    0.0316   -0.0811    0.0844
          32   -0.0715    0.0031    0.0076   -0.0014    0.0019   -0.0304    0.0489    0.1465
          33   -0.0126    0.0028    0.0054   -0.0031   -0.0009   -0.0099    0.0159    0.0930
          34    0.2541    0.0486    0.0765   -0.0544   -0.0302    0.0316   -0.0811    0.0843
          35   -0.0786    0.0030    0.0076   -0.0013    0.0019   -0.0304    0.0489    0.1466
          36    0.0071   -0.0029   -0.0054    0.0031    0.0010    0.0099   -0.0158   -0.0929
          37   -0.0086    0.0158    0.0276   -0.0230   -0.0155    0.0303   -0.0466    0.0825
          38    0.0069   -0.0146   -0.0226    0.0194    0.0137   -0.0289    0.0454   -0.0806
          39   -0.0113   -0.0005   -0.0005    0.0003    0.0000    0.0004   -0.0006    0.0010
          40   -0.0021   -0.0599   -0.0718    0.0363    0.0046    0.0201   -0.0545    0.0402
          41    0.0097    0.0159    0.0206   -0.0097    0.0001   -0.0164    0.0219   -0.0265
          42   -0.0074   -0.0041   -0.0056    0.0024   -0.0008    0.0081   -0.0134    0.0224
          43    0.0619   -0.0559   -0.0681    0.0343    0.0041    0.0201   -0.0538    0.0410
          44   -0.0277    0.0141    0.0188   -0.0086    0.0005   -0.0165    0.0222   -0.0279
          45   -0.0111    0.0039    0.0055   -0.0023    0.0009   -0.0078    0.0136   -0.0223
          46   -0.0716   -0.0093   -0.0039   -0.0085   -0.0072    0.0213   -0.0318    0.0230
          47    0.2642    0.0170   -0.1184    0.0640    0.0660   -0.0675    0.1585    0.0941
          48   -0.0100   -0.0001   -0.0001    0.0001    0.0001   -0.0001    0.0001    0.0000
          49   -0.0019    0.0045    0.0049    0.0017    0.0206    0.0376    0.0235    0.0168
          50   -0.0315    0.1950    0.0355    0.1112    0.1092    0.2226    0.0710    0.0384
          51    0.0108    0.0003    0.0001    0.0001    0.0001    0.0001    0.0000    0.0000
          52   -0.0011    0.1071    0.0286    0.2119   -0.2160   -0.1125   -0.0371    0.0119
          53    0.0037   -0.0032    0.0227    0.0657   -0.0678   -0.0544    0.0018    0.0167
          54    0.0061   -0.0000   -0.0000   -0.0001    0.0001    0.0000    0.0000    0.0000
          55   -0.0111    0.0349   -0.0546   -0.0233    0.0198   -0.0091   -0.0220   -0.0008
          56   -0.0251    0.1887   -0.1093   -0.1109    0.1580   -0.1756   -0.0683    0.0136
          57   -0.0075    0.0001   -0.0001   -0.0001    0.0001   -0.0001   -0.0000    0.0000
          58    0.0088   -0.0694    0.1262    0.1142    0.2254   -0.0340   -0.0586    0.0013
          59   -0.0007    0.0243   -0.0530   -0.0988   -0.1711    0.0163    0.0651    0.0095
          60   -0.0072   -0.0000   -0.0001   -0.0001   -0.0003    0.0000    0.0001   -0.0000


   Root No.      33        34        35        36        37        38        39        40

                33 A      34 A      35 A      36 A      37 A      38 A      39 A      40 A   

                1339.8    1362.0    1374.9    1388.6    1389.8    1407.1    1491.8    1580.2
  
           1    0.0712   -0.0020   -0.0066    0.0012    0.0098   -0.0039   -0.0419    0.0168
           2   -0.0152    0.0543   -0.0280    0.0001    0.0013   -0.0211   -0.0134   -0.0133
           3   -0.0000    0.0000   -0.0000    0.0004   -0.0000   -0.0000    0.0000   -0.0000
           4   -0.0171   -0.0168   -0.0282   -0.0036   -0.0273   -0.0067   -0.0626    0.0441
           5    0.0219    0.0174    0.0178   -0.0052   -0.0239   -0.0057    0.0293   -0.0206
           6   -0.0003   -0.0005   -0.0008   -0.0434    0.0053    0.0002    0.0001   -0.0001
           7   -0.0421   -0.0083    0.0192   -0.0011   -0.0091    0.0143    0.0851   -0.0746
           8   -0.0242   -0.0011    0.0310   -0.0002    0.0032    0.0231    0.0033    0.0395
           9    0.0000    0.0000    0.0000   -0.0009    0.0001    0.0000    0.0000    0.0000
          10   -0.0096    0.0076    0.0372    0.0005    0.0126   -0.0354    0.0112    0.1341
          11   -0.0043   -0.0066    0.0035   -0.0002   -0.0008    0.0020   -0.0513    0.0235
          12   -0.0000   -0.0000   -0.0000   -0.0003    0.0000    0.0000   -0.0000   -0.0000
          13   -0.0045    0.0039    0.0235   -0.0004    0.0019    0.0375   -0.0826   -0.1029
          14    0.0089   -0.0127   -0.0119    0.0001   -0.0026   -0.0091    0.0183    0.0188
          15    0.0000   -0.0000   -0.0000   -0.0001    0.0000   -0.0000    0.0001    0.0001
          16   -0.0245    0.0133   -0.0215   -0.0003   -0.0052   -0.0077    0.0329    0.0168
          17    0.0309   -0.0256   -0.0105    0.0000   -0.0052    0.0268    0.0318    0.0236
          18    0.0000   -0.0000    0.0000    0.0000   -0.0000    0.0000    0.0000    0.0000
          19    0.0160   -0.0076   -0.0297   -0.0000   -0.0067   -0.0048    0.0187   -0.0541
          20    0.0134   -0.0153   -0.0128    0.0002   -0.0007   -0.0390    0.0103   -0.0406
          21   -0.0000   -0.0000    0.0000   -0.0000    0.0000   -0.0000   -0.0000    0.0000
          22    0.0108   -0.0107   -0.0190    0.0001   -0.0038   -0.0092    0.0284    0.0180
          23   -0.0167    0.0011    0.0324    0.0002    0.0090   -0.0372   -0.0248   -0.0421
          24   -0.0000    0.0000    0.0000    0.0000    0.0000   -0.0000   -0.0000   -0.0000
          25   -0.0105    0.0180    0.0060   -0.0004   -0.0021    0.0600   -0.0033    0.0445
          26    0.0095    0.0007   -0.0138    0.0000   -0.0026    0.0039    0.0133   -0.0154
          27    0.0000   -0.0000   -0.0000   -0.0000    0.0000   -0.0000    0.0000   -0.0000
          28   -0.0108   -0.0051    0.0232    0.0003    0.0085   -0.0549   -0.0223   -0.0313
          29   -0.0066    0.0115    0.0015   -0.0002   -0.0008    0.0229   -0.0075    0.0134
          30    0.0000    0.0000   -0.0000   -0.0000   -0.0000    0.0001    0.0000    0.0000
          31   -0.0609   -0.0202   -0.0125   -0.0029   -0.0146    0.0026    0.0408   -0.0142
          32    0.0289   -0.1369    0.0603   -0.0006   -0.0003    0.0200   -0.0030    0.0040
          33    0.0142   -0.1250    0.0559   -0.0007   -0.0036    0.0262    0.0141    0.0092
          34   -0.0611   -0.0201   -0.0126    0.0007   -0.0150    0.0025    0.0407   -0.0142
          35    0.0289   -0.1371    0.0605    0.0006   -0.0004    0.0200   -0.0029    0.0041
          36   -0.0141    0.1249   -0.0558   -0.0002    0.0037   -0.0262   -0.0142   -0.0092
          37    0.0950    0.0529    0.0234    0.0194    0.1129   -0.0013    0.0207   -0.0100
          38   -0.1101   -0.0633   -0.0400   -0.0113   -0.1595   -0.0079   -0.0593    0.0394
          39    0.0023    0.0039    0.0068    0.4267   -0.0419   -0.0014   -0.0001   -0.0001
          40    0.0863    0.0601    0.0795   -0.2070    0.1322    0.0275    0.0829   -0.0342
          41   -0.0682   -0.0479   -0.0675   -0.0835    0.2348    0.0153   -0.0056   -0.0054
          42    0.0632    0.0465    0.0624    0.0305   -0.1698   -0.0127    0.0293   -0.0118
          43    0.0868    0.0623    0.0832    0.2337    0.0901    0.0253    0.0801   -0.0331
          44   -0.0707   -0.0482   -0.0663    0.1572    0.2169    0.0154   -0.0072   -0.0045
          45   -0.0621   -0.0451   -0.0596    0.0714    0.1468    0.0111   -0.0309    0.0129
          46   -0.0192    0.0026   -0.0223   -0.0004   -0.0080    0.0086    0.0390    0.0171
          47    0.0004    0.0465   -0.0244    0.0009    0.0091   -0.0685    0.0106    0.0329
          48   -0.0000    0.0000   -0.0000   -0.0002    0.0000   -0.0000   -0.0000    0.0000
          49    0.0108    0.0012   -0.0292   -0.0001   -0.0074    0.0240    0.0158   -0.0499
          50   -0.0237    0.0381    0.0052   -0.0004   -0.0002    0.1288   -0.0289    0.0051
          51   -0.0000    0.0000    0.0000    0.0004    0.0000    0.0001   -0.0000    0.0000
          52    0.0509   -0.0081   -0.0753   -0.0003   -0.0186    0.0575    0.0544    0.0297
          53    0.0130    0.0124   -0.0310   -0.0004   -0.0099    0.0648    0.0168    0.0363
          54   -0.0000    0.0000    0.0000    0.0000   -0.0000    0.0000   -0.0000    0.0000
          55    0.0184   -0.0098   -0.0313   -0.0001   -0.0081    0.0156    0.0310    0.0229
          56    0.0239    0.0166   -0.0335   -0.0009   -0.0153    0.1272   -0.0226   -0.0099
          57    0.0000    0.0000   -0.0000   -0.0000   -0.0000    0.0001   -0.0000   -0.0000
          58    0.0467   -0.0291   -0.0520    0.0003   -0.0084   -0.0354    0.0291   -0.0492
          59   -0.0328    0.0377    0.0277   -0.0005    0.0015    0.0814   -0.0087    0.0554
          60   -0.0001    0.0000    0.0001    0.0001   -0.0000    0.0001   -0.0000    0.0001


   Root No.      41        42        43        44        45        46        47        48

                41 A      42 A      43 A      44 A      45 A      46 A      47 A      48 A   

                1754.1    1789.9    1822.7    1886.5    2978.8    3046.8    3050.8    3056.4
  
           1    0.0032   -0.0011   -0.0046   -0.0049   -0.0000    0.0069   -0.0000    0.0001
           2    0.0093    0.0007   -0.0017   -0.0002    0.0000    0.0410   -0.0003    0.0004
           3    0.0000    0.0000   -0.0000    0.0000   -0.0609   -0.0000    0.0000   -0.0000
           4    0.0071    0.0021   -0.0261   -0.0191   -0.0000   -0.0003   -0.0015    0.0017
           5   -0.0038   -0.0019    0.0184    0.0149   -0.0000   -0.0005   -0.0022    0.0026
           6   -0.0000   -0.0000    0.0000    0.0000    0.0001    0.0001    0.0001   -0.0002
           7   -0.0209    0.0017    0.0537    0.0376   -0.0000    0.0005   -0.0001    0.0001
           8    0.0124    0.0197   -0.1076   -0.1132   -0.0000    0.0009   -0.0000    0.0001
           9    0.0000    0.0000   -0.0001   -0.0001   -0.0003    0.0000    0.0000   -0.0000
          10   -0.0179    0.0165    0.0116    0.0148    0.0000   -0.0004    0.0002   -0.0001
          11   -0.0336   -0.0115    0.0972    0.1506    0.0000   -0.0010    0.0001   -0.0005
          12   -0.0000   -0.0000    0.0000    0.0001   -0.0002   -0.0000    0.0000   -0.0000
          13    0.0013    0.0286    0.0048   -0.0269   -0.0000    0.0000    0.0003   -0.0000
          14   -0.0582    0.1072    0.1115   -0.1053    0.0000   -0.0011    0.0002   -0.0002
          15   -0.0000    0.0001    0.0001   -0.0001   -0.0002   -0.0000    0.0000   -0.0000
          16    0.0175   -0.0360   -0.0352    0.0199    0.0000   -0.0012   -0.0000   -0.0001
          17    0.0193   -0.0895   -0.0628    0.0600   -0.0000    0.0007   -0.0001    0.0000
          18    0.0000   -0.0000   -0.0000    0.0000   -0.0003    0.0000    0.0000    0.0000
          19   -0.0309    0.0084   -0.0359   -0.0090   -0.0000   -0.0004   -0.0225    0.0198
          20    0.1402   -0.0708    0.0545   -0.0788    0.0000    0.0002    0.0033   -0.0036
          21    0.0001   -0.0001    0.0001   -0.0000   -0.0001    0.0000    0.0000   -0.0000
          22    0.0603    0.0691   -0.0013    0.0255    0.0000    0.0001   -0.0066   -0.0176
          23    0.1092    0.0678   -0.0624    0.0752   -0.0000    0.0002    0.0016    0.0037
          24    0.0001    0.0000   -0.0000    0.0000   -0.0001    0.0000    0.0000    0.0000
          25    0.0925   -0.0112    0.0503   -0.0130    0.0000    0.0004    0.0161   -0.0044
          26   -0.1186    0.0630   -0.0758    0.0373   -0.0000    0.0003    0.0215   -0.0040
          27   -0.0002    0.0001   -0.0001    0.0000   -0.0000    0.0000    0.0000    0.0000
          28   -0.1098   -0.0907   -0.0027   -0.0384   -0.0000   -0.0002    0.0050    0.0087
          29   -0.0651   -0.0841    0.0243   -0.0378   -0.0000    0.0003   -0.0171   -0.0273
          30    0.0000   -0.0000    0.0000   -0.0000   -0.0000    0.0000   -0.0000   -0.0000
          31    0.0005   -0.0154    0.0090    0.0224   -0.0479   -0.0419    0.0002   -0.0004
          32   -0.0005    0.0056    0.0035   -0.0030   -0.2813   -0.2452    0.0016   -0.0023
          33   -0.0095    0.0044    0.0106    0.0022    0.3695    0.3804   -0.0025    0.0036
          34    0.0005   -0.0154    0.0090    0.0224    0.0483   -0.0420    0.0002   -0.0004
          35   -0.0005    0.0056    0.0035   -0.0030    0.2812   -0.2441    0.0016   -0.0023
          36    0.0095   -0.0044   -0.0106   -0.0022    0.3707   -0.3801    0.0024   -0.0036
          37    0.0016   -0.0033    0.0093    0.0102    0.0001    0.0043    0.0204   -0.0235
          38    0.0021    0.0049   -0.0241   -0.0207    0.0000    0.0034    0.0164   -0.0189
          39    0.0001   -0.0000    0.0000   -0.0001   -0.0000   -0.0001   -0.0006    0.0006
          40   -0.0007    0.0016   -0.0064   -0.0092   -0.0002   -0.0001   -0.0012    0.0014
          41   -0.0024   -0.0011    0.0097    0.0088   -0.0006    0.0016    0.0047   -0.0056
          42   -0.0005   -0.0002    0.0039    0.0012   -0.0008    0.0026    0.0080   -0.0096
          43   -0.0006    0.0014   -0.0060   -0.0086    0.0001   -0.0003   -0.0014    0.0018
          44   -0.0023   -0.0010    0.0088    0.0080    0.0007    0.0021    0.0050   -0.0065
          45    0.0006    0.0003   -0.0044   -0.0016   -0.0009   -0.0035   -0.0090    0.0116
          46    0.0272   -0.0708   -0.0644    0.0429   -0.0000    0.0128   -0.0002    0.0006
          47   -0.0002    0.0188    0.0129   -0.0094   -0.0000    0.0034    0.0000    0.0003
          48   -0.0000    0.0000    0.0000   -0.0000   -0.0008   -0.0000   -0.0000    0.0000
          49   -0.0735    0.0319   -0.0598    0.0136    0.0000    0.0058    0.2640   -0.2306
          50   -0.0141    0.0176    0.0011    0.0330   -0.0000   -0.0009   -0.0421    0.0380
          51    0.0000   -0.0000    0.0000    0.0000    0.0000   -0.0000   -0.0002    0.0002
          52    0.0052    0.0799   -0.0196    0.0265   -0.0000    0.0012   -0.0630   -0.1064
          53   -0.0426   -0.0458    0.0219   -0.0237    0.0000   -0.0037    0.1957    0.3171
          54   -0.0000   -0.0001    0.0000   -0.0000    0.0001   -0.0000    0.0002    0.0003
          55    0.0516    0.0732    0.0123    0.0153   -0.0000   -0.0022    0.0807    0.2141
          56   -0.0308   -0.0280    0.0244   -0.0347    0.0000    0.0004   -0.0138   -0.0353
          57   -0.0001   -0.0001    0.0000   -0.0000    0.0000    0.0000   -0.0000   -0.0001
          58   -0.0397    0.0674   -0.0568    0.0271   -0.0000   -0.0035   -0.1897    0.0468
          59   -0.0414    0.0162   -0.0105    0.0131   -0.0000   -0.0045   -0.2519    0.0566
          60    0.0000   -0.0000    0.0000   -0.0000    0.0001   -0.0000   -0.0000    0.0000


   Root No.      49        50        51        52        53        54

                49 A      50 A      51 A      52 A      53 A      54 A   

                3064.3    3068.6    3072.9    3077.7    3148.5    3162.6
  
           1    0.0000    0.0001    0.0002    0.0000   -0.0002    0.0001
           2    0.0001   -0.0001   -0.0003   -0.0001   -0.0020    0.0001
           3   -0.0002    0.0000    0.0000    0.0000   -0.0000   -0.0000
           4    0.0007   -0.0067   -0.0171   -0.0022   -0.0003   -0.0218
           5    0.0012   -0.0113   -0.0302   -0.0040    0.0002    0.0112
           6   -0.0562   -0.0008   -0.0007   -0.0000    0.0000    0.0001
           7   -0.0000    0.0000    0.0002    0.0000    0.0013   -0.0002
           8    0.0000   -0.0003   -0.0003    0.0001   -0.0002    0.0002
           9   -0.0001   -0.0000   -0.0000   -0.0000   -0.0000    0.0000
          10    0.0000    0.0002   -0.0004    0.0000    0.0014    0.0000
          11   -0.0000    0.0007    0.0001   -0.0007    0.0004   -0.0003
          12   -0.0002   -0.0000   -0.0000   -0.0000   -0.0000   -0.0000
          13   -0.0000    0.0002   -0.0000   -0.0002    0.0018   -0.0000
          14    0.0000   -0.0003    0.0002   -0.0010    0.0056   -0.0000
          15   -0.0000   -0.0000    0.0000   -0.0000    0.0000    0.0000
          16    0.0000   -0.0001    0.0000   -0.0000   -0.0760    0.0004
          17   -0.0000    0.0001   -0.0000    0.0002   -0.0162    0.0001
          18   -0.0000   -0.0000   -0.0000    0.0000    0.0000   -0.0000
          19    0.0002   -0.0200    0.0090    0.0109   -0.0001    0.0008
          20   -0.0001    0.0055   -0.0021   -0.0031    0.0001   -0.0001
          21    0.0000    0.0000   -0.0000   -0.0000    0.0000   -0.0000
          22    0.0004   -0.0173    0.0089   -0.0276    0.0003   -0.0000
          23   -0.0001    0.0020   -0.0008    0.0020   -0.0001    0.0000
          24    0.0000    0.0000   -0.0000    0.0000   -0.0000    0.0000
          25    0.0004   -0.0118    0.0021    0.0089    0.0002    0.0000
          26    0.0006   -0.0194    0.0042    0.0133   -0.0001    0.0001
          27   -0.0000   -0.0000    0.0000    0.0000   -0.0000   -0.0000
          28   -0.0001    0.0010    0.0005   -0.0048   -0.0003   -0.0000
          29    0.0002    0.0016   -0.0041    0.0216   -0.0002    0.0000
          30    0.0000    0.0000   -0.0000    0.0000   -0.0000   -0.0000
          31   -0.0003    0.0001    0.0004    0.0001   -0.0008   -0.0001
          32   -0.0010    0.0003    0.0016    0.0006    0.0074   -0.0003
          33    0.0014   -0.0005   -0.0025   -0.0009   -0.0103    0.0004
          34    0.0002    0.0001    0.0004    0.0001   -0.0008   -0.0001
          35    0.0002    0.0003    0.0015    0.0006    0.0074   -0.0003
          36    0.0001    0.0005    0.0024    0.0009    0.0103   -0.0004
          37   -0.0187    0.0921    0.2373    0.0300    0.0029    0.2457
          38   -0.0155    0.0748    0.1934    0.0246    0.0027    0.2210
          39   -0.0279   -0.0033   -0.0076   -0.0009   -0.0001   -0.0075
          40   -0.0197   -0.0064   -0.0165   -0.0021    0.0001    0.0048
          41    0.2686    0.0367    0.0943    0.0127   -0.0024   -0.1834
          42    0.3331    0.0571    0.1484    0.0200   -0.0034   -0.2557
          43    0.0305   -0.0066   -0.0183   -0.0024    0.0002    0.0105
          44   -0.2678    0.0234    0.0734    0.0106   -0.0022   -0.1710
          45    0.3682   -0.0438   -0.1322   -0.0188    0.0034    0.2615
          46    0.0000    0.0006   -0.0002    0.0009    0.8590   -0.0041
          47    0.0000    0.0002   -0.0001    0.0004    0.1368   -0.0007
          48   -0.0001   -0.0000   -0.0000    0.0000   -0.0003    0.0000
          49   -0.0018    0.2215   -0.1020   -0.1172   -0.0001   -0.0094
          50    0.0003   -0.0381    0.0176    0.0204   -0.0001    0.0017
          51   -0.0001   -0.0002    0.0001    0.0001    0.0000    0.0000
          52    0.0008    0.0007   -0.0126    0.0732    0.0000    0.0000
          53   -0.0021   -0.0104    0.0409   -0.2238    0.0001   -0.0001
          54   -0.0000   -0.0000    0.0000   -0.0002    0.0000    0.0000
          55   -0.0052    0.1971   -0.0987    0.2985   -0.0021    0.0000
          56    0.0008   -0.0307    0.0152   -0.0455   -0.0002   -0.0000
          57   -0.0000   -0.0001    0.0001   -0.0002    0.0000    0.0000
          58   -0.0053    0.1486   -0.0291   -0.1041   -0.0003   -0.0003
          59   -0.0070    0.1998   -0.0401   -0.1371   -0.0003   -0.0005
          60   -0.0001    0.0000   -0.0000   -0.0000   -0.0000    0.0000


           MASS-WEIGHTED COORDINATE ANALYSIS (NORMAL COORDINATES)


   Root No.       1         2         3         4         5         6         7         8

                 1 A       2 A       3 A       4 A       5 A       6 A       7 A       8 A   

                  81.8     131.3     173.1     246.6     254.1     364.8     454.9     468.8
  
           1    0.0007    0.0001    0.0002    0.0007   -0.1064   -0.0003   -0.0001   -0.3316
           2    0.0001    0.0001   -0.0003    0.0005   -0.0742    0.0003   -0.0001    0.0615
           3    0.0654   -0.1738    0.3911   -0.2616   -0.0016   -0.1309   -0.0041    0.0002
           4   -0.0008   -0.0003   -0.0000   -0.0017    0.2131    0.0006   -0.0000    0.2039
           5   -0.0020   -0.0005    0.0001   -0.0035    0.5922   -0.0003    0.0001    0.0539
           6   -0.0528    0.4692   -0.0251    0.1863    0.0016   -0.0726    0.0202    0.0003
           7    0.0007    0.0001    0.0000    0.0007   -0.1355    0.0002   -0.0001   -0.0407
           8    0.0005    0.0001    0.0001    0.0005   -0.0357   -0.0005   -0.0001   -0.3073
           9    0.0318   -0.0351   -0.0660   -0.3152   -0.0017    0.4420   -0.0455    0.0003
          10    0.0006    0.0001   -0.0002    0.0011   -0.2023    0.0001    0.0002    0.2842
          11    0.0003    0.0002    0.0003    0.0007   -0.0643   -0.0003   -0.0001   -0.2189
          12    0.0234   -0.2081   -0.3718   -0.2481   -0.0016    0.2692    0.0753   -0.0014
          13    0.0004    0.0001   -0.0002    0.0011   -0.1763    0.0001    0.0004    0.3645
          14    0.0001    0.0000    0.0002    0.0001   -0.0348    0.0001   -0.0003    0.0962
          15    0.0233   -0.0874   -0.3439    0.1055    0.0006    0.0258    0.4659   -0.0008
          16    0.0006    0.0001    0.0000    0.0012   -0.1460   -0.0000   -0.0000    0.0071
          17    0.0000    0.0001   -0.0001   -0.0002   -0.0615    0.0002    0.0002    0.3444
          18    0.0527   -0.1366    0.0631    0.5274    0.0033    0.1387   -0.1951    0.0004
          19   -0.0000   -0.0002   -0.0001    0.0001    0.0030   -0.0004   -0.0003    0.0459
          20    0.0010    0.0005    0.0002    0.0015   -0.2482    0.0001    0.0003   -0.0154
          21    0.0108   -0.4176   -0.1801    0.0326   -0.0002   -0.2839   -0.3844    0.0000
          22   -0.0002    0.0002   -0.0001   -0.0003    0.0454   -0.0002    0.0001   -0.0231
          23   -0.0001   -0.0003    0.0002   -0.0003    0.0514    0.0004   -0.0001   -0.0821
          24   -0.0253    0.2972   -0.2921   -0.1313   -0.0007   -0.3630    0.0935    0.0007
          25   -0.0006   -0.0002    0.0002   -0.0009    0.1864   -0.0001    0.0002   -0.2304
          26    0.0008    0.0003   -0.0003    0.0010   -0.1881   -0.0001   -0.0002   -0.1009
          27   -0.0403   -0.1643    0.3746    0.2018    0.0008    0.0493    0.3606    0.0003
          28   -0.0007    0.0001    0.0001   -0.0013    0.2059    0.0000   -0.0002   -0.2122
          29    0.0003   -0.0003   -0.0003    0.0005   -0.0763   -0.0001    0.0003    0.0348
          30   -0.0672    0.3349    0.2707   -0.1681   -0.0011    0.2255   -0.2298   -0.0004
          31    0.0046   -0.0221    0.0383    0.0829   -0.0301   -0.0746   -0.0250   -0.1763
          32    0.0068   -0.0259    0.1288   -0.1638   -0.0220   -0.2161    0.0796    0.0332
          33    0.0246   -0.0723    0.2134   -0.1878   -0.0012   -0.2104    0.0561    0.0003
          34   -0.0042    0.0222   -0.0381   -0.0824   -0.0309    0.0742    0.0249   -0.1758
          35   -0.0067    0.0260   -0.1291    0.1642   -0.0199    0.2165   -0.0797    0.0336
          36    0.0246   -0.0723    0.2133   -0.1874   -0.0011   -0.2101    0.0559   -0.0004
          37    0.0067    0.0032    0.0002    0.0029   -0.0481   -0.0027    0.0005   -0.0376
          38    0.0103   -0.0002   -0.0000   -0.0031    0.3127    0.0014   -0.0001    0.1414
          39    0.5349    0.2483   -0.0005    0.1174    0.0033   -0.0821    0.0225    0.0006
          40    0.2153    0.1109    0.0051    0.0958    0.1768   -0.1035    0.0230    0.1648
          41    0.4363    0.0034    0.0037   -0.0439    0.1899    0.0550   -0.0093    0.0311
          42   -0.3291    0.1433   -0.0099    0.0959   -0.0020   -0.0733    0.0154   -0.0009
          43   -0.2243   -0.1149   -0.0055   -0.1013    0.1672    0.1072   -0.0236    0.1594
          44   -0.4509   -0.0039   -0.0038    0.0428    0.1901   -0.0568    0.0096    0.0332
          45   -0.3048    0.1460   -0.0096    0.0963    0.0008   -0.0733    0.0156    0.0001
          46    0.0002    0.0000    0.0000    0.0004   -0.0402   -0.0000   -0.0001   -0.0202
          47   -0.0000    0.0000   -0.0001   -0.0001   -0.0304    0.0001    0.0002    0.2373
          48    0.0184   -0.0287    0.0702    0.3268    0.0021    0.0684   -0.2537    0.0006
          49    0.0001   -0.0001   -0.0000    0.0001   -0.0075   -0.0003   -0.0002    0.0302
          50    0.0007    0.0003    0.0001    0.0007   -0.1246    0.0002    0.0003    0.0944
          51    0.0143   -0.2286   -0.0932    0.0529    0.0002   -0.2804   -0.3097    0.0005
          52   -0.0003    0.0001    0.0001   -0.0007    0.0959    0.0001   -0.0002   -0.0712
          53    0.0001   -0.0002   -0.0002    0.0001   -0.0099   -0.0001    0.0003    0.0055
          54   -0.0332    0.2061    0.1643   -0.1352   -0.0008    0.1438   -0.3387   -0.0003
[...]
 REDUCED MASS        0.4280         C  2 -- C  3          +5.2% ( 19.7%)      0.0%
 EFFECTIVE MASS      1.5772
 FORCE CONSTANT      0.4862

 VIBRATION         37   37A           ATOM PAIR      ENERGY CONTRIBUTION    RADIAL
 FREQUENCY          1389.77         C  2 -- H 14         +38.3% ( 56.5%)      0.4%
 TRANSITION DIPOLE   0.0394         C  2 -- H 15         +29.5% ( 49.6%)      1.7%
 TRAVEL (Ang.)       0.3688         C  2 -- H 13         +15.3% ( 35.8%)     25.0%
 REDUCED MASS        0.3567         C  2 -- C  3          +4.8% ( 20.1%)      0.6%
 EFFECTIVE MASS      1.9083
 FORCE CONSTANT      0.4059

 VIBRATION         38   38A           ATOM PAIR      ENERGY CONTRIBUTION    RADIAL
 FREQUENCY          1407.08         C  9 -- C 10         +17.9% ( 63.8%)    100.0%
 TRANSITION DIPOLE   0.3228         C  7 -- C  9          +8.4% ( 43.6%)      3.7%
 TRAVEL (Ang.)       0.2097         C  8 -- C 10          +8.1% ( 42.8%)      4.1%
 REDUCED MASS        1.0901         C  4 -- C  5          +6.6% ( 38.8%)    100.0%
 EFFECTIVE MASS      9.1559
 FORCE CONSTANT      1.2716

 VIBRATION         39   39A           ATOM PAIR      ENERGY CONTRIBUTION    RADIAL
 FREQUENCY          1491.83         C  2 -- C  3         +12.7% ( 60.3%)     89.2%
 TRANSITION DIPOLE   0.5677         C  3 -- C  5         +11.8% ( 58.0%)     61.7%
 TRAVEL (Ang.)       0.1590         C  4 -- C  5          +9.2% ( 51.3%)     79.1%
 REDUCED MASS        1.7884         C  5 -- C  6          +9.0% ( 50.8%)     33.7%
 EFFECTIVE MASS     11.1772
 FORCE CONSTANT      2.3451

 VIBRATION         40   40A           ATOM PAIR      ENERGY CONTRIBUTION    RADIAL
 FREQUENCY          1580.24         C  4 -- C  5         +18.1% ( 70.6%)     96.7%
 TRANSITION DIPOLE   0.4306         C  4 -- C  7         +13.8% ( 61.7%)     70.6%
 TRAVEL (Ang.)       0.1313         C  3 -- C  4         +13.2% ( 60.4%)      5.9%
 REDUCED MASS        2.4754         C  4 -- C  6          +8.6% ( 48.6%)     82.9%
 EFFECTIVE MASS     11.7835
 FORCE CONSTANT      3.6419

 VIBRATION         41   41A           ATOM PAIR      ENERGY CONTRIBUTION    RADIAL
 FREQUENCY          1754.06         C  7 -- C  9         +22.4% ( 73.4%)     99.7%
 TRANSITION DIPOLE   0.6845         C  8 -- C 10         +16.3% ( 62.7%)     99.7%
 TRAVEL (Ang.)       0.1224         C  9 -- C 10         +14.0% ( 58.1%)     99.1%
 REDUCED MASS        2.5653         C  4 -- C  7          +8.1% ( 44.1%)     54.2%
 EFFECTIVE MASS     11.9925
 FORCE CONSTANT      4.6502

 VIBRATION         42   42A           ATOM PAIR      ENERGY CONTRIBUTION    RADIAL
 FREQUENCY          1789.92         C  8 -- C 10         +17.8% ( 65.6%)     99.1%
 TRANSITION DIPOLE   0.2562         C  5 -- C  6         +15.7% ( 61.5%)     96.6%
 TRAVEL (Ang.)       0.1334         C  5 -- C  8          +9.0% ( 46.6%)     80.9%
 REDUCED MASS        2.1157         C  9 -- C 10          +8.8% ( 46.0%)     10.6%
 EFFECTIVE MASS     11.8302
 FORCE CONSTANT      3.9937

 VIBRATION         43   43A           ATOM PAIR      ENERGY CONTRIBUTION    RADIAL
 FREQUENCY          1822.65         C  3 -- C  4         +14.4% ( 61.9%)     99.9%
 TRANSITION DIPOLE   0.7888         C  3 -- C  5         +11.4% ( 54.9%)     68.6%
 TRAVEL (Ang.)       0.1397         C  5 -- C  6         +10.5% ( 52.8%)     92.6%
 REDUCED MASS        1.8958         C  4 -- C  5          +8.5% ( 47.4%)     32.5%
 EFFECTIVE MASS     11.9175
 FORCE CONSTANT      3.7106

 VIBRATION         44   44A           ATOM PAIR      ENERGY CONTRIBUTION    RADIAL
 FREQUENCY          1886.54         C  3 -- C  4         +18.2% ( 69.2%)     99.3%
 TRANSITION DIPOLE   0.8431         C  4 -- C  5         +12.7% ( 57.9%)      0.0%
 TRAVEL (Ang.)       0.1247         C  4 -- C  7         +11.4% ( 54.9%)     71.3%
 REDUCED MASS        2.2968         C  4 -- C  6          +8.8% ( 48.1%)     13.0%
 EFFECTIVE MASS     11.9185
 FORCE CONSTANT      4.8161

 VIBRATION         45   45A           ATOM PAIR      ENERGY CONTRIBUTION    RADIAL
 FREQUENCY          2978.84         C  1 -- H 12         +49.0% ( 72.5%)     96.8%
 TRANSITION DIPOLE   0.1870         C  1 -- H 11         +48.9% ( 72.4%)     96.8%
 TRAVEL (Ang.)       0.2093         C  1 -- C  6          +1.1% ( 10.6%)      0.0%
 REDUCED MASS        0.5169         C  1 -- C  3          +1.0% ( 10.6%)      0.0%
 EFFECTIVE MASS      1.5300
 FORCE CONSTANT      2.7026

 VIBRATION         46   46A           ATOM PAIR      ENERGY CONTRIBUTION    RADIAL
 FREQUENCY          3046.78         C  1 -- H 11         +49.3% ( 69.4%)     97.3%
 TRANSITION DIPOLE   0.3453         C  1 -- H 12         +49.1% ( 69.3%)     97.3%
 TRAVEL (Ang.)       0.2140         C  1 -- C  3          +0.7% (  8.4%)     37.0%
 REDUCED MASS        0.4835         C  1 -- C  6          +0.7% (  8.4%)     35.1%
 EFFECTIVE MASS      1.2873
 FORCE CONSTANT      2.6442

 VIBRATION         47   47A           ATOM PAIR      ENERGY CONTRIBUTION    RADIAL
 FREQUENCY          3050.83         C  9 -- H 20         +43.8% ( 67.3%)    100.0%
 TRANSITION DIPOLE   0.1796         C  7 -- H 17         +31.5% ( 57.1%)    100.0%
 TRAVEL (Ang.)       0.2624         C 10 -- H 18         +18.7% ( 44.0%)    100.0%
 REDUCED MASS        0.3209         C  8 -- H 19          +3.0% ( 17.5%)     99.9%
 EFFECTIVE MASS      1.4820
 FORCE CONSTANT      1.7598

 VIBRATION         48   48A           ATOM PAIR      ENERGY CONTRIBUTION    RADIAL
 FREQUENCY          3056.41         C 10 -- H 18         +49.5% ( 71.4%)    100.0%
 TRANSITION DIPOLE   0.3042         C  7 -- H 17         +24.1% ( 49.9%)    100.0%
 TRAVEL (Ang.)       0.2545         C  8 -- H 19         +20.8% ( 46.3%)    100.0%
 REDUCED MASS        0.3407         C  9 -- H 20          +2.3% ( 15.6%)     99.4%
 EFFECTIVE MASS      1.4766
 FORCE CONSTANT      1.8752

 VIBRATION         49   49A           ATOM PAIR      ENERGY CONTRIBUTION    RADIAL
 FREQUENCY          3064.32         C  2 -- H 15         +52.0% ( 74.4%)     97.4%
 TRANSITION DIPOLE   0.0313         C  2 -- H 14         +45.9% ( 69.9%)     96.6%
 TRAVEL (Ang.)       0.2078         C  2 -- H 13          +1.1% ( 10.6%)      3.7%
 REDUCED MASS        0.5098         C  2 -- C  3          +1.0% ( 10.2%)      0.0%
 EFFECTIVE MASS      1.5025
 FORCE CONSTANT      2.8206

 VIBRATION         50   50A           ATOM PAIR      ENERGY CONTRIBUTION    RADIAL
 FREQUENCY          3068.65         C  9 -- H 20         +34.3% ( 59.6%)     99.9%
 TRANSITION DIPOLE   0.4336         C  7 -- H 17         +28.0% ( 53.9%)     99.9%
 TRAVEL (Ang.)       0.2939         C  8 -- H 19         +22.0% ( 47.7%)    100.0%
 REDUCED MASS        0.2544         C  2 -- H 13          +8.2% ( 29.1%)     98.9%
 EFFECTIVE MASS      1.5582
 FORCE CONSTANT      1.4114

 VIBRATION         51   51A           ATOM PAIR      ENERGY CONTRIBUTION    RADIAL
 FREQUENCY          3072.91         C  2 -- H 13         +53.5% ( 75.3%)     98.8%
 TRANSITION DIPOLE   0.1597         C  2 -- H 14         +18.0% ( 43.7%)     87.5%
 TRAVEL (Ang.)       0.2457         C  2 -- H 15         +13.6% ( 37.9%)     82.7%
 REDUCED MASS        0.3635         C  7 -- H 17          +5.8% ( 24.8%)    100.0%
 EFFECTIVE MASS      1.5200
 FORCE CONSTANT      2.0225

 VIBRATION         52   52A           ATOM PAIR      ENERGY CONTRIBUTION    RADIAL
 FREQUENCY          3077.75         C  8 -- H 19         +45.5% ( 68.5%)    100.0%
 TRANSITION DIPOLE   0.3388         C 10 -- H 18         +27.7% ( 53.4%)     99.9%
 TRAVEL (Ang.)       0.2651         C  9 -- H 20         +14.8% ( 39.0%)    100.0%
 REDUCED MASS        0.3118         C  7 -- H 17          +7.1% ( 27.0%)     99.9%
 EFFECTIVE MASS      1.5978
 FORCE CONSTANT      1.7402

 VIBRATION         53   53A           ATOM PAIR      ENERGY CONTRIBUTION    RADIAL
 FREQUENCY          3148.54         C  6 -- H 16         +95.0% ( 99.9%)    100.0%
 TRANSITION DIPOLE   0.4976         C  5 -- C  6          +1.7% ( 13.4%)     49.0%
 TRAVEL (Ang.)       0.1518         C  4 -- C  6          +1.6% ( 13.0%)     95.5%
 REDUCED MASS        0.9291         C  1 -- C  6          +1.6% ( 13.0%)     27.5%
 EFFECTIVE MASS      1.5507
 FORCE CONSTANT      5.4264

 VIBRATION         54   54A           ATOM PAIR      ENERGY CONTRIBUTION    RADIAL
 FREQUENCY          3162.64         C  2 -- H 13         +35.8% ( 57.7%)     97.5%
 TRANSITION DIPOLE   0.0657         C  2 -- H 14         +32.1% ( 54.6%)     97.0%
 TRAVEL (Ang.)       0.2551         C  2 -- H 15         +31.7% ( 54.2%)     96.9%
 REDUCED MASS        0.3276         C  2 -- C  3          +0.3% (  5.5%)     99.8%
 EFFECTIVE MASS      1.1393
 FORCE CONSTANT      1.9307

      SYMMETRY NUMBER FOR POINT-GROUP C1  =  1


          SYSTEM IS A GROUND STATE



 InChI=1S/C10H10/c1-8-6-7-9-4-2-3-5-10(8)9/h2-5,7H,6H2,1H3


          MOLECULE IS NOT LINEAR

          THERE ARE 54 GENUINE VIBRATIONS IN THIS SYSTEM
          THIS THERMODYNAMICS CALCULATION IS LIMITED TO
          MOLECULES WHICH HAVE NO INTERNAL ROTATIONS




                    CALCULATED THERMODYNAMIC PROPERTIES
                                          *
   TEMP. (K)   PARTITION FUNCTION   H.O.F.    ENTHALPY  HEAT CAPACITY ENTROPY
                                   KCAL/MOL   CAL/MOLE    CAL/K/MOL  CAL/K/MOL


 298.00  VIB.     0.5900D+02                  3483.0105    27.1368    19.7910
         ROT.     0.5282D+06                   888.2803     2.9808    29.1667
         INT.     0.3117D+08                  4371.2908    30.1176    48.9577
         TRA.     0.1436D+28                  1480.4672     4.9680    40.5022
         TOT.                       48.016    5851.7580    35.0856    89.4598

 200.00  VIB.     0.9535D+01                  1380.5264    15.9705    11.3837
         ROT.     0.2904D+06                   596.1613     2.9808    27.9780
         INT.     0.2769D+07                  1976.6876    18.9513    39.3616
         TRA.     0.7896D+27                   993.6021     4.9680    38.5210
         TOT.                       45.134    2970.2898    23.9193    77.8827

 210.00  VIB.     0.1136D+02                  1545.5528    17.0389    12.1886
         ROT.     0.3125D+06                   625.9693     2.9808    28.1234
         INT.     0.3549D+07                  2171.5221    20.0197    40.3120
         TRA.     0.8496D+27                  1043.2822     4.9680    38.7634
         TOT.                       45.379    3214.8044    24.9877    79.0755

 220.00  VIB.     0.1357D+02                  1721.3808    18.1304    13.0064
         ROT.     0.3350D+06                   655.7774     2.9808    28.2621
         INT.     0.4546D+07                  2377.1582    21.1112    41.2685
         TRA.     0.9110D+27                  1092.9623     4.9680    38.9945
         TOT.                       45.634    3470.1206    26.0793    80.2630

 230.00  VIB.     0.1625D+02                  1908.2309    19.2428    13.8368
         ROT.     0.3582D+06                   685.5855     2.9808    28.3946
         INT.     0.5819D+07                  2593.8164    22.2236    42.2314
         TRA.     0.9738D+27                  1142.6424     4.9680    39.2154
         TOT.                       45.900    3736.4588    27.1916    81.4467

 240.00  VIB.     0.1950D+02                  2106.2978    20.3733    14.6796
         ROT.     0.3818D+06                   715.3935     2.9808    28.5215
         INT.     0.7446D+07                  2821.6914    23.3541    43.2010
         TRA.     0.1038D+28                  1192.3226     4.9680    39.4268
         TOT.                       46.178    4014.0139    28.3222    82.6278

 250.00  VIB.     0.2347D+02                  2315.7484    21.5191    15.5344
         ROT.     0.4059D+06                   745.2016     2.9808    28.6431
         INT.     0.9527D+07                  3060.9500    24.4999    44.1776
         TRA.     0.1103D+28                  1242.0027     4.9680    39.6296
         TOT.                       46.467    4302.9526    29.4679    83.8072

 260.00  VIB.     0.2832D+02                  2536.7198    22.6770    16.4009
         ROT.     0.4305D+06                   775.0097     2.9808    28.7600
         INT.     0.1219D+08                  3311.7295    25.6578    45.1610
         TRA.     0.1170D+28                  1291.6828     4.9680    39.8245
         TOT.                       46.767    4603.4123    30.6258    84.9854

 270.00  VIB.     0.3425D+02                  2769.3196    23.8442    17.2786
         ROT.     0.4555D+06                   804.8177     2.9808    28.8725
         INT.     0.1560D+08                  3574.1373    26.8250    46.1512
         TRA.     0.1239D+28                  1341.3629     4.9680    40.0120
         TOT.                       47.079    4915.5002    31.7930    86.1631

 280.00  VIB.     0.4151D+02                  3013.6251    25.0177    18.1670
         ROT.     0.4811D+06                   834.6258     2.9808    28.9809
         INT.     0.1997D+08                  3848.2509    27.9985    47.1479
         TRA.     0.1308D+28                  1391.0430     4.9680    40.1926
         TOT.                       47.403    5239.2939    32.9665    87.3406

 290.00  VIB.     0.5042D+02                  3269.6849    26.1946    19.0654
         ROT.     0.5071D+06                   864.4339     2.9808    29.0855
         INT.     0.2557D+08                  4134.1188    29.1754    48.1510
         TRA.     0.1379D+28                  1440.7231     4.9680    40.3670
         TOT.                       47.739    5574.8419    34.1434    88.5179

 300.00  VIB.     0.6138D+02                  3537.5195    27.3722    19.9733
         ROT.     0.5335D+06                   894.2419     2.9808    29.1866
         INT.     0.3275D+08                  4431.7614    30.3530    49.1599
         TRA.     0.1451D+28                  1490.4032     4.9680    40.5354
         TOT.                       48.086    5922.1646    35.3210    89.6953

 310.00  VIB.     0.7489D+02                  3817.1232    28.5480    20.8900
         ROT.     0.5604D+06                   924.0500     2.9808    29.2843
         INT.     0.4197D+08                  4741.1732    31.5288    50.1744
         TRA.     0.1524D+28                  1540.0833     4.9680    40.6983
         TOT.                       48.445    6281.2565    36.4968    90.8727

 320.00  VIB.     0.9155D+02                  4108.4657    29.7196    21.8149
         ROT.     0.5878D+06                   953.8580     2.9808    29.3790
         INT.     0.5381D+08                  5062.3238    32.7004    51.1939
         TRA.     0.1598D+28                  1589.7634     4.9680    40.8560
         TOT.                       48.816    6652.0872    37.6684    92.0499

 330.00  VIB.     0.1121D+03                  4411.4944    30.8849    22.7473
         ROT.     0.6155D+06                   983.6661     2.9808    29.4707
         INT.     0.6903D+08                  5395.1605    33.8657    52.2180
         TRA.     0.1674D+28                  1639.4435     4.9680    41.0089
         TOT.                       49.198    7034.6040    38.8337    93.2269

 340.00  VIB.     0.1376D+03                  4726.1359    32.0419    23.6865
         ROT.     0.6437D+06                  1013.4742     2.9808    29.5597
         INT.     0.8859D+08                  5739.6101    35.0227    53.2462
         TRA.     0.1750D+28                  1689.1236     4.9680    41.1572
         TOT.                       49.593    7428.7337    39.9907    94.4034

 350.00  VIB.     0.1692D+03                  5052.2985    33.1888    24.6319
         ROT.     0.6723D+06                  1043.2822     2.9808    29.6461
         INT.     0.1138D+09                  6095.5807    36.1696    54.2780
         TRA.     0.1828D+28                  1738.8037     4.9680    41.3012
         TOT.                       49.998    7834.3845    41.1377    95.5792

 360.00  VIB.     0.2084D+03                  5389.8742    34.3243    25.5828
         ROT.     0.7013D+06                  1073.0903     2.9808    29.7301
         INT.     0.1462D+09                  6462.9645    37.3051    55.3128
         TRA.     0.1907D+28                  1788.4838     4.9680    41.4412
         TOT.                       50.415    8251.4483    42.2731    96.7540

 370.00  VIB.     0.2572D+03                  5738.7405    35.4468    26.5386
         ROT.     0.7308D+06                  1102.8984     2.9808    29.8117
         INT.     0.1879D+09                  6841.6389    38.4276    56.3503
         TRA.     0.1987D+28                  1838.1639     4.9680    41.5773
         TOT.                       50.844    8679.8028    43.3956    97.9276

 380.00  VIB.     0.3178D+03                  6098.7626    36.5552    27.4986
         ROT.     0.7606D+06                  1132.7064     2.9808    29.8912
         INT.     0.2417D+09                  7231.4690    39.5360    57.3898
         TRA.     0.2068D+28                  1887.8440     4.9680    41.7098
         TOT.                       51.283    9119.3131    44.5040    99.0996

 390.00  VIB.     0.3934D+03                  6469.7949    37.6487    28.4623
         ROT.     0.7908D+06                  1162.5145     2.9808    29.9687
         INT.     0.3111D+09                  7632.3094    40.6295    58.4310
         TRA.     0.2150D+28                  1937.5242     4.9680    41.8388
         TOT.                       51.734    9569.8336    45.5975   100.2698

 400.00  VIB.     0.4876D+03                  6851.6831    38.7263    29.4291
         ROT.     0.8214D+06                  1192.3226     2.9808    30.0441
         INT.     0.4006D+09                  8044.0057    41.7071    59.4733
         TRA.     0.2233D+28                  1987.2043     4.9680    41.9646
         TOT.                       52.195   10031.2099    46.6751   101.4379

   *: NOTE: HEATS OF FORMATION ARE RELATIVE TO THE
            ELEMENTS IN THEIR STANDARD STATE AT 298K
              (=  Standard Enthalpy of Formation).

            Hvib:  Zero-point energy is not included.
                   frequencies of less than zero cm-1 are not included.
            Hrot = (3/2)RT
            Htra = (3/2)RT + pV = (5/2)RT

            Heat capacity is Cp, not Cv

          For more information, see: HTTP://OpenMOPAC.net/Manual/thermochemistry.html


           FORCE CONSTANT IN CARTESIAN COORDINATES (Millidynes/A)

    ATOM   CHEMICAL       X               Y               Z
   NUMBER   SYMBOL  FORCE CONSTANT  FORCE CONSTANT  FORCE CONSTANT

      1       C        7.732462        9.905528        7.706839
      2       C        9.183675        8.542945        7.908798
      3       C       11.253223       13.367074        2.644679
      4       C       10.946140       15.610592        2.402407
      5       C       10.544415       16.142355        2.419527
      6       C       12.590011       11.417550        2.244687
      7       C       11.417976       13.719921        2.246080
      8       C       12.521160       12.668702        2.244163
      9       C       10.858274       13.909292        2.233583
     10       C       11.843591       12.953894        2.239436
     11       H        0.642604        2.050264        3.536404
     12       H        0.643528        2.043876        3.541903
     13       H        3.424493        2.628763        0.654608
     14       H        0.668417        2.295247        3.657271
     15       H        0.675311        2.103465        3.836213
     16       H        5.322301        0.806227        0.315984
     17       H        5.026060        0.863969        0.342408
     18       H        1.194226        4.715212        0.343589
     19       H        5.069511        0.839508        0.343003
     20       H        2.347189        3.562531        0.341672

 **********************
 *                    *
 * JOB ENDED NORMALLY *
 *                    *
 **********************



 TOTAL JOB TIME:             6.49 SECONDS

 == MOPAC DONE ==
