 *******************************************************************************
 **                                                                           **
 **                              MOPAC v23.1.2                                **
 **                                                                           **
 *******************************************************************************
 **          Digital Object Identifier (DOI): 10.5281/zenodo.6511958          **
 **    Visit the DOI location for information on how to cite this program.    **
 *******************************************************************************

                              PM3 CALCULATION RESULTS

 *******************************************************************************
 *  CALCULATION DONE: (MAX THREADS = 1)              Tue Jun  3 16:39:31 2025  *
 *  PM3        - The PM3 Hamiltonian to be used
 *  PRECISE    - TIGHTER CRITERIA TO BE USED
 *  NOSYM      - POINT-GROUP SYMMETRY SET TO C1
 *  THREADS=1  - MULTI-THREADING NOT USED
 *  T=         - A TIME OF 172800.0 SECONDS REQUESTED
 *  DUMP=N     - RESTART FILE WRITTEN EVERY 7200.0 SECONDS REQUESTED
 *******************************************************************************
pm3  precise nosym THREADS=1
 InChI=1S/C12H20/c1-3-5-6-7-8-12-9-11(4-2)10-12/h5,7,11-12H,3-4,8-10H2,1-2H3

   ATOM   CHEMICAL          X               Y               Z
  NUMBER   SYMBOL      (ANGSTROMS)     (ANGSTROMS)     (ANGSTROMS)

     1       C         -2.14670000  *  -0.55810000  *  -1.08010000  *
     2       C         -0.81650000  *  -1.96280000  *  -0.11150000  *
     3       C         -1.48980000  *  -1.87960000  *  -1.48190000  *
     4       C         -1.47870000  *  -0.64430000  *   0.29330000  *
     5       C         -1.68050000  *   0.63430000  *  -1.93430000  *
     6       C          0.71770000  *  -1.89590000  *  -0.18400000  *
     7       C          3.09750000  *   1.33350000  *   0.93240000  *
     8       C         -2.28330000  *   1.94570000  *  -1.43790000  *
     9       C          1.90730000  *   2.09940000  *   0.35950000  *
    10       C          2.66230000  *   0.30260000  *   1.93070000  *
    11       C          1.30450000  *  -1.80240000  *   1.19220000  *
    12       C          1.98600000  *  -0.75230000  *   1.56270000  *
    13       H         -3.25510000  *  -0.64500000  *  -1.02280000  *
    14       H         -1.18630000  *  -2.82700000  *   0.48520000  *
    15       H         -2.00450000  *   0.47090000  *  -2.98480000  *
    16       H         -0.57130000  *   0.71450000  *  -1.92680000  *
    17       H         -0.77740000  *  -1.79150000  *  -2.33300000  *
    18       H         -2.23790000  *  -2.68920000  *  -1.62810000  *
    19       H         -2.22100000  *  -0.78470000  *   1.10900000  *
    20       H         -0.75930000  *   0.17730000  *   0.50200000  *
    21       H          3.66220000  *   0.84610000  *   0.10800000  *
    22       H          3.77680000  *   2.05500000  *   1.43500000  *
    23       H          1.09740000  *  -2.82250000  *  -0.66450000  *
    24       H          1.03970000  *  -1.03460000  *  -0.81260000  *
    25       H         -3.39260000  *   1.89340000  *  -1.46170000  *
    26       H         -1.95280000  *   2.77760000  *  -2.09470000  *
    27       H         -1.94870000  *   2.16100000  *  -0.40130000  *
    28       H          1.31370000  *   2.56100000  *   1.17740000  *
    29       H          1.25650000  *   1.42060000  *  -0.22910000  *
    30       H          2.27270000  *   2.90370000  *  -0.31300000  *
    31       H          2.96870000  *   0.39660000  *   2.96430000  *
    32       H          1.13940000  *  -2.60330000  *   1.90110000  *



          CARTESIAN COORDINATES 

    NO.       ATOM           X           Y           Z

     1         C         -2.1467     -0.5581     -1.0801
     2         C         -0.8165     -1.9628     -0.1115
     3         C         -1.4898     -1.8796     -1.4819
     4         C         -1.4787     -0.6443      0.2933
     5         C         -1.6805      0.6343     -1.9343
     6         C          0.7177     -1.8959     -0.1840
     7         C          3.0975      1.3335      0.9324
     8         C         -2.2833      1.9457     -1.4379
     9         C          1.9073      2.0994      0.3595
    10         C          2.6623      0.3026      1.9307
    11         C          1.3045     -1.8024      1.1922
    12         C          1.9860     -0.7523      1.5627
    13         H         -3.2551     -0.6450     -1.0228
    14         H         -1.1863     -2.8270      0.4852
    15         H         -2.0045      0.4709     -2.9848
    16         H         -0.5713      0.7145     -1.9268
    17         H         -0.7774     -1.7915     -2.3330
    18         H         -2.2379     -2.6892     -1.6281
    19         H         -2.2210     -0.7847      1.1090
    20         H         -0.7593      0.1773      0.5020
    21         H          3.6622      0.8461      0.1080
    22         H          3.7768      2.0550      1.4350
    23         H          1.0974     -2.8225     -0.6645
    24         H          1.0397     -1.0346     -0.8126
    25         H         -3.3926      1.8934     -1.4617
    26         H         -1.9528      2.7776     -2.0947
    27         H         -1.9487      2.1610     -0.4013
    28         H          1.3137      2.5610      1.1774
    29         H          1.2565      1.4206     -0.2291
    30         H          2.2727      2.9037     -0.3130
    31         H          2.9687      0.3966      2.9643
    32         H          1.1394     -2.6033      1.9011

  H: (PM3): J. J. P. STEWART, J. COMP. CHEM. 10, 209 (1989).
  C: (PM3): J. J. P. STEWART, J. COMP. CHEM. 10, 209 (1989).

           Empirical Formula: C12 H20  =    32 atoms



      MOLECULAR POINT GROUP   :   C1  


      RHF CALCULATION, NO. OF DOUBLY OCCUPIED LEVELS = 34


          Geometry optimization using EF

          DIAGONAL MATRIX USED AS START HESSIAN

 CYCLE:     1 TIME:   0.016 TIME LEFT:  2.00D  GRAD.:   101.026 HEAT:  59.33884
 CYCLE:     2 TIME:   0.020 TIME LEFT:  2.00D  GRAD.:   105.793 HEAT:  56.78022
 CYCLE:     3 TIME:   0.012 TIME LEFT:  2.00D  GRAD.:    84.213 HEAT:  52.97276
 CYCLE:     4 TIME:   0.012 TIME LEFT:  2.00D  GRAD.:   173.986 HEAT:  52.42382
 CYCLE:     5 TIME:   0.012 TIME LEFT:  2.00D  GRAD.:   199.882 HEAT:  51.76396
 CYCLE:     6 TIME:   0.012 TIME LEFT:  2.00D  GRAD.:   150.848 HEAT:  49.23612
 CYCLE:     7 TIME:   0.012 TIME LEFT:  2.00D  GRAD.:   144.567 HEAT:  47.46452
 CYCLE:     8 TIME:   0.012 TIME LEFT:  2.00D  GRAD.:   151.178 HEAT:  45.87135
 CYCLE:     9 TIME:   0.012 TIME LEFT:  2.00D  GRAD.:   155.611 HEAT:  45.17394
 CYCLE:    10 TIME:   0.012 TIME LEFT:  2.00D  GRAD.:   138.064 HEAT:  43.11714
 CYCLE:    11 TIME:   0.012 TIME LEFT:  2.00D  GRAD.:   161.990 HEAT:  43.06883
 CYCLE:    12 TIME:   0.012 TIME LEFT:  2.00D  GRAD.:   132.729 HEAT:  40.92669
 CYCLE:    13 TIME:   0.016 TIME LEFT:  2.00D  GRAD.:   138.376 HEAT:  39.94054
 CYCLE:    14 TIME:   0.020 TIME LEFT:  2.00D  GRAD.:    60.538 HEAT:  35.34686
 CYCLE:    15 TIME:   0.020 TIME LEFT:  2.00D  GRAD.:    44.574 HEAT:  34.39013
 CYCLE:    16 TIME:   0.012 TIME LEFT:  2.00D  GRAD.:    36.399 HEAT:  33.49113
 CYCLE:    17 TIME:   0.012 TIME LEFT:  2.00D  GRAD.:    43.748 HEAT:  32.49274
 CYCLE:    18 TIME:   0.012 TIME LEFT:  2.00D  GRAD.:    49.144 HEAT:  31.09448
 CYCLE:    19 TIME:   0.012 TIME LEFT:  2.00D  GRAD.:    49.921 HEAT:  29.36669
 CYCLE:    20 TIME:   0.023 TIME LEFT:  2.00D  GRAD.:    68.393 HEAT:  28.99183
 CYCLE:    21 TIME:   0.012 TIME LEFT:  2.00D  GRAD.:    36.059 HEAT:  27.29938
 CYCLE:    22 TIME:   0.020 TIME LEFT:  2.00D  GRAD.:    47.554 HEAT:  27.12358
 CYCLE:    23 TIME:   0.008 TIME LEFT:  2.00D  GRAD.:    29.615 HEAT:  26.22619
 CYCLE:    24 TIME:   0.020 TIME LEFT:  2.00D  GRAD.:    40.772 HEAT:  26.20540
 CYCLE:    25 TIME:   0.012 TIME LEFT:  2.00D  GRAD.:    23.754 HEAT:  25.56851
 CYCLE:    26 TIME:   0.012 TIME LEFT:  2.00D  GRAD.:    36.810 HEAT:  25.39822
 CYCLE:    27 TIME:   0.012 TIME LEFT:  2.00D  GRAD.:    18.421 HEAT:  24.71150
 CYCLE:    28 TIME:   0.012 TIME LEFT:  2.00D  GRAD.:    39.172 HEAT:  24.41358
 CYCLE:    29 TIME:   0.012 TIME LEFT:  2.00D  GRAD.:    27.129 HEAT:  23.56962
 CYCLE:    30 TIME:   0.012 TIME LEFT:  2.00D  GRAD.:    39.314 HEAT:  23.32160
 CYCLE:    31 TIME:   0.008 TIME LEFT:  2.00D  GRAD.:    18.010 HEAT:  22.57963
 CYCLE:    32 TIME:   0.012 TIME LEFT:  2.00D  GRAD.:    28.794 HEAT:  22.27357
 CYCLE:    33 TIME:   0.012 TIME LEFT:  2.00D  GRAD.:    26.831 HEAT:  21.85607
 CYCLE:    34 TIME:   0.012 TIME LEFT:  2.00D  GRAD.:    29.528 HEAT:  21.64040
 CYCLE:    35 TIME:   0.012 TIME LEFT:  2.00D  GRAD.:    20.189 HEAT:  21.23940
 CYCLE:    36 TIME:   0.012 TIME LEFT:  2.00D  GRAD.:    24.644 HEAT:  21.05764
 CYCLE:    37 TIME:   0.012 TIME LEFT:  2.00D  GRAD.:    20.089 HEAT:  20.83309
 CYCLE:    38 TIME:   0.008 TIME LEFT:  2.00D  GRAD.:    16.904 HEAT:  20.62529
 CYCLE:    39 TIME:   0.012 TIME LEFT:  2.00D  GRAD.:    17.672 HEAT:  20.41702
 CYCLE:    40 TIME:   0.012 TIME LEFT:  2.00D  GRAD.:    15.738 HEAT:  20.11426
 CYCLE:    41 TIME:   0.012 TIME LEFT:  2.00D  GRAD.:    26.633 HEAT:  19.86933
 CYCLE:    42 TIME:   0.012 TIME LEFT:  2.00D  GRAD.:    19.426 HEAT:  19.52316
 CYCLE:    43 TIME:   0.012 TIME LEFT:  2.00D  GRAD.:    23.314 HEAT:  19.21504
 CYCLE:    44 TIME:   0.012 TIME LEFT:  2.00D  GRAD.:    22.090 HEAT:  18.82157
 CYCLE:    45 TIME:   0.012 TIME LEFT:  2.00D  GRAD.:    18.767 HEAT:  18.33512
 CYCLE:    46 TIME:   0.012 TIME LEFT:  2.00D  GRAD.:    18.262 HEAT:  18.05499
 CYCLE:    47 TIME:   0.012 TIME LEFT:  2.00D  GRAD.:    14.779 HEAT:  17.84978
 CYCLE:    48 TIME:   0.012 TIME LEFT:  2.00D  GRAD.:    19.358 HEAT:  17.77856
 CYCLE:    49 TIME:   0.012 TIME LEFT:  2.00D  GRAD.:    10.977 HEAT:  17.59310
 CYCLE:    50 TIME:   0.012 TIME LEFT:  2.00D  GRAD.:    10.755 HEAT:  17.51318
 CYCLE:    51 TIME:   0.012 TIME LEFT:  2.00D  GRAD.:     7.932 HEAT:  17.40757
 CYCLE:    52 TIME:   0.008 TIME LEFT:  2.00D  GRAD.:    10.565 HEAT:  17.29590
 CYCLE:    53 TIME:   0.012 TIME LEFT:  2.00D  GRAD.:     8.454 HEAT:  17.24678
 CYCLE:    54 TIME:   0.012 TIME LEFT:  2.00D  GRAD.:     5.975 HEAT:  17.19324
 CYCLE:    55 TIME:   0.012 TIME LEFT:  2.00D  GRAD.:     4.784 HEAT:  17.13050
 CYCLE:    56 TIME:   0.012 TIME LEFT:  2.00D  GRAD.:     5.489 HEAT:  17.08915
 CYCLE:    57 TIME:   0.012 TIME LEFT:  2.00D  GRAD.:     6.932 HEAT:  17.01826
 CYCLE:    58 TIME:   0.012 TIME LEFT:  2.00D  GRAD.:     6.501 HEAT:  16.95184
 CYCLE:    59 TIME:   0.008 TIME LEFT:  2.00D  GRAD.:     5.878 HEAT:  16.88965
 CYCLE:    60 TIME:   0.012 TIME LEFT:  2.00D  GRAD.:     5.268 HEAT:  16.83168
 CYCLE:    61 TIME:   0.012 TIME LEFT:  2.00D  GRAD.:     4.489 HEAT:  16.77847
 CYCLE:    62 TIME:   0.012 TIME LEFT:  2.00D  GRAD.:     3.978 HEAT:  16.74364
 CYCLE:    63 TIME:   0.012 TIME LEFT:  2.00D  GRAD.:     4.246 HEAT:  16.71736
 CYCLE:    64 TIME:   0.012 TIME LEFT:  2.00D  GRAD.:     3.971 HEAT:  16.69577
 CYCLE:    65 TIME:   0.012 TIME LEFT:  2.00D  GRAD.:     3.238 HEAT:  16.67423
 CYCLE:    66 TIME:   0.008 TIME LEFT:  2.00D  GRAD.:     2.688 HEAT:  16.65258
 CYCLE:    67 TIME:   0.012 TIME LEFT:  2.00D  GRAD.:     3.162 HEAT:  16.63547
 CYCLE:    68 TIME:   0.012 TIME LEFT:  2.00D  GRAD.:     3.486 HEAT:  16.61701
 CYCLE:    69 TIME:   0.012 TIME LEFT:  2.00D  GRAD.:     3.300 HEAT:  16.59762
 CYCLE:    70 TIME:   0.008 TIME LEFT:  2.00D  GRAD.:     3.185 HEAT:  16.57694
 CYCLE:    71 TIME:   0.012 TIME LEFT:  2.00D  GRAD.:     3.631 HEAT:  16.55374
 CYCLE:    72 TIME:   0.012 TIME LEFT:  2.00D  GRAD.:     4.379 HEAT:  16.52659
 CYCLE:    73 TIME:   0.012 TIME LEFT:  2.00D  GRAD.:     4.295 HEAT:  16.49601
 CYCLE:    74 TIME:   0.008 TIME LEFT:  2.00D  GRAD.:     3.348 HEAT:  16.46559
 CYCLE:    75 TIME:   0.012 TIME LEFT:  2.00D  GRAD.:     3.102 HEAT:  16.44077
 CYCLE:    76 TIME:   0.012 TIME LEFT:  2.00D  GRAD.:     3.497 HEAT:  16.42375
 CYCLE:    77 TIME:   0.012 TIME LEFT:  2.00D  GRAD.:     2.928 HEAT:  16.40677
 CYCLE:    78 TIME:   0.012 TIME LEFT:  2.00D  GRAD.:     2.950 HEAT:  16.39046
 CYCLE:    79 TIME:   0.012 TIME LEFT:  2.00D  GRAD.:     3.150 HEAT:  16.37188
 CYCLE:    80 TIME:   0.008 TIME LEFT:  2.00D  GRAD.:     3.373 HEAT:  16.35399
 CYCLE:    81 TIME:   0.012 TIME LEFT:  2.00D  GRAD.:     2.945 HEAT:  16.33757
 CYCLE:    82 TIME:   0.012 TIME LEFT:  2.00D  GRAD.:     2.244 HEAT:  16.32607
 CYCLE:    83 TIME:   0.012 TIME LEFT:  2.00D  GRAD.:     2.514 HEAT:  16.31632
 CYCLE:    84 TIME:   0.012 TIME LEFT:  2.00D  GRAD.:     2.217 HEAT:  16.30747
 CYCLE:    85 TIME:   0.008 TIME LEFT:  2.00D  GRAD.:     2.056 HEAT:  16.29648
 CYCLE:    86 TIME:   0.012 TIME LEFT:  2.00D  GRAD.:     1.831 HEAT:  16.28821
 CYCLE:    87 TIME:   0.012 TIME LEFT:  2.00D  GRAD.:     2.113 HEAT:  16.27847
 CYCLE:    88 TIME:   0.012 TIME LEFT:  2.00D  GRAD.:     2.283 HEAT:  16.26793
 CYCLE:    89 TIME:   0.012 TIME LEFT:  2.00D  GRAD.:     2.253 HEAT:  16.25679
 CYCLE:    90 TIME:   0.012 TIME LEFT:  2.00D  GRAD.:     2.060 HEAT:  16.24661
 CYCLE:    91 TIME:   0.016 TIME LEFT:  2.00D  GRAD.:     2.073 HEAT:  16.23565
 CYCLE:    92 TIME:   0.008 TIME LEFT:  2.00D  GRAD.:     2.216 HEAT:  16.22584
 CYCLE:    93 TIME:   0.012 TIME LEFT:  2.00D  GRAD.:     2.006 HEAT:  16.21703
 CYCLE:    94 TIME:   0.012 TIME LEFT:  2.00D  GRAD.:     1.652 HEAT:  16.20970
 CYCLE:    95 TIME:   0.016 TIME LEFT:  2.00D  GRAD.:     1.705 HEAT:  16.20349
 CYCLE:    96 TIME:   0.008 TIME LEFT:  2.00D  GRAD.:     2.115 HEAT:  16.19730
 CYCLE:    97 TIME:   0.012 TIME LEFT:  2.00D  GRAD.:     2.355 HEAT:  16.19067
 CYCLE:    98 TIME:   0.016 TIME LEFT:  2.00D  GRAD.:     2.425 HEAT:  16.18229
 CYCLE:    99 TIME:   0.008 TIME LEFT:  2.00D  GRAD.:     2.312 HEAT:  16.17124
 CYCLE:   100 TIME:   0.012 TIME LEFT:  2.00D  GRAD.:     2.529 HEAT:  16.15813
 CYCLE:   101 TIME:   0.012 TIME LEFT:  2.00D  GRAD.:     2.748 HEAT:  16.14489
 CYCLE:   102 TIME:   0.012 TIME LEFT:  2.00D  GRAD.:     2.735 HEAT:  16.13230
 CYCLE:   103 TIME:   0.012 TIME LEFT:  2.00D  GRAD.:     2.402 HEAT:  16.12129
 CYCLE:   104 TIME:   0.008 TIME LEFT:  2.00D  GRAD.:     2.452 HEAT:  16.10982
 CYCLE:   105 TIME:   0.012 TIME LEFT:  2.00D  GRAD.:     2.960 HEAT:  16.09601
 CYCLE:   106 TIME:   0.012 TIME LEFT:  2.00D  GRAD.:     3.603 HEAT:  16.07919
 CYCLE:   107 TIME:   0.012 TIME LEFT:  2.00D  GRAD.:     3.855 HEAT:  16.05797
 CYCLE:   108 TIME:   0.008 TIME LEFT:  2.00D  GRAD.:     4.292 HEAT:  16.03088
 CYCLE:   109 TIME:   0.012 TIME LEFT:  2.00D  GRAD.:     3.534 HEAT:  16.00015
 CYCLE:   110 TIME:   0.012 TIME LEFT:  2.00D  GRAD.:     3.036 HEAT:  15.98092
 CYCLE:   111 TIME:   0.012 TIME LEFT:  2.00D  GRAD.:     2.634 HEAT:  15.96664
 CYCLE:   112 TIME:   0.008 TIME LEFT:  2.00D  GRAD.:     1.921 HEAT:  15.95720
 CYCLE:   113 TIME:   0.012 TIME LEFT:  2.00D  GRAD.:     2.090 HEAT:  15.95098
 CYCLE:   114 TIME:   0.012 TIME LEFT:  2.00D  GRAD.:     2.134 HEAT:  15.94598
 CYCLE:   115 TIME:   0.012 TIME LEFT:  2.00D  GRAD.:     1.424 HEAT:  15.94114
 CYCLE:   116 TIME:   0.012 TIME LEFT:  2.00D  GRAD.:     1.531 HEAT:  15.93588
 CYCLE:   117 TIME:   0.012 TIME LEFT:  2.00D  GRAD.:     1.610 HEAT:  15.93165
 CYCLE:   118 TIME:   0.012 TIME LEFT:  2.00D  GRAD.:     1.826 HEAT:  15.92422
 CYCLE:   119 TIME:   0.012 TIME LEFT:  2.00D  GRAD.:     1.340 HEAT:  15.92057
 CYCLE:   120 TIME:   0.012 TIME LEFT:  2.00D  GRAD.:     1.193 HEAT:  15.91545
 CYCLE:   121 TIME:   0.012 TIME LEFT:  2.00D  GRAD.:     1.168 HEAT:  15.91326
 CYCLE:   122 TIME:   0.008 TIME LEFT:  2.00D  GRAD.:     1.287 HEAT:  15.90887
 CYCLE:   123 TIME:   0.012 TIME LEFT:  2.00D  GRAD.:     1.444 HEAT:  15.90402
 CYCLE:   124 TIME:   0.012 TIME LEFT:  2.00D  GRAD.:     1.793 HEAT:  15.89663
 CYCLE:   125 TIME:   0.012 TIME LEFT:  2.00D  GRAD.:     2.147 HEAT:  15.88653
 CYCLE:   126 TIME:   0.012 TIME LEFT:  2.00D  GRAD.:     2.753 HEAT:  15.87135
 CYCLE:   127 TIME:   0.012 TIME LEFT:  2.00D  GRAD.:     2.850 HEAT:  15.85287
 CYCLE:   128 TIME:   0.012 TIME LEFT:  2.00D  GRAD.:     4.970 HEAT:  15.84282
 CYCLE:   129 TIME:   0.012 TIME LEFT:  2.00D  GRAD.:     4.915 HEAT:  15.82730
 CYCLE:   130 TIME:   0.012 TIME LEFT:  2.00D  GRAD.:     2.804 HEAT:  15.80718
 CYCLE:   131 TIME:   0.012 TIME LEFT:  2.00D  GRAD.:     2.148 HEAT:  15.79087
 CYCLE:   132 TIME:   0.012 TIME LEFT:  2.00D  GRAD.:     5.431 HEAT:  15.76070
 CYCLE:   133 TIME:   0.016 TIME LEFT:  2.00D  GRAD.:     2.495 HEAT:  15.74748
 CYCLE:   134 TIME:   0.008 TIME LEFT:  2.00D  GRAD.:     1.728 HEAT:  15.73503
 CYCLE:   135 TIME:   0.012 TIME LEFT:  2.00D  GRAD.:     2.334 HEAT:  15.72217
 CYCLE:   136 TIME:   0.012 TIME LEFT:  2.00D  GRAD.:     1.834 HEAT:  15.71826
 CYCLE:   137 TIME:   0.012 TIME LEFT:  2.00D  GRAD.:     1.543 HEAT:  15.71248
 CYCLE:   138 TIME:   0.008 TIME LEFT:  2.00D  GRAD.:     1.799 HEAT:  15.70946
 CYCLE:   139 TIME:   0.012 TIME LEFT:  2.00D  GRAD.:     1.674 HEAT:  15.70622
 CYCLE:   140 TIME:   0.012 TIME LEFT:  2.00D  GRAD.:     2.058 HEAT:  15.70178
 CYCLE:   141 TIME:   0.012 TIME LEFT:  2.00D  GRAD.:     2.007 HEAT:  15.69220
 CYCLE:   142 TIME:   0.012 TIME LEFT:  2.00D  GRAD.:     2.088 HEAT:  15.68176
 CYCLE:   143 TIME:   0.012 TIME LEFT:  2.00D  GRAD.:     2.679 HEAT:  15.66866
 CYCLE:   144 TIME:   0.008 TIME LEFT:  2.00D  GRAD.:     2.892 HEAT:  15.65102
 CYCLE:   145 TIME:   0.020 TIME LEFT:  2.00D  GRAD.:     3.064 HEAT:  15.63663
 CYCLE:   146 TIME:   0.012 TIME LEFT:  2.00D  GRAD.:     6.292 HEAT:  15.63494
 CYCLE:   147 TIME:   0.012 TIME LEFT:  2.00D  GRAD.:     3.301 HEAT:  15.61201
 CYCLE:   148 TIME:   0.012 TIME LEFT:  2.00D  GRAD.:     3.013 HEAT:  15.60367
 CYCLE:   149 TIME:   0.012 TIME LEFT:  2.00D  GRAD.:     2.257 HEAT:  15.59287
 CYCLE:   150 TIME:   0.012 TIME LEFT:  2.00D  GRAD.:     2.892 HEAT:  15.56785
 CYCLE:   151 TIME:   0.012 TIME LEFT:  2.00D  GRAD.:     2.750 HEAT:  15.55616
 CYCLE:   152 TIME:   0.020 TIME LEFT:  2.00D  GRAD.:     3.677 HEAT:  15.53779
 CYCLE:   153 TIME:   0.012 TIME LEFT:  2.00D  GRAD.:     2.819 HEAT:  15.52432
 CYCLE:   154 TIME:   0.012 TIME LEFT:  2.00D  GRAD.:     2.537 HEAT:  15.51648
 CYCLE:   155 TIME:   0.008 TIME LEFT:  2.00D  GRAD.:     1.474 HEAT:  15.51066
 CYCLE:   156 TIME:   0.016 TIME LEFT:  2.00D  GRAD.:     1.336 HEAT:  15.50460
 CYCLE:   157 TIME:   0.012 TIME LEFT:  2.00D  GRAD.:     1.352 HEAT:  15.50132
 CYCLE:   158 TIME:   0.008 TIME LEFT:  2.00D  GRAD.:     1.018 HEAT:  15.49912
 CYCLE:   159 TIME:   0.012 TIME LEFT:  2.00D  GRAD.:     1.377 HEAT:  15.49784
 CYCLE:   160 TIME:   0.012 TIME LEFT:  2.00D  GRAD.:     1.160 HEAT:  15.49639
 CYCLE:   161 TIME:   0.012 TIME LEFT:  2.00D  GRAD.:     0.882 HEAT:  15.49504
 CYCLE:   162 TIME:   0.012 TIME LEFT:  2.00D  GRAD.:     0.708 HEAT:  15.49309
 CYCLE:   163 TIME:   0.012 TIME LEFT:  2.00D  GRAD.:     0.895 HEAT:  15.49123
 CYCLE:   164 TIME:   0.012 TIME LEFT:  2.00D  GRAD.:     1.066 HEAT:  15.48869
 CYCLE:   165 TIME:   0.012 TIME LEFT:  2.00D  GRAD.:     1.281 HEAT:  15.48564
 CYCLE:   166 TIME:   0.012 TIME LEFT:  2.00D  GRAD.:     1.376 HEAT:  15.48173
 CYCLE:   167 TIME:   0.016 TIME LEFT:  2.00D  GRAD.:     1.586 HEAT:  15.47732
 CYCLE:   168 TIME:   0.008 TIME LEFT:  2.00D  GRAD.:     1.506 HEAT:  15.47262
 CYCLE:   169 TIME:   0.012 TIME LEFT:  2.00D  GRAD.:     1.652 HEAT:  15.46770
 CYCLE:   170 TIME:   0.012 TIME LEFT:  2.00D  GRAD.:     1.973 HEAT:  15.46151
 CYCLE:   171 TIME:   0.012 TIME LEFT:  2.00D  GRAD.:     2.597 HEAT:  15.45050
 CYCLE:   172 TIME:   0.012 TIME LEFT:  2.00D  GRAD.:     3.374 HEAT:  15.43505
 CYCLE:   173 TIME:   0.016 TIME LEFT:  2.00D  GRAD.:     5.999 HEAT:  15.42371
 CYCLE:   174 TIME:   0.008 TIME LEFT:  2.00D  GRAD.:     3.687 HEAT:  15.39395
 CYCLE:   175 TIME:   0.012 TIME LEFT:  2.00D  GRAD.:     2.782 HEAT:  15.37398
 CYCLE:   176 TIME:   0.016 TIME LEFT:  2.00D  GRAD.:     4.882 HEAT:  15.34676
 CYCLE:   177 TIME:   0.008 TIME LEFT:  2.00D  GRAD.:     3.231 HEAT:  15.33347
 CYCLE:   178 TIME:   0.016 TIME LEFT:  2.00D  GRAD.:     2.928 HEAT:  15.31419
 CYCLE:   179 TIME:   0.012 TIME LEFT:  2.00D  GRAD.:     3.286 HEAT:  15.28515
 CYCLE:   180 TIME:   0.008 TIME LEFT:  2.00D  GRAD.:     2.808 HEAT:  15.26845
 CYCLE:   181 TIME:   0.012 TIME LEFT:  2.00D  GRAD.:     5.706 HEAT:  15.26167
 CYCLE:   182 TIME:   0.012 TIME LEFT:  2.00D  GRAD.:     3.465 HEAT:  15.23907
 CYCLE:   183 TIME:   0.012 TIME LEFT:  2.00D  GRAD.:     2.528 HEAT:  15.22207
 CYCLE:   184 TIME:   0.012 TIME LEFT:  2.00D  GRAD.:     3.324 HEAT:  15.19979
 CYCLE:   185 TIME:   0.012 TIME LEFT:  2.00D  GRAD.:     2.709 HEAT:  15.18689
 CYCLE:   186 TIME:   0.012 TIME LEFT:  2.00D  GRAD.:     3.037 HEAT:  15.17098
 CYCLE:   187 TIME:   0.012 TIME LEFT:  2.00D  GRAD.:     4.571 HEAT:  15.15956
 CYCLE:   188 TIME:   0.020 TIME LEFT:  2.00D  GRAD.:     4.556 HEAT:  15.14933
 CYCLE:   189 TIME:   0.008 TIME LEFT:  2.00D  GRAD.:     3.950 HEAT:  15.14158
 CYCLE:   190 TIME:   0.012 TIME LEFT:  2.00D  GRAD.:     2.011 HEAT:  15.12915
 CYCLE:   191 TIME:   0.012 TIME LEFT:  2.00D  GRAD.:     2.283 HEAT:  15.12077
 CYCLE:   192 TIME:   0.016 TIME LEFT:  2.00D  GRAD.:     1.466 HEAT:  15.11116
 CYCLE:   193 TIME:   0.012 TIME LEFT:  2.00D  GRAD.:     1.519 HEAT:  15.10222
 CYCLE:   194 TIME:   0.012 TIME LEFT:  2.00D  GRAD.:     1.959 HEAT:  15.09421
 CYCLE:   195 TIME:   0.016 TIME LEFT:  2.00D  GRAD.:     2.415 HEAT:  15.08534
 CYCLE:   196 TIME:   0.012 TIME LEFT:  2.00D  GRAD.:     1.515 HEAT:  15.07571
 CYCLE:   197 TIME:   0.012 TIME LEFT:  2.00D  GRAD.:     1.745 HEAT:  15.06745
 CYCLE:   198 TIME:   0.012 TIME LEFT:  2.00D  GRAD.:     1.508 HEAT:  15.06012
 CYCLE:   199 TIME:   0.012 TIME LEFT:  2.00D  GRAD.:     1.485 HEAT:  15.05298
 CYCLE:   200 TIME:   0.016 TIME LEFT:  2.00D  GRAD.:     1.470 HEAT:  15.04604
 CYCLE:   201 TIME:   0.012 TIME LEFT:  2.00D  GRAD.:     4.196 HEAT:  15.04555
 CYCLE:   202 TIME:   0.012 TIME LEFT:  2.00D  GRAD.:     2.355 HEAT:  15.03195
 CYCLE:   203 TIME:   0.012 TIME LEFT:  2.00D  GRAD.:     2.992 HEAT:  15.02672
 CYCLE:   204 TIME:   0.012 TIME LEFT:  2.00D  GRAD.:     2.715 HEAT:  15.01926
 CYCLE:   205 TIME:   0.012 TIME LEFT:  2.00D  GRAD.:     3.483 HEAT:  15.00889
 CYCLE:   206 TIME:   0.012 TIME LEFT:  2.00D  GRAD.:     3.467 HEAT:  14.99663
 CYCLE:   207 TIME:   0.016 TIME LEFT:  2.00D  GRAD.:     5.115 HEAT:  14.98588
 CYCLE:   208 TIME:   0.012 TIME LEFT:  2.00D  GRAD.:     4.559 HEAT:  14.97135
 CYCLE:   209 TIME:   0.012 TIME LEFT:  2.00D  GRAD.:     6.817 HEAT:  14.96487
 CYCLE:   210 TIME:   0.008 TIME LEFT:  2.00D  GRAD.:     3.574 HEAT:  14.94016
 CYCLE:   211 TIME:   0.012 TIME LEFT:  2.00D  GRAD.:     3.965 HEAT:  14.93275
 CYCLE:   212 TIME:   0.012 TIME LEFT:  2.00D  GRAD.:     3.655 HEAT:  14.92304
 CYCLE:   213 TIME:   0.012 TIME LEFT:  2.00D  GRAD.:     3.518 HEAT:  14.91604
 CYCLE:   214 TIME:   0.012 TIME LEFT:  2.00D  GRAD.:     2.163 HEAT:  14.90894
 CYCLE:   215 TIME:   0.008 TIME LEFT:  2.00D  GRAD.:     1.819 HEAT:  14.90452
 CYCLE:   216 TIME:   0.012 TIME LEFT:  2.00D  GRAD.:     1.785 HEAT:  14.90086
 CYCLE:   217 TIME:   0.012 TIME LEFT:  2.00D  GRAD.:     1.496 HEAT:  14.89822
 CYCLE:   218 TIME:   0.012 TIME LEFT:  2.00D  GRAD.:     1.913 HEAT:  14.89741
 CYCLE:   219 TIME:   0.012 TIME LEFT:  2.00D  GRAD.:     1.407 HEAT:  14.89554
 CYCLE:   220 TIME:   0.020 TIME LEFT:  2.00D  GRAD.:     0.914 HEAT:  14.89470
 CYCLE:   221 TIME:   0.008 TIME LEFT:  2.00D  GRAD.:     0.699 HEAT:  14.89406
 CYCLE:   222 TIME:   0.016 TIME LEFT:  2.00D  GRAD.:     0.857 HEAT:  14.89384
 CYCLE:   223 TIME:   0.012 TIME LEFT:  2.00D  GRAD.:     0.539 HEAT:  14.89344
 CYCLE:   224 TIME:   0.008 TIME LEFT:  2.00D  GRAD.:     0.522 HEAT:  14.89308
 CYCLE:   225 TIME:   0.012 TIME LEFT:  2.00D  GRAD.:     0.751 HEAT:  14.89261
 CYCLE:   226 TIME:   0.012 TIME LEFT:  2.00D  GRAD.:     0.791 HEAT:  14.89181
 CYCLE:   227 TIME:   0.012 TIME LEFT:  2.00D  GRAD.:     1.087 HEAT:  14.89080
 CYCLE:   228 TIME:   0.012 TIME LEFT:  2.00D  GRAD.:     0.894 HEAT:  14.88975
 CYCLE:   229 TIME:   0.012 TIME LEFT:  2.00D  GRAD.:     1.105 HEAT:  14.88837
 CYCLE:   230 TIME:   0.012 TIME LEFT:  2.00D  GRAD.:     1.016 HEAT:  14.88721
 CYCLE:   231 TIME:   0.012 TIME LEFT:  2.00D  GRAD.:     0.732 HEAT:  14.88654
 CYCLE:   232 TIME:   0.012 TIME LEFT:  2.00D  GRAD.:     0.706 HEAT:  14.88614
 CYCLE:   233 TIME:   0.012 TIME LEFT:  2.00D  GRAD.:     0.639 HEAT:  14.88567
 CYCLE:   234 TIME:   0.012 TIME LEFT:  2.00D  GRAD.:     0.579 HEAT:  14.88499
 CYCLE:   235 TIME:   0.008 TIME LEFT:  2.00D  GRAD.:     0.731 HEAT:  14.88406
 CYCLE:   236 TIME:   0.012 TIME LEFT:  2.00D  GRAD.:     0.988 HEAT:  14.88293
 CYCLE:   237 TIME:   0.016 TIME LEFT:  2.00D  GRAD.:     1.265 HEAT:  14.88105
 CYCLE:   238 TIME:   0.012 TIME LEFT:  2.00D  GRAD.:     1.350 HEAT:  14.87884
 CYCLE:   239 TIME:   0.012 TIME LEFT:  2.00D  GRAD.:     1.414 HEAT:  14.87656
 CYCLE:   240 TIME:   0.012 TIME LEFT:  2.00D  GRAD.:     1.569 HEAT:  14.87367
 CYCLE:   241 TIME:   0.012 TIME LEFT:  2.00D  GRAD.:     1.717 HEAT:  14.86978
 CYCLE:   242 TIME:   0.012 TIME LEFT:  2.00D  GRAD.:     1.916 HEAT:  14.86478
 CYCLE:   243 TIME:   0.012 TIME LEFT:  2.00D  GRAD.:     2.169 HEAT:  14.85927
 CYCLE:   244 TIME:   0.012 TIME LEFT:  2.00D  GRAD.:     2.049 HEAT:  14.85360
 CYCLE:   245 TIME:   0.012 TIME LEFT:  2.00D  GRAD.:     1.873 HEAT:  14.84954
 CYCLE:   246 TIME:   0.012 TIME LEFT:  2.00D  GRAD.:     1.336 HEAT:  14.84539
 CYCLE:   247 TIME:   0.012 TIME LEFT:  2.00D  GRAD.:     1.701 HEAT:  14.84233
 CYCLE:   248 TIME:   0.012 TIME LEFT:  2.00D  GRAD.:     1.207 HEAT:  14.83984
 CYCLE:   249 TIME:   0.012 TIME LEFT:  2.00D  GRAD.:     1.136 HEAT:  14.83752
 CYCLE:   250 TIME:   0.012 TIME LEFT:  2.00D  GRAD.:     1.196 HEAT:  14.83543
 CYCLE:   251 TIME:   0.012 TIME LEFT:  2.00D  GRAD.:     1.225 HEAT:  14.83289
 CYCLE:   252 TIME:   0.012 TIME LEFT:  2.00D  GRAD.:     1.076 HEAT:  14.83127
 CYCLE:   253 TIME:   0.012 TIME LEFT:  2.00D  GRAD.:     1.553 HEAT:  14.82986
 CYCLE:   254 TIME:   0.012 TIME LEFT:  2.00D  GRAD.:     1.422 HEAT:  14.82817
 CYCLE:   255 TIME:   0.012 TIME LEFT:  2.00D  GRAD.:     0.900 HEAT:  14.82638
 CYCLE:   256 TIME:   0.012 TIME LEFT:  2.00D  GRAD.:     0.754 HEAT:  14.82412
 CYCLE:   257 TIME:   0.012 TIME LEFT:  2.00D  GRAD.:     0.888 HEAT:  14.82188
 CYCLE:   258 TIME:   0.012 TIME LEFT:  2.00D  GRAD.:     0.832 HEAT:  14.82064
 CYCLE:   259 TIME:   0.012 TIME LEFT:  2.00D  GRAD.:     0.859 HEAT:  14.81926
 CYCLE:   260 TIME:   0.012 TIME LEFT:  2.00D  GRAD.:     1.067 HEAT:  14.81799
 CYCLE:   261 TIME:   0.012 TIME LEFT:  2.00D  GRAD.:     1.299 HEAT:  14.81631
 CYCLE:   262 TIME:   0.012 TIME LEFT:  2.00D  GRAD.:     1.335 HEAT:  14.81421
 CYCLE:   263 TIME:   0.012 TIME LEFT:  2.00D  GRAD.:     1.343 HEAT:  14.80967
 CYCLE:   264 TIME:   0.012 TIME LEFT:  2.00D  GRAD.:     1.723 HEAT:  14.80405
 CYCLE:   265 TIME:   0.012 TIME LEFT:  2.00D  GRAD.:     2.070 HEAT:  14.79773
 CYCLE:   266 TIME:   0.012 TIME LEFT:  2.00D  GRAD.:     1.910 HEAT:  14.78943
 CYCLE:   267 TIME:   0.012 TIME LEFT:  2.00D  GRAD.:     2.557 HEAT:  14.78434
 CYCLE:   268 TIME:   0.020 TIME LEFT:  2.00D  GRAD.:     3.100 HEAT:  14.78024
 CYCLE:   269 TIME:   0.012 TIME LEFT:  2.00D  GRAD.:     2.243 HEAT:  14.77513
 CYCLE:   270 TIME:   0.012 TIME LEFT:  2.00D  GRAD.:     1.947 HEAT:  14.77189
 CYCLE:   271 TIME:   0.012 TIME LEFT:  2.00D  GRAD.:     2.093 HEAT:  14.76677
 CYCLE:   272 TIME:   0.016 TIME LEFT:  2.00D  GRAD.:     2.667 HEAT:  14.76283
 CYCLE:   273 TIME:   0.012 TIME LEFT:  2.00D  GRAD.:     1.627 HEAT:  14.75711
 CYCLE:   274 TIME:   0.012 TIME LEFT:  2.00D  GRAD.:     1.700 HEAT:  14.75011
 CYCLE:   275 TIME:   0.008 TIME LEFT:  2.00D  GRAD.:     1.492 HEAT:  14.74583
 CYCLE:   276 TIME:   0.012 TIME LEFT:  2.00D  GRAD.:     1.329 HEAT:  14.74315
 CYCLE:   277 TIME:   0.012 TIME LEFT:  2.00D  GRAD.:     1.458 HEAT:  14.74050
 CYCLE:   278 TIME:   0.012 TIME LEFT:  2.00D  GRAD.:     1.701 HEAT:  14.73817
 CYCLE:   279 TIME:   0.012 TIME LEFT:  2.00D  GRAD.:     2.391 HEAT:  14.73676
 CYCLE:   280 TIME:   0.012 TIME LEFT:  2.00D  GRAD.:     2.164 HEAT:  14.73290
 CYCLE:   281 TIME:   0.012 TIME LEFT:  2.00D  GRAD.:     1.797 HEAT:  14.72975
 CYCLE:   282 TIME:   0.012 TIME LEFT:  2.00D  GRAD.:     2.412 HEAT:  14.72368
 CYCLE:   283 TIME:   0.012 TIME LEFT:  2.00D  GRAD.:     3.108 HEAT:  14.71606
 CYCLE:   284 TIME:   0.008 TIME LEFT:  2.00D  GRAD.:     3.870 HEAT:  14.70943
 CYCLE:   285 TIME:   0.012 TIME LEFT:  2.00D  GRAD.:     2.230 HEAT:  14.69994
 CYCLE:   286 TIME:   0.012 TIME LEFT:  2.00D  GRAD.:     2.377 HEAT:  14.69060
 CYCLE:   287 TIME:   0.012 TIME LEFT:  2.00D  GRAD.:     3.384 HEAT:  14.68311
 CYCLE:   288 TIME:   0.012 TIME LEFT:  2.00D  GRAD.:     2.821 HEAT:  14.67245
 CYCLE:   289 TIME:   0.012 TIME LEFT:  2.00D  GRAD.:     2.650 HEAT:  14.66297
 CYCLE:   290 TIME:   0.012 TIME LEFT:  2.00D  GRAD.:     1.957 HEAT:  14.65715
 CYCLE:   291 TIME:   0.012 TIME LEFT:  2.00D  GRAD.:     1.970 HEAT:  14.65132
 CYCLE:   292 TIME:   0.012 TIME LEFT:  2.00D  GRAD.:     2.125 HEAT:  14.64776
 CYCLE:   293 TIME:   0.012 TIME LEFT:  2.00D  GRAD.:     1.820 HEAT:  14.64384
 CYCLE:   294 TIME:   0.012 TIME LEFT:  2.00D  GRAD.:     1.064 HEAT:  14.64111
 CYCLE:   295 TIME:   0.012 TIME LEFT:  2.00D  GRAD.:     1.243 HEAT:  14.63867
 CYCLE:   296 TIME:   0.012 TIME LEFT:  2.00D  GRAD.:     0.993 HEAT:  14.63592
 CYCLE:   297 TIME:   0.012 TIME LEFT:  2.00D  GRAD.:     1.412 HEAT:  14.63520
 CYCLE:   298 TIME:   0.012 TIME LEFT:  2.00D  GRAD.:     0.644 HEAT:  14.63377
 CYCLE:   299 TIME:   0.012 TIME LEFT:  2.00D  GRAD.:     0.613 HEAT:  14.63332
 CYCLE:   300 TIME:   0.012 TIME LEFT:  2.00D  GRAD.:     0.612 HEAT:  14.63285
 CYCLE:   301 TIME:   0.012 TIME LEFT:  2.00D  GRAD.:     0.639 HEAT:  14.63255
 CYCLE:   302 TIME:   0.012 TIME LEFT:  2.00D  GRAD.:     0.504 HEAT:  14.63227
 CYCLE:   303 TIME:   0.012 TIME LEFT:  2.00D  GRAD.:     0.312 HEAT:  14.63205
 CYCLE:   304 TIME:   0.012 TIME LEFT:  2.00D  GRAD.:     0.219 HEAT:  14.63197
 CYCLE:   305 TIME:   0.008 TIME LEFT:  2.00D  GRAD.:     0.168 HEAT:  14.63190
 CYCLE:   306 TIME:   0.012 TIME LEFT:  2.00D  GRAD.:     0.132 HEAT:  14.63187
 CYCLE:   307 TIME:   0.012 TIME LEFT:  2.00D  GRAD.:     0.189 HEAT:  14.63187
 CYCLE:   308 TIME:   0.012 TIME LEFT:  2.00D  GRAD.:     0.137 HEAT:  14.63185
 CYCLE:   309 TIME:   0.008 TIME LEFT:  2.00D  GRAD.:     0.103 HEAT:  14.63184
 CYCLE:   310 TIME:   0.012 TIME LEFT:  2.00D  GRAD.:     0.096 HEAT:  14.63183
 CYCLE:   311 TIME:   0.012 TIME LEFT:  2.00D  GRAD.:     0.116 HEAT:  14.63182
 CYCLE:   312 TIME:   0.012 TIME LEFT:  2.00D  GRAD.:     0.100 HEAT:  14.63183
 CYCLE:   313 TIME:   0.008 TIME LEFT:  2.00D  GRAD.:     0.123 HEAT:  14.63181
 CYCLE:   314 TIME:   0.012 TIME LEFT:  2.00D  GRAD.:     1.308 HEAT:  14.63383
 CYCLE:   315 TIME:   0.016 TIME LEFT:  2.00D  GRAD.:     0.157 HEAT:  14.63180
 CYCLE:   316 TIME:   0.008 TIME LEFT:  2.00D  GRAD.:     0.080 HEAT:  14.63179
 CYCLE:   317 TIME:   0.012 TIME LEFT:  2.00D  GRAD.:     0.196 HEAT:  14.63192
 CYCLE:   318 TIME:   0.012 TIME LEFT:  2.00D  GRAD.:     0.068 HEAT:  14.63180
 CYCLE:   319 TIME:   0.012 TIME LEFT:  2.00D  GRAD.:     0.053 HEAT:  14.63180
 CYCLE:   320 TIME:   0.012 TIME LEFT:  2.00D  GRAD.:     0.053 HEAT:  14.63179
 CYCLE:   321 TIME:   0.008 TIME LEFT:  2.00D  GRAD.:     0.089 HEAT:  14.63178
 CYCLE:   322 TIME:   0.012 TIME LEFT:  2.00D  GRAD.:     0.102 HEAT:  14.63177
 CYCLE:   323 TIME:   0.012 TIME LEFT:  2.00D  GRAD.:     0.095 HEAT:  14.63176
 CYCLE:   324 TIME:   0.012 TIME LEFT:  2.00D  GRAD.:     0.095 HEAT:  14.63176
 CYCLE:   325 TIME:   0.008 TIME LEFT:  2.00D  GRAD.:     0.082 HEAT:  14.63176
 CYCLE:   326 TIME:   0.012 TIME LEFT:  2.00D  GRAD.:     0.085 HEAT:  14.63176
 CYCLE:   327 TIME:   0.012 TIME LEFT:  2.00D  GRAD.:     0.076 HEAT:  14.63175
 CYCLE:   328 TIME:   0.008 TIME LEFT:  2.00D  GRAD.:     0.078 HEAT:  14.63174
 CYCLE:   329 TIME:   0.012 TIME LEFT:  2.00D  GRAD.:     0.092 HEAT:  14.63172
 CYCLE:   330 TIME:   0.008 TIME LEFT:  2.00D  GRAD.:     0.084 HEAT:  14.63170
 CYCLE:   331 TIME:   0.012 TIME LEFT:  2.00D  GRAD.:     0.177 HEAT:  14.63166
 CYCLE:   332 TIME:   0.012 TIME LEFT:  2.00D  GRAD.:     0.328 HEAT:  14.63162
 CYCLE:   333 TIME:   0.012 TIME LEFT:  2.00D  GRAD.:     0.275 HEAT:  14.63155
 CYCLE:   334 TIME:   0.012 TIME LEFT:  2.00D  GRAD.:     0.733 HEAT:  14.63220
 CYCLE:   335 TIME:   0.012 TIME LEFT:  2.00D  GRAD.:     0.213 HEAT:  14.63138
 CYCLE:   336 TIME:   0.012 TIME LEFT:  2.00D  GRAD.:     0.206 HEAT:  14.63135
 CYCLE:   337 TIME:   0.012 TIME LEFT:  2.00D  GRAD.:     0.160 HEAT:  14.63130
 CYCLE:   338 TIME:   0.012 TIME LEFT:  2.00D  GRAD.:     0.132 HEAT:  14.63127
 CYCLE:   339 TIME:   0.012 TIME LEFT:  2.00D  GRAD.:     0.102 HEAT:  14.63124
 CYCLE:   340 TIME:   0.012 TIME LEFT:  2.00D  GRAD.:     0.233 HEAT:  14.63129
 CYCLE:   341 TIME:   0.012 TIME LEFT:  2.00D  GRAD.:     0.049 HEAT:  14.63119

     GRADIENT =  0.04862 IS LESS THAN CUTOFF =  0.05000



 -------------------------------------------------------------------------------
 pm3  precise nosym THREADS=1
 InChI=1S/C12H20/c1-3-5-6-7-8-12-9-11(4-2)10-12/h5,7,11-12H,3-4,8-10H2,1-2H3



     GEOMETRY OPTIMISED USING EIGENVECTOR FOLLOWING (EF).     
     SCF FIELD WAS ACHIEVED                                   


                              PM3 CALCULATION
                                                       MOPAC v23.1.2 MacOS
                                                       Tue Jun  3 16:39:35 2025




          FINAL HEAT OF FORMATION =         14.63119 KCAL/MOL =      61.21691 KJ/MOL


          COSMO AREA              =        246.27 SQUARE ANGSTROMS
          COSMO VOLUME            =        250.72 CUBIC ANGSTROMS

          GRADIENT NORM           =          0.04862          =       0.00859 PER ATOM
          IONIZATION POTENTIAL    =          9.784135 EV
          HOMO LUMO ENERGIES (EV) =         -9.784  1.102
          NO. OF FILLED LEVELS    =         34
          MOLECULAR WEIGHT        =        164.2900         POINT GROUP:  C1  

          MOLECULAR DIMENSIONS (Angstroms)

            Atom       Atom       Distance
            H    30    H    25    10.54409
            H    32    H    26     5.72377
            H    31    H    17     4.76347


          SCF CALCULATIONS        =        352

          WALL-CLOCK TIME         =      4.012 SECONDS
          COMPUTATION TIME        =      3.026 SECONDS




   ATOM   CHEMICAL          X               Y               Z
  NUMBER   SYMBOL      (ANGSTROMS)     (ANGSTROMS)     (ANGSTROMS)

     1       C         -2.55392607  *  -1.02589143  *  -1.30258751  *
     2       C         -0.83564911  *  -1.87444014  *  -0.23119803  *
     3       C         -1.47217595  *  -2.08423383  *  -1.62657802  *
     4       C         -1.90977066  *  -0.80680316  *   0.08801331  *
     5       C         -2.54255967  *   0.17901296  *  -2.22015148  *
     6       C          0.59195424  *  -1.36677096  *  -0.27196227  *
     7       C          3.93565709  *   1.06324867  *   1.70488979  *
     8       C         -3.58396299  *   1.20037386  *  -1.82180719  *
     9       C          4.30561167  *   2.40153603  *   1.10274049  *
    10       C          2.45840632  *   0.92580895  *   1.84607906  *
    11       C          1.15420917  *  -1.20056121  *   1.09808172  *
    12       C          1.80777599  *  -0.13651507  *   1.46737525  *
    13       H         -3.57889610  *  -1.44915846  *  -1.24642577  *
    14       H         -0.90429181  *  -2.77071391  *   0.42074118  *
    15       H         -2.71791960  *  -0.15803324  *  -3.26099002  *
    16       H         -1.53534512  *   0.64369670  *  -2.22193256  *
    17       H         -0.81735150  *  -1.82873966  *  -2.47506307  *
    18       H         -1.85968886  *  -3.09749227  *  -1.80666667  *
    19       H         -2.56096919  *  -1.05221918  *   0.93953130  *
    20       H         -1.51680485  *   0.20832728  *   0.25931003  *
    21       H          4.35473240  *   0.24085879  *   1.09297064  *
    22       H          4.39172106  *   0.95457044  *   2.70949169  *
    23       H          1.22446450  *  -2.09188830  *  -0.82336831  *
    24       H          0.64551118  *  -0.41913115  *  -0.84542504  *
    25       H         -4.59839951  *   0.78131467  *  -1.85641394  *
    26       H         -3.56465915  *   2.07033897  *  -2.49035925  *
    27       H         -3.41664263  *   1.56621598  *  -0.79962745  *
    28       H          3.92957566  *   3.23752446  *   1.70743216  *
    29       H          3.89202854  *   2.51820058  *   0.09271956  *
    30       H          5.39464937  *   2.51402738  *   1.02709103  *
    31       H          1.91715506  *   1.76702100  *   2.29741190  *
    32       H          1.00580645  *  -2.02435882  *   1.80791258  *

                             CARTESIAN COORDINATES

   1    C       -2.553926066    -1.025891432    -1.302587510
   2    C       -0.835649114    -1.874440140    -0.231198027
   3    C       -1.472175946    -2.084233830    -1.626578017
   4    C       -1.909770659    -0.806803165     0.088013306
   5    C       -2.542559674     0.179012958    -2.220151482
   6    C        0.591954242    -1.366770962    -0.271962266
   7    C        3.935657094     1.063248668     1.704889790
   8    C       -3.583962991     1.200373864    -1.821807190
   9    C        4.305611665     2.401536026     1.102740488
  10    C        2.458406321     0.925808945     1.846079057
  11    C        1.154209170    -1.200561213     1.098081722
  12    C        1.807775992    -0.136515070     1.467375254
  13    H       -3.578896097    -1.449158462    -1.246425767
  14    H       -0.904291812    -2.770713911     0.420741181
  15    H       -2.717919604    -0.158033241    -3.260990020
  16    H       -1.535345123     0.643696703    -2.221932562
  17    H       -0.817351495    -1.828739665    -2.475063067
  18    H       -1.859688865    -3.097492266    -1.806666665
  19    H       -2.560969191    -1.052219180     0.939531305
  20    H       -1.516804847     0.208327283     0.259310034
  21    H        4.354732404     0.240858786     1.092970638
  22    H        4.391721061     0.954570436     2.709491688
  23    H        1.224464496    -2.091888296    -0.823368307
  24    H        0.645511178    -0.419131149    -0.845425038
  25    H       -4.598399508     0.781314666    -1.856413944
  26    H       -3.564659152     2.070338971    -2.490359252
  27    H       -3.416642629     1.566215978    -0.799627454
  28    H        3.929575663     3.237524456     1.707432160
  29    H        3.892028538     2.518200581     0.092719561
  30    H        5.394649369     2.514027379     1.027091031
  31    H        1.917155059     1.767021000     2.297411898
  32    H        1.005806448    -2.024358816     1.807912579


           Empirical Formula: C12 H20  =    32 atoms



      MOLECULAR POINT GROUP   :   C1  


                  EIGENVALUES  
 -41.60316 -37.19407 -34.76825 -31.96087 -28.36611 -25.69173 -25.08137 -23.07357
 -21.60011 -20.22948 -18.94133 -17.83036 -17.18662 -16.33055 -15.99319 -15.57728
 -15.47404 -15.06104 -14.56814 -14.14735 -14.04143 -13.70046 -13.21939 -13.05603
 -12.70953 -12.50240 -12.35058 -12.06609 -11.96210 -11.50975 -11.31394 -11.19834
  -9.81591  -9.78413   1.10227   1.10768   2.98304   3.29138   3.42045   3.48793
   3.65884   3.70273   3.83699   3.85296   3.91104   3.97055   4.01078   4.05573
   4.10906   4.13352   4.19798   4.33407   4.39233   4.50464   4.53238   4.55755
   4.64235   4.67228   4.81800   4.87352   4.93496   5.00660   5.10541   5.23563
   5.27040   5.51844   5.64820   6.63801


              NET ATOMIC CHARGES AND DIPOLE CONTRIBUTIONS

  ATOM NO.   TYPE          CHARGE      No. of ELECS.   s-Pop       p-Pop       
    1          C          -0.093381        4.0934     1.19047     2.90291
    2          C          -0.090141        4.0901     1.18996     2.90018
    3          C          -0.112543        4.1125     1.17842     2.93413
    4          C          -0.110932        4.1109     1.17776     2.93317
    5          C          -0.089573        4.0896     1.15742     2.93216
    6          C          -0.048385        4.0484     1.14647     2.90192
    7          C          -0.052285        4.0523     1.14365     2.90863
    8          C          -0.109527        4.1095     1.13796     2.97157
    9          C          -0.107043        4.1070     1.13786     2.96918
   10          C          -0.071521        4.0715     1.16254     2.90898
   11          C          -0.067646        4.0676     1.16165     2.90600
   12          C          -0.204852        4.2049     1.21406     2.99079
   13          H           0.071514        0.9285     0.92849
   14          H           0.071044        0.9290     0.92896
   15          H           0.048961        0.9510     0.95104
   16          H           0.052220        0.9478     0.94778
   17          H           0.061898        0.9381     0.93810
   18          H           0.055503        0.9445     0.94450
   19          H           0.055576        0.9444     0.94442
   20          H           0.067477        0.9325     0.93252
   21          H           0.054783        0.9452     0.94522
   22          H           0.053090        0.9469     0.94691
   23          H           0.056737        0.9433     0.94326
   24          H           0.061376        0.9386     0.93862
   25          H           0.037624        0.9624     0.96238
   26          H           0.036886        0.9631     0.96311
   27          H           0.039716        0.9603     0.96028
   28          H           0.037784        0.9622     0.96222
   29          H           0.040535        0.9595     0.95947
   30          H           0.037564        0.9624     0.96244
   31          H           0.108871        0.8911     0.89113
   32          H           0.108669        0.8913     0.89133
 DIPOLE           X         Y         Z       TOTAL
 POINT-CHG.     0.133     0.059    -0.194     0.242
 HYBRID        -0.021     0.007     0.052     0.056
 SUM            0.112     0.066    -0.142     0.192


          ATOMIC ORBITAL ELECTRON POPULATIONS

     Atom    s        px        py        pz   
    1  C   1.19047   0.98264   0.96116   0.95912
    2  C   1.18996   0.94020   0.98655   0.97342
    3  C   1.17842   0.98111   0.98747   0.96555
    4  C   1.17776   0.97702   0.99322   0.96293
    5  C   1.15742   0.99189   0.95706   0.98321
    6  C   1.14647   0.94766   1.01321   0.94105
    7  C   1.14365   0.92838   0.97528   1.00497
    8  C   1.13796   0.98245   0.98165   1.00747
    9  C   1.13786   1.00307   0.96291   1.00321
   10  C   1.16254   0.95170   0.94921   1.00807
   11  C   1.16165   0.98707   0.94804   0.97089
   12  C   1.21406   1.00237   0.98014   1.00829
   13  H   0.92849
   14  H   0.92896
   15  H   0.95104
   16  H   0.94778
   17  H   0.93810
   18  H   0.94450
   19  H   0.94442
   20  H   0.93252
   21  H   0.94522
   22  H   0.94691
   23  H   0.94326
   24  H   0.93862
   25  H   0.96238
   26  H   0.96311
   27  H   0.96028
   28  H   0.96222
   29  H   0.95947
   30  H   0.96244
   31  H   0.89113
   32  H   0.89133
 *******************************************************************************
 **                                                                           **
 **                              MOPAC v23.1.2                                **
 **                                                                           **
 *******************************************************************************
 **          Digital Object Identifier (DOI): 10.5281/zenodo.6511958          **
 **    Visit the DOI location for information on how to cite this program.    **
 *******************************************************************************

                              PM3 CALCULATION RESULTS

 *******************************************************************************
 *  CALCULATION DONE: (MAX THREADS = 1)              Tue Jun  3 16:39:35 2025  *
 *  PM3        - The PM3 Hamiltonian to be used
 *  OLDGEO     - PREVIOUS GEOMETRY TO BE USED
 *  PRECISE    - TIGHTER CRITERIA TO BE USED
 *  NOSYM      - POINT-GROUP SYMMETRY SET TO C1
 *  THREADS=1  - MULTI-THREADING NOT USED
 *  T=         - A TIME OF 172800.0 SECONDS REQUESTED
 *  DUMP=N     - RESTART FILE WRITTEN EVERY 7200.0 SECONDS REQUESTED
 *  THERMO     - THERMODYNAMIC QUANTITIES TO BE CALCULATED
 *******************************************************************************
oldgeo thermo nosym precise THREADS=1  pm3
 InChI=1S/C12H20/c1-3-5-6-7-8-12-9-11(4-2)10-12/h5,7,11-12H,3-4,8-10H2,1-2H3

   ATOM   CHEMICAL          X               Y               Z
  NUMBER   SYMBOL      (ANGSTROMS)     (ANGSTROMS)     (ANGSTROMS)

     1       C         -2.55392607  *  -1.02589143  *  -1.30258751  *
     2       C         -0.83564911  *  -1.87444014  *  -0.23119803  *
     3       C         -1.47217595  *  -2.08423383  *  -1.62657802  *
     4       C         -1.90977066  *  -0.80680316  *   0.08801331  *
     5       C         -2.54255967  *   0.17901296  *  -2.22015148  *
     6       C          0.59195424  *  -1.36677096  *  -0.27196227  *
     7       C          3.93565709  *   1.06324867  *   1.70488979  *
     8       C         -3.58396299  *   1.20037386  *  -1.82180719  *
     9       C          4.30561167  *   2.40153603  *   1.10274049  *
    10       C          2.45840632  *   0.92580895  *   1.84607906  *
    11       C          1.15420917  *  -1.20056121  *   1.09808172  *
    12       C          1.80777599  *  -0.13651507  *   1.46737525  *
    13       H         -3.57889610  *  -1.44915846  *  -1.24642577  *
    14       H         -0.90429181  *  -2.77071391  *   0.42074118  *
    15       H         -2.71791960  *  -0.15803324  *  -3.26099002  *
    16       H         -1.53534512  *   0.64369670  *  -2.22193256  *
    17       H         -0.81735150  *  -1.82873966  *  -2.47506307  *
    18       H         -1.85968886  *  -3.09749227  *  -1.80666667  *
    19       H         -2.56096919  *  -1.05221918  *   0.93953130  *
    20       H         -1.51680485  *   0.20832728  *   0.25931003  *
    21       H          4.35473240  *   0.24085879  *   1.09297064  *
    22       H          4.39172106  *   0.95457044  *   2.70949169  *
    23       H          1.22446450  *  -2.09188830  *  -0.82336831  *
    24       H          0.64551118  *  -0.41913115  *  -0.84542504  *
    25       H         -4.59839951  *   0.78131467  *  -1.85641394  *
    26       H         -3.56465915  *   2.07033897  *  -2.49035925  *
    27       H         -3.41664263  *   1.56621598  *  -0.79962745  *
    28       H          3.92957566  *   3.23752446  *   1.70743216  *
    29       H          3.89202854  *   2.51820058  *   0.09271956  *
    30       H          5.39464937  *   2.51402738  *   1.02709103  *
    31       H          1.91715506  *   1.76702100  *   2.29741190  *
    32       H          1.00580645  *  -2.02435882  *   1.80791258  *



          CARTESIAN COORDINATES 

    NO.       ATOM           X           Y           Z

     1         C         -2.5539     -1.0259     -1.3026
     2         C         -0.8356     -1.8744     -0.2312
     3         C         -1.4722     -2.0842     -1.6266
     4         C         -1.9098     -0.8068      0.0880
     5         C         -2.5426      0.1790     -2.2202
     6         C          0.5920     -1.3668     -0.2720
     7         C          3.9357      1.0632      1.7049
     8         C         -3.5840      1.2004     -1.8218
     9         C          4.3056      2.4015      1.1027
    10         C          2.4584      0.9258      1.8461
    11         C          1.1542     -1.2006      1.0981
    12         C          1.8078     -0.1365      1.4674
    13         H         -3.5789     -1.4492     -1.2464
    14         H         -0.9043     -2.7707      0.4207
    15         H         -2.7179     -0.1580     -3.2610
    16         H         -1.5353      0.6437     -2.2219
    17         H         -0.8174     -1.8287     -2.4751
    18         H         -1.8597     -3.0975     -1.8067
    19         H         -2.5610     -1.0522      0.9395
    20         H         -1.5168      0.2083      0.2593
    21         H          4.3547      0.2409      1.0930
    22         H          4.3917      0.9546      2.7095
    23         H          1.2245     -2.0919     -0.8234
    24         H          0.6455     -0.4191     -0.8454
    25         H         -4.5984      0.7813     -1.8564
    26         H         -3.5647      2.0703     -2.4904
    27         H         -3.4166      1.5662     -0.7996
    28         H          3.9296      3.2375      1.7074
    29         H          3.8920      2.5182      0.0927
    30         H          5.3946      2.5140      1.0271
    31         H          1.9172      1.7670      2.2974
    32         H          1.0058     -2.0244      1.8079

  H: (PM3): J. J. P. STEWART, J. COMP. CHEM. 10, 209 (1989).
  C: (PM3): J. J. P. STEWART, J. COMP. CHEM. 10, 209 (1989).

           Empirical Formula: C12 H20  =    32 atoms



      MOLECULAR POINT GROUP   :   C1  


      RHF CALCULATION, NO. OF DOUBLY OCCUPIED LEVELS = 34



          HEAT OF FORMATION =      14.631192 KCALS/MOLE


          CARTESIAN COORDINATE DERIVATIVES

   NUMBER  ATOM         X            Y            Z

     1       C     -0.005830    -0.003274     0.001848
     2       C      0.006052     0.001079    -0.004421
     3       C      0.007110     0.003031     0.002464
     4       C     -0.006547    -0.001619    -0.002866
     5       C      0.005702     0.002935     0.000441
     6       C      0.006817     0.002683    -0.003196
     7       C      0.012829    -0.002682     0.004179
     8       C     -0.002766     0.001408     0.001525
     9       C      0.003962     0.002379    -0.004644
    10       C      0.003873    -0.004518     0.005252
    11       C     -0.011496     0.009773    -0.008560
    12       C      0.002402    -0.006114     0.006889
    13       H     -0.004280    -0.003558    -0.000352
    14       H     -0.000226     0.002664     0.002529
    15       H     -0.001705     0.000967    -0.001068
    16       H     -0.003592    -0.000516    -0.002812
    17       H      0.003133     0.002313     0.005145
    18       H     -0.002200     0.000922    -0.005997
    19       H     -0.000538    -0.001031    -0.002532
    20       H      0.001762    -0.001399     0.006647
    21       H     -0.005466    -0.016032     0.004619
    22       H     -0.015126     0.008938     0.005844
    23       H      0.001341     0.003110    -0.000170
    24       H     -0.002948     0.000241     0.007205
    25       H     -0.001819     0.000674    -0.003136
    26       H     -0.002184    -0.000247     0.000600
    27       H      0.005556    -0.006642    -0.000737
    28       H      0.003326     0.010644    -0.003902
    29       H      0.003879    -0.008204    -0.003149
    30       H     -0.001374    -0.001466    -0.004254
    31       H     -0.003663     0.007219     0.001955
    32       H      0.004015    -0.003677    -0.005348



          GRADIENT NORM =   0.04939

          MOLECULAR WEIGHT =  164.29



          ROTATIONAL CONSTANTS IN CM(-1)

          A =    0.05052918   B =    0.01103900   C =    0.00983259



           PRINCIPAL MOMENTS OF INERTIA IN UNITS OF 10**(-40)*GRAM-CM**2

          A =      553.9918   B =     2535.8040   C =     2846.9367


          ORIENTATION OF MOLECULE IN FORCE CALCULATION

    NO.       ATOM         X         Y         Z

     1          C      -2.3648    0.9349   -1.6856
     2          C      -0.1693    0.9349   -1.6856
     3          C      -1.2673    2.0261   -1.6856
     4          C      -1.2667   -0.1563   -1.6727
     5          C      -3.2693    0.9598   -0.4711
     6          C       0.7319    0.9635   -0.4672
     7          C       3.3743   -1.3233    2.4962
     8          C      -4.2847   -0.1602   -0.5018
     9          C       2.8527   -1.5512    3.8985
    10          C       2.3402   -1.6563    1.4760
    11          C       1.7763   -0.0976   -0.5326
    12          C       2.0567   -0.8734    0.4749
    13          H      -2.9760    0.9274   -2.6126
    14          H       0.4416    0.9282   -2.6129
    15          H      -3.7842    1.9398   -0.4243
    16          H      -2.6615    0.8968    0.4546
    17          H      -1.2676    2.6797   -0.7986
    18          H      -1.2668    2.6777   -2.5714
    19          H      -1.2660   -0.8174   -2.5515
    20          H      -1.2680   -0.8010   -0.7790
    21          H       3.7215   -0.2778    2.3837
    22          H       4.2634   -1.9584    2.3089
    23          H       1.2381    1.9484   -0.4073
    24          H       0.1277    0.8754    0.4585
    25          H      -4.9336   -0.0965   -1.3855
    26          H      -4.9321   -0.1352    0.3839
    27          H      -3.7964   -1.1439   -0.5257
    28          H       2.5304   -2.5902    4.0488
    29          H       1.9911   -0.9078    4.1185
    30          H       3.6246   -1.3347    4.6479
    31          H       1.8117   -2.6112    1.5904
    32          H       2.3249   -0.2083   -1.4766


    FIRST DERIVATIVES WILL BE USED IN THE CALCULATION OF SECOND DERIVATIVES

          ESTIMATED TIME TO COMPLETE CALCULATION =        4.50 SECONDS

    FOR POINT-GROUP C1   THERE ARE   1 UNIQUE SYMMETRY FUNCTIONS.

 STEP:   1 TIME =     0.04 SECS, INTEGRAL =      0.04 TIME LEFT: 172799.95
 STEP:   2 TIME =     0.04 SECS, INTEGRAL =      0.07 TIME LEFT: 172799.91
 STEP:   3 TIME =     0.04 SECS, INTEGRAL =      0.11 TIME LEFT: 172799.88
 STEP:   4 TIME =     0.04 SECS, INTEGRAL =      0.14 TIME LEFT: 172799.84
 STEP:   5 TIME =     0.04 SECS, INTEGRAL =      0.18 TIME LEFT: 172799.80
 STEP:   6 TIME =     0.04 SECS, INTEGRAL =      0.22 TIME LEFT: 172799.77
 STEP:   7 TIME =     0.04 SECS, INTEGRAL =      0.25 TIME LEFT: 172799.73
 STEP:   8 TIME =     0.04 SECS, INTEGRAL =      0.29 TIME LEFT: 172799.70
 STEP:   9 TIME =     0.04 SECS, INTEGRAL =      0.33 TIME LEFT: 172799.66
 STEP:  10 TIME =     0.04 SECS, INTEGRAL =      0.36 TIME LEFT: 172799.62
 STEP:  11 TIME =     0.04 SECS, INTEGRAL =      0.40 TIME LEFT: 172799.59
 STEP:  12 TIME =     0.04 SECS, INTEGRAL =      0.44 TIME LEFT: 172799.55
 STEP:  13 TIME =     0.04 SECS, INTEGRAL =      0.48 TIME LEFT: 172799.51
 STEP:  14 TIME =     0.04 SECS, INTEGRAL =      0.51 TIME LEFT: 172799.48
 STEP:  15 TIME =     0.04 SECS, INTEGRAL =      0.55 TIME LEFT: 172799.44
 STEP:  16 TIME =     0.04 SECS, INTEGRAL =      0.58 TIME LEFT: 172799.41
 STEP:  17 TIME =     0.04 SECS, INTEGRAL =      0.62 TIME LEFT: 172799.37
 STEP:  18 TIME =     0.04 SECS, INTEGRAL =      0.66 TIME LEFT: 172799.33
 STEP:  19 TIME =     0.04 SECS, INTEGRAL =      0.70 TIME LEFT: 172799.29
 STEP:  20 TIME =     0.04 SECS, INTEGRAL =      0.74 TIME LEFT: 172799.25
 STEP:  21 TIME =     0.04 SECS, INTEGRAL =      0.78 TIME LEFT: 172799.21
 STEP:  22 TIME =     0.04 SECS, INTEGRAL =      0.81 TIME LEFT: 172799.18
 STEP:  23 TIME =     0.04 SECS, INTEGRAL =      0.85 TIME LEFT: 172799.14
 STEP:  24 TIME =     0.04 SECS, INTEGRAL =      0.89 TIME LEFT: 172799.10
 STEP:  25 TIME =     0.04 SECS, INTEGRAL =      0.93 TIME LEFT: 172799.06
 STEP:  26 TIME =     0.04 SECS, INTEGRAL =      0.96 TIME LEFT: 172799.02
 STEP:  27 TIME =     0.04 SECS, INTEGRAL =      1.00 TIME LEFT: 172798.99
 STEP:  28 TIME =     0.04 SECS, INTEGRAL =      1.04 TIME LEFT: 172798.95
 STEP:  29 TIME =     0.04 SECS, INTEGRAL =      1.08 TIME LEFT: 172798.91
 STEP:  30 TIME =     0.04 SECS, INTEGRAL =      1.12 TIME LEFT: 172798.87
 STEP:  31 TIME =     0.04 SECS, INTEGRAL =      1.16 TIME LEFT: 172798.83
 STEP:  32 TIME =     0.04 SECS, INTEGRAL =      1.19 TIME LEFT: 172798.80
 STEP:  33 TIME =     0.04 SECS, INTEGRAL =      1.23 TIME LEFT: 172798.76
 STEP:  34 TIME =     0.04 SECS, INTEGRAL =      1.27 TIME LEFT: 172798.72
 STEP:  35 TIME =     0.04 SECS, INTEGRAL =      1.30 TIME LEFT: 172798.69
 STEP:  36 TIME =     0.04 SECS, INTEGRAL =      1.34 TIME LEFT: 172798.65
 STEP:  37 TIME =     0.04 SECS, INTEGRAL =      1.37 TIME LEFT: 172798.62
 STEP:  38 TIME =     0.04 SECS, INTEGRAL =      1.41 TIME LEFT: 172798.58
 STEP:  39 TIME =     0.04 SECS, INTEGRAL =      1.45 TIME LEFT: 172798.54
 STEP:  40 TIME =     0.04 SECS, INTEGRAL =      1.48 TIME LEFT: 172798.50
 STEP:  41 TIME =     0.04 SECS, INTEGRAL =      1.53 TIME LEFT: 172798.46
 STEP:  42 TIME =     0.04 SECS, INTEGRAL =      1.56 TIME LEFT: 172798.43
 STEP:  43 TIME =     0.04 SECS, INTEGRAL =      1.60 TIME LEFT: 172798.39
 STEP:  44 TIME =     0.04 SECS, INTEGRAL =      1.63 TIME LEFT: 172798.36
 STEP:  45 TIME =     0.04 SECS, INTEGRAL =      1.67 TIME LEFT: 172798.32
 STEP:  46 TIME =     0.04 SECS, INTEGRAL =      1.71 TIME LEFT: 172798.28
 STEP:  47 TIME =     0.04 SECS, INTEGRAL =      1.75 TIME LEFT: 172798.23
 STEP:  48 TIME =     0.04 SECS, INTEGRAL =      1.79 TIME LEFT: 172798.20
 STEP:  49 TIME =     0.04 SECS, INTEGRAL =      1.83 TIME LEFT: 172798.16
 STEP:  50 TIME =     0.04 SECS, INTEGRAL =      1.87 TIME LEFT: 172798.12
 STEP:  51 TIME =     0.04 SECS, INTEGRAL =      1.90 TIME LEFT: 172798.09
 STEP:  52 TIME =     0.04 SECS, INTEGRAL =      1.94 TIME LEFT: 172798.05
 STEP:  53 TIME =     0.04 SECS, INTEGRAL =      1.98 TIME LEFT: 172798.01
 STEP:  54 TIME =     0.04 SECS, INTEGRAL =      2.02 TIME LEFT: 172797.97
 STEP:  55 TIME =     0.04 SECS, INTEGRAL =      2.06 TIME LEFT: 172797.93
 STEP:  56 TIME =     0.04 SECS, INTEGRAL =      2.09 TIME LEFT: 172797.89
 STEP:  57 TIME =     0.04 SECS, INTEGRAL =      2.13 TIME LEFT: 172797.86
 STEP:  58 TIME =     0.04 SECS, INTEGRAL =      2.17 TIME LEFT: 172797.82
 STEP:  59 TIME =     0.04 SECS, INTEGRAL =      2.21 TIME LEFT: 172797.78
 STEP:  60 TIME =     0.04 SECS, INTEGRAL =      2.25 TIME LEFT: 172797.74
 STEP:  61 TIME =     0.04 SECS, INTEGRAL =      2.29 TIME LEFT: 172797.70
 STEP:  62 TIME =     0.04 SECS, INTEGRAL =      2.32 TIME LEFT: 172797.67
 STEP:  63 TIME =     0.04 SECS, INTEGRAL =      2.36 TIME LEFT: 172797.63
 STEP:  64 TIME =     0.04 SECS, INTEGRAL =      2.40 TIME LEFT: 172797.59
 STEP:  65 TIME =     0.04 SECS, INTEGRAL =      2.44 TIME LEFT: 172797.55
 STEP:  66 TIME =     0.04 SECS, INTEGRAL =      2.48 TIME LEFT: 172797.51
 STEP:  67 TIME =     0.04 SECS, INTEGRAL =      2.52 TIME LEFT: 172797.47
 STEP:  68 TIME =     0.04 SECS, INTEGRAL =      2.55 TIME LEFT: 172797.43
 STEP:  69 TIME =     0.04 SECS, INTEGRAL =      2.60 TIME LEFT: 172797.39
 STEP:  70 TIME =     0.04 SECS, INTEGRAL =      2.64 TIME LEFT: 172797.35
 STEP:  71 TIME =     0.04 SECS, INTEGRAL =      2.68 TIME LEFT: 172797.31
 STEP:  72 TIME =     0.04 SECS, INTEGRAL =      2.71 TIME LEFT: 172797.28
 STEP:  73 TIME =     0.04 SECS, INTEGRAL =      2.75 TIME LEFT: 172797.24
 STEP:  74 TIME =     0.04 SECS, INTEGRAL =      2.79 TIME LEFT: 172797.20
 STEP:  75 TIME =     0.04 SECS, INTEGRAL =      2.82 TIME LEFT: 172797.16
 STEP:  76 TIME =     0.04 SECS, INTEGRAL =      2.86 TIME LEFT: 172797.13
 STEP:  77 TIME =     0.04 SECS, INTEGRAL =      2.90 TIME LEFT: 172797.09
 STEP:  78 TIME =     0.04 SECS, INTEGRAL =      2.93 TIME LEFT: 172797.05
 STEP:  79 TIME =     0.04 SECS, INTEGRAL =      2.97 TIME LEFT: 172797.02
 STEP:  80 TIME =     0.04 SECS, INTEGRAL =      3.01 TIME LEFT: 172796.98
 STEP:  81 TIME =     0.04 SECS, INTEGRAL =      3.05 TIME LEFT: 172796.94
 STEP:  82 TIME =     0.04 SECS, INTEGRAL =      3.09 TIME LEFT: 172796.90
 STEP:  83 TIME =     0.04 SECS, INTEGRAL =      3.12 TIME LEFT: 172796.87
 STEP:  84 TIME =     0.04 SECS, INTEGRAL =      3.16 TIME LEFT: 172796.83
 STEP:  85 TIME =     0.04 SECS, INTEGRAL =      3.20 TIME LEFT: 172796.79
 STEP:  86 TIME =     0.04 SECS, INTEGRAL =      3.23 TIME LEFT: 172796.76
 STEP:  87 TIME =     0.04 SECS, INTEGRAL =      3.27 TIME LEFT: 172796.72
 STEP:  88 TIME =     0.04 SECS, INTEGRAL =      3.30 TIME LEFT: 172796.68
 STEP:  89 TIME =     0.04 SECS, INTEGRAL =      3.34 TIME LEFT: 172796.64
 STEP:  90 TIME =     0.04 SECS, INTEGRAL =      3.38 TIME LEFT: 172796.61
 STEP:  91 TIME =     0.04 SECS, INTEGRAL =      3.42 TIME LEFT: 172796.57
 STEP:  92 TIME =     0.04 SECS, INTEGRAL =      3.46 TIME LEFT: 172796.53
 STEP:  93 TIME =     0.04 SECS, INTEGRAL =      3.50 TIME LEFT: 172796.48
 STEP:  94 TIME =     0.04 SECS, INTEGRAL =      3.55 TIME LEFT: 172796.44
 STEP:  95 TIME =     0.04 SECS, INTEGRAL =      3.59 TIME LEFT: 172796.40
 STEP:  96 TIME =     0.04 SECS, INTEGRAL =      3.62 TIME LEFT: 172796.36

(To convert to Hartree/Bohr^2, multiply by (10^(-21) x N x a0^2)/(4.184 x 627.51) =  0.0642)


           FORCE MATRIX IN MILLIDYNES/ANGSTROM


                  C  1       C  2       C  3       C  4       C  5       C  6
 ------------------------------------------------------------------------------
     C    1  14.546428
     C    2   1.804033  14.520560
     C    3   3.482029   3.470628  14.345957
     C    4   3.461539   3.473749   1.829738  14.337189
     C    5   4.309501   0.040131   0.551014   0.541828  14.490011
     C    6   0.040448   4.255228   0.548471   0.539868   0.005854  14.689965
     C    7   0.000094   0.009368   0.001815   0.000400   0.000139   0.085455
     C    8   0.659302   0.004844   0.051069   0.032330   4.471384   0.000905
     C    9   0.000086   0.000912   0.000163   0.000111   0.000125   0.011143
     C   10   0.000096   0.012725   0.002315   0.000859   0.000261   0.072089
     C   11   0.004826   0.692172   0.050225   0.024103   0.001067   4.805671
     C   12   0.000612   0.041944   0.008020   0.004527   0.000346   0.920442
     H   13   4.427038   0.028530   0.427949   0.428720   0.431498   0.002151
     H   14   0.028502   4.424031   0.427217   0.428373   0.002170   0.433756
     H   15   0.434199   0.003445   0.019314   0.047565   4.456413   0.000893
     H   16   0.450623   0.002702   0.021171   0.023929   4.421993   0.004168
     H   17   0.452715   0.452160   4.644274   0.028279   0.031399   0.031697
     H   18   0.441883   0.442466   4.717489   0.031495   0.034023   0.033409
     H   19   0.441535   0.442326   0.031494   4.716406   0.034307   0.033844
     H   20   0.452960   0.453388   0.028064   4.645475   0.026112   0.025882
     H   21   0.000039   0.000385   0.000158   0.000103   0.000043   0.001702
     H   22   0.000055   0.001275   0.000396   0.000076   0.000075   0.010607
     H   23   0.003488   0.440692   0.019580   0.047338   0.000968   4.412437
     H   24   0.002743   0.447093   0.020204   0.024840   0.004334   4.440554
     H   25   0.023779   0.000311   0.001650   0.002108   0.464130   0.000219
     H   26   0.052576   0.000585   0.008797   0.002224   0.451272   0.000234
     H   27   0.020206   0.000484   0.001871   0.007205   0.463793   0.000391
     H   28   0.000027   0.000111   0.000061   0.000026   0.000023   0.000290
     H   29   0.000041   0.000143   0.000076   0.000034   0.000043   0.000483
     H   30   0.000021   0.000164   0.000090   0.000039   0.000046   0.001932
     H   31   0.000157   0.008455   0.001595   0.000520   0.000184   0.070824
     H   32   0.000355   0.026207   0.002360   0.002782   0.000522   0.444328


                  C  7       C  8       C  9       C 10       C 11       C 12
 ------------------------------------------------------------------------------
     C    7  14.607053
     C    8   0.000137  14.375347
     C    9   4.416961   0.000078  14.355371
     C   10   4.807712   0.000225   0.715238  18.319347
     C   11   0.072238   0.000836   0.010279   0.747456  18.307456
     C   12   0.917669   0.000297   0.039621  11.537111  11.527175  24.949381
     H   13   0.000056   0.031233   0.000073   0.000120   0.000721   0.000145
     H   14   0.000226   0.000553   0.000172   0.000474   0.039155   0.002009
     H   15   0.000051   0.440168   0.000045   0.000080   0.000346   0.000084
     H   16   0.000082   0.437401   0.000081   0.000162   0.000464   0.000358
     H   17   0.000137   0.002993   0.000075   0.000228   0.002810   0.001156
     H   18   0.000342   0.006399   0.000123   0.000482   0.006460   0.001286
     H   19   0.000079   0.001742   0.000054   0.000170   0.002516   0.000890
     H   20   0.000276   0.008890   0.000189   0.000882   0.004607   0.002476
     H   21   4.485592   0.000035   0.434920   0.455476   0.005396   0.040404
     H   22   4.426163   0.000059   0.445630   0.409677   0.010647   0.031607
     H   23   0.011366   0.000213   0.002121   0.009108   0.410522   0.027689
     H   24   0.001739   0.000576   0.000557   0.004917   0.454971   0.040549
     H   25   0.000036   4.724602   0.000015   0.000049   0.000166   0.000104
     H   26   0.000056   4.752819   0.000033   0.000103   0.000241   0.000121
     H   27   0.000060   4.713587   0.000048   0.000113   0.000238   0.000157
     H   28   0.464767   0.000016   4.725718   0.026987   0.000345   0.001665
     H   29   0.461567   0.000037   4.746915   0.015487   0.000540   0.002874
     H   30   0.448512   0.000040   4.750681   0.052106   0.001286   0.007228
     H   31   0.444422   0.000189   0.023109   4.728141   0.045784   0.446598
     H   32   0.071875   0.000155   0.008094   0.045326   4.723628   0.446403


                  H 13       H 14       H 15       H 16       H 17       H 18
 ------------------------------------------------------------------------------
     H   13   4.927684
     H   14   0.002625   4.927464
     H   15   0.024782   0.000677   5.065536
     H   16   0.043823   0.000541   0.568575   5.033917
     H   17   0.030922   0.031006   0.011908   0.016730   5.279450
     H   18   0.026531   0.026614   0.001947   0.001301   0.552407   5.334944
     H   19   0.026853   0.026959   0.005976   0.001746   0.000961   0.003423
     H   20   0.030671   0.030487   0.003530   0.023438   0.002843   0.001029
     H   21   0.000018   0.000095   0.000014   0.000032   0.000043   0.000052
     H   22   0.000043   0.000106   0.000026   0.000057   0.000054   0.000123
     H   23   0.000678   0.023084   0.000350   0.000240   0.012609   0.002138
     H   24   0.000575   0.042901   0.000318   0.010258   0.015191   0.001248
     H   25   0.021754   0.000120   0.024469   0.048242   0.000467   0.000346
     H   26   0.001996   0.000121   0.028904   0.030200   0.000709   0.001273
     H   27   0.001936   0.000311   0.048710   0.024480   0.000432   0.000412
     H   28   0.000016   0.000028   0.000009   0.000026   0.000018   0.000024
     H   29   0.000020   0.000051   0.000014   0.000037   0.000030   0.000032
     H   30   0.000023   0.000071   0.000015   0.000029   0.000026   0.000046
     H   31   0.000061   0.000285   0.000067   0.000113   0.000143   0.000257
     H   32   0.000303   0.026635   0.000170   0.000214   0.000683   0.000577


                  H 19       H 20       H 21       H 22       H 23       H 24
 ------------------------------------------------------------------------------
     H   19   5.334774
     H   20   0.552518   5.278179
     H   21   0.000043   0.000084   5.087545
     H   22   0.000034   0.000145   0.565431   5.021948
     H   23   0.005854   0.003526   0.000332   0.001152   5.000565
     H   24   0.001739   0.024431   0.000189   0.000142   0.557919   5.038093
     H   25   0.000352   0.000481   0.000014   0.000012   0.000089   0.000187
     H   26   0.000330   0.000622   0.000013   0.000025   0.000067   0.000136
     H   27   0.000809   0.013244   0.000017   0.000031   0.000157   0.000184
     H   28   0.000013   0.000050   0.048128   0.023524   0.000147   0.000085
     H   29   0.000024   0.000066   0.024548   0.049337   0.000121   0.000124
     H   30   0.000023   0.000072   0.029958   0.028509   0.000434   0.000152
     H   31   0.000211   0.000356   0.038822   0.013901   0.008963   0.001456
     H   32   0.000714   0.001043   0.001735   0.009927   0.013896   0.038251


                  H 25       H 26       H 27       H 28       H 29       H 30
 ------------------------------------------------------------------------------
     H   25   5.467264
     H   26   0.573223   5.489290
     H   27   0.576501   0.572134   5.452536
     H   28   0.000006   0.000005   0.000016   5.469617
     H   29   0.000012   0.000014   0.000022   0.577676   5.485234
     H   30   0.000009   0.000014   0.000020   0.573638   0.574353   5.487295
     H   31   0.000060   0.000079   0.000095   0.018915   0.002698   0.002213
     H   32   0.000060   0.000046   0.000108   0.000304   0.000375   0.001343


                  H 31       H 32
 ------------------------------
     H   31   5.110947
     H   32   0.059934   5.107971


          HEAT OF FORMATION =      14.631192 KCALS/MOLE

          ZERO POINT ENERGY     180.376 KCAL/MOL


           NORMAL COORDINATE ANALYSIS (Total motion = 1 Angstrom)


   Root No.       1         2         3         4         5         6         7         8

                 1 A       2 A       3 A       4 A       5 A       6 A       7 A       8 A   

                  16.9      35.3      43.6      72.2      82.5      99.4     149.2     182.9
  
           1   -0.0052    0.0030    0.0006    0.0032   -0.0049   -0.0013    0.0087    0.0045
           2    0.0113    0.0107    0.0058   -0.0066    0.0078    0.0143   -0.0103   -0.0082
           3   -0.0093    0.0052   -0.0061    0.0016   -0.0175    0.0037   -0.0018    0.0013
           4   -0.0052    0.0030    0.0006    0.0029   -0.0048   -0.0013    0.0076    0.0042
           5   -0.0021    0.0131    0.0103    0.0073   -0.0027   -0.0024    0.0046    0.0051
           6    0.0094    0.0002   -0.0158    0.0048    0.0037    0.0058    0.0103    0.0002
           7    0.0014    0.0018   -0.0016   -0.0037    0.0005    0.0069    0.0015   -0.0017
           8    0.0046    0.0119    0.0082    0.0005    0.0026    0.0062   -0.0028   -0.0016
           9    0.0108    0.0202   -0.0100    0.0007   -0.0191    0.0193   -0.0099    0.0063
          10   -0.0119    0.0042    0.0029    0.0099   -0.0101   -0.0095    0.0154    0.0104
          11    0.0045    0.0117    0.0080    0.0007    0.0027    0.0062   -0.0031   -0.0018
          12   -0.0086   -0.0206   -0.0250    0.0286   -0.0072    0.0129    0.0109   -0.0130
          13   -0.0169    0.0101    0.0159   -0.0162   -0.0059   -0.0201    0.0091    0.0086
          14    0.0062   -0.0134   -0.0049    0.0020    0.0201    0.0154   -0.0019   -0.0095
          15   -0.0180    0.0111    0.0057   -0.0134   -0.0184   -0.0108   -0.0017    0.0046
          16   -0.0135    0.0006   -0.0048    0.0192   -0.0237    0.0131   -0.0036   -0.0030
          17   -0.0181   -0.0085    0.0032    0.0245   -0.0042   -0.0124    0.0117   -0.0017
          18    0.0159    0.0024   -0.0116   -0.0078    0.0184   -0.0055    0.0182    0.0054
          19    0.0260   -0.0004   -0.0100    0.0019    0.0128   -0.0100   -0.0097   -0.0054
          20    0.0048   -0.0117    0.0131   -0.0231   -0.0183    0.0237    0.0089    0.0078
          21   -0.0013   -0.0082    0.0038   -0.0115   -0.0018    0.0028   -0.0191   -0.0034
          22   -0.0243    0.0139    0.0251    0.0005    0.0293    0.0155    0.0004   -0.0114
          23    0.0135   -0.0165   -0.0135   -0.0133   -0.0127   -0.0174    0.0062    0.0091
          24   -0.0382   -0.0021    0.0165   -0.0107    0.0213   -0.0003    0.0008    0.0055
          25    0.0481   -0.0100    0.0295    0.0183    0.0002   -0.0071    0.0062    0.0022
          26    0.0045    0.0457   -0.0263    0.0037    0.0032   -0.0005    0.0116    0.0010
          27    0.0069   -0.0024    0.0120   -0.0013   -0.0029   -0.0000   -0.0135   -0.0019
          28    0.0134   -0.0091   -0.0259   -0.0235    0.0128    0.0019   -0.0106   -0.0040
          29   -0.0041   -0.0124    0.0123    0.0014   -0.0103   -0.0014   -0.0238   -0.0014
          30    0.0143    0.0006    0.0202    0.0063   -0.0043   -0.0014   -0.0086   -0.0020
          31   -0.0138   -0.0102   -0.0200   -0.0029   -0.0087    0.0066   -0.0065   -0.0002
          32   -0.0180   -0.0188   -0.0123    0.0021    0.0107   -0.0186    0.0093    0.0016
          33    0.0111   -0.0041   -0.0006    0.0012    0.0182   -0.0162    0.0167   -0.0004
          34   -0.0010   -0.0094   -0.0237   -0.0153   -0.0003    0.0064   -0.0259   -0.0034
          35   -0.0110   -0.0171    0.0005    0.0039    0.0038   -0.0165   -0.0180   -0.0040
          36    0.0130   -0.0030    0.0103    0.0059    0.0105   -0.0145    0.0003   -0.0040
          37    0.0038   -0.0023   -0.0106    0.0169   -0.0035    0.0119    0.0094    0.0018
          38    0.0232    0.0274    0.0108   -0.0223    0.0045    0.0210   -0.0234   -0.0046
          39   -0.0153    0.0086    0.0013   -0.0075   -0.0183   -0.0051   -0.0021    0.0029
          40    0.0012    0.0045    0.0041   -0.0080    0.0095   -0.0119    0.0163    0.0088
          41    0.0026    0.0307    0.0177   -0.0007   -0.0094   -0.0047    0.0015    0.0173
          42    0.0135    0.0011   -0.0134   -0.0025    0.0132   -0.0013    0.0159    0.0032
          43   -0.0106    0.0070    0.0083   -0.0308   -0.0358   -0.0507    0.0165    0.0235
          44    0.0093   -0.0160   -0.0093   -0.0045    0.0058    0.0007    0.0021   -0.0015
          45   -0.0139    0.0312    0.0149   -0.0388   -0.0510   -0.0415   -0.0035    0.0085
          46   -0.0264    0.0160    0.0288   -0.0305   -0.0032   -0.0327    0.0090    0.0087
          47   -0.0066   -0.0274   -0.0021    0.0266    0.0694    0.0550   -0.0044   -0.0221
          48   -0.0126    0.0063   -0.0025   -0.0024   -0.0167    0.0001   -0.0018    0.0036
          49   -0.0021    0.0031    0.0009   -0.0090   -0.0047    0.0111   -0.0076   -0.0050
          50   -0.0044   -0.0020    0.0083    0.0011    0.0136   -0.0072    0.0096   -0.0057
          51    0.0174    0.0304   -0.0102    0.0002   -0.0273    0.0293   -0.0191    0.0094
          52    0.0130   -0.0009   -0.0069   -0.0065    0.0125    0.0128    0.0022   -0.0061
          53    0.0135    0.0258    0.0080   -0.0003   -0.0084    0.0196   -0.0152    0.0029
          54    0.0174    0.0304   -0.0102    0.0001   -0.0273    0.0292   -0.0191    0.0096
          55   -0.0085    0.0029    0.0004    0.0153   -0.0050   -0.0139    0.0250    0.0143
          56    0.0114    0.0309    0.0201   -0.0217    0.0035   -0.0022   -0.0084    0.0107
          57   -0.0138   -0.0351   -0.0342    0.0455   -0.0078    0.0194    0.0149   -0.0225
          58   -0.0236    0.0072    0.0086    0.0130   -0.0217   -0.0149    0.0148    0.0136
          59   -0.0026   -0.0078   -0.0042    0.0235    0.0018    0.0149    0.0019   -0.0141
          60   -0.0137   -0.0347   -0.0339    0.0451   -0.0078    0.0193    0.0146   -0.0221
          61    0.0176    0.0301   -0.0345    0.0334    0.0315   -0.0427   -0.0384   -0.0153
          62    0.0068   -0.0252    0.0227   -0.0350   -0.0254    0.0354    0.0173    0.0112
          63   -0.0087   -0.0390    0.0166   -0.0249   -0.0091    0.0098   -0.0324   -0.0029
          64    0.0274   -0.0186   -0.0011   -0.0213    0.0029    0.0107    0.0061   -0.0001
          65    0.0101   -0.0431    0.0355   -0.0528   -0.0354    0.0530    0.0312    0.0163
          66   -0.0129    0.0124   -0.0303   -0.0215    0.0091    0.0019   -0.0191   -0.0074
          67   -0.0127    0.0107    0.0089    0.0374   -0.0380    0.0212   -0.0039   -0.0068
          68   -0.0194   -0.0144   -0.0038    0.0169    0.0020   -0.0163    0.0114   -0.0006
          69    0.0309    0.0133   -0.0134   -0.0397    0.0378   -0.0099    0.0214    0.0179
          70   -0.0198   -0.0029   -0.0110    0.0309   -0.0359    0.0232   -0.0091   -0.0079
          71   -0.0281   -0.0113    0.0159    0.0579   -0.0237   -0.0089    0.0113   -0.0128
          72    0.0108   -0.0001   -0.0143    0.0028    0.0085    0.0014    0.0144    0.0013
          73   -0.0164    0.0091    0.0144    0.0147    0.0325    0.0347    0.0003    0.1020
          74    0.0271   -0.0042   -0.0182   -0.0386   -0.0689   -0.0652    0.0099   -0.0812
          75   -0.0431    0.0023    0.0241   -0.0230    0.0150   -0.0178    0.0012   -0.0845
          76   -0.0316    0.0184    0.0352   -0.0151    0.0236   -0.0063    0.0012   -0.1241
          77    0.0087   -0.0333   -0.0197   -0.0068    0.0034   -0.0104    0.0130    0.1284
          78   -0.0435    0.0017    0.0241   -0.0223    0.0167   -0.0164    0.0012   -0.0800
          79   -0.0309    0.0171    0.0330    0.0152    0.0595    0.0467   -0.0073   -0.0305
          80    0.0104   -0.0144   -0.0094   -0.0066    0.0011   -0.0031    0.0024   -0.0044
          81   -0.0443   -0.0208    0.0101    0.0153    0.0643    0.0418    0.0022    0.1840
          82    0.0593   -0.0373    0.0554   -0.0158   -0.0228    0.0386    0.1203   -0.0310
          83    0.0022    0.0587   -0.0361    0.0160    0.0112   -0.0150   -0.0175    0.0092
          84    0.0147    0.0290   -0.0007    0.0106    0.0029   -0.0024    0.0282   -0.0161
          85    0.0457    0.0061    0.0214    0.0450    0.0126   -0.0371   -0.0665    0.0263
          86   -0.0023    0.0749   -0.0490    0.0356    0.0232   -0.0393   -0.0743    0.0262
          87    0.0173   -0.0248    0.0464    0.0100   -0.0127   -0.0041   -0.0471    0.0189
          88    0.0571   -0.0063    0.0436    0.0392    0.0005   -0.0208   -0.0227    0.0178
          89    0.0135    0.0490   -0.0250   -0.0191   -0.0076    0.0336    0.1293   -0.0379
          90   -0.0049   -0.0072   -0.0028   -0.0161   -0.0002    0.0042   -0.0178   -0.0068
          91    0.0171   -0.0158   -0.0373   -0.0471    0.0236    0.0060    0.0129    0.0003
          92   -0.0046   -0.0072    0.0208    0.0158   -0.0181   -0.0022   -0.0356   -0.0034
          93    0.0271    0.0120    0.0390    0.0177   -0.0191    0.0097   -0.0052   -0.0002
          94   -0.0238   -0.0191   -0.0274   -0.0103   -0.0026    0.0017    0.0101    0.0025
          95   -0.0238   -0.0270   -0.0355   -0.0205    0.0252   -0.0194    0.0286    0.0092
          96    0.0060   -0.0082   -0.0022   -0.0005    0.0198   -0.0187    0.0238    0.0004


   Root No.       9        10        11        12        13        14        15        16

                 9 A      10 A      11 A      12 A      13 A      14 A      15 A      16 A   

                 188.6     244.9     253.1     283.8     344.2     399.6     420.8     451.3
  
           1   -0.0056   -0.0004    0.0032    0.0059    0.0136   -0.0181   -0.0009    0.0065
           2    0.0022   -0.0038   -0.0221   -0.0041   -0.0060    0.0127   -0.0141    0.0179
           3    0.0008    0.0004   -0.0216    0.0025    0.0011   -0.0395   -0.0140   -0.0212
           4   -0.0043   -0.0000    0.0060    0.0005    0.0040   -0.0168   -0.0155    0.0040
           5    0.0035    0.0196    0.0195    0.0097   -0.0257   -0.0116    0.0011    0.0027
           6   -0.0114   -0.0074    0.0109    0.0172    0.0008    0.0418   -0.0029   -0.0196
           7   -0.0061   -0.0119   -0.0139   -0.0025    0.0209   -0.0053   -0.0190    0.0168
           8    0.0028    0.0087   -0.0017    0.0040   -0.0168    0.0005   -0.0047    0.0169
           9    0.0012   -0.0118    0.0176   -0.0199    0.0353   -0.0023    0.0228    0.0037
          10   -0.0044    0.0116    0.0247    0.0100   -0.0006   -0.0311   -0.0005   -0.0028
          11    0.0034    0.0091   -0.0007    0.0018   -0.0221    0.0012   -0.0132    0.0138
          12   -0.0099    0.0088   -0.0159    0.0248   -0.0056   -0.0025    0.0107    0.0285
          13   -0.0028   -0.0005   -0.0102    0.0124    0.0079    0.0217    0.0231    0.0102
[...]
 TRANSITION DIPOLE   0.0803         C  6 -- H 23          +8.7% ( 30.1%)     97.5%
 TRAVEL (Ang.)       0.1870         C  6 -- H 24          +5.8% ( 24.7%)     95.6%
 REDUCED MASS        0.6531         C  2 -- C  6          +1.0% ( 10.1%)     20.9%
 EFFECTIVE MASS      1.4564
 FORCE CONSTANT      3.3568

 VIBRATION         75   75A           ATOM PAIR      ENERGY CONTRIBUTION    RADIAL
 FREQUENCY          2955.40         C  1 -- H 13         +66.7% ( 83.8%)    100.0%
 TRANSITION DIPOLE   0.0662         C  5 -- H 16         +15.1% ( 39.8%)     97.2%
 TRAVEL (Ang.)       0.2139         C  5 -- H 15         +12.3% ( 35.9%)     96.0%
 REDUCED MASS        0.4986         C  2 -- H 14          +1.3% ( 11.9%)    100.0%
 EFFECTIVE MASS      1.4717
 FORCE CONSTANT      2.5657

 VIBRATION         76   76A           ATOM PAIR      ENERGY CONTRIBUTION    RADIAL
 FREQUENCY          3018.73         C  6 -- H 24         +50.5% ( 70.2%)     98.1%
 TRANSITION DIPOLE   0.0621         C  6 -- H 23         +43.0% ( 64.7%)     97.2%
 TRAVEL (Ang.)       0.2252         C 11 -- H 32          +3.8% ( 19.1%)     99.9%
 REDUCED MASS        0.4405         C  5 -- H 15          +0.8% (  8.7%)     99.3%
 EFFECTIVE MASS      1.2866
 FORCE CONSTANT      2.3652

 VIBRATION         77   77A           ATOM PAIR      ENERGY CONTRIBUTION    RADIAL
 FREQUENCY          3028.07         C  5 -- H 15         +53.3% ( 72.1%)     98.4%
 TRANSITION DIPOLE   0.0569         C  5 -- H 16         +40.2% ( 62.6%)     96.8%
 TRAVEL (Ang.)       0.2237         C 11 -- H 32          +2.4% ( 15.2%)    100.0%
 REDUCED MASS        0.4451         C  4 -- H 20          +0.9% (  9.3%)     98.6%
 EFFECTIVE MASS      1.2846
 FORCE CONSTANT      2.4046

 VIBRATION         78   78A           ATOM PAIR      ENERGY CONTRIBUTION    RADIAL
 FREQUENCY          3028.76         C 10 -- H 31         +57.7% ( 76.3%)    100.0%
 TRANSITION DIPOLE   0.1961         C  7 -- H 21         +21.0% ( 46.0%)     98.3%
 TRAVEL (Ang.)       0.2384         C  7 -- H 22         +17.0% ( 41.3%)     97.0%
 REDUCED MASS        0.3918         C 11 -- H 32          +1.4% ( 11.7%)    100.0%
 EFFECTIVE MASS      1.4248
 FORCE CONSTANT      2.1178

 VIBRATION         79   79A           ATOM PAIR      ENERGY CONTRIBUTION    RADIAL
 FREQUENCY          3029.91         C 11 -- H 32         +90.1% ( 96.0%)    100.0%
 TRANSITION DIPOLE   0.2964         C  6 -- H 24          +3.0% ( 17.5%)     99.3%
 TRAVEL (Ang.)       0.1674         C 11 -- C 12          +1.5% ( 12.3%)     41.4%
 REDUCED MASS        0.7942         C  6 -- C 11          +1.2% ( 11.1%)     12.4%
 EFFECTIVE MASS      1.5036
 FORCE CONSTANT      4.2957

 VIBRATION         80   80A           ATOM PAIR      ENERGY CONTRIBUTION    RADIAL
 FREQUENCY          3032.61         C  4 -- H 20         +33.6% ( 60.4%)     98.1%
 TRANSITION DIPOLE   0.0338         C  3 -- H 17         +26.9% ( 54.0%)     98.1%
 TRAVEL (Ang.)       0.2855         C  4 -- H 19         +19.6% ( 46.1%)     94.9%
 REDUCED MASS        0.2728         C  3 -- H 18         +15.5% ( 41.0%)     94.9%
 EFFECTIVE MASS      1.5332
 FORCE CONSTANT      1.4782

 VIBRATION         81   81A           ATOM PAIR      ENERGY CONTRIBUTION    RADIAL
 FREQUENCY          3033.44         C 10 -- H 31         +40.8% ( 63.6%)    100.0%
 TRANSITION DIPOLE   0.1978         C  7 -- H 21         +37.0% ( 60.6%)     98.9%
 TRAVEL (Ang.)       0.2579         C  7 -- H 22         +20.0% ( 44.5%)     95.3%
 REDUCED MASS        0.3342         C  7 -- C 10          +0.8% (  8.7%)      4.5%
 EFFECTIVE MASS      1.3694
 FORCE CONSTANT      1.8118

 VIBRATION         82   82A           ATOM PAIR      ENERGY CONTRIBUTION    RADIAL
 FREQUENCY          3035.39         C  3 -- H 17         +34.0% ( 60.6%)     98.1%
 TRANSITION DIPOLE   0.1056         C  4 -- H 20         +26.3% ( 53.3%)     98.1%
 TRAVEL (Ang.)       0.2864         C  3 -- H 18         +19.5% ( 46.0%)     94.8%
 REDUCED MASS        0.2708         C  4 -- H 19         +15.1% ( 40.4%)     94.8%
 EFFECTIVE MASS      1.5397
 FORCE CONSTANT      1.4699

 VIBRATION         83   83A           ATOM PAIR      ENERGY CONTRIBUTION    RADIAL
 FREQUENCY          3076.68         C  8 -- H 27         +57.6% ( 78.3%)     98.1%
 TRANSITION DIPOLE   0.0096         C  8 -- H 25         +39.1% ( 64.5%)     95.4%
 TRAVEL (Ang.)       0.2068         C  8 -- H 26          +1.9% ( 14.3%)     22.3%
 REDUCED MASS        0.5126         C  5 -- C  8          +1.0% ( 10.2%)      0.0%
 EFFECTIVE MASS      1.5011
 FORCE CONSTANT      2.8590

 VIBRATION         84   84A           ATOM PAIR      ENERGY CONTRIBUTION    RADIAL
 FREQUENCY          3081.38         C  9 -- H 28         +64.3% ( 82.7%)     98.7%
 TRANSITION DIPOLE   0.0091         C  9 -- H 29         +27.8% ( 54.4%)     91.9%
 TRAVEL (Ang.)       0.2046         C  9 -- H 30          +6.6% ( 26.4%)     63.1%
 REDUCED MASS        0.5228         C  7 -- C  9          +1.0% ( 10.2%)      0.0%
 EFFECTIVE MASS      1.5011
 FORCE CONSTANT      2.9244

 VIBRATION         85   85A           ATOM PAIR      ENERGY CONTRIBUTION    RADIAL
 FREQUENCY          3084.22         C  8 -- H 26         +60.0% ( 79.9%)     98.6%
 TRANSITION DIPOLE   0.0028         C  8 -- H 25         +27.4% ( 54.0%)     91.4%
 TRAVEL (Ang.)       0.2142         C  8 -- H 27         +11.1% ( 34.3%)     75.8%
 REDUCED MASS        0.4766         C  5 -- C  8          +1.0% ( 10.3%)      0.0%
 EFFECTIVE MASS      1.5037
 FORCE CONSTANT      2.6709

 VIBRATION         86   86A           ATOM PAIR      ENERGY CONTRIBUTION    RADIAL
 FREQUENCY          3086.06         C  9 -- H 30         +58.0% ( 78.5%)     98.2%
 TRANSITION DIPOLE   0.0115         C  9 -- H 29         +36.9% ( 62.7%)     94.7%
 TRAVEL (Ang.)       0.2086         C  9 -- H 28          +3.6% ( 19.6%)     43.2%
 REDUCED MASS        0.5022         C  7 -- C  9          +1.0% ( 10.3%)      0.1%
 EFFECTIVE MASS      1.5040
 FORCE CONSTANT      2.8180

 VIBRATION         87   87A           ATOM PAIR      ENERGY CONTRIBUTION    RADIAL
 FREQUENCY          3100.38         C  3 -- H 18         +33.5% ( 57.4%)     98.7%
 TRANSITION DIPOLE   0.1078         C  4 -- H 19         +29.6% ( 54.0%)     98.7%
 TRAVEL (Ang.)       0.2893         C  3 -- H 17         +18.6% ( 42.7%)     94.7%
 REDUCED MASS        0.2598         C  4 -- H 20         +16.4% ( 40.2%)     94.8%
 EFFECTIVE MASS      1.2664
 FORCE CONSTANT      1.4716

 VIBRATION         88   88A           ATOM PAIR      ENERGY CONTRIBUTION    RADIAL
 FREQUENCY          3103.18         C  4 -- H 19         +33.4% ( 57.4%)     98.5%
 TRANSITION DIPOLE   0.0181         C  3 -- H 18         +29.5% ( 54.0%)     98.5%
 TRAVEL (Ang.)       0.2890         C  4 -- H 20         +18.4% ( 42.6%)     94.3%
 REDUCED MASS        0.2602         C  3 -- H 17         +16.3% ( 40.1%)     94.2%
 EFFECTIVE MASS      1.3087
 FORCE CONSTANT      1.4765

 VIBRATION         89   89A           ATOM PAIR      ENERGY CONTRIBUTION    RADIAL
 FREQUENCY          3179.50         C  8 -- H 26         +37.4% ( 58.9%)     97.7%
 TRANSITION DIPOLE   0.0112         C  8 -- H 25         +32.5% ( 54.8%)     97.0%
 TRAVEL (Ang.)       0.2537         C  8 -- H 27         +29.8% ( 52.5%)     96.5%
 REDUCED MASS        0.3294         C  5 -- C  8          +0.3% (  5.1%)     99.3%
 EFFECTIVE MASS      1.1368
 FORCE CONSTANT      1.9620

 VIBRATION         90   90A           ATOM PAIR      ENERGY CONTRIBUTION    RADIAL
 FREQUENCY          3183.06         C  9 -- H 29         +34.5% ( 56.5%)     97.3%
 TRANSITION DIPOLE   0.0241         C  9 -- H 30         +34.4% ( 56.5%)     97.3%
 TRAVEL (Ang.)       0.2542         C  9 -- H 28         +30.7% ( 53.3%)     96.7%
 REDUCED MASS        0.3278         C  7 -- C  9          +0.3% (  5.1%)     99.7%
 EFFECTIVE MASS      1.1361
 FORCE CONSTANT      1.9567

      SYMMETRY NUMBER FOR POINT-GROUP C1  =  1


          SYSTEM IS A GROUND STATE



 InChI=1S/C12H20/c1-3-5-6-7-8-12-9-11(4-2)10-12/h5,7,11-12H,3-4,8-10H2,1-2H3


          MOLECULE IS NOT LINEAR

          THERE ARE 90 GENUINE VIBRATIONS IN THIS SYSTEM
          THIS THERMODYNAMICS CALCULATION IS LIMITED TO
          MOLECULES WHICH HAVE NO INTERNAL ROTATIONS




                    CALCULATED THERMODYNAMIC PROPERTIES
                                          *
   TEMP. (K)   PARTITION FUNCTION   H.O.F.    ENTHALPY  HEAT CAPACITY ENTROPY
                                   KCAL/MOL   CAL/MOLE    CAL/K/MOL  CAL/K/MOL


 298.00  VIB.     0.5649D+06                  7076.0293    45.6078    50.0645
         ROT.     0.2256D+07                   888.2803     2.9808    32.0518
         INT.     0.1274D+13                  7964.3096    48.5886    82.1163
         TRA.     0.2036D+28                  1480.4672     4.9680    41.1956
         TOT.                       14.631    9444.7768    53.5566   123.3119

 200.00  VIB.     0.1008D+05                  3388.8023    30.2805    35.2632
         ROT.     0.1240D+07                   596.1613     2.9808    30.8631
         INT.     0.1251D+11                  3984.9636    33.2613    66.1264
         TRA.     0.1119D+28                   993.6021     4.9680    39.2145
         TOT.                       10.165    4978.5657    38.2293   105.3409

 210.00  VIB.     0.1541D+05                  3698.4226    31.6516    36.7736
         ROT.     0.1335D+07                   625.9693     2.9808    31.0086
         INT.     0.2056D+11                  4324.3919    34.6324    67.7822
         TRA.     0.1204D+28                  1043.2822     4.9680    39.4569
         TOT.                       10.554    5367.6742    39.6004   107.2391

 220.00  VIB.     0.2345D+05                  4021.9982    33.0717    38.2786
         ROT.     0.1431D+07                   655.7774     2.9808    31.1473
         INT.     0.3356D+11                  4677.7756    36.0525    69.4259
         TRA.     0.1291D+28                  1092.9623     4.9680    39.6880
         TOT.                       10.957    5770.7379    41.0205   109.1139

 230.00  VIB.     0.3557D+05                  4360.0203    34.5408    39.7810
         ROT.     0.1530D+07                   685.5855     2.9808    31.2798
         INT.     0.5441D+11                  5045.6058    37.5216    71.0607
         TRA.     0.1380D+28                  1142.6424     4.9680    39.9088
         TOT.                       11.375    6188.2482    42.4897   110.9695

 240.00  VIB.     0.5377D+05                  4712.9739    36.0576    41.2829
         ROT.     0.1631D+07                   715.3935     2.9808    31.4066
         INT.     0.8767D+11                  5428.3674    39.0384    72.6895
         TRA.     0.1471D+28                  1192.3226     4.9680    40.1203
         TOT.                       11.807    6620.6900    44.0065   112.8098

 250.00  VIB.     0.8105D+05                  5081.3232    37.6194    42.7863
         ROT.     0.1734D+07                   745.2016     2.9808    31.5283
         INT.     0.1405D+12                  5826.5248    40.6002    74.3146
         TRA.     0.1564D+28                  1242.0027     4.9680    40.3231
         TOT.                       12.255    7068.5274    45.5682   114.6377

 260.00  VIB.     0.1219D+06                  5465.5002    39.2225    44.2929
         ROT.     0.1839D+07                   775.0097     2.9808    31.6452
         INT.     0.2241D+12                  6240.5099    42.2033    75.9381
         TRA.     0.1659D+28                  1291.6828     4.9680    40.5179
         TOT.                       12.719    7532.1927    47.1713   116.4560

 270.00  VIB.     0.1829D+06                  5865.8965    40.8625    45.8038
         ROT.     0.1946D+07                   804.8177     2.9808    31.7577
         INT.     0.3558D+12                  6670.7142    43.8433    77.5615
         TRA.     0.1756D+28                  1341.3629     4.9680    40.7054
         TOT.                       13.198    8012.0771    48.8113   118.2670

 280.00  VIB.     0.2740D+06                  6282.8564    42.5344    47.3200
         ROT.     0.2055D+07                   834.6258     2.9808    31.8661
         INT.     0.5629D+12                  7117.4822    45.5152    79.1861
         TRA.     0.1854D+28                  1391.0430     4.9680    40.8861
         TOT.                       13.695    8508.5252    50.4832   120.0722

 290.00  VIB.     0.4097D+06                  6716.6739    44.2331    48.8422
         ROT.     0.2166D+07                   864.4339     2.9808    31.9707
         INT.     0.8874D+12                  7581.1078    47.2139    80.8129
         TRA.     0.1954D+28                  1440.7231     4.9680    41.0604
         TOT.                       14.208    9021.8309    52.1819   121.8733

 300.00  VIB.     0.6121D+06                  7167.5903    45.9533    50.3707
         ROT.     0.2279D+07                   894.2419     2.9808    32.0718
         INT.     0.1395D+13                  8061.8322    48.9341    82.4424
         TRA.     0.2056D+28                  1490.4032     4.9680    41.2289
         TOT.                       14.739    9552.2354    53.9021   123.6713

 310.00  VIB.     0.9134D+06                  7635.7939    47.6897    51.9058
         ROT.     0.2394D+07                   924.0500     2.9808    32.1695
         INT.     0.2186D+13                  8559.8439    50.6705    84.0753
         TRA.     0.2160D+28                  1540.0833     4.9680    41.3918
         TOT.                       15.286   10099.9272    55.6385   125.4670

 320.00  VIB.     0.1362D+07                  8121.4213    49.4372    53.4474
         ROT.     0.2510D+07                   953.8580     2.9808    32.2641
         INT.     0.3419D+13                  9075.2793    52.4180    85.7115
         TRA.     0.2265D+28                  1589.7634     4.9680    41.5495
         TOT.                       15.851   10665.0427    57.3860   127.2610

 330.00  VIB.     0.2029D+07                  8624.5591    51.1910    54.9955
         ROT.     0.2629D+07                   983.6661     2.9808    32.3559
         INT.     0.5335D+13                  9608.2252    54.1718    87.3514
         TRA.     0.2372D+28                  1639.4435     4.9680    41.7024
         TOT.                       16.434   11247.6688    59.1398   129.0537

 340.00  VIB.     0.3022D+07                  9145.2472    52.9465    56.5498
         ROT.     0.2749D+07                  1013.4742     2.9808    32.4449
         INT.     0.8309D+13                 10158.7213    55.9273    88.9946
         TRA.     0.2481D+28                  1689.1236     4.9680    41.8507
         TOT.                       17.034   11847.8449    60.8953   130.8453

 350.00  VIB.     0.4499D+07                  9683.4812    54.6995    58.1099
         ROT.     0.2872D+07                  1043.2822     2.9808    32.5313
         INT.     0.1292D+14                 10726.7634    57.6804    90.6411
         TRA.     0.2591D+28                  1738.8037     4.9680    41.9947
         TOT.                       17.652   12465.5671    62.6484   132.6358

 360.00  VIB.     0.6696D+07                 10239.2170    56.4463    59.6753
         ROT.     0.2995D+07                  1073.0903     2.9808    32.6152
         INT.     0.2006D+14                 11312.3073    59.4271    92.2905
         TRA.     0.2703D+28                  1788.4838     4.9680    42.1347
         TOT.                       18.287   13100.7911    64.3951   134.4252

 370.00  VIB.     0.9965D+07                 10812.3740    58.1832    61.2456
         ROT.     0.3121D+07                  1102.8984     2.9808    32.6969
         INT.     0.3110D+14                 11915.2723    61.1640    93.9425
         TRA.     0.2817D+28                  1838.1639     4.9680    42.2708
         TOT.                       18.940   13753.4363    66.1321   136.2133

 380.00  VIB.     0.1483D+08                 11402.8391    59.9074    62.8202
         ROT.     0.3249D+07                  1132.7064     2.9808    32.7764
         INT.     0.4817D+14                 12535.5455    62.8882    95.5966
         TRA.     0.2932D+28                  1887.8440     4.9680    42.4033
         TOT.                       19.610   14423.3895    67.8562   137.9998

 390.00  VIB.     0.2206D+08                 12010.4706    61.6161    64.3984
         ROT.     0.3378D+07                  1162.5145     2.9808    32.8538
         INT.     0.7452D+14                 13172.9851    64.5969    97.2522
         TRA.     0.3048D+28                  1937.5242     4.9680    42.5323
         TOT.                       20.297   15110.5092    69.5649   139.7845

 400.00  VIB.     0.3283D+08                 12635.1019    63.3070    65.9798
         ROT.     0.3508D+07                  1192.3226     2.9808    32.9293
         INT.     0.1152D+15                 13827.4245    66.2878    98.9090
         TRA.     0.3166D+28                  1987.2043     4.9680    42.6581
         TOT.                       21.001   15814.6287    71.2558   141.5671

   *: NOTE: HEATS OF FORMATION ARE RELATIVE TO THE
            ELEMENTS IN THEIR STANDARD STATE AT 298K
              (=  Standard Enthalpy of Formation).

            Hvib:  Zero-point energy is not included.
                   frequencies of less than zero cm-1 are not included.
            Hrot = (3/2)RT
            Htra = (3/2)RT + pV = (5/2)RT

            Heat capacity is Cp, not Cv

          For more information, see: HTTP://OpenMOPAC.net/Manual/thermochemistry.html


           FORCE CONSTANT IN CARTESIAN COORDINATES (Millidynes/A)

    ATOM   CHEMICAL       X               Y               Z
   NUMBER   SYMBOL  FORCE CONSTANT  FORCE CONSTANT  FORCE CONSTANT

      1       C        9.840595        6.329007        8.641629
      2       C        9.835636        6.301570        8.623896
      3       C        5.994059        9.745013        8.654728
      4       C        5.972936        9.739579        8.661174
      5       C        8.401668        8.425407        8.268132
      6       C        8.629970        8.435345        8.346577
      7       C        8.407849        8.313428        8.555012
      8       C        8.345798        8.205719        8.344426
      9       C        8.281868        8.208732        8.371372
     10       C        5.864588        9.842041       11.233581
     11       C        6.150537        8.456306       12.327231
     12       C        3.035130        9.987277       15.416972
     13       H        2.021247        0.666510        3.571944
     14       H        2.023430        0.667042        3.577275
     15       H        1.676616        4.005685        0.693765
     16       H        2.017246        0.736474        3.620064
     17       H        0.688753        2.270694        3.655530
     18       H        0.666423        2.259810        3.710464
     19       H        0.666414        2.305711        3.664144
     20       H        0.682652        2.228044        3.701723
     21       H        1.054946        4.580550        0.778237
     22       H        3.305252        2.169306        0.802734
     23       H        1.595439        3.963937        0.678657
     24       H        2.005601        0.746330        3.622510
     25       H        2.279308        0.733765        3.765081
     26       H        2.271150        0.710077        3.810471
     27       H        1.714501        4.370158        0.670634
     28       H        1.059716        4.928615        0.792260
     29       H        3.571040        2.349858        0.861406
     30       H        3.120896        0.861710        2.804645
     31       H        1.541025        3.905590        0.629528
     32       H        1.645493        0.582934        3.851096

 **********************
 *                    *
 * JOB ENDED NORMALLY *
 *                    *
 **********************



 TOTAL JOB TIME:            11.88 SECONDS

 == MOPAC DONE ==
