 *******************************************************************************
 **                                                                           **
 **                              MOPAC v23.1.2                                **
 **                                                                           **
 *******************************************************************************
 **          Digital Object Identifier (DOI): 10.5281/zenodo.6511958          **
 **    Visit the DOI location for information on how to cite this program.    **
 *******************************************************************************

                              PM3 CALCULATION RESULTS

 *******************************************************************************
 *  CALCULATION DONE: (MAX THREADS = 1)              Tue Jun  3 16:30:11 2025  *
 *  PM3        - The PM3 Hamiltonian to be used
 *  PRECISE    - TIGHTER CRITERIA TO BE USED
 *  NOSYM      - POINT-GROUP SYMMETRY SET TO C1
 *  THREADS=1  - MULTI-THREADING NOT USED
 *  T=         - A TIME OF 172800.0 SECONDS REQUESTED
 *  DUMP=N     - RESTART FILE WRITTEN EVERY 7200.0 SECONDS REQUESTED
 *******************************************************************************
pm3  precise nosym THREADS=1
 InChI=1S/C9H12/c1-8(2)9-6-4-3-5-7-9/h3-8H,1-2H3

   ATOM   CHEMICAL          X               Y               Z
  NUMBER   SYMBOL      (ANGSTROMS)     (ANGSTROMS)     (ANGSTROMS)

     1       C         -1.39310000  *  -0.18370000  *  -0.07380000  *
     2       C         -1.97710000  *   0.45400000  *   1.19240000  *
     3       C         -1.85760000  *   0.56080000  *  -1.33110000  *
     4       C          0.12120000  *  -0.24840000  *  -0.00480000  *
     5       C          0.89670000  *   0.92490000  *   0.08160000  *
     6       C          0.77400000  *  -1.49470000  *  -0.02660000  *
     7       C          2.29140000  *   0.84850000  *   0.14440000  *
     8       C          2.16910000  *  -1.56500000  *   0.03650000  *
     9       C          2.92690000  *  -0.39490000  *   0.12190000  *
    10       H         -1.80490000  *  -1.21580000  *  -0.13700000  *
    11       H         -3.08670000  *   0.40620000  *   1.16470000  *
    12       H         -1.67240000  *   1.51810000  *   1.28290000  *
    13       H         -1.62870000  *  -0.09770000  *   2.09170000  *
    14       H         -1.54990000  *   1.62760000  *  -1.30240000  *
    15       H         -2.96470000  *   0.51530000  *  -1.41230000  *
    16       H         -1.42370000  *   0.08550000  *  -2.23680000  *
    17       H          0.42480000  *   1.89860000  *   0.10050000  *
    18       H          0.20520000  *  -2.41380000  *  -0.09250000  *
    19       H          2.87970000  *   1.75450000  *   0.21070000  *
    20       H          2.66290000  *  -2.52800000  *   0.01910000  *
    21       H          4.00670000  *  -0.45180000  *   0.17070000  *



          CARTESIAN COORDINATES 

    NO.       ATOM           X           Y           Z

     1         C         -1.3931     -0.1837     -0.0738
     2         C         -1.9771      0.4540      1.1924
     3         C         -1.8576      0.5608     -1.3311
     4         C          0.1212     -0.2484     -0.0048
     5         C          0.8967      0.9249      0.0816
     6         C          0.7740     -1.4947     -0.0266
     7         C          2.2914      0.8485      0.1444
     8         C          2.1691     -1.5650      0.0365
     9         C          2.9269     -0.3949      0.1219
    10         H         -1.8049     -1.2158     -0.1370
    11         H         -3.0867      0.4062      1.1647
    12         H         -1.6724      1.5181      1.2829
    13         H         -1.6287     -0.0977      2.0917
    14         H         -1.5499      1.6276     -1.3024
    15         H         -2.9647      0.5153     -1.4123
    16         H         -1.4237      0.0855     -2.2368
    17         H          0.4248      1.8986      0.1005
    18         H          0.2052     -2.4138     -0.0925
    19         H          2.8797      1.7545      0.2107
    20         H          2.6629     -2.5280      0.0191
    21         H          4.0067     -0.4518      0.1707

  H: (PM3): J. J. P. STEWART, J. COMP. CHEM. 10, 209 (1989).
  C: (PM3): J. J. P. STEWART, J. COMP. CHEM. 10, 209 (1989).

           Empirical Formula: C9 H12  =    21 atoms



      MOLECULAR POINT GROUP   :   C1  


      RHF CALCULATION, NO. OF DOUBLY OCCUPIED LEVELS = 24


          Geometry optimization using EF

          DIAGONAL MATRIX USED AS START HESSIAN

 CYCLE:     1 TIME:   0.008 TIME LEFT:  2.00D  GRAD.:    62.899 HEAT:  6.323979
 CYCLE:     2 TIME:   0.008 TIME LEFT:  2.00D  GRAD.:    72.002 HEAT:  6.079858
 CYCLE:     3 TIME:   0.008 TIME LEFT:  2.00D  GRAD.:    28.779 HEAT:  5.206782
 CYCLE:     4 TIME:   0.012 TIME LEFT:  2.00D  GRAD.:    26.764 HEAT:  5.035630
 CYCLE:     5 TIME:   0.008 TIME LEFT:  2.00D  GRAD.:    19.705 HEAT:  4.911938
 CYCLE:     6 TIME:   0.012 TIME LEFT:  2.00D  GRAD.:    16.783 HEAT:  4.849557
 CYCLE:     7 TIME:   0.008 TIME LEFT:  2.00D  GRAD.:    12.857 HEAT:  4.811278
 CYCLE:     8 TIME:   0.004 TIME LEFT:  2.00D  GRAD.:    16.478 HEAT:  4.800040
 CYCLE:     9 TIME:   0.008 TIME LEFT:  2.00D  GRAD.:    12.018 HEAT:  4.761678
 CYCLE:    10 TIME:   0.008 TIME LEFT:  2.00D  GRAD.:     9.879 HEAT:  4.732583
 CYCLE:    11 TIME:   0.004 TIME LEFT:  2.00D  GRAD.:    11.564 HEAT:  4.726677
 CYCLE:    12 TIME:   0.008 TIME LEFT:  2.00D  GRAD.:    11.069 HEAT:  4.715649
 CYCLE:    13 TIME:   0.008 TIME LEFT:  2.00D  GRAD.:     4.495 HEAT:  4.683915
 CYCLE:    14 TIME:   0.012 TIME LEFT:  2.00D  GRAD.:     3.538 HEAT:  4.678218
 CYCLE:    15 TIME:   0.016 TIME LEFT:  2.00D  GRAD.:     2.291 HEAT:  4.671832
 CYCLE:    16 TIME:   0.008 TIME LEFT:  2.00D  GRAD.:     2.971 HEAT:  4.665469
 CYCLE:    17 TIME:   0.004 TIME LEFT:  2.00D  GRAD.:     1.889 HEAT:  4.662848
 CYCLE:    18 TIME:   0.008 TIME LEFT:  2.00D  GRAD.:     2.132 HEAT:  4.662084
 CYCLE:    19 TIME:   0.008 TIME LEFT:  2.00D  GRAD.:     1.808 HEAT:  4.660840
 CYCLE:    20 TIME:   0.008 TIME LEFT:  2.00D  GRAD.:     2.085 HEAT:  4.660333
 CYCLE:    21 TIME:   0.008 TIME LEFT:  2.00D  GRAD.:     1.517 HEAT:  4.658623
 CYCLE:    22 TIME:   0.004 TIME LEFT:  2.00D  GRAD.:     1.514 HEAT:  4.657124
 CYCLE:    23 TIME:   0.008 TIME LEFT:  2.00D  GRAD.:     2.925 HEAT:  4.656042
 CYCLE:    24 TIME:   0.008 TIME LEFT:  2.00D  GRAD.:     1.105 HEAT:  4.653274
 CYCLE:    25 TIME:   0.008 TIME LEFT:  2.00D  GRAD.:     1.305 HEAT:  4.652562
 CYCLE:    26 TIME:   0.008 TIME LEFT:  2.00D  GRAD.:     0.849 HEAT:  4.651678
 CYCLE:    27 TIME:   0.004 TIME LEFT:  2.00D  GRAD.:     0.778 HEAT:  4.650980
 CYCLE:    28 TIME:   0.008 TIME LEFT:  2.00D  GRAD.:     0.659 HEAT:  4.650427
 CYCLE:    29 TIME:   0.008 TIME LEFT:  2.00D  GRAD.:     0.517 HEAT:  4.650000
 CYCLE:    30 TIME:   0.008 TIME LEFT:  2.00D  GRAD.:     0.492 HEAT:  4.649620
 CYCLE:    31 TIME:   0.008 TIME LEFT:  2.00D  GRAD.:     0.556 HEAT:  4.649273
 CYCLE:    32 TIME:   0.008 TIME LEFT:  2.00D  GRAD.:     0.548 HEAT:  4.648771
 CYCLE:    33 TIME:   0.008 TIME LEFT:  2.00D  GRAD.:     0.585 HEAT:  4.648203
 CYCLE:    34 TIME:   0.004 TIME LEFT:  2.00D  GRAD.:     0.598 HEAT:  4.647622
 CYCLE:    35 TIME:   0.008 TIME LEFT:  2.00D  GRAD.:     0.447 HEAT:  4.647227
 CYCLE:    36 TIME:   0.008 TIME LEFT:  2.00D  GRAD.:     0.361 HEAT:  4.646911
 CYCLE:    37 TIME:   0.008 TIME LEFT:  2.00D  GRAD.:     0.358 HEAT:  4.646614
 CYCLE:    38 TIME:   0.008 TIME LEFT:  2.00D  GRAD.:     0.443 HEAT:  4.646435
 CYCLE:    39 TIME:   0.004 TIME LEFT:  2.00D  GRAD.:     0.289 HEAT:  4.646249
 CYCLE:    40 TIME:   0.008 TIME LEFT:  2.00D  GRAD.:     0.335 HEAT:  4.646047
 CYCLE:    41 TIME:   0.008 TIME LEFT:  2.00D  GRAD.:     0.471 HEAT:  4.645815
 CYCLE:    42 TIME:   0.008 TIME LEFT:  2.00D  GRAD.:     0.442 HEAT:  4.645519
 CYCLE:    43 TIME:   0.008 TIME LEFT:  2.00D  GRAD.:     0.391 HEAT:  4.645122
 CYCLE:    44 TIME:   0.008 TIME LEFT:  2.00D  GRAD.:     0.403 HEAT:  4.644641
 CYCLE:    45 TIME:   0.008 TIME LEFT:  2.00D  GRAD.:     0.387 HEAT:  4.644295
 CYCLE:    46 TIME:   0.008 TIME LEFT:  2.00D  GRAD.:     0.245 HEAT:  4.644064
 CYCLE:    47 TIME:   0.004 TIME LEFT:  2.00D  GRAD.:     0.116 HEAT:  4.643989
 CYCLE:    48 TIME:   0.012 TIME LEFT:  2.00D  GRAD.:     0.101 HEAT:  4.643965
 CYCLE:    49 TIME:   0.008 TIME LEFT:  2.00D  GRAD.:     0.135 HEAT:  4.643939
 CYCLE:    50 TIME:   0.008 TIME LEFT:  2.00D  GRAD.:     0.081 HEAT:  4.643917
 CYCLE:    51 TIME:   0.008 TIME LEFT:  2.00D  GRAD.:     0.101 HEAT:  4.643902
 CYCLE:    52 TIME:   0.008 TIME LEFT:  2.00D  GRAD.:     0.033 HEAT:  4.643892

     GRADIENT =  0.03264 IS LESS THAN CUTOFF =  0.05000



 -------------------------------------------------------------------------------
 pm3  precise nosym THREADS=1
 InChI=1S/C9H12/c1-8(2)9-6-4-3-5-7-9/h3-8H,1-2H3



     GEOMETRY OPTIMISED USING EIGENVECTOR FOLLOWING (EF).     
     SCF FIELD WAS ACHIEVED                                   


                              PM3 CALCULATION
                                                       MOPAC v23.1.2 MacOS
                                                       Tue Jun  3 16:30:12 2025




          FINAL HEAT OF FORMATION =          4.64389 KCAL/MOL =      19.43004 KJ/MOL


          COSMO AREA              =        171.55 SQUARE ANGSTROMS
          COSMO VOLUME            =        172.55 CUBIC ANGSTROMS

          GRADIENT NORM           =          0.03264          =       0.00712 PER ATOM
          IONIZATION POTENTIAL    =          9.532025 EV
          HOMO LUMO ENERGIES (EV) =         -9.532  0.379
          NO. OF FILLED LEVELS    =         24
          MOLECULAR WEIGHT        =        120.1938         POINT GROUP:  C1  

          MOLECULAR DIMENSIONS (Angstroms)

            Atom       Atom       Distance
            H    21    H    15     7.17978
            H    18    H    19     4.51647
            H    13    H    16     4.23792


          SCF CALCULATIONS        =         58

          WALL-CLOCK TIME         =      0.418 SECONDS
          COMPUTATION TIME        =      0.239 SECONDS




   ATOM   CHEMICAL          X               Y               Z
  NUMBER   SYMBOL      (ANGSTROMS)     (ANGSTROMS)     (ANGSTROMS)

     1       C         -1.38002538  *  -0.19166381  *  -0.07369137  *
     2       C         -1.95686123  *   0.44594189  *   1.18137596  *
     3       C         -1.83849957  *   0.55253252  *  -1.31885461  *
     4       C          0.12177816  *  -0.24724656  *  -0.00479164  *
     5       C          0.88551984  *   0.91866348  *   0.08052069  *
     6       C          0.76753719  *  -1.48497051  *  -0.02615315  *
     7       C          2.27212722  *   0.84628973  *   0.14316710  *
     8       C          2.15487307  *  -1.55447845  *   0.03660643  *
     9       C          2.90941535  *  -0.38978668  *   0.12126235  *
    10       H         -1.76895458  *  -1.23944413  *  -0.13684668  *
    11       H         -3.05438033  *   0.44688921  *   1.15398556  *
    12       H         -1.63070280  *   1.48870882  *   1.29709149  *
    13       H         -1.64673467  *  -0.09717163  *   2.08296251  *
    14       H         -1.50752365  *   1.60017550  *  -1.31416593  *
    15       H         -2.93368874  *   0.55502894  *  -1.39524376  *
    16       H         -1.44231355  *   0.08696801  *  -2.23005451  *
    17       H          0.38902113  *   1.89629982  *   0.09820747  *
    18       H          0.17988019  *  -2.40809254  *  -0.09267795  *
    19       H          2.86322942  *   1.76541210  *   0.20992283  *
    20       H          2.65293462  *  -2.52928315  *   0.01925241  *
    21       H          4.00150745  *  -0.44532460  *   0.17051972  *

                             CARTESIAN COORDINATES

   1    C       -1.380025382    -0.191663810    -0.073691375
   2    C       -1.956861228     0.445941889     1.181375962
   3    C       -1.838499565     0.552532520    -1.318854614
   4    C        0.121778162    -0.247246561    -0.004791641
   5    C        0.885519837     0.918663477     0.080520691
   6    C        0.767537188    -1.484970506    -0.026153152
   7    C        2.272127218     0.846289731     0.143167102
   8    C        2.154873072    -1.554478448     0.036606426
   9    C        2.909415347    -0.389786676     0.121262351
  10    H       -1.768954583    -1.239444134    -0.136846681
  11    H       -3.054380329     0.446889211     1.153985556
  12    H       -1.630702802     1.488708823     1.297091489
  13    H       -1.646734667    -0.097171627     2.082962513
  14    H       -1.507523655     1.600175504    -1.314165929
  15    H       -2.933688745     0.555028943    -1.395243761
  16    H       -1.442313552     0.086968007    -2.230054513
  17    H        0.389021128     1.896299822     0.098207468
  18    H        0.179880192    -2.408092542    -0.092677950
  19    H        2.863229425     1.765412101     0.209922833
  20    H        2.652934620    -2.529283151     0.019252414
  21    H        4.001507453    -0.445324602     0.170519719


           Empirical Formula: C9 H12  =    21 atoms



      MOLECULAR POINT GROUP   :   C1  


                  EIGENVALUES  
 -40.75963 -35.89995 -29.65448 -28.26808 -27.19138 -22.46980 -21.48250 -19.67501
 -17.88379 -16.67097 -15.51420 -15.10141 -14.86098 -14.65787 -14.47351 -13.28228
 -13.21435 -12.89334 -12.47650 -12.41075 -12.05331 -11.66281  -9.71224  -9.53203
   0.37931   0.44855   2.83722   3.14488   3.42067   3.49251   3.62023   3.71745
   3.75006   3.93740   4.03188   4.09058   4.38339   4.46473   4.49594   4.70084
   4.76423   4.97910   5.08002   5.22351   5.32554   5.39126   6.18872   6.38952


              NET ATOMIC CHARGES AND DIPOLE CONTRIBUTIONS

  ATOM NO.   TYPE          CHARGE      No. of ELECS.   s-Pop       p-Pop       
    1          C          -0.028440        4.0284     1.16149     2.86695
    2          C          -0.111313        4.1113     1.14187     2.96944
    3          C          -0.111307        4.1113     1.14186     2.96944
    4          C          -0.074494        4.0745     1.18568     2.88882
    5          C          -0.098197        4.0982     1.17782     2.92037
    6          C          -0.099787        4.0998     1.17995     2.91983
    7          C          -0.100600        4.1006     1.17871     2.92189
    8          C          -0.101407        4.1014     1.17890     2.92251
    9          C          -0.105587        4.1056     1.17913     2.92646
   10          H           0.062731        0.9373     0.93727
   11          H           0.039693        0.9603     0.96031
   12          H           0.041955        0.9580     0.95805
   13          H           0.043183        0.9568     0.95682
   14          H           0.041959        0.9580     0.95804
   15          H           0.039685        0.9603     0.96031
   16          H           0.043184        0.9568     0.95682
   17          H           0.107885        0.8921     0.89212
   18          H           0.104903        0.8951     0.89510
   19          H           0.101748        0.8983     0.89825
   20          H           0.101854        0.8981     0.89815
   21          H           0.102351        0.8976     0.89765
 DIPOLE           X         Y         Z       TOTAL
 POINT-CHG.    -0.226     0.019    -0.010     0.227
 HYBRID         0.021     0.026     0.002     0.034
 SUM           -0.205     0.045    -0.008     0.210


          ATOMIC ORBITAL ELECTRON POPULATIONS

     Atom    s        px        py        pz   
    1  C   1.16149   0.91612   0.99779   0.95304
    2  C   1.14187   0.99794   1.00299   0.96852
    3  C   1.14186   1.00181   0.99872   0.96892
    4  C   1.18568   0.95092   0.94459   0.99331
    5  C   1.17782   0.94594   0.97195   1.00249
    6  C   1.17995   0.95193   0.96283   1.00507
    7  C   1.17871   0.95122   0.96985   1.00082
    8  C   1.17890   0.94813   0.97367   1.00070
    9  C   1.17913   0.98184   0.94093   1.00369
   10  H   0.93727
   11  H   0.96031
   12  H   0.95805
   13  H   0.95682
   14  H   0.95804
   15  H   0.96031
   16  H   0.95682
   17  H   0.89212
   18  H   0.89510
   19  H   0.89825
   20  H   0.89815
   21  H   0.89765
 *******************************************************************************
 **                                                                           **
 **                              MOPAC v23.1.2                                **
 **                                                                           **
 *******************************************************************************
 **          Digital Object Identifier (DOI): 10.5281/zenodo.6511958          **
 **    Visit the DOI location for information on how to cite this program.    **
 *******************************************************************************

                              PM3 CALCULATION RESULTS

 *******************************************************************************
 *  CALCULATION DONE: (MAX THREADS = 1)              Tue Jun  3 16:30:12 2025  *
 *  PM3        - The PM3 Hamiltonian to be used
 *  OLDGEO     - PREVIOUS GEOMETRY TO BE USED
 *  PRECISE    - TIGHTER CRITERIA TO BE USED
 *  NOSYM      - POINT-GROUP SYMMETRY SET TO C1
 *  THREADS=1  - MULTI-THREADING NOT USED
 *  T=         - A TIME OF 172800.0 SECONDS REQUESTED
 *  DUMP=N     - RESTART FILE WRITTEN EVERY 7200.0 SECONDS REQUESTED
 *  THERMO     - THERMODYNAMIC QUANTITIES TO BE CALCULATED
 *******************************************************************************
oldgeo thermo nosym precise THREADS=1  pm3
 InChI=1S/C9H12/c1-8(2)9-6-4-3-5-7-9/h3-8H,1-2H3

   ATOM   CHEMICAL          X               Y               Z
  NUMBER   SYMBOL      (ANGSTROMS)     (ANGSTROMS)     (ANGSTROMS)

     1       C         -1.38002538  *  -0.19166381  *  -0.07369137  *
     2       C         -1.95686123  *   0.44594189  *   1.18137596  *
     3       C         -1.83849957  *   0.55253252  *  -1.31885461  *
     4       C          0.12177816  *  -0.24724656  *  -0.00479164  *
     5       C          0.88551984  *   0.91866348  *   0.08052069  *
     6       C          0.76753719  *  -1.48497051  *  -0.02615315  *
     7       C          2.27212722  *   0.84628973  *   0.14316710  *
     8       C          2.15487307  *  -1.55447845  *   0.03660643  *
     9       C          2.90941535  *  -0.38978668  *   0.12126235  *
    10       H         -1.76895458  *  -1.23944413  *  -0.13684668  *
    11       H         -3.05438033  *   0.44688921  *   1.15398556  *
    12       H         -1.63070280  *   1.48870882  *   1.29709149  *
    13       H         -1.64673467  *  -0.09717163  *   2.08296251  *
    14       H         -1.50752365  *   1.60017550  *  -1.31416593  *
    15       H         -2.93368874  *   0.55502894  *  -1.39524376  *
    16       H         -1.44231355  *   0.08696801  *  -2.23005451  *
    17       H          0.38902113  *   1.89629982  *   0.09820747  *
    18       H          0.17988019  *  -2.40809254  *  -0.09267795  *
    19       H          2.86322942  *   1.76541210  *   0.20992283  *
    20       H          2.65293462  *  -2.52928315  *   0.01925241  *
    21       H          4.00150745  *  -0.44532460  *   0.17051972  *



          CARTESIAN COORDINATES 

    NO.       ATOM           X           Y           Z

     1         C         -1.3800     -0.1917     -0.0737
     2         C         -1.9569      0.4459      1.1814
     3         C         -1.8385      0.5525     -1.3189
     4         C          0.1218     -0.2472     -0.0048
     5         C          0.8855      0.9187      0.0805
     6         C          0.7675     -1.4850     -0.0262
     7         C          2.2721      0.8463      0.1432
     8         C          2.1549     -1.5545      0.0366
     9         C          2.9094     -0.3898      0.1213
    10         H         -1.7690     -1.2394     -0.1368
    11         H         -3.0544      0.4469      1.1540
    12         H         -1.6307      1.4887      1.2971
    13         H         -1.6467     -0.0972      2.0830
    14         H         -1.5075      1.6002     -1.3142
    15         H         -2.9337      0.5550     -1.3952
    16         H         -1.4423      0.0870     -2.2301
    17         H          0.3890      1.8963      0.0982
    18         H          0.1799     -2.4081     -0.0927
    19         H          2.8632      1.7654      0.2099
    20         H          2.6529     -2.5293      0.0193
    21         H          4.0015     -0.4453      0.1705

  H: (PM3): J. J. P. STEWART, J. COMP. CHEM. 10, 209 (1989).
  C: (PM3): J. J. P. STEWART, J. COMP. CHEM. 10, 209 (1989).

           Empirical Formula: C9 H12  =    21 atoms



      MOLECULAR POINT GROUP   :   C1  


      RHF CALCULATION, NO. OF DOUBLY OCCUPIED LEVELS = 24



          HEAT OF FORMATION =       4.643892 KCALS/MOLE


          CARTESIAN COORDINATE DERIVATIVES

   NUMBER  ATOM         X            Y            Z

     1       C     -0.001694     0.003385    -0.003152
     2       C     -0.002164    -0.003215     0.000051
     3       C     -0.000293     0.005627    -0.006029
     4       C      0.002134     0.001185     0.003372
     5       C      0.004657     0.004577     0.005706
     6       C     -0.000256    -0.004927    -0.003982
     7       C      0.001112    -0.000712     0.002503
     8       C     -0.001378     0.000442    -0.000157
     9       C     -0.000576     0.000882     0.003959
    10       H     -0.004862     0.001432    -0.009320
    11       H      0.005255     0.003428    -0.004456
    12       H      0.006211     0.003695     0.002359
    13       H     -0.004322    -0.004370    -0.001281
    14       H      0.000774     0.007272     0.001138
    15       H     -0.007363    -0.009887    -0.004184
    16       H      0.002706     0.002620     0.008046
    17       H      0.001258    -0.001206     0.005966
    18       H     -0.000056    -0.007684     0.002685
    19       H      0.000693    -0.003144    -0.003867
    20       H      0.002938     0.001323    -0.003617
    21       H     -0.004774    -0.000721     0.004260



          GRADIENT NORM =   0.03216

          MOLECULAR WEIGHT =  120.19



          ROTATIONAL CONSTANTS IN CM(-1)

          A =    0.11205857   B =    0.03674533   C =    0.03361336



           PRINCIPAL MOMENTS OF INERTIA IN UNITS OF 10**(-40)*GRAM-CM**2

          A =      249.8046   B =      761.8043   C =      832.7865


          ORIENTATION OF MOLECULE IN FORCE CALCULATION

    NO.       ATOM         X         Y         Z

     1          C       0.5507    0.7993    1.4503
     2          C       2.0720    0.7993    1.4503
     3          C       0.0092    2.2210    1.4503
     4          C       0.0148    0.0215    0.2794
     5          C       0.2842    0.4134   -1.0335
     6          C      -0.7664   -1.1135    0.5052
     7          C      -0.2202   -0.3186   -2.1019
     8          C      -1.2698   -1.8439   -0.5656
     9          C      -0.9979   -1.4482   -1.8704
    10          H       0.2069    0.3007    2.3917
    11          H       2.4659    1.3278    2.3283
    12          H       2.4808    1.2944    0.5587
    13          H       2.4706   -0.2228    1.4703
    14          H       0.3266    2.7795    0.5590
    15          H       0.3624    2.7770    2.3286
    16          H      -1.0879    2.2298    1.4700
    17          H       0.8968    1.3031   -1.2227
    18          H      -0.9854   -1.4323    1.5310
    19          H      -0.0040   -0.0043   -3.1282
    20          H      -1.8815   -2.7326   -0.3793
    21          H      -1.3947   -2.0237   -2.7127


    FIRST DERIVATIVES WILL BE USED IN THE CALCULATION OF SECOND DERIVATIVES

          ESTIMATED TIME TO COMPLETE CALCULATION =        1.97 SECONDS

    FOR POINT-GROUP C1   THERE ARE   1 UNIQUE SYMMETRY FUNCTIONS.

 STEP:   1 TIME =     0.02 SECS, INTEGRAL =      0.02 TIME LEFT: 172799.97
 STEP:   2 TIME =     0.02 SECS, INTEGRAL =      0.04 TIME LEFT: 172799.95
 STEP:   3 TIME =     0.02 SECS, INTEGRAL =      0.06 TIME LEFT: 172799.93
 STEP:   4 TIME =     0.02 SECS, INTEGRAL =      0.07 TIME LEFT: 172799.92
 STEP:   5 TIME =     0.02 SECS, INTEGRAL =      0.09 TIME LEFT: 172799.90
 STEP:   6 TIME =     0.02 SECS, INTEGRAL =      0.12 TIME LEFT: 172799.88
 STEP:   7 TIME =     0.02 SECS, INTEGRAL =      0.14 TIME LEFT: 172799.86
 STEP:   8 TIME =     0.02 SECS, INTEGRAL =      0.15 TIME LEFT: 172799.84
 STEP:   9 TIME =     0.02 SECS, INTEGRAL =      0.17 TIME LEFT: 172799.82
 STEP:  10 TIME =     0.02 SECS, INTEGRAL =      0.19 TIME LEFT: 172799.80
 STEP:  11 TIME =     0.02 SECS, INTEGRAL =      0.21 TIME LEFT: 172799.78
 STEP:  12 TIME =     0.02 SECS, INTEGRAL =      0.24 TIME LEFT: 172799.75
 STEP:  13 TIME =     0.02 SECS, INTEGRAL =      0.26 TIME LEFT: 172799.73
 STEP:  14 TIME =     0.02 SECS, INTEGRAL =      0.28 TIME LEFT: 172799.71
 STEP:  15 TIME =     0.02 SECS, INTEGRAL =      0.30 TIME LEFT: 172799.69
 STEP:  16 TIME =     0.02 SECS, INTEGRAL =      0.32 TIME LEFT: 172799.67
 STEP:  17 TIME =     0.02 SECS, INTEGRAL =      0.35 TIME LEFT: 172799.64
 STEP:  18 TIME =     0.02 SECS, INTEGRAL =      0.37 TIME LEFT: 172799.62
 STEP:  19 TIME =     0.02 SECS, INTEGRAL =      0.39 TIME LEFT: 172799.60
 STEP:  20 TIME =     0.02 SECS, INTEGRAL =      0.42 TIME LEFT: 172799.57
 STEP:  21 TIME =     0.02 SECS, INTEGRAL =      0.44 TIME LEFT: 172799.55
 STEP:  22 TIME =     0.02 SECS, INTEGRAL =      0.46 TIME LEFT: 172799.54
 STEP:  23 TIME =     0.02 SECS, INTEGRAL =      0.48 TIME LEFT: 172799.52
 STEP:  24 TIME =     0.02 SECS, INTEGRAL =      0.50 TIME LEFT: 172799.49
 STEP:  25 TIME =     0.02 SECS, INTEGRAL =      0.52 TIME LEFT: 172799.47
 STEP:  26 TIME =     0.02 SECS, INTEGRAL =      0.54 TIME LEFT: 172799.45
 STEP:  27 TIME =     0.02 SECS, INTEGRAL =      0.57 TIME LEFT: 172799.43
 STEP:  28 TIME =     0.02 SECS, INTEGRAL =      0.59 TIME LEFT: 172799.41
 STEP:  29 TIME =     0.02 SECS, INTEGRAL =      0.61 TIME LEFT: 172799.38
 STEP:  30 TIME =     0.02 SECS, INTEGRAL =      0.63 TIME LEFT: 172799.36
 STEP:  31 TIME =     0.02 SECS, INTEGRAL =      0.65 TIME LEFT: 172799.34
 STEP:  32 TIME =     0.02 SECS, INTEGRAL =      0.66 TIME LEFT: 172799.33
 STEP:  33 TIME =     0.02 SECS, INTEGRAL =      0.68 TIME LEFT: 172799.31
 STEP:  34 TIME =     0.02 SECS, INTEGRAL =      0.70 TIME LEFT: 172799.29
 STEP:  35 TIME =     0.02 SECS, INTEGRAL =      0.72 TIME LEFT: 172799.27
 STEP:  36 TIME =     0.02 SECS, INTEGRAL =      0.74 TIME LEFT: 172799.25
 STEP:  37 TIME =     0.02 SECS, INTEGRAL =      0.76 TIME LEFT: 172799.23
 STEP:  38 TIME =     0.02 SECS, INTEGRAL =      0.78 TIME LEFT: 172799.21
 STEP:  39 TIME =     0.02 SECS, INTEGRAL =      0.80 TIME LEFT: 172799.19
 STEP:  40 TIME =     0.02 SECS, INTEGRAL =      0.82 TIME LEFT: 172799.17
 STEP:  41 TIME =     0.02 SECS, INTEGRAL =      0.84 TIME LEFT: 172799.15
 STEP:  42 TIME =     0.02 SECS, INTEGRAL =      0.86 TIME LEFT: 172799.13
 STEP:  43 TIME =     0.02 SECS, INTEGRAL =      0.88 TIME LEFT: 172799.11
 STEP:  44 TIME =     0.02 SECS, INTEGRAL =      0.90 TIME LEFT: 172799.09
 STEP:  45 TIME =     0.02 SECS, INTEGRAL =      0.92 TIME LEFT: 172799.07
 STEP:  46 TIME =     0.02 SECS, INTEGRAL =      0.93 TIME LEFT: 172799.06
 STEP:  47 TIME =     0.02 SECS, INTEGRAL =      0.95 TIME LEFT: 172799.04
 STEP:  48 TIME =     0.02 SECS, INTEGRAL =      0.97 TIME LEFT: 172799.02
 STEP:  49 TIME =     0.02 SECS, INTEGRAL =      0.99 TIME LEFT: 172799.00
 STEP:  50 TIME =     0.02 SECS, INTEGRAL =      1.01 TIME LEFT: 172798.98
 STEP:  51 TIME =     0.02 SECS, INTEGRAL =      1.03 TIME LEFT: 172798.96
 STEP:  52 TIME =     0.02 SECS, INTEGRAL =      1.05 TIME LEFT: 172798.94
 STEP:  53 TIME =     0.02 SECS, INTEGRAL =      1.07 TIME LEFT: 172798.92
 STEP:  54 TIME =     0.02 SECS, INTEGRAL =      1.09 TIME LEFT: 172798.91
 STEP:  55 TIME =     0.02 SECS, INTEGRAL =      1.11 TIME LEFT: 172798.89
 STEP:  56 TIME =     0.02 SECS, INTEGRAL =      1.12 TIME LEFT: 172798.87
 STEP:  57 TIME =     0.02 SECS, INTEGRAL =      1.14 TIME LEFT: 172798.85
 STEP:  58 TIME =     0.02 SECS, INTEGRAL =      1.16 TIME LEFT: 172798.83
 STEP:  59 TIME =     0.02 SECS, INTEGRAL =      1.18 TIME LEFT: 172798.81
 STEP:  60 TIME =     0.02 SECS, INTEGRAL =      1.20 TIME LEFT: 172798.79
 STEP:  61 TIME =     0.02 SECS, INTEGRAL =      1.22 TIME LEFT: 172798.77
 STEP:  62 TIME =     0.02 SECS, INTEGRAL =      1.24 TIME LEFT: 172798.75
 STEP:  63 TIME =     0.02 SECS, INTEGRAL =      1.26 TIME LEFT: 172798.73

(To convert to Hartree/Bohr^2, multiply by (10^(-21) x N x a0^2)/(4.184 x 627.51) =  0.0642)


           FORCE MATRIX IN MILLIDYNES/ANGSTROM


                  C  1       C  2       C  3       C  4       C  5       C  6
 ------------------------------------------------------------------------------
     C    1  14.626268
     C    2   4.139187  14.330377
     C    3   4.139427   0.665727  14.329907
     C    4   4.399041   0.666786   0.666571  17.456815
     C    5   0.648637   0.059308   0.059325   6.727598  17.274509
     C    6   0.706936   0.031438   0.031509   6.743959   2.469692  17.314530
     C    7   0.095383   0.010023   0.009978   2.470890   7.045056   1.860427
     C    8   0.096764   0.013704   0.013678   2.485820   1.886161   7.015332
     C    9   0.012418   0.004672   0.004655   1.843229   2.530541   2.518689
     H   10   4.161538   0.416323   0.416420   0.434604   0.045301   0.079745
     H   11   0.456544   4.735675   0.024892   0.049863   0.002701   0.005245
     H   12   0.469217   4.703668   0.019871   0.018974   0.014507   0.001322
     H   13   0.454498   4.763068   0.051501   0.020977   0.002784   0.002019
     H   14   0.469298   0.019883   4.703697   0.018929   0.014536   0.001323
     H   15   0.456698   0.024901   4.735773   0.049865   0.002681   0.005248
     H   16   0.454687   0.051400   4.763082   0.021072   0.002781   0.002016
     H   17   0.042079   0.016206   0.016161   0.451109   4.798331   0.085161
     H   18   0.052911   0.005358   0.005346   0.448739   0.083810   4.810713
     H   19   0.007662   0.000952   0.000948   0.092469   0.437581   0.010815
     H   20   0.007970   0.001033   0.001029   0.091772   0.011327   0.438201
     H   21   0.009197   0.001229   0.001215   0.008452   0.089091   0.090208


                  C  7       C  8       C  9       H 10       H 11       H 12
 ------------------------------------------------------------------------------
     C    7  17.283402
     C    8   2.554698  17.265961
     C    9   6.997299   7.028079  17.292108
     H   10   0.008597   0.002041   0.001412   4.621214
     H   11   0.001756   0.002296   0.000528   0.031824   5.472126
     H   12   0.000640   0.000580   0.000533   0.046266   0.572656   5.448246
     H   13   0.000471   0.000574   0.000159   0.029823   0.565611   0.572792
     H   14   0.000641   0.000578   0.000533   0.046270   0.001687   0.013717
     H   15   0.001758   0.002299   0.000527   0.031862   0.019277   0.001688
     H   16   0.000461   0.000565   0.000158   0.029905   0.001989   0.002128
     H   17   0.437306   0.010887   0.090597   0.001937   0.001916   0.023435
     H   18   0.010789   0.437017   0.090562   0.025286   0.001123   0.000567
     H   19   4.861427   0.090018   0.439917   0.001426   0.000195   0.000284
     H   20   0.090271   4.862346   0.439941   0.000431   0.000254   0.000151
     H   21   0.440035   0.439838   4.868330   0.000179   0.000285   0.000172


                  H 13       H 14       H 15       H 16       H 17       H 18
 ------------------------------------------------------------------------------
     H   13   5.494089
     H   14   0.002142   5.448139
     H   15   0.001988   0.572687   5.472181
     H   16   0.008939   0.573321   0.566265   5.494080
     H   17   0.000974   0.023419   0.001886   0.000974   5.173784
     H   18   0.000506   0.000568   0.001123   0.000499   0.007085   5.181014
     H   19   0.000195   0.000284   0.000195   0.000197   0.042723   0.008138
     H   20   0.000190   0.000153   0.000255   0.000192   0.008091   0.042591
     H   21   0.000187   0.000172   0.000285   0.000185   0.007008   0.006954


                  H 19       H 20       H 21
 ------------------------------------------
     H   19   5.227352
     H   20   0.007183   5.228092
     H   21   0.041364   0.041511   5.235915


          HEAT OF FORMATION =       4.643892 KCALS/MOLE

          ZERO POINT ENERGY     114.734 KCAL/MOL


           NORMAL COORDINATE ANALYSIS (Total motion = 1 Angstrom)


   Root No.       1         2         3         4         5         6         7         8

                 1 A       2 A       3 A       4 A       5 A       6 A       7 A       8 A   

                  54.5     124.6     171.4     183.0     239.1     305.9     323.3     360.6
  
           1    0.0143   -0.0058   -0.0046    0.0000   -0.0011   -0.0286   -0.0004   -0.0049
           2   -0.0098    0.0039    0.0029   -0.0016   -0.0015    0.0196   -0.0013    0.0033
           3   -0.0000    0.0000    0.0005    0.0032    0.0105    0.0000    0.0038   -0.0000
           4    0.0142   -0.0048   -0.0047    0.0003    0.0006   -0.0293    0.0025   -0.0050
           5    0.0387   -0.0207   -0.0025   -0.0028    0.0013   -0.0112    0.0580   -0.0013
           6   -0.0259   -0.0395    0.0151   -0.0044   -0.0425   -0.0300    0.0198   -0.0074
           7   -0.0314    0.0177   -0.0002   -0.0028    0.0009    0.0011    0.0531   -0.0002
           8   -0.0271    0.0118    0.0047   -0.0024    0.0011    0.0318    0.0220    0.0053
           9    0.0258    0.0395   -0.0155   -0.0003   -0.0426    0.0303    0.0191    0.0075
          10    0.0109   -0.0314    0.0046   -0.0025   -0.0155   -0.0049   -0.0119   -0.0017
          11   -0.0074    0.0215   -0.0037   -0.0024   -0.0225    0.0031   -0.0177    0.0011
          12   -0.0000    0.0001    0.0006    0.0046    0.0336    0.0001    0.0105   -0.0000
          13    0.0326   -0.0226    0.0056   -0.0001    0.0003    0.0281   -0.0142    0.0544
          14   -0.0224    0.0156   -0.0036    0.0017    0.0004   -0.0196   -0.0199   -0.0375
          15    0.0000    0.0000    0.0008    0.0059    0.0436    0.0001    0.0094    0.0000
          16   -0.0218   -0.0299    0.0091   -0.0034   -0.0170    0.0348   -0.0169   -0.0440
          17    0.0150    0.0206   -0.0069   -0.0024   -0.0247   -0.0243   -0.0238    0.0301
          18    0.0000   -0.0000   -0.0002   -0.0008    0.0111   -0.0002   -0.0156   -0.0000
          19    0.0250    0.0176   -0.0034    0.0041    0.0162    0.0224   -0.0067   -0.0433
          20   -0.0172   -0.0120    0.0034    0.0052    0.0235   -0.0156   -0.0095    0.0298
          21    0.0000   -0.0000    0.0003    0.0021    0.0241   -0.0000   -0.0025    0.0000
          22   -0.0318    0.0084    0.0030    0.0000   -0.0023    0.0062   -0.0121    0.0502
          23    0.0220   -0.0058   -0.0019    0.0009   -0.0034   -0.0045   -0.0169   -0.0346
          24    0.0001   -0.0001   -0.0007   -0.0052   -0.0127   -0.0002   -0.0267   -0.0001
          25   -0.0076    0.0414   -0.0079    0.0043    0.0138   -0.0306   -0.0081   -0.0058
          26    0.0053   -0.0285    0.0064    0.0039    0.0200    0.0210   -0.0124    0.0039
          27    0.0000   -0.0001   -0.0005   -0.0033   -0.0024   -0.0002   -0.0247   -0.0001
          28    0.0479    0.0097   -0.0133    0.0054    0.0192   -0.0306   -0.0000   -0.0036
          29   -0.0329   -0.0067    0.0102    0.0036    0.0279    0.0210   -0.0010    0.0024
          30    0.0000    0.0001    0.0011    0.0078    0.0314    0.0000    0.0030   -0.0000
          31    0.0116    0.0276   -0.0105    0.0071    0.0316    0.0059   -0.0350    0.0018
          32    0.0282   -0.0667   -0.1023    0.1432   -0.0171   -0.0130    0.0830    0.0018
          33   -0.0184   -0.0265    0.0778   -0.0951   -0.0459   -0.0453    0.0229   -0.0124
          34   -0.0147   -0.0205    0.0042   -0.0028   -0.0310   -0.0388   -0.0109   -0.0059
          35    0.0753    0.0127    0.0962   -0.1536    0.0222   -0.0297    0.0771   -0.0074
          36   -0.0189   -0.0283    0.0741   -0.0893   -0.0460   -0.0451    0.0239   -0.0114
          37    0.0469   -0.0210   -0.0084   -0.0018    0.0031   -0.0541    0.0563   -0.0091
          38    0.0508   -0.0282   -0.0061   -0.0003    0.0015   -0.0212    0.0804   -0.0029
          39   -0.0590   -0.0963   -0.0955    0.1652   -0.0810   -0.0315    0.0305   -0.0042
          40   -0.0774   -0.0217   -0.1268   -0.1065    0.0309    0.0154    0.0754    0.0055
          41   -0.0134    0.0136   -0.0533   -0.0425   -0.0215    0.0470    0.0160    0.0081
          42    0.0181    0.0267   -0.0971   -0.0622   -0.0466    0.0454    0.0228    0.0115
          43   -0.0215    0.0751    0.1267    0.0946   -0.0263    0.0163    0.0895   -0.0002
          44   -0.0204   -0.0011    0.0611    0.0404    0.0239   -0.0010   -0.0034   -0.0024
          45    0.0175    0.0248   -0.1022   -0.0663   -0.0466    0.0456    0.0218    0.0125
          46   -0.0310    0.0190    0.0026   -0.0007    0.0003    0.0017    0.0548   -0.0001
          47   -0.0625    0.0299    0.0090   -0.0050    0.0035    0.0598    0.0799    0.0102
          48    0.0605    0.0997    0.1403    0.1244   -0.0800    0.0322    0.0298    0.0045
          49    0.0545   -0.0385    0.0126   -0.0009    0.0027    0.0486   -0.0141    0.1406
          50   -0.0374    0.0265   -0.0083    0.0029    0.0039   -0.0336   -0.0187   -0.0968
          51   -0.0000    0.0001    0.0009    0.0074    0.0657    0.0002    0.0147    0.0000
          52   -0.0401   -0.0507    0.0151   -0.0068   -0.0296    0.0744   -0.0279   -0.1229
          53    0.0277    0.0348   -0.0118   -0.0056   -0.0430   -0.0518   -0.0392    0.0844
          54    0.0000   -0.0000   -0.0004   -0.0026    0.0022   -0.0002   -0.0229   -0.0000
          55    0.0439    0.0337   -0.0072    0.0071    0.0296    0.0478    0.0026   -0.1215
          56   -0.0302   -0.0231    0.0068    0.0085    0.0429   -0.0329    0.0044    0.0836
          57    0.0000    0.0000    0.0005    0.0038    0.0330    0.0000    0.0036    0.0001
          58   -0.0584    0.0164    0.0050   -0.0007   -0.0050    0.0087   -0.0135    0.1358
          59    0.0402   -0.0113   -0.0034    0.0005   -0.0072   -0.0063   -0.0179   -0.0936
          60    0.0000   -0.0001   -0.0014   -0.0098   -0.0395   -0.0003   -0.0353   -0.0001
          61   -0.0145    0.0828   -0.0182    0.0076    0.0241   -0.0859   -0.0021   -0.0169
          62    0.0100   -0.0570    0.0141    0.0058    0.0351    0.0591   -0.0049    0.0116
          63    0.0000   -0.0001   -0.0009   -0.0061   -0.0176   -0.0003   -0.0326   -0.0001


   Root No.       9        10        11        12        13        14        15        16

                 9 A      10 A      11 A      12 A      13 A      14 A      15 A      16 A   

                 500.7     512.2     582.5     628.5     661.4     779.7     818.4     847.7
  
           1    0.0332   -0.0156   -0.0062    0.0029   -0.0051   -0.0018   -0.0038    0.0006
           2    0.0483    0.0110   -0.0090    0.0041    0.0035    0.0012   -0.0056   -0.0004
           3   -0.0049   -0.0001    0.0763   -0.0022    0.0001   -0.0002   -0.0446    0.0001
           4    0.0414   -0.0204   -0.0078    0.0071   -0.0091   -0.0074   -0.0238    0.0003
           5   -0.0169   -0.0044   -0.0002   -0.0006   -0.0015   -0.0002   -0.0011   -0.0003
           6    0.0110   -0.0110   -0.0035   -0.0027   -0.0024   -0.0010   -0.0134    0.0014
           7   -0.0304   -0.0035    0.0025   -0.0030   -0.0019   -0.0024    0.0074    0.0004
           8    0.0328    0.0208   -0.0073    0.0064    0.0090    0.0068   -0.0227    0.0000
           9    0.0110    0.0110   -0.0035   -0.0027    0.0024    0.0009   -0.0135   -0.0013
          10    0.0003    0.0494    0.0200    0.0159    0.0604    0.0431    0.0057    0.0004
          11    0.0007   -0.0340    0.0290    0.0233   -0.0415   -0.0296    0.0086   -0.0003
          12    0.0247    0.0000    0.0213   -0.0214   -0.0000    0.0000    0.0134   -0.0001
          13   -0.0155    0.0196   -0.0067    0.0525   -0.0152   -0.0096   -0.0002    0.0244
          14   -0.0225   -0.0135   -0.0099    0.0764    0.0105    0.0067   -0.0005   -0.0168
          15    0.0153    0.0001   -0.0011    0.0127   -0.0000    0.0002    0.0316   -0.0001
          16   -0.0051    0.0174    0.0195    0.0035   -0.0137   -0.0105    0.0147   -0.0268
          17   -0.0072   -0.0121    0.0283    0.0050    0.0095    0.0073    0.0214    0.0183
          18   -0.0113   -0.0000   -0.0229   -0.0944   -0.0000   -0.0000    0.0075   -0.0001
          19   -0.0081   -0.0325   -0.0142   -0.0051    0.0234   -0.0152   -0.0110    0.0263
          20   -0.0120    0.0223   -0.0206   -0.0075   -0.0161    0.0103   -0.0163   -0.0180
          21    0.0021    0.0000    0.0005    0.1027   -0.0000    0.0003    0.0522   -0.0001
          22   -0.0018   -0.0323    0.0120   -0.0573    0.0232   -0.0150    0.0292   -0.0252
          23   -0.0030    0.0222    0.0175   -0.0834   -0.0160    0.0105    0.0425    0.0171
          24   -0.0242    0.0000   -0.0153   -0.0112    0.0000   -0.0000   -0.0108    0.0001
          25   -0.0106    0.0384   -0.0170   -0.0180   -0.0138   -0.0267   -0.0176    0.0006
          26   -0.0151   -0.0264   -0.0247   -0.0264    0.0095    0.0182   -0.0258   -0.0002
          27   -0.0297   -0.0001   -0.0307    0.0245    0.0001   -0.0002   -0.0386    0.0002
          28    0.0450   -0.0318   -0.0038   -0.0043   -0.0222   -0.0186   -0.0088   -0.0033
          29    0.0654    0.0222   -0.0056   -0.0064    0.0152    0.0127   -0.0129    0.0023
          30    0.0092   -0.0001    0.0762   -0.0117    0.0000   -0.0003   -0.0469    0.0001
          31    0.0607    0.0053    0.0680    0.0112    0.0094    0.0105   -0.1105    0.0031
          32   -0.0502   -0.0122    0.0032   -0.0027   -0.0074   -0.0040    0.0057   -0.0004
          33    0.0220   -0.0189   -0.0415   -0.0036   -0.0082   -0.0075    0.0231    0.0000
          34    0.0915   -0.0287   -0.0946    0.0106   -0.0223   -0.0176    0.0409   -0.0080
          35   -0.0418   -0.0125    0.0043   -0.0043   -0.0051   -0.0042    0.0058    0.0008
          36    0.0218   -0.0198   -0.0428   -0.0032   -0.0108   -0.0084    0.0216   -0.0017
          37   -0.0265   -0.0394    0.0024    0.0008   -0.0194   -0.0171   -0.0155    0.0028
          38   -0.0448   -0.0124    0.0031   -0.0032   -0.0060   -0.0044    0.0033    0.0006
          39    0.0143   -0.0200   -0.0462   -0.0025   -0.0121   -0.0086    0.0260   -0.0020
          40   -0.0717    0.0008    0.0377   -0.0078   -0.0031   -0.0024   -0.0092   -0.0035
          41    0.0708    0.0318   -0.0869    0.0083    0.0224    0.0184    0.0402    0.0070
          42    0.0218    0.0200   -0.0428   -0.0033    0.0107    0.0086    0.0216    0.0016
          43   -0.0685    0.0127   -0.0212   -0.0065    0.0102    0.0079    0.0447    0.0011
          44    0.0390   -0.0005    0.0648    0.0096   -0.0061   -0.0092   -0.1014   -0.0020
          45    0.0220    0.0190   -0.0415   -0.0037    0.0081    0.0077    0.0230   -0.0002
          46   -0.0323   -0.0027    0.0020   -0.0032   -0.0013   -0.0019    0.0086    0.0003
          47   -0.0410    0.0409    0.0034   -0.0004    0.0203    0.0176   -0.0134   -0.0027
          48    0.0142    0.0201   -0.0461   -0.0026    0.0120    0.0088    0.0260    0.0018
          49   -0.0157   -0.0026   -0.0111    0.0485   -0.1920    0.0172   -0.0024   -0.1695
          50   -0.0228    0.0017   -0.0162    0.0702    0.1321   -0.0117   -0.0018    0.1166
          51    0.0123    0.0000   -0.0455   -0.0280   -0.0001    0.0002    0.0192   -0.0001
          52   -0.0205   -0.0048    0.0101    0.0236   -0.1936    0.0209    0.0053    0.1738
          53   -0.0296    0.0032    0.0145    0.0344    0.1333   -0.0144    0.0070   -0.1196
          54   -0.0220   -0.0000   -0.0290   -0.0807    0.0001   -0.0001    0.0010   -0.0001
          55    0.0062   -0.1308   -0.0077   -0.0244    0.0002    0.1781    0.0201   -0.1726
          56    0.0085    0.0901   -0.0110   -0.0354   -0.0002   -0.1224    0.0323    0.1186
          57    0.0113    0.0001    0.0044    0.0898   -0.0000    0.0004    0.0749   -0.0002
          58   -0.0015   -0.1283    0.0160   -0.0542   -0.0022    0.1793    0.0349    0.1694
          59   -0.0033    0.0882    0.0232   -0.0772    0.0014   -0.1231    0.0511   -0.1169
          60   -0.0220   -0.0001    0.0252    0.0265   -0.0000    0.0003    0.0425   -0.0001
          61   -0.0074    0.1064   -0.0219    0.0263   -0.1389    0.1870   -0.0171   -0.0051
          62   -0.0098   -0.0733   -0.0321    0.0388    0.0958   -0.1290   -0.0226    0.0038
          63   -0.0347   -0.0001   -0.0232   -0.0408    0.0001   -0.0002   -0.0406    0.0001


   Root No.      17        18        19        20        21        22        23        24

                17 A      18 A      19 A      20 A      21 A      22 A      23 A      24 A   

                 936.7     952.6     960.0     975.8     980.4    1015.0    1016.1    1064.8
  
           1   -0.0008   -0.0105   -0.0178    0.0028   -0.0045   -0.0026    0.0010    0.0004
           2    0.0006    0.0055   -0.0274   -0.0021    0.0032    0.0020    0.0013    0.0007
           3   -0.0000   -0.0001   -0.0016   -0.0000    0.0001   -0.0003   -0.0050   -0.0195
           4    0.0032    0.0125    0.0466   -0.0071    0.0117    0.0053    0.0030    0.0034
           5   -0.0025    0.0259   -0.0351   -0.0069    0.0086    0.0021    0.0095    0.0040
           6   -0.0040   -0.0078    0.0006   -0.0107    0.0213    0.0046    0.0139    0.0134
           7    0.0036   -0.0245   -0.0462    0.0036   -0.0036    0.0011    0.0076    0.0025
           8   -0.0022   -0.0179    0.0335    0.0094   -0.0142   -0.0048    0.0065    0.0046
           9    0.0040    0.0077   -0.0010    0.0107   -0.0214   -0.0026    0.0142    0.0134
          10   -0.0312    0.0014   -0.0033    0.0055   -0.0082   -0.0207   -0.0084   -0.0013
          11    0.0215   -0.0012   -0.0042   -0.0039    0.0057    0.0129   -0.0145   -0.0018
          12   -0.0000   -0.0003   -0.0073   -0.0001    0.0001   -0.0016   -0.0221   -0.0116
          13    0.0300   -0.0023    0.0056   -0.0252   -0.0090    0.0296    0.0233   -0.0099
          14   -0.0207    0.0021    0.0074    0.0175    0.0061   -0.0166    0.0370   -0.0144
          15    0.0000    0.0000    0.0000   -0.0001   -0.0000   -0.0012   -0.0171    0.0108
          16    0.0325    0.0016   -0.0015    0.0213    0.0126    0.0255   -0.0177    0.0022
          17   -0.0224   -0.0012   -0.0019   -0.0147   -0.0086   -0.0201   -0.0226    0.0032
          18   -0.0000    0.0004    0.0092    0.0001   -0.0001    0.0030    0.0432   -0.0027
          19    0.0057    0.0027   -0.0029    0.0213    0.0132   -0.0382   -0.0056    0.0017
          20   -0.0040   -0.0021   -0.0037   -0.0147   -0.0090    0.0251   -0.0124    0.0025
          21    0.0000    0.0004    0.0104    0.0001   -0.0001    0.0017    0.0250    0.0009
          22    0.0014   -0.0023    0.0088   -0.0259   -0.0074   -0.0361    0.0162   -0.0043
          23   -0.0010    0.0024    0.0122    0.0179    0.0050    0.0270    0.0194   -0.0062
          24    0.0000   -0.0000   -0.0004   -0.0000   -0.0000   -0.0005   -0.0078    0.0077
          25   -0.0330   -0.0003   -0.0039    0.0046   -0.0051    0.0397   -0.0112   -0.0009
          26    0.0228   -0.0001   -0.0056   -0.0033    0.0036   -0.0286   -0.0118   -0.0013
          27    0.0000   -0.0003   -0.0084   -0.0000    0.0001   -0.0015   -0.0208   -0.0085
          28    0.0234    0.0647   -0.0421    0.0242   -0.0606   -0.0061   -0.0153   -0.0597
          29   -0.0161   -0.0480   -0.0495   -0.0170    0.0423    0.0019   -0.0224   -0.0863
          30   -0.0000   -0.0012   -0.0264   -0.0001    0.0003   -0.0018   -0.0253   -0.0886
          31   -0.0370    0.0495   -0.0235   -0.0779    0.1440    0.0286    0.0925    0.0814
          32    0.0037   -0.0475    0.0401    0.0083   -0.0062   -0.0016   -0.0103   -0.0021
          33    0.0116    0.0192   -0.0113    0.0136   -0.0323   -0.0040   -0.0168   -0.0209
          34    0.0258    0.1465   -0.0375    0.0288   -0.0779   -0.0094   -0.0383   -0.0548
          35    0.0052   -0.0476    0.0406    0.0094   -0.0096   -0.0019   -0.0136   -0.0086
          36    0.0116    0.0165    0.0014    0.0157   -0.0325   -0.0046   -0.0192   -0.0226
          37    0.0201   -0.1454    0.2454    0.0248   -0.0215   -0.0007   -0.0431   -0.0147
          38    0.0048   -0.0391    0.0449    0.0066   -0.0058   -0.0004   -0.0101   -0.0042
          39    0.0120    0.0170   -0.0019    0.0164   -0.0346   -0.0050   -0.0217   -0.0249
          40    0.0042    0.1007    0.0361    0.0018   -0.0191   -0.0015    0.0014    0.0115
          41   -0.0259   -0.1209   -0.0011   -0.0304    0.0765    0.0037   -0.0413   -0.0542
          42   -0.0116   -0.0161    0.0045   -0.0157    0.0326    0.0018   -0.0193   -0.0225
          43   -0.0168    0.0659    0.0374   -0.0353    0.0570    0.0055   -0.0428   -0.0308
          44    0.0334   -0.0302   -0.0058    0.0701   -0.1328   -0.0142    0.0838    0.0750
          45   -0.0116   -0.0201   -0.0078   -0.0137    0.0324    0.0016   -0.0170   -0.0208
          46    0.0028   -0.0195   -0.0428    0.0024   -0.0020    0.0010    0.0058    0.0013
          47   -0.0212    0.1722    0.2218   -0.0240    0.0209   -0.0056   -0.0428   -0.0151
          48   -0.0120   -0.0169    0.0013   -0.0165    0.0347    0.0019   -0.0219   -0.0248
          49   -0.1347    0.0046    0.0042    0.1112    0.0440   -0.0866    0.0253   -0.0048
          50    0.0927   -0.0027    0.0083   -0.0763   -0.0304    0.0627    0.0272   -0.0072
          51   -0.0001    0.0000   -0.0007    0.0001    0.0001   -0.0048   -0.0656    0.0620
          52   -0.1405   -0.0081   -0.0025   -0.0930   -0.0538   -0.0849   -0.0374    0.0560
          53    0.0967    0.0054   -0.0046    0.0637    0.0371    0.0520   -0.0636    0.0815
          54    0.0000    0.0004    0.0087    0.0001   -0.0001    0.0020    0.0279    0.0340
          55   -0.0383   -0.0122    0.0000   -0.0928   -0.0583    0.1235   -0.0461    0.0705
          56    0.0264    0.0084   -0.0023    0.0636    0.0400   -0.0909   -0.0528    0.1026
          57    0.0000    0.0005    0.0118    0.0000   -0.0001    0.0003    0.0046    0.0463
          58   -0.0176    0.0140    0.0079    0.1145    0.0305    0.1249    0.0006    0.0016
          59    0.0121   -0.0087    0.0148   -0.0786   -0.0211   -0.0849    0.0151    0.0024
          60   -0.0001    0.0003    0.0059    0.0001    0.0001   -0.0056   -0.0813    0.0678
          61    0.1736    0.0001   -0.0071   -0.0207    0.0226   -0.1362   -0.0004    0.0150
          62   -0.1196   -0.0007   -0.0110    0.0141   -0.0155    0.0928   -0.0157    0.0218
          63    0.0000   -0.0001   -0.0034   -0.0000    0.0001   -0.0018   -0.0251   -0.0314


   Root No.      25        26        27        28        29        30        31        32

                25 A      26 A      27 A      28 A      29 A      30 A      31 A      32 A   

                1098.3    1109.1    1115.2    1149.2    1152.8    1157.6    1216.1    1247.6
  
           1   -0.0073   -0.0036    0.0306    0.0115   -0.0113    0.0142    0.0058   -0.0275
           2   -0.0106   -0.0052   -0.0210    0.0166   -0.0163    0.0205    0.0085   -0.0400
           3    0.0081    0.0204    0.0000   -0.0162    0.0115   -0.0229    0.0100   -0.0181
           4    0.0058    0.0003   -0.0379   -0.0101    0.0100   -0.0126   -0.0044    0.0077
           5    0.0067   -0.0000   -0.0040   -0.0090    0.0088   -0.0107   -0.0036    0.0089
           6   -0.0019   -0.0057    0.0243    0.0097   -0.0070    0.0123   -0.0034    0.0091
           7    0.0041   -0.0002   -0.0097   -0.0048    0.0047   -0.0055   -0.0018    0.0055
           8    0.0078    0.0003    0.0368   -0.0126    0.0125   -0.0156   -0.0053    0.0103
           9   -0.0019   -0.0057   -0.0242    0.0097   -0.0070    0.0123   -0.0034    0.0090
          10   -0.0097   -0.0084   -0.0026   -0.0028   -0.0025   -0.0028    0.0118   -0.0141
          11   -0.0141   -0.0122    0.0018   -0.0041   -0.0036   -0.0041    0.0172   -0.0205
          12   -0.0065   -0.0125   -0.0000    0.0022    0.0032    0.0045   -0.0090   -0.0261
          13    0.0156    0.0106    0.0015    0.0030   -0.0035   -0.0016    0.0020   -0.0156
          14    0.0226    0.0154   -0.0011    0.0044   -0.0051   -0.0024    0.0029   -0.0227
          15    0.0003   -0.0151    0.0000   -0.0095   -0.0029    0.0065   -0.0216   -0.0114
          16   -0.0026   -0.0043    0.0020   -0.0026    0.0021    0.0050    0.0091    0.0118
          17   -0.0038   -0.0063   -0.0014   -0.0038    0.0030    0.0073    0.0132    0.0172
          18   -0.0100    0.0277    0.0000    0.0029    0.0012   -0.0052    0.0167   -0.0261
          19    0.0068    0.0023   -0.0000    0.0053   -0.0006   -0.0004   -0.0072   -0.0072
          20    0.0099    0.0033    0.0000    0.0077   -0.0008   -0.0005   -0.0105   -0.0104
          21   -0.0159   -0.0072   -0.0000   -0.0034    0.0006    0.0011   -0.0105    0.0277
          22    0.0040   -0.0092   -0.0002   -0.0027    0.0028    0.0020   -0.0046    0.0178
          23    0.0058   -0.0133    0.0001   -0.0039    0.0041    0.0030   -0.0067    0.0259
          24   -0.0019    0.0019    0.0000    0.0029    0.0010   -0.0086    0.0170   -0.0044
          25   -0.0111   -0.0110    0.0001   -0.0015    0.0025    0.0001   -0.0130    0.0054
          26   -0.0162   -0.0160   -0.0001   -0.0021    0.0036    0.0001   -0.0189    0.0078
          27   -0.0091   -0.0277   -0.0000   -0.0010    0.0013    0.0009    0.0070    0.0314
          28    0.0026    0.0736    0.3595    0.0617   -0.0517    0.0469   -0.0085    0.0971
          29    0.0039    0.1067   -0.2480    0.0896   -0.0752    0.0682   -0.0123    0.1408
          30    0.0187    0.1096   -0.0001    0.0391   -0.0339    0.0132   -0.0068    0.1215
          31    0.0231   -0.0281    0.0319   -0.0045    0.0124    0.0059   -0.0222    0.0856
          32   -0.0068   -0.0012   -0.0038    0.0127   -0.0131    0.0189    0.0074   -0.0136
          33   -0.0013    0.0101   -0.0080   -0.0056    0.0048   -0.0140   -0.0015   -0.0109
          34    0.0369    0.0391   -0.1174   -0.0709    0.0603   -0.0894   -0.0016    0.0297
          35   -0.0077    0.0038   -0.0133    0.0130   -0.0128    0.0151    0.0059   -0.0116
          36    0.0045    0.0155   -0.0173   -0.0071    0.0051   -0.0111    0.0027    0.0067
          37   -0.0207    0.0039   -0.0527    0.0265   -0.0255    0.0313    0.0084   -0.0059
          38   -0.0044    0.0016   -0.0132    0.0062   -0.0060    0.0075    0.0021    0.0009
          39    0.0019    0.0144   -0.0161   -0.0082    0.0062   -0.0153    0.0017   -0.0048
          40   -0.0202   -0.0104   -0.0294    0.0373   -0.0334    0.0458    0.0061   -0.0214
          41    0.0316    0.0379    0.1143   -0.0614    0.0516   -0.0780    0.0006    0.0238
          42    0.0045    0.0155    0.0173   -0.0071    0.0051   -0.0111    0.0027    0.0068
          43   -0.0145    0.0089    0.0148    0.0134   -0.0165    0.0154    0.0147   -0.0431
          44    0.0191   -0.0266   -0.0283    0.0004    0.0068    0.0123   -0.0181    0.0751
          45   -0.0013    0.0101    0.0079   -0.0056    0.0048   -0.0140   -0.0015   -0.0109
          46    0.0032    0.0001   -0.0064   -0.0036    0.0034   -0.0041   -0.0010    0.0029
          47   -0.0208    0.0042    0.0538    0.0269   -0.0258    0.0318    0.0086   -0.0050
          48    0.0019    0.0144    0.0161   -0.0082    0.0062   -0.0152    0.0017   -0.0048
          49    0.0369    0.0157   -0.0018   -0.0048   -0.0010    0.0135    0.0246   -0.0129
          50    0.0542    0.0230    0.0013   -0.0070   -0.0014    0.0198    0.0359   -0.0187
          51    0.2038    0.0284    0.0001   -0.0927    0.0294    0.1617    0.1940    0.0351
          52   -0.0324    0.1070   -0.0056   -0.0776   -0.0334    0.0382   -0.0922   -0.0076
          53   -0.0472    0.1555    0.0039   -0.1127   -0.0486    0.0555   -0.1339   -0.0110
          54   -0.0301    0.1043    0.0000   -0.0468   -0.0216    0.0160   -0.0507   -0.0444
          55    0.0007    0.0376   -0.0005    0.0425   -0.0775   -0.1074    0.0682    0.0249
          56    0.0010    0.0547    0.0004    0.0618   -0.1127   -0.1561    0.0991    0.0361
          57   -0.0199    0.0142    0.0000    0.0197   -0.0505   -0.0684    0.0386    0.0528
          58    0.0189   -0.0047    0.0003    0.0148    0.0183    0.0014   -0.0195    0.0160
          59    0.0278   -0.0070   -0.0002    0.0216    0.0267    0.0021   -0.0285    0.0234
          60    0.1572    0.0497    0.0000    0.1872    0.1537   -0.0207   -0.1272   -0.0459
          61   -0.1013    0.0365   -0.0001    0.0214    0.0947    0.0212    0.0501    0.0277
          62   -0.1470    0.0530    0.0000    0.0311    0.1374    0.0309    0.0727    0.0402
          63    0.1217   -0.1002    0.0000   -0.0335   -0.1330   -0.0311   -0.0868    0.0039


   Root No.      33        34        35        36        37        38        39        40

                33 A      34 A      35 A      36 A      37 A      38 A      39 A      40 A   

                1285.4    1343.9    1385.3    1399.6    1405.3    1406.6    1408.3    1411.3
  
           1    0.0803   -0.0009    0.0171    0.0185    0.0195   -0.0014   -0.0150   -0.0249
           2   -0.0553   -0.0013    0.0245   -0.0133   -0.0144   -0.0010   -0.0224    0.0162
           3    0.0000    0.0077    0.0308   -0.0003   -0.0005    0.0013   -0.0151   -0.0004
           4   -0.0126   -0.0052    0.0171   -0.0261   -0.0272    0.0015    0.0285    0.0337
           5    0.0126   -0.0027   -0.0052    0.0147    0.0100   -0.0155    0.0101    0.0147
           6   -0.0039   -0.0013   -0.0064   -0.0153    0.0173    0.0134    0.0111    0.0042
           7   -0.0162   -0.0006   -0.0113   -0.0232   -0.0199   -0.0142   -0.0002   -0.0018
           8    0.0073   -0.0058    0.0145    0.0195    0.0226   -0.0053    0.0312   -0.0348
           9    0.0039   -0.0013   -0.0064    0.0154   -0.0165    0.0139    0.0115   -0.0037
          10   -0.0106    0.0387   -0.0137   -0.0017   -0.0020   -0.0001    0.0045    0.0023
          11    0.0073    0.0564   -0.0198    0.0014    0.0018   -0.0003    0.0066   -0.0013
          12    0.0000   -0.0739   -0.0277    0.0002    0.0004    0.0011    0.0095    0.0002
          13    0.0024    0.0089   -0.0060    0.0004    0.0005   -0.0003    0.0029   -0.0007
          14   -0.0017    0.0136   -0.0087   -0.0002   -0.0002   -0.0005    0.0042    0.0007
          15    0.0000    0.0887   -0.0209    0.0002    0.0003   -0.0012    0.0105    0.0003
          16    0.0029   -0.0520   -0.0093    0.0006    0.0007    0.0001    0.0044   -0.0004
          17   -0.0020   -0.0754   -0.0135   -0.0002   -0.0001    0.0002    0.0064    0.0005
          18    0.0000   -0.0412   -0.0123    0.0001    0.0001    0.0007    0.0019    0.0000
          19    0.0002   -0.0555   -0.0086    0.0001    0.0002    0.0005    0.0024    0.0000
          20   -0.0001   -0.0810   -0.0125    0.0001    0.0001    0.0008    0.0035    0.0001
          21   -0.0000   -0.0286    0.0221   -0.0002   -0.0003    0.0007   -0.0103   -0.0003
          22    0.0001    0.0139    0.0132   -0.0000   -0.0001   -0.0002   -0.0038   -0.0002
          23   -0.0001    0.0199    0.0191   -0.0002   -0.0003   -0.0002   -0.0055   -0.0001
          24    0.0000    0.0959   -0.0148    0.0002    0.0003   -0.0017    0.0099    0.0003
          25    0.0000    0.0444    0.0080   -0.0001   -0.0001   -0.0000   -0.0037   -0.0001
          26   -0.0000    0.0645    0.0116   -0.0001   -0.0002   -0.0001   -0.0053   -0.0002
          27   -0.0000   -0.0569    0.0188   -0.0002   -0.0002    0.0007   -0.0073   -0.0002
          28   -0.1514    0.0592   -0.0227   -0.0277   -0.0335   -0.0029    0.0216    0.0330
          29    0.1040    0.0858   -0.0323    0.0197    0.0240   -0.0060    0.0319   -0.0214
          30   -0.0002    0.0722   -0.0130    0.0003    0.0005   -0.0009    0.0270    0.0008
          31   -0.0831    0.0028   -0.0943    0.0864   -0.0012   -0.0169   -0.1007   -0.1281
          32    0.0027    0.0090    0.0217   -0.1784    0.0228    0.1786    0.0090   -0.0818
          33    0.0264   -0.0099    0.0238    0.0618   -0.0105   -0.0977    0.0527    0.1165
          34   -0.0677    0.0123   -0.0710   -0.0010    0.1171    0.0746   -0.0632   -0.1098
          35    0.0033    0.0094    0.0415   -0.0361   -0.1615    0.0441   -0.0805   -0.1211
          36   -0.0286    0.0119   -0.0132   -0.0240   -0.0291    0.0647   -0.0761   -0.1235
          37   -0.1552    0.0073   -0.0662    0.1013    0.0865   -0.0587   -0.0598   -0.0041
          38   -0.0391    0.0024   -0.0294    0.0526    0.0387   -0.0310   -0.0247   -0.0046
          39   -0.0008    0.0013    0.0256    0.1409   -0.1825   -0.1326   -0.0866   -0.0340
          40   -0.0274    0.0045    0.0651    0.0339    0.1944    0.0079   -0.0590    0.0714
          41    0.0624    0.0149   -0.0523    0.0137   -0.0501    0.0882   -0.0927    0.1394
          42    0.0287    0.0119   -0.0132    0.0242    0.0312    0.0643   -0.0816    0.1184
          43   -0.0323    0.0075    0.0551    0.1984   -0.0129    0.1729    0.0419    0.0322
          44    0.0769    0.0058   -0.0810   -0.0167   -0.0057    0.0492   -0.0965    0.1426
          45   -0.0265   -0.0099    0.0237   -0.0622    0.0066   -0.0984    0.0575   -0.1123
          46   -0.0187   -0.0003   -0.0041   -0.0131   -0.0059   -0.0078   -0.0018    0.0028
          47    0.1590    0.0077   -0.0735   -0.1146   -0.1009   -0.0617   -0.0621    0.0016
          48    0.0008    0.0013    0.0255   -0.1417    0.1763   -0.1384   -0.0899    0.0304
          49   -0.0058    0.0059   -0.0012   -0.0006   -0.0024   -0.0013    0.0018    0.0066
          50    0.0040    0.0077   -0.0016    0.0005    0.0017   -0.0020    0.0029   -0.0044
          51   -0.0001    0.0501    0.0380   -0.0003   -0.0007   -0.0104   -0.0050   -0.0000
          52   -0.0086   -0.0178    0.0177   -0.0017   -0.0018    0.0007   -0.0073    0.0015
          53    0.0059   -0.0257    0.0258    0.0008    0.0007    0.0009   -0.0106   -0.0014
          54    0.0000   -0.0207    0.0040   -0.0001   -0.0001    0.0012   -0.0058   -0.0002
          55   -0.0011   -0.0100    0.0144   -0.0003   -0.0003    0.0003   -0.0044   -0.0000
          56    0.0008   -0.0141    0.0209   -0.0000   -0.0002    0.0004   -0.0064   -0.0002
          57   -0.0000    0.0023    0.0415   -0.0004   -0.0006    0.0005   -0.0167   -0.0004
          58   -0.0011    0.0084    0.0201   -0.0005   -0.0005    0.0002   -0.0074    0.0001
          59    0.0007    0.0125    0.0294   -0.0001   -0.0002    0.0002   -0.0108   -0.0005
          60   -0.0000    0.0357    0.0345   -0.0004   -0.0006    0.0018   -0.0200   -0.0005
          61   -0.0002    0.0185    0.0091   -0.0002   -0.0002   -0.0004   -0.0010    0.0001
          62    0.0001    0.0270    0.0133   -0.0000   -0.0001   -0.0006   -0.0015   -0.0001
          63   -0.0000   -0.0178    0.0224   -0.0002   -0.0004    0.0013   -0.0134   -0.0004


   Root No.      41        42        43        44        45        46        47        48

                41 A      42 A      43 A      44 A      45 A      46 A      47 A      48 A   

                1413.0    1540.5    1600.6    1780.1    1798.8    2854.7    3045.3    3048.7
  
           1   -0.0155   -0.0076   -0.0176   -0.0041    0.0059    0.0211   -0.0001   -0.0000
           2   -0.0221   -0.0111   -0.0255   -0.0059    0.0086    0.0306   -0.0002   -0.0000
           3   -0.0179    0.0051   -0.0326    0.0047    0.0128   -0.0583    0.0003    0.0005
           4    0.0208    0.0029    0.0020   -0.0001    0.0008    0.0007   -0.0002   -0.0001
           5   -0.0077    0.0007    0.0016   -0.0001   -0.0002   -0.0010   -0.0011   -0.0002
           6   -0.0086   -0.0011    0.0018   -0.0014   -0.0005    0.0020    0.0020    0.0003
           7   -0.0141   -0.0004    0.0007   -0.0001   -0.0005   -0.0011   -0.0010   -0.0002
           8    0.0162    0.0029    0.0024   -0.0001    0.0007    0.0003   -0.0006   -0.0001
           9   -0.0084   -0.0011    0.0018   -0.0014   -0.0005    0.0020    0.0020    0.0003
          10    0.0056    0.0335    0.0385    0.0613   -0.0326   -0.0000    0.0004   -0.0008
          11    0.0080    0.0487    0.0559    0.0891   -0.0473   -0.0000    0.0006   -0.0012
          12    0.0123   -0.0506    0.0803   -0.0901   -0.0669   -0.0006   -0.0015   -0.0002
          13    0.0028   -0.0330    0.0139   -0.0174    0.0271    0.0000   -0.0236   -0.0051
          14    0.0041   -0.0479    0.0203   -0.0252    0.0393    0.0000   -0.0343   -0.0074
          15    0.0123   -0.0258   -0.0491    0.0793    0.1254    0.0007    0.0077    0.0019
          16    0.0060    0.0106   -0.0294   -0.0468    0.0656   -0.0002   -0.0020    0.0082
          17    0.0087    0.0153   -0.0427   -0.0680    0.0952   -0.0002   -0.0030    0.0120
          18    0.0042    0.0621    0.0164    0.0165    0.0694   -0.0012    0.0099   -0.0368
          19    0.0045    0.0124   -0.0419    0.0462   -0.0593   -0.0000    0.0037    0.0013
          20    0.0066    0.0180   -0.0608    0.0671   -0.0861   -0.0000    0.0054    0.0019
          21   -0.0112    0.0619   -0.0119   -0.0208   -0.0671   -0.0000   -0.0132   -0.0054
          22   -0.0055   -0.0330    0.0002    0.0198   -0.0266    0.0000    0.0014   -0.0099
          23   -0.0081   -0.0478    0.0004    0.0288   -0.0385    0.0000    0.0021   -0.0143
          24    0.0099   -0.0300   -0.0742   -0.0788   -0.1137    0.0001   -0.0008    0.0043
          25   -0.0046    0.0315    0.0202   -0.0629    0.0189   -0.0000    0.0006    0.0022
          26   -0.0067    0.0458    0.0293   -0.0914    0.0274   -0.0001    0.0009    0.0032
          27   -0.0091   -0.0479    0.0404    0.0931    0.0388    0.0001    0.0019    0.0043
          28    0.0143    0.0194    0.0091    0.0216   -0.0048   -0.2552    0.0003    0.0027
          29    0.0200    0.0282    0.0132    0.0313   -0.0070   -0.3701    0.0005    0.0039
          30    0.0148    0.0361   -0.0014    0.0315   -0.0001    0.7015   -0.0009   -0.0038
          31    0.0277   -0.0058    0.0185   -0.0038   -0.0055    0.0004   -0.0029   -0.0002
          32    0.0204   -0.0011   -0.0038   -0.0009    0.0012   -0.0057   -0.0044   -0.0003
          33   -0.0225    0.0031   -0.0038    0.0003    0.0020   -0.0098   -0.0053   -0.0001
          34   -0.0701    0.0001   -0.0071    0.0015    0.0013    0.0015    0.0090    0.0015
          35    0.1403   -0.0014    0.0008   -0.0004    0.0002    0.0083    0.0108    0.0018
          36    0.0409   -0.0028   -0.0027   -0.0010    0.0001   -0.0149   -0.0189   -0.0032
          37   -0.0990   -0.0057   -0.0089   -0.0005    0.0015    0.0005   -0.0027   -0.0006
          38   -0.0409   -0.0025   -0.0030   -0.0004    0.0004    0.0101    0.0066    0.0014
          39    0.1132    0.0004    0.0010    0.0005    0.0002   -0.0004    0.0010    0.0002
          40    0.1526   -0.0014    0.0033   -0.0009   -0.0003    0.0072    0.0069    0.0011
          41   -0.0152   -0.0004   -0.0063    0.0013    0.0013    0.0044    0.0123    0.0021
          42    0.0401   -0.0028   -0.0027   -0.0010    0.0001   -0.0149   -0.0190   -0.0032
          43    0.0080    0.0011   -0.0101    0.0006    0.0031   -0.0054   -0.0031   -0.0002
          44    0.0331   -0.0058    0.0159   -0.0039   -0.0047   -0.0016   -0.0042   -0.0003
          45   -0.0219    0.0031   -0.0038    0.0003    0.0020   -0.0098   -0.0053   -0.0001
          46   -0.0029   -0.0003    0.0004   -0.0002   -0.0002    0.0093    0.0072    0.0015
          47   -0.1046   -0.0062   -0.0093   -0.0006    0.0015    0.0040   -0.0002   -0.0001
          48    0.1115    0.0004    0.0010    0.0005    0.0002   -0.0004    0.0010    0.0002
          49    0.0003   -0.0279    0.0318   -0.0311    0.0106    0.0015    0.2697    0.0563
          50    0.0004   -0.0407    0.0462   -0.0452    0.0154    0.0021    0.3919    0.0818
          51   -0.0171    0.0738    0.0844   -0.0193   -0.0633    0.0001   -0.0862   -0.0181
          52   -0.0091   -0.0488    0.0375    0.0040   -0.0363   -0.0039    0.0252   -0.0918
          53   -0.0133   -0.0710    0.0544    0.0057   -0.0528   -0.0057    0.0367   -0.1336
          54   -0.0054    0.0312    0.0699    0.0577    0.0052    0.0070   -0.1161    0.4213
          55   -0.0070   -0.0478    0.0438   -0.0028    0.0300   -0.0000   -0.0365   -0.0137
          56   -0.0101   -0.0695    0.0636   -0.0041    0.0435   -0.0001   -0.0530   -0.0198
          57   -0.0209    0.0323    0.0474   -0.0624   -0.0137    0.0002    0.1654    0.0643
          58   -0.0096   -0.0283    0.0174    0.0344   -0.0133    0.0002   -0.0184    0.1189
          59   -0.0140   -0.0414    0.0254    0.0500   -0.0194    0.0003   -0.0267    0.1729
          60   -0.0217    0.0724    0.0858    0.0177    0.0488   -0.0001    0.0065   -0.0385
          61   -0.0033   -0.0564    0.0224    0.0260    0.0218    0.0001   -0.0084   -0.0246
          62   -0.0048   -0.0819    0.0325    0.0379    0.0317    0.0001   -0.0122   -0.0356
          63   -0.0138    0.0804    0.0500   -0.0368    0.0467    0.0002   -0.0199   -0.0507


   Root No.      49        50        51        52        53        54        55        56

                49 A      50 A      51 A      52 A      53 A      54 A      55 A      56 A   

                3059.5    3067.1    3076.0    3076.5    3079.6    3086.1    3087.1    3178.3
  
           1   -0.0000    0.0000    0.0004   -0.0000   -0.0000   -0.0001   -0.0002    0.0002
           2   -0.0000    0.0001    0.0005    0.0001   -0.0001    0.0001   -0.0003    0.0003
           3    0.0002   -0.0000   -0.0011   -0.0001   -0.0001   -0.0000    0.0001    0.0001
           4   -0.0001    0.0001    0.0006   -0.0007   -0.0000    0.0005   -0.0004    0.0127
           5   -0.0004    0.0007    0.0069   -0.0087    0.0001    0.0257   -0.0249   -0.0014
           6    0.0007   -0.0016   -0.0244    0.0232    0.0020    0.0096   -0.0070    0.0007
           7   -0.0004    0.0006    0.0054    0.0087    0.0001   -0.0236   -0.0233   -0.0055
           8   -0.0002    0.0003    0.0026    0.0041    0.0000   -0.0096   -0.0093    0.0106
           9    0.0007   -0.0016   -0.0218   -0.0261    0.0021   -0.0096   -0.0071    0.0007
          10   -0.0003   -0.0004    0.0002   -0.0001    0.0003   -0.0002    0.0001   -0.0000
          11   -0.0005   -0.0006    0.0002    0.0001    0.0004    0.0001    0.0002   -0.0000
          12   -0.0006    0.0005   -0.0000   -0.0000    0.0006   -0.0000    0.0002   -0.0001
          13   -0.0054    0.0053   -0.0013   -0.0001    0.0038   -0.0000    0.0005   -0.0002
          14   -0.0078    0.0076   -0.0019   -0.0001    0.0055    0.0000    0.0007   -0.0003
          15    0.0012   -0.0005    0.0005    0.0000   -0.0004    0.0000   -0.0001    0.0001
          16    0.0021    0.0017   -0.0001   -0.0000   -0.0010   -0.0000   -0.0000    0.0000
          17    0.0030    0.0025   -0.0002   -0.0000   -0.0015    0.0000   -0.0001    0.0000
          18   -0.0106   -0.0110    0.0009    0.0001    0.0071    0.0000    0.0002   -0.0000
          19   -0.0026    0.0052    0.0001    0.0000    0.0042    0.0000    0.0001    0.0000
          20   -0.0038    0.0075    0.0002    0.0000    0.0061   -0.0000    0.0001    0.0000
          21    0.0159   -0.0258   -0.0002   -0.0000   -0.0177   -0.0000   -0.0005    0.0000
          22    0.0078    0.0152   -0.0013   -0.0001   -0.0110    0.0000   -0.0002    0.0000
          23    0.0114    0.0221   -0.0018   -0.0001   -0.0160   -0.0000   -0.0003    0.0000
          24   -0.0010   -0.0040    0.0004    0.0000    0.0042    0.0000    0.0001    0.0000
          25   -0.0096   -0.0015   -0.0008   -0.0001   -0.0095   -0.0000   -0.0002    0.0000
          26   -0.0140   -0.0021   -0.0011   -0.0001   -0.0138   -0.0000   -0.0002    0.0000
          27   -0.0206    0.0001   -0.0017   -0.0001   -0.0203   -0.0000   -0.0003    0.0000
          28    0.0009    0.0002   -0.0053    0.0024   -0.0000   -0.0009    0.0005    0.0010
          29    0.0014    0.0003   -0.0074   -0.0024   -0.0000    0.0006    0.0008    0.0015
          30   -0.0014    0.0001    0.0104    0.0007   -0.0003    0.0000   -0.0027   -0.0017
          31   -0.0010    0.0031    0.0544   -0.0474   -0.0058   -0.0707    0.0627   -0.0507
          32   -0.0016    0.0047    0.0810   -0.0727   -0.0083   -0.0900    0.0776   -0.0812
          33   -0.0019    0.0063    0.1166   -0.1014   -0.0130   -0.1663    0.1470   -0.1344
          34    0.0031   -0.0062   -0.0851    0.0840    0.0058   -0.0154    0.0224   -0.0495
          35    0.0038   -0.0077   -0.1068    0.1058    0.0075   -0.0074    0.0166   -0.0719
          36   -0.0067    0.0136    0.1867   -0.1864   -0.0126    0.0418   -0.0566    0.1291
          37   -0.0011    0.0019    0.0221   -0.0281    0.0001    0.0815   -0.0774   -0.0560
          38    0.0028   -0.0049   -0.0564    0.0720   -0.0004   -0.2115    0.2013    0.1698
          39    0.0003   -0.0007   -0.0114    0.0105    0.0010    0.0093   -0.0077   -0.0032
          40    0.0024   -0.0049   -0.0618   -0.0774    0.0051    0.0013    0.0076   -0.0464
          41    0.0043   -0.0085   -0.1044   -0.1304    0.0083    0.0167    0.0270   -0.0671
          42   -0.0067    0.0135    0.1656    0.2088   -0.0130   -0.0411   -0.0568    0.1206
          43   -0.0011    0.0032    0.0504    0.0577   -0.0058    0.0585    0.0506   -0.0541
          44   -0.0015    0.0045    0.0715    0.0796   -0.0086    0.0974    0.0870   -0.0713
          45   -0.0019    0.0063    0.1048    0.1154   -0.0132    0.1653    0.1485   -0.1257
          46    0.0030   -0.0052   -0.0521   -0.0845   -0.0003    0.2246    0.2173    0.1673
          47   -0.0001    0.0001    0.0005    0.0008   -0.0000   -0.0010   -0.0008    0.0075
          48    0.0003   -0.0007   -0.0102   -0.0119    0.0011   -0.0092   -0.0077   -0.0029
          49    0.0589   -0.0553    0.0152    0.0007   -0.0376   -0.0001   -0.0051    0.0025
          50    0.0855   -0.0804    0.0220    0.0015   -0.0546    0.0001   -0.0074    0.0036
          51   -0.0174    0.0157   -0.0045   -0.0003    0.0106   -0.0000    0.0016   -0.0007
          52   -0.0246   -0.0238    0.0019    0.0001    0.0143   -0.0000    0.0004   -0.0000
          53   -0.0359   -0.0347    0.0027    0.0002    0.0209    0.0000    0.0006   -0.0000
          54    0.1170    0.1153   -0.0093   -0.0006   -0.0698   -0.0000   -0.0019    0.0002
          55    0.0362   -0.0608   -0.0007   -0.0001   -0.0414   -0.0000   -0.0011    0.0000
          56    0.0526   -0.0885   -0.0009   -0.0001   -0.0602    0.0000   -0.0016    0.0000
          57   -0.1787    0.2900    0.0022    0.0004    0.1931    0.0000    0.0053   -0.0002
          58   -0.0885   -0.1719    0.0139    0.0010    0.1191   -0.0000    0.0020    0.0000
          59   -0.1286   -0.2499    0.0202    0.0014    0.1731   -0.0000    0.0029    0.0000
          60    0.0244    0.0516   -0.0043   -0.0003   -0.0375    0.0000   -0.0006   -0.0000
          61    0.1128    0.0080    0.0088    0.0007    0.1038    0.0000    0.0018    0.0000
          62    0.1636    0.0115    0.0127    0.0010    0.1506    0.0000    0.0026    0.0000
          63    0.2398    0.0114    0.0188    0.0014    0.2205    0.0000    0.0037    0.0000


   Root No.      57

                57 A   

                3179.4
  
           1   -0.0005
           2    0.0003
           3    0.0000
           4   -0.0119
           5    0.0011
           6   -0.0007
           7   -0.0056
           8    0.0115
           9    0.0008
          10   -0.0000
          11    0.0000
          12   -0.0000
          13   -0.0000
          14   -0.0000
          15    0.0000
          16   -0.0000
          17    0.0000
          18   -0.0000
          19   -0.0000
          20    0.0000
          21    0.0000
          22   -0.0000
          23    0.0000
          24   -0.0000
          25    0.0000
          26   -0.0000
          27   -0.0000
          28   -0.0008
          29    0.0007
          30   -0.0001
          31    0.0479
          32    0.0773
          33    0.1277
          34    0.0466
          35    0.0681
          36   -0.1221
          37    0.0521
          38   -0.1580
          39    0.0029
          40   -0.0503
          41   -0.0724
          42    0.1303
          43   -0.0589
          44   -0.0772
          45   -0.1364
          46    0.1779
          47    0.0080
          48   -0.0031
          49    0.0000
          50    0.0002
          51   -0.0000
          52    0.0000
          53   -0.0000
          54    0.0000
          55    0.0000
          56   -0.0000
          57   -0.0000
          58    0.0000
          59   -0.0000
          60   -0.0000
          61    0.0000
          62   -0.0000
          63    0.0000


           MASS-WEIGHTED COORDINATE ANALYSIS (NORMAL COORDINATES)


   Root No.       1         2         3         4         5         6         7         8

                 1 A       2 A       3 A       4 A       5 A       6 A       7 A       8 A   

                  54.5     124.6     171.4     183.0     239.1     305.9     323.3     360.6
  
           1    0.1203   -0.0465   -0.0436    0.0000   -0.0088   -0.2382   -0.0029   -0.0325
           2   -0.0824    0.0317    0.0277   -0.0144   -0.0127    0.1634   -0.0101    0.0218
           3   -0.0001    0.0003    0.0044    0.0299    0.0878    0.0003    0.0296   -0.0000
           4    0.1191   -0.0387   -0.0445    0.0025    0.0053   -0.2444    0.0190   -0.0336
           5    0.3244   -0.1674   -0.0236   -0.0259    0.0105   -0.0933    0.4484   -0.0085
           6   -0.2169   -0.3193    0.1435   -0.0405   -0.3546   -0.2499    0.1530   -0.0492
           7   -0.2631    0.1434   -0.0020   -0.0260    0.0078    0.0092    0.4100   -0.0011
           8   -0.2272    0.0958    0.0453   -0.0220    0.0088    0.2647    0.1703    0.0351
           9    0.2165    0.3197   -0.1480   -0.0030   -0.3551    0.2527    0.1476    0.0498
          10    0.0912   -0.2538    0.0436   -0.0230   -0.1295   -0.0406   -0.0921   -0.0114
          11   -0.0623    0.1741   -0.0351   -0.0222   -0.1879    0.0258   -0.1371    0.0073
          12   -0.0002    0.0005    0.0058    0.0428    0.2803    0.0007    0.0815   -0.0001
          13    0.2736   -0.1831    0.0533   -0.0008    0.0022    0.2341   -0.1098    0.3630
          14   -0.1878    0.1258   -0.0342    0.0159    0.0030   -0.1632   -0.1538   -0.2498
          15    0.0001    0.0001    0.0075    0.0546    0.3637    0.0008    0.0726    0.0003
          16   -0.1826   -0.2420    0.0865   -0.0317   -0.1420    0.2897   -0.1303   -0.2936
          17    0.1259    0.1665   -0.0656   -0.0224   -0.2063   -0.2025   -0.1843    0.2009
          18    0.0001   -0.0000   -0.0015   -0.0072    0.0924   -0.0013   -0.1205   -0.0003
          19    0.2098    0.1421   -0.0321    0.0379    0.1350    0.1870   -0.0519   -0.2888
          20   -0.1442   -0.0972    0.0327    0.0476    0.1956   -0.1298   -0.0734    0.1984
          21    0.0000   -0.0000    0.0024    0.0195    0.2007   -0.0001   -0.0194    0.0003
          22   -0.2671    0.0676    0.0285    0.0003   -0.0194    0.0520   -0.0932    0.3345
          23    0.1841   -0.0466   -0.0181    0.0086   -0.0283   -0.0379   -0.1303   -0.2310
          24    0.0004   -0.0008   -0.0071   -0.0478   -0.1056   -0.0019   -0.2066   -0.0004
          25   -0.0639    0.3350   -0.0752    0.0396    0.1148   -0.2553   -0.0623   -0.0384
[...]
 TRAVEL (Ang.)       0.3784         C  2 -- H 11         +16.2% ( 42.3%)      5.6%
 REDUCED MASS        0.3337         C  3 -- H 15         +14.9% ( 40.5%)      5.4%
 EFFECTIVE MASS      3.0690
 FORCE CONSTANT      0.3916

 VIBRATION         41   41A           ATOM PAIR      ENERGY CONTRIBUTION    RADIAL
 FREQUENCY          1412.99         C  2 -- H 12         +12.7% ( 38.9%)      2.3%
 TRANSITION DIPOLE   0.0373         C  3 -- H 14         +12.1% ( 37.9%)      2.3%
 TRAVEL (Ang.)       0.4146         C  2 -- H 13         +12.0% ( 37.8%)      4.3%
 REDUCED MASS        0.2776         C  3 -- H 16         +11.5% ( 37.0%)      4.2%
 EFFECTIVE MASS      3.7982
 FORCE CONSTANT      0.3266

 VIBRATION         42   42A           ATOM PAIR      ENERGY CONTRIBUTION    RADIAL
 FREQUENCY          1540.49         C  6 -- C  8         +12.8% ( 52.8%)    100.0%
 TRANSITION DIPOLE   0.5044         C  5 -- C  7         +12.7% ( 52.5%)     99.8%
 TRAVEL (Ang.)       0.1692         C  4 -- C  5         +11.5% ( 50.0%)     27.8%
 REDUCED MASS        1.5281         C  4 -- C  6         +11.5% ( 50.0%)     23.6%
 EFFECTIVE MASS     10.9126         C  8 -- C  9         +10.7% ( 48.1%)     23.7%
 FORCE CONSTANT      2.1366         C  7 -- C  9         +10.5% ( 47.9%)     20.1%

 VIBRATION         43   43A           ATOM PAIR      ENERGY CONTRIBUTION    RADIAL
 FREQUENCY          1600.62         C  4 -- C  5         +15.0% ( 56.6%)     61.4%
 TRANSITION DIPOLE   0.3992         C  4 -- C  6         +14.9% ( 56.6%)     63.1%
 TRAVEL (Ang.)       0.1478         C  1 -- C  4         +13.4% ( 53.6%)     99.8%
 REDUCED MASS        1.9277         C  7 -- C  9          +9.7% ( 45.7%)     66.9%
 EFFECTIVE MASS     10.9915
 FORCE CONSTANT      2.9098

 VIBRATION         44   44A           ATOM PAIR      ENERGY CONTRIBUTION    RADIAL
 FREQUENCY          1780.07         C  8 -- C  9         +15.6% ( 54.4%)     88.2%
 TRANSITION DIPOLE   0.0334         C  7 -- C  9         +15.3% ( 53.9%)     87.1%
 TRAVEL (Ang.)       0.1243         C  4 -- C  5         +14.7% ( 52.9%)     89.0%
 REDUCED MASS        2.4503         C  4 -- C  6         +14.6% ( 52.8%)     88.4%
 EFFECTIVE MASS     11.8498
 FORCE CONSTANT      4.5744

 VIBRATION         45   45A           ATOM PAIR      ENERGY CONTRIBUTION    RADIAL
 FREQUENCY          1798.77         C  5 -- C  7         +16.7% ( 56.6%)     99.9%
 TRANSITION DIPOLE   0.1779         C  6 -- C  8         +16.6% ( 56.4%)     99.9%
 TRAVEL (Ang.)       0.1279         C  4 -- C  6         +11.7% ( 47.4%)     45.6%
 REDUCED MASS        2.2923         C  4 -- C  5         +11.5% ( 47.1%)     43.7%
 EFFECTIVE MASS     11.8346
 FORCE CONSTANT      4.3699

 VIBRATION         46   46A           ATOM PAIR      ENERGY CONTRIBUTION    RADIAL
 FREQUENCY          2854.69         C  1 -- H 10         +96.5% ( 99.9%)    100.0%
 TRANSITION DIPOLE   0.0431         C  1 -- C  3          +1.1% ( 10.6%)      8.3%
 TRAVEL (Ang.)       0.1597         C  1 -- C  2          +1.1% ( 10.6%)      8.3%
 REDUCED MASS        0.9267         C  1 -- C  4          +1.1% ( 10.6%)      9.9%
 EFFECTIVE MASS      1.4521
 FORCE CONSTANT      4.4494

 VIBRATION         47   47A           ATOM PAIR      ENERGY CONTRIBUTION    RADIAL
 FREQUENCY          3045.27         C  5 -- H 17         +80.0% ( 90.9%)    100.0%
 TRANSITION DIPOLE   0.2692         C  7 -- H 19         +10.8% ( 33.4%)     99.9%
 TRAVEL (Ang.)       0.1850         C  6 -- H 18          +5.3% ( 23.3%)    100.0%
 REDUCED MASS        0.6468         C  5 -- C  7          +1.3% ( 11.7%)      7.8%
 EFFECTIVE MASS      1.5041
 FORCE CONSTANT      3.5342

 VIBRATION         48   48A           ATOM PAIR      ENERGY CONTRIBUTION    RADIAL
 FREQUENCY          3048.67         C  6 -- H 18         +73.6% ( 87.2%)    100.0%
 TRANSITION DIPOLE   0.2448         C  8 -- H 20         +16.5% ( 41.3%)     99.9%
 TRAVEL (Ang.)       0.1980         C  5 -- H 17          +3.7% ( 19.5%)    100.0%
 REDUCED MASS        0.5643         C  7 -- H 19          +1.7% ( 13.3%)    100.0%
 EFFECTIVE MASS      1.5117
 FORCE CONSTANT      3.0902

 VIBRATION         49   49A           ATOM PAIR      ENERGY CONTRIBUTION    RADIAL
 FREQUENCY          3059.54         C  9 -- H 21         +51.0% ( 72.6%)    100.0%
 TRANSITION DIPOLE   0.2019         C  7 -- H 19         +18.9% ( 44.2%)     99.9%
 TRAVEL (Ang.)       0.2635         C  8 -- H 20         +13.1% ( 36.8%)     99.9%
 REDUCED MASS        0.3174         C  6 -- H 18          +8.2% ( 29.0%)    100.0%
 EFFECTIVE MASS      1.5049
 FORCE CONSTANT      1.7503

 VIBRATION         50   50A           ATOM PAIR      ENERGY CONTRIBUTION    RADIAL
 FREQUENCY          3067.10         C  7 -- H 19         +42.8% ( 66.4%)    100.0%
 TRANSITION DIPOLE   0.5272         C  8 -- H 20         +42.4% ( 66.1%)    100.0%
 TRAVEL (Ang.)       0.2451         C  6 -- H 18          +6.7% ( 26.3%)     99.9%
 REDUCED MASS        0.3660         C  5 -- H 17          +4.4% ( 21.2%)     99.8%
 EFFECTIVE MASS      1.5355
 FORCE CONSTANT      2.0287

 VIBRATION         51   51A           ATOM PAIR      ENERGY CONTRIBUTION    RADIAL
 FREQUENCY          3076.01         C  2 -- H 12         +35.7% ( 61.6%)     98.7%
 TRANSITION DIPOLE   0.0462         C  3 -- H 14         +28.1% ( 54.7%)     98.7%
 TRAVEL (Ang.)       0.2890         C  2 -- H 11         +15.8% ( 41.1%)     92.4%
 REDUCED MASS        0.2625         C  3 -- H 15         +12.8% ( 36.9%)     92.6%
 EFFECTIVE MASS      1.5049
 FORCE CONSTANT      1.4636

 VIBRATION         52   52A           ATOM PAIR      ENERGY CONTRIBUTION    RADIAL
 FREQUENCY          3076.54         C  3 -- H 14         +37.3% ( 63.0%)     98.9%
 TRANSITION DIPOLE   0.0120         C  2 -- H 12         +29.7% ( 56.2%)     98.9%
 TRAVEL (Ang.)       0.2831         C  3 -- H 15         +13.3% ( 37.7%)     90.2%
 REDUCED MASS        0.2735         C  2 -- H 11         +10.3% ( 33.2%)     89.8%
 EFFECTIVE MASS      1.5013
 FORCE CONSTANT      1.5252

 VIBRATION         53   53A           ATOM PAIR      ENERGY CONTRIBUTION    RADIAL
 FREQUENCY          3079.63         C  9 -- H 21         +43.6% ( 67.0%)    100.0%
 TRANSITION DIPOLE   0.3651         C  8 -- H 20         +24.2% ( 49.9%)    100.0%
 TRAVEL (Ang.)       0.2691         C  7 -- H 19         +22.7% ( 48.3%)    100.0%
 REDUCED MASS        0.3023         C  6 -- H 18          +2.9% ( 17.4%)     99.9%
 EFFECTIVE MASS      1.5964
 FORCE CONSTANT      1.6891

 VIBRATION         54   54A           ATOM PAIR      ENERGY CONTRIBUTION    RADIAL
 FREQUENCY          3086.07         C  2 -- H 13         +27.1% ( 53.7%)     97.9%
 TRANSITION DIPOLE   0.0267         C  3 -- H 16         +26.6% ( 53.3%)     97.8%
 TRAVEL (Ang.)       0.2960         C  2 -- H 11         +21.4% ( 47.7%)     95.8%
 REDUCED MASS        0.2495         C  3 -- H 15         +21.1% ( 47.4%)     95.8%
 EFFECTIVE MASS      1.5012
 FORCE CONSTANT      1.3998

 VIBRATION         55   55A           ATOM PAIR      ENERGY CONTRIBUTION    RADIAL
 FREQUENCY          3087.07         C  3 -- H 16         +28.2% ( 54.7%)     98.2%
 TRANSITION DIPOLE   0.0064         C  2 -- H 13         +27.7% ( 54.3%)     98.2%
 TRAVEL (Ang.)       0.2992         C  3 -- H 15         +19.0% ( 45.0%)     94.7%
 REDUCED MASS        0.2440         C  2 -- H 11         +18.6% ( 44.6%)     94.6%
 EFFECTIVE MASS      1.5150
 FORCE CONSTANT      1.3702

 VIBRATION         56   56A           ATOM PAIR      ENERGY CONTRIBUTION    RADIAL
 FREQUENCY          3178.33         C  2 -- H 13         +20.6% ( 43.7%)     97.8%
 TRANSITION DIPOLE   0.0135         C  3 -- H 16         +18.1% ( 40.9%)     97.8%
 TRAVEL (Ang.)       0.3571         C  2 -- H 11         +17.3% ( 40.1%)     96.9%
 REDUCED MASS        0.1663         C  2 -- H 12         +15.2% ( 37.6%)     96.2%
 EFFECTIVE MASS      1.1377         C  3 -- H 15         +15.1% ( 37.5%)     96.8%
 FORCE CONSTANT      0.9899         C  3 -- H 14         +13.3% ( 35.1%)     96.1%

 VIBRATION         57   57A           ATOM PAIR      ENERGY CONTRIBUTION    RADIAL
 FREQUENCY          3179.42         C  3 -- H 16         +20.2% ( 43.2%)     97.7%
 TRANSITION DIPOLE   0.0436         C  3 -- H 15         +17.6% ( 40.4%)     97.1%
 TRAVEL (Ang.)       0.3576         C  2 -- H 13         +17.6% ( 40.4%)     97.7%
 REDUCED MASS        0.1659         C  2 -- H 11         +15.4% ( 37.8%)     97.1%
 EFFECTIVE MASS      1.1337         C  3 -- H 14         +15.4% ( 37.7%)     96.3%
 FORCE CONSTANT      0.9880         C  2 -- H 12         +13.5% ( 35.3%)     96.3%

      SYMMETRY NUMBER FOR POINT-GROUP C1  =  1


          SYSTEM IS A GROUND STATE



 InChI=1S/C9H12/c1-8(2)9-6-4-3-5-7-9/h3-8H,1-2H3


          MOLECULE IS NOT LINEAR

          THERE ARE 57 GENUINE VIBRATIONS IN THIS SYSTEM
          THIS THERMODYNAMICS CALCULATION IS LIMITED TO
          MOLECULES WHICH HAVE NO INTERNAL ROTATIONS




                    CALCULATED THERMODYNAMIC PROPERTIES
                                          *
   TEMP. (K)   PARTITION FUNCTION   H.O.F.    ENTHALPY  HEAT CAPACITY ENTROPY
                                   KCAL/MOL   CAL/MOLE    CAL/K/MOL  CAL/K/MOL


 298.00  VIB.     0.1397D+03                  3779.2684    27.7844    22.4985
         ROT.     0.4491D+06                   888.2803     2.9808    28.8442
         INT.     0.6276D+08                  4667.5487    30.7652    51.3427
         TRA.     0.1274D+28                  1480.4672     4.9680    40.2640
         TOT.                        4.644    6148.0159    35.7332    91.6067

 200.00  VIB.     0.1832D+02                  1592.1754    17.1441    13.7397
         ROT.     0.2469D+06                   596.1613     2.9808    27.6555
         INT.     0.4524D+07                  2188.3366    20.1249    41.3952
         TRA.     0.7004D+27                   993.6021     4.9680    38.2829
         TOT.                        1.678    3181.9388    25.0929    79.6781

 210.00  VIB.     0.2240D+02                  1768.5645    18.1379    14.6001
         ROT.     0.2657D+06                   625.9693     2.9808    27.8010
         INT.     0.5951D+07                  2394.5338    21.1187    42.4010
         TRA.     0.7536D+27                  1043.2822     4.9680    38.5253
         TOT.                        1.934    3437.8161    26.0867    80.9263

 220.00  VIB.     0.2743D+02                  1955.0153    19.1564    15.4673
         ROT.     0.2849D+06                   655.7774     2.9808    27.9396
         INT.     0.7814D+07                  2610.7927    22.1372    43.4069
         TRA.     0.8081D+27                  1092.9623     4.9680    38.7564
         TOT.                        2.200    3703.7551    27.1052    82.1633

 230.00  VIB.     0.3364D+02                  2151.7735    20.1992    16.3417
         ROT.     0.3045D+06                   685.5855     2.9808    28.0721
         INT.     0.1024D+08                  2837.3590    23.1800    44.4138
         TRA.     0.8638D+27                  1142.6424     4.9680    38.9773
         TOT.                        2.476    3980.0014    28.1480    83.3911

 240.00  VIB.     0.4130D+02                  2359.0755    21.2649    17.2238
         ROT.     0.3246D+06                   715.3935     2.9808    28.1990
         INT.     0.1341D+08                  3074.4690    24.2457    45.4228
         TRA.     0.9207D+27                  1192.3226     4.9680    39.1887
         TOT.                        2.763    4266.7916    29.2137    84.6115

 250.00  VIB.     0.5079D+02                  2577.1423    22.3518    18.1139
         ROT.     0.3451D+06                   745.2016     2.9808    28.3207
         INT.     0.1753D+08                  3322.3439    25.3326    46.4345
         TRA.     0.9789D+27                  1242.0027     4.9680    39.3915
         TOT.                        3.060    4564.3465    30.3006    85.8260

 260.00  VIB.     0.6255D+02                  2806.1741    23.4575    19.0120
         ROT.     0.3660D+06                   775.0097     2.9808    28.4376
         INT.     0.2289D+08                  3581.1838    26.4383    47.4496
         TRA.     0.1038D+28                  1291.6828     4.9680    39.5863
         TOT.                        3.369    4872.8666    31.4064    87.0359

 270.00  VIB.     0.7714D+02                  3046.3473    24.5796    19.9183
         ROT.     0.3873D+06                   804.8177     2.9808    28.5501
         INT.     0.2987D+08                  3851.1651    27.5604    48.4684
         TRA.     0.1099D+28                  1341.3629     4.9680    39.7738
         TOT.                        3.688    5192.5279    32.5284    88.2422

 280.00  VIB.     0.9525D+02                  3297.8114    25.7152    20.8327
         ROT.     0.4090D+06                   834.6258     2.9808    28.6585
         INT.     0.3896D+08                  4132.4371    28.6960    49.4912
         TRA.     0.1160D+28                  1391.0430     4.9680    39.9545
         TOT.                        4.019    5523.4801    33.6640    89.4457

 290.00  VIB.     0.1178D+03                  3560.6875    26.8616    21.7550
         ROT.     0.4311D+06                   864.4339     2.9808    28.7631
         INT.     0.5078D+08                  4425.1214    29.8424    50.5181
         TRA.     0.1223D+28                  1440.7231     4.9680    40.1289
         TOT.                        4.362    5865.8445    34.8104    90.6470

 300.00  VIB.     0.1459D+03                  3835.0685    28.0157    22.6851
         ROT.     0.4536D+06                   894.2419     2.9808    28.8641
         INT.     0.6616D+08                  4729.3104    30.9965    51.5493
         TRA.     0.1287D+28                  1490.4032     4.9680    40.2973
         TOT.                        4.716    6219.7136    35.9645    91.8465

 310.00  VIB.     0.1809D+03                  4121.0183    29.1749    23.6226
         ROT.     0.4765D+06                   924.0500     2.9808    28.9619
         INT.     0.8618D+08                  5045.0683    32.1557    52.5845
         TRA.     0.1352D+28                  1540.0833     4.9680    40.4602
         TOT.                        5.081    6585.1516    37.1237    93.0447

 320.00  VIB.     0.2246D+03                  4418.5733    30.3363    24.5672
         ROT.     0.4997D+06                   953.8580     2.9808    29.0565
         INT.     0.1122D+09                  5372.4314    33.3171    53.6237
         TRA.     0.1418D+28                  1589.7634     4.9680    40.6179
         TOT.                        5.458    6962.1948    38.2851    94.2417

 330.00  VIB.     0.2792D+03                  4727.7434    31.4974    25.5185
         ROT.     0.5233D+06                   983.6661     2.9808    29.1482
         INT.     0.1461D+09                  5711.4095    34.4783    54.6667
         TRA.     0.1485D+28                  1639.4435     4.9680    40.7708
         TOT.                        5.847    7350.8530    39.4463    95.4375

 340.00  VIB.     0.3476D+03                  5048.5132    32.6559    26.4760
         ROT.     0.5473D+06                  1013.4742     2.9808    29.2372
         INT.     0.1903D+09                  6061.9874    35.6367    55.7132
         TRA.     0.1553D+28                  1689.1236     4.9680    40.9191
         TOT.                        6.247    7751.1110    40.6047    96.6323

 350.00  VIB.     0.4334D+03                  5380.8447    33.8094    27.4393
         ROT.     0.5716D+06                  1043.2822     2.9808    29.3236
         INT.     0.2477D+09                  6424.1269    36.7902    56.7629
         TRA.     0.1622D+28                  1738.8037     4.9680    41.0631
         TOT.                        6.659    8162.9306    41.7582    97.8260

 360.00  VIB.     0.5409D+03                  5724.6781    34.9560    28.4078
         ROT.     0.5963D+06                  1073.0903     2.9808    29.4076
         INT.     0.3225D+09                  6797.7684    37.9368    57.8154
         TRA.     0.1692D+28                  1788.4838     4.9680    41.2031
         TOT.                        7.082    8586.2522    42.9048    99.0185

 370.00  VIB.     0.6759D+03                  6079.9349    36.0938    29.3811
         ROT.     0.6213D+06                  1102.8984     2.9808    29.4893
         INT.     0.4200D+09                  7182.8333    39.0746    58.8704
         TRA.     0.1762D+28                  1838.1639     4.9680    41.3392
         TOT.                        7.517    9020.9972    44.0426   100.2096

 380.00  VIB.     0.8457D+03                  6446.5193    37.2212    30.3587
         ROT.     0.6467D+06                  1132.7064     2.9808    29.5688
         INT.     0.5469D+09                  7579.2258    40.2021    59.9274
         TRA.     0.1834D+28                  1887.8440     4.9680    41.4717
         TOT.                        7.963    9467.0698    45.1701   101.3991

 390.00  VIB.     0.1059D+04                  6824.3206    38.3369    31.3399
         ROT.     0.6724D+06                  1162.5145     2.9808    29.6462
         INT.     0.7123D+09                  7986.8351    41.3177    60.9862
         TRA.     0.1907D+28                  1937.5242     4.9680    41.6007
         TOT.                        8.420    9924.3592    46.2857   102.5869

 400.00  VIB.     0.1328D+04                  7213.2146    39.4396    32.3245
         ROT.     0.6984D+06                  1192.3226     2.9808    29.7217
         INT.     0.9277D+09                  8405.5372    42.4204    62.0462
         TRA.     0.1981D+28                  1987.2043     4.9680    41.7265
         TOT.                        8.889   10392.7414    47.3884   103.7727

   *: NOTE: HEATS OF FORMATION ARE RELATIVE TO THE
            ELEMENTS IN THEIR STANDARD STATE AT 298K
              (=  Standard Enthalpy of Formation).

            Hvib:  Zero-point energy is not included.
                   frequencies of less than zero cm-1 are not included.
            Hrot = (3/2)RT
            Htra = (3/2)RT + pV = (5/2)RT

            Heat capacity is Cp, not Cv

          For more information, see: HTTP://OpenMOPAC.net/Manual/thermochemistry.html


           FORCE CONSTANT IN CARTESIAN COORDINATES (Millidynes/A)

    ATOM   CHEMICAL       X               Y               Z
   NUMBER   SYMBOL  FORCE CONSTANT  FORCE CONSTANT  FORCE CONSTANT

      1       C        8.219484        8.425894        8.671889
      2       C        8.100617        8.402747        8.312617
      3       C        8.406191        8.096096        8.312913
      4       C        5.936469        9.249242       12.103504
      5       C        5.476441        8.953432       12.119157
      6       C        5.462494        8.946423       12.174353
      7       C        5.466885        8.962444       12.113512
      8       C        5.468859        8.957461       12.092145
      9       C        5.461820        8.947147       12.142661
     10       H        1.078801        1.484315        3.412637
     11       H        1.270573        1.772401        3.736296
     12       H        1.314803        1.634299        3.812285
     13       H        1.276507        4.849521        0.667119
     14       H        1.097980        1.851941        3.810424
     15       H        1.197806        1.842141        3.738465
     16       H        5.403532        0.721074        0.667089
     17       H        1.840687        3.487914        0.911064
     18       H        0.658781        1.003236        4.560139
     19       H        0.654764        0.991638        4.625604
     20       H        1.856768        3.530107        0.886883
     21       H        1.062156        1.846438        3.370531

 **********************
 *                    *
 * JOB ENDED NORMALLY *
 *                    *
 **********************



 TOTAL JOB TIME:             2.25 SECONDS

 == MOPAC DONE ==
