 *******************************************************************************
 **                                                                           **
 **                              MOPAC v23.1.2                                **
 **                                                                           **
 *******************************************************************************
 **          Digital Object Identifier (DOI): 10.5281/zenodo.6511958          **
 **    Visit the DOI location for information on how to cite this program.    **
 *******************************************************************************

                              PM3 CALCULATION RESULTS

 *******************************************************************************
 *  CALCULATION DONE: (MAX THREADS = 1)              Tue Jun  3 16:27:02 2025  *
 *  PM3        - The PM3 Hamiltonian to be used
 *  PRECISE    - TIGHTER CRITERIA TO BE USED
 *  NOSYM      - POINT-GROUP SYMMETRY SET TO C1
 *  THREADS=1  - MULTI-THREADING NOT USED
 *  T=         - A TIME OF 172800.0 SECONDS REQUESTED
 *  DUMP=N     - RESTART FILE WRITTEN EVERY 7200.0 SECONDS REQUESTED
 *******************************************************************************
pm3  precise nosym THREADS=1
 InChI=1S/C10H12/c1-8-6-9-4-2-3-5-10(9)7-8/h2-6,9-10H,7H2,1H3

   ATOM   CHEMICAL          X               Y               Z
  NUMBER   SYMBOL      (ANGSTROMS)     (ANGSTROMS)     (ANGSTROMS)

     1       C         -0.35750000  *  -0.80390000  *  -1.01300000  *
     2       C         -0.97290000  *  -0.50280000  *   0.37970000  *
     3       C          1.14000000  *  -0.48710000  *  -0.88130000  *
     4       C          2.69950000  *  -0.23980000  *   1.23030000  *
     5       C          1.35450000  *  -0.39250000  *   0.58880000  *
     6       C          0.21750000  *  -0.40120000  *   1.26990000  *
     7       C         -0.98640000  *  -0.06020000  *  -2.16510000  *
     8       C         -1.76380000  *   0.78010000  *   0.45540000  *
     9       C         -2.15580000  *   1.44190000  *  -0.63370000  *
    10       C         -1.78990000  *   0.98700000  *  -1.98040000  *
    11       H         -0.46860000  *  -1.89370000  *  -1.21150000  *
    12       H         -1.61670000  *  -1.34660000  *   0.70970000  *
    13       H          1.40400000  *   0.48720000  *  -1.34900000  *
    14       H          1.76090000  *  -1.29910000  *  -1.31800000  *
    15       H          2.88240000  *  -1.08770000  *   1.92330000  *
    16       H          2.73930000  *   0.71370000  *   1.79780000  *
    17       H          3.49630000  *  -0.23000000  *   0.45720000  *
    18       H         -2.07910000  *   1.14110000  *   1.42720000  *
    19       H          0.16180000  *  -0.30790000  *   2.35070000  *
    20       H         -0.72390000  *  -0.35020000  *  -3.17510000  *
    21       H         -2.18060000  *   1.51820000  *  -2.83890000  *
    22       H         -2.76110000  *   2.33310000  *  -0.52730000  *



          CARTESIAN COORDINATES 

    NO.       ATOM           X           Y           Z

     1         C         -0.3575     -0.8039     -1.0130
     2         C         -0.9729     -0.5028      0.3797
     3         C          1.1400     -0.4871     -0.8813
     4         C          2.6995     -0.2398      1.2303
     5         C          1.3545     -0.3925      0.5888
     6         C          0.2175     -0.4012      1.2699
     7         C         -0.9864     -0.0602     -2.1651
     8         C         -1.7638      0.7801      0.4554
     9         C         -2.1558      1.4419     -0.6337
    10         C         -1.7899      0.9870     -1.9804
    11         H         -0.4686     -1.8937     -1.2115
    12         H         -1.6167     -1.3466      0.7097
    13         H          1.4040      0.4872     -1.3490
    14         H          1.7609     -1.2991     -1.3180
    15         H          2.8824     -1.0877      1.9233
    16         H          2.7393      0.7137      1.7978
    17         H          3.4963     -0.2300      0.4572
    18         H         -2.0791      1.1411      1.4272
    19         H          0.1618     -0.3079      2.3507
    20         H         -0.7239     -0.3502     -3.1751
    21         H         -2.1806      1.5182     -2.8389
    22         H         -2.7611      2.3331     -0.5273

  H: (PM3): J. J. P. STEWART, J. COMP. CHEM. 10, 209 (1989).
  C: (PM3): J. J. P. STEWART, J. COMP. CHEM. 10, 209 (1989).

           Empirical Formula: C10 H12  =    22 atoms



      MOLECULAR POINT GROUP   :   C1  


      RHF CALCULATION, NO. OF DOUBLY OCCUPIED LEVELS = 26


          Geometry optimization using EF

          DIAGONAL MATRIX USED AS START HESSIAN

 CYCLE:     1 TIME:   0.008 TIME LEFT:  2.00D  GRAD.:    82.569 HEAT:  34.64613
 CYCLE:     2 TIME:   0.020 TIME LEFT:  2.00D  GRAD.:    53.779 HEAT:  33.30096
 CYCLE:     3 TIME:   0.004 TIME LEFT:  2.00D  GRAD.:    69.014 HEAT:  33.25256
 CYCLE:     4 TIME:   0.008 TIME LEFT:  2.00D  GRAD.:    66.584 HEAT:  33.01541
 CYCLE:     5 TIME:   0.012 TIME LEFT:  2.00D  GRAD.:    32.445 HEAT:  32.26152
 CYCLE:     6 TIME:   0.016 TIME LEFT:  2.00D  GRAD.:    14.967 HEAT:  32.02788
 CYCLE:     7 TIME:   0.004 TIME LEFT:  2.00D  GRAD.:    15.756 HEAT:  31.91453
 CYCLE:     8 TIME:   0.008 TIME LEFT:  2.00D  GRAD.:    19.653 HEAT:  31.78887
 CYCLE:     9 TIME:   0.012 TIME LEFT:  2.00D  GRAD.:    19.803 HEAT:  31.73653
 CYCLE:    10 TIME:   0.004 TIME LEFT:  2.00D  GRAD.:    14.047 HEAT:  31.64807
 CYCLE:    11 TIME:   0.012 TIME LEFT:  2.00D  GRAD.:    17.653 HEAT:  31.63766
 CYCLE:    12 TIME:   0.008 TIME LEFT:  2.00D  GRAD.:    10.244 HEAT:  31.57686
 CYCLE:    13 TIME:   0.012 TIME LEFT:  2.00D  GRAD.:     9.678 HEAT:  31.55521
 CYCLE:    14 TIME:   0.008 TIME LEFT:  2.00D  GRAD.:     5.687 HEAT:  31.52655
 CYCLE:    15 TIME:   0.008 TIME LEFT:  2.00D  GRAD.:     7.583 HEAT:  31.50524
 CYCLE:    16 TIME:   0.008 TIME LEFT:  2.00D  GRAD.:     8.333 HEAT:  31.47682
 CYCLE:    17 TIME:   0.008 TIME LEFT:  2.00D  GRAD.:    11.888 HEAT:  31.46343
 CYCLE:    18 TIME:   0.012 TIME LEFT:  2.00D  GRAD.:    11.701 HEAT:  31.44964
 CYCLE:    19 TIME:   0.008 TIME LEFT:  2.00D  GRAD.:    12.949 HEAT:  31.44332
 CYCLE:    20 TIME:   0.008 TIME LEFT:  2.00D  GRAD.:     8.220 HEAT:  31.41122
 CYCLE:    21 TIME:   0.012 TIME LEFT:  2.00D  GRAD.:     6.639 HEAT:  31.39749
 CYCLE:    22 TIME:   0.008 TIME LEFT:  2.00D  GRAD.:     7.825 HEAT:  31.39177
 CYCLE:    23 TIME:   0.008 TIME LEFT:  2.00D  GRAD.:     4.353 HEAT:  31.37303
 CYCLE:    24 TIME:   0.008 TIME LEFT:  2.00D  GRAD.:     3.770 HEAT:  31.36087
 CYCLE:    25 TIME:   0.008 TIME LEFT:  2.00D  GRAD.:     5.923 HEAT:  31.34796
 CYCLE:    26 TIME:   0.008 TIME LEFT:  2.00D  GRAD.:     5.338 HEAT:  31.33537
 CYCLE:    27 TIME:   0.004 TIME LEFT:  2.00D  GRAD.:     4.652 HEAT:  31.32454
 CYCLE:    28 TIME:   0.008 TIME LEFT:  2.00D  GRAD.:     2.847 HEAT:  31.31479
 CYCLE:    29 TIME:   0.016 TIME LEFT:  2.00D  GRAD.:     4.243 HEAT:  31.30583
 CYCLE:    30 TIME:   0.012 TIME LEFT:  2.00D  GRAD.:     3.950 HEAT:  31.29213
 CYCLE:    31 TIME:   0.012 TIME LEFT:  2.00D  GRAD.:     5.111 HEAT:  31.27810
 CYCLE:    32 TIME:   0.008 TIME LEFT:  2.00D  GRAD.:     3.746 HEAT:  31.26138
 CYCLE:    33 TIME:   0.008 TIME LEFT:  2.00D  GRAD.:     4.365 HEAT:  31.24308
 CYCLE:    34 TIME:   0.008 TIME LEFT:  2.00D  GRAD.:     7.536 HEAT:  31.21700
 CYCLE:    35 TIME:   0.008 TIME LEFT:  2.00D  GRAD.:     5.339 HEAT:  31.18494
 CYCLE:    36 TIME:   0.008 TIME LEFT:  2.00D  GRAD.:     6.864 HEAT:  31.14881
 CYCLE:    37 TIME:   0.008 TIME LEFT:  2.00D  GRAD.:     8.118 HEAT:  31.10105
 CYCLE:    38 TIME:   0.004 TIME LEFT:  2.00D  GRAD.:     4.898 HEAT:  31.06173
 CYCLE:    39 TIME:   0.008 TIME LEFT:  2.00D  GRAD.:     4.055 HEAT:  31.03296
 CYCLE:    40 TIME:   0.008 TIME LEFT:  2.00D  GRAD.:     3.909 HEAT:  31.01613
 CYCLE:    41 TIME:   0.008 TIME LEFT:  2.00D  GRAD.:     3.014 HEAT:  30.99554
 CYCLE:    42 TIME:   0.008 TIME LEFT:  2.00D  GRAD.:     3.150 HEAT:  30.97537
 CYCLE:    43 TIME:   0.004 TIME LEFT:  2.00D  GRAD.:     2.813 HEAT:  30.96352
 CYCLE:    44 TIME:   0.008 TIME LEFT:  2.00D  GRAD.:     2.020 HEAT:  30.95557
 CYCLE:    45 TIME:   0.008 TIME LEFT:  2.00D  GRAD.:     1.748 HEAT:  30.94954
 CYCLE:    46 TIME:   0.008 TIME LEFT:  2.00D  GRAD.:     1.837 HEAT:  30.94483
 CYCLE:    47 TIME:   0.008 TIME LEFT:  2.00D  GRAD.:     1.887 HEAT:  30.93706
 CYCLE:    48 TIME:   0.008 TIME LEFT:  2.00D  GRAD.:     1.501 HEAT:  30.93078
 CYCLE:    49 TIME:   0.008 TIME LEFT:  2.00D  GRAD.:     1.285 HEAT:  30.92602
 CYCLE:    50 TIME:   0.008 TIME LEFT:  2.00D  GRAD.:     1.384 HEAT:  30.92235
 CYCLE:    51 TIME:   0.008 TIME LEFT:  2.00D  GRAD.:     1.528 HEAT:  30.91746
 CYCLE:    52 TIME:   0.008 TIME LEFT:  2.00D  GRAD.:     1.640 HEAT:  30.91219
 CYCLE:    53 TIME:   0.004 TIME LEFT:  2.00D  GRAD.:     1.811 HEAT:  30.90523
 CYCLE:    54 TIME:   0.008 TIME LEFT:  2.00D  GRAD.:     2.070 HEAT:  30.89706
 CYCLE:    55 TIME:   0.008 TIME LEFT:  2.00D  GRAD.:     2.157 HEAT:  30.88796
 CYCLE:    56 TIME:   0.008 TIME LEFT:  2.00D  GRAD.:     2.236 HEAT:  30.87568
 CYCLE:    57 TIME:   0.004 TIME LEFT:  2.00D  GRAD.:     2.028 HEAT:  30.86870
 CYCLE:    58 TIME:   0.012 TIME LEFT:  2.00D  GRAD.:     2.841 HEAT:  30.85571
 CYCLE:    59 TIME:   0.008 TIME LEFT:  2.00D  GRAD.:     2.516 HEAT:  30.85027
 CYCLE:    60 TIME:   0.004 TIME LEFT:  2.00D  GRAD.:     1.741 HEAT:  30.84237
 CYCLE:    61 TIME:   0.008 TIME LEFT:  2.00D  GRAD.:     2.957 HEAT:  30.83054
 CYCLE:    62 TIME:   0.008 TIME LEFT:  2.00D  GRAD.:     1.885 HEAT:  30.82387
 CYCLE:    63 TIME:   0.008 TIME LEFT:  2.00D  GRAD.:     1.432 HEAT:  30.81641
 CYCLE:    64 TIME:   0.004 TIME LEFT:  2.00D  GRAD.:     1.513 HEAT:  30.80767
 CYCLE:    65 TIME:   0.008 TIME LEFT:  2.00D  GRAD.:     1.903 HEAT:  30.80131
 CYCLE:    66 TIME:   0.008 TIME LEFT:  2.00D  GRAD.:     2.039 HEAT:  30.79444
 CYCLE:    67 TIME:   0.008 TIME LEFT:  2.00D  GRAD.:     1.832 HEAT:  30.78314
 CYCLE:    68 TIME:   0.008 TIME LEFT:  2.00D  GRAD.:     1.363 HEAT:  30.77484
 CYCLE:    69 TIME:   0.008 TIME LEFT:  2.00D  GRAD.:     1.160 HEAT:  30.77088
 CYCLE:    70 TIME:   0.008 TIME LEFT:  2.00D  GRAD.:     1.218 HEAT:  30.76784
 CYCLE:    71 TIME:   0.004 TIME LEFT:  2.00D  GRAD.:     1.016 HEAT:  30.76496
 CYCLE:    72 TIME:   0.008 TIME LEFT:  2.00D  GRAD.:     1.129 HEAT:  30.76158
 CYCLE:    73 TIME:   0.004 TIME LEFT:  2.00D  GRAD.:     1.337 HEAT:  30.75865
 CYCLE:    74 TIME:   0.008 TIME LEFT:  2.00D  GRAD.:     1.567 HEAT:  30.75476
 CYCLE:    75 TIME:   0.008 TIME LEFT:  2.00D  GRAD.:     1.998 HEAT:  30.74849
 CYCLE:    76 TIME:   0.008 TIME LEFT:  2.00D  GRAD.:     2.252 HEAT:  30.73921
 CYCLE:    77 TIME:   0.012 TIME LEFT:  2.00D  GRAD.:     3.293 HEAT:  30.72093
 CYCLE:    78 TIME:   0.012 TIME LEFT:  2.00D  GRAD.:     4.577 HEAT:  30.71341
 CYCLE:    79 TIME:   0.004 TIME LEFT:  2.00D  GRAD.:     2.640 HEAT:  30.69262
 CYCLE:    80 TIME:   0.008 TIME LEFT:  2.00D  GRAD.:     2.708 HEAT:  30.66833
 CYCLE:    81 TIME:   0.008 TIME LEFT:  2.00D  GRAD.:     4.817 HEAT:  30.64827
 CYCLE:    82 TIME:   0.004 TIME LEFT:  2.00D  GRAD.:     3.839 HEAT:  30.62687
 CYCLE:    83 TIME:   0.008 TIME LEFT:  2.00D  GRAD.:     8.746 HEAT:  30.61890
 CYCLE:    84 TIME:   0.008 TIME LEFT:  2.00D  GRAD.:     1.935 HEAT:  30.58494
 CYCLE:    85 TIME:   0.008 TIME LEFT:  2.00D  GRAD.:     1.748 HEAT:  30.57497
 CYCLE:    86 TIME:   0.008 TIME LEFT:  2.00D  GRAD.:     5.892 HEAT:  30.56725
 CYCLE:    87 TIME:   0.008 TIME LEFT:  2.00D  GRAD.:     1.445 HEAT:  30.55356
 CYCLE:    88 TIME:   0.004 TIME LEFT:  2.00D  GRAD.:     1.376 HEAT:  30.54844
 CYCLE:    89 TIME:   0.016 TIME LEFT:  2.00D  GRAD.:     3.671 HEAT:  30.53532
 CYCLE:    90 TIME:   0.004 TIME LEFT:  2.00D  GRAD.:     2.806 HEAT:  30.52778
 CYCLE:    91 TIME:   0.008 TIME LEFT:  2.00D  GRAD.:     2.478 HEAT:  30.51323
 CYCLE:    92 TIME:   0.008 TIME LEFT:  2.00D  GRAD.:     2.757 HEAT:  30.49962
 CYCLE:    93 TIME:   0.008 TIME LEFT:  2.00D  GRAD.:     2.005 HEAT:  30.49377
 CYCLE:    94 TIME:   0.008 TIME LEFT:  2.00D  GRAD.:     3.542 HEAT:  30.49024
 CYCLE:    95 TIME:   0.008 TIME LEFT:  2.00D  GRAD.:     1.887 HEAT:  30.48335
 CYCLE:    96 TIME:   0.008 TIME LEFT:  2.00D  GRAD.:     1.290 HEAT:  30.47790
 CYCLE:    97 TIME:   0.008 TIME LEFT:  2.00D  GRAD.:     1.253 HEAT:  30.46906
 CYCLE:    98 TIME:   0.004 TIME LEFT:  2.00D  GRAD.:     1.829 HEAT:  30.46499
 CYCLE:    99 TIME:   0.008 TIME LEFT:  2.00D  GRAD.:     1.504 HEAT:  30.46101
 CYCLE:   100 TIME:   0.008 TIME LEFT:  2.00D  GRAD.:     1.592 HEAT:  30.45832
 CYCLE:   101 TIME:   0.008 TIME LEFT:  2.00D  GRAD.:     1.184 HEAT:  30.45573
 CYCLE:   102 TIME:   0.004 TIME LEFT:  2.00D  GRAD.:     0.948 HEAT:  30.45317
 CYCLE:   103 TIME:   0.008 TIME LEFT:  2.00D  GRAD.:     0.880 HEAT:  30.45135
 CYCLE:   104 TIME:   0.008 TIME LEFT:  2.00D  GRAD.:     1.008 HEAT:  30.44987
 CYCLE:   105 TIME:   0.008 TIME LEFT:  2.00D  GRAD.:     0.797 HEAT:  30.44847
 CYCLE:   106 TIME:   0.004 TIME LEFT:  2.00D  GRAD.:     1.345 HEAT:  30.44757
 CYCLE:   107 TIME:   0.008 TIME LEFT:  2.00D  GRAD.:     0.729 HEAT:  30.44622
 CYCLE:   108 TIME:   0.004 TIME LEFT:  2.00D  GRAD.:     0.608 HEAT:  30.44554
 CYCLE:   109 TIME:   0.008 TIME LEFT:  2.00D  GRAD.:     0.842 HEAT:  30.44499
 CYCLE:   110 TIME:   0.008 TIME LEFT:  2.00D  GRAD.:     0.433 HEAT:  30.44432
 CYCLE:   111 TIME:   0.008 TIME LEFT:  2.00D  GRAD.:     0.386 HEAT:  30.44398
 CYCLE:   112 TIME:   0.004 TIME LEFT:  2.00D  GRAD.:     0.435 HEAT:  30.44331
 CYCLE:   113 TIME:   0.008 TIME LEFT:  2.00D  GRAD.:     0.651 HEAT:  30.44255
 CYCLE:   114 TIME:   0.008 TIME LEFT:  2.00D  GRAD.:     0.697 HEAT:  30.44129
 CYCLE:   115 TIME:   0.008 TIME LEFT:  2.00D  GRAD.:     0.496 HEAT:  30.44028
 CYCLE:   116 TIME:   0.008 TIME LEFT:  2.00D  GRAD.:     0.470 HEAT:  30.43991
 CYCLE:   117 TIME:   0.008 TIME LEFT:  2.00D  GRAD.:     0.239 HEAT:  30.43976
 CYCLE:   118 TIME:   0.008 TIME LEFT:  2.00D  GRAD.:     0.174 HEAT:  30.43969
 CYCLE:   119 TIME:   0.008 TIME LEFT:  2.00D  GRAD.:     0.122 HEAT:  30.43964
 CYCLE:   120 TIME:   0.004 TIME LEFT:  2.00D  GRAD.:     0.278 HEAT:  30.43960
 CYCLE:   121 TIME:   0.012 TIME LEFT:  2.00D  GRAD.:     0.139 HEAT:  30.43956
 CYCLE:   122 TIME:   0.004 TIME LEFT:  2.00D  GRAD.:     0.070 HEAT:  30.43952
 CYCLE:   123 TIME:   0.008 TIME LEFT:  2.00D  GRAD.:     0.055 HEAT:  30.43952
 CYCLE:   124 TIME:   0.008 TIME LEFT:  2.00D  GRAD.:     0.048 HEAT:  30.43951

     GRADIENT =  0.04792 IS LESS THAN CUTOFF =  0.05000



 -------------------------------------------------------------------------------
 pm3  precise nosym THREADS=1
 InChI=1S/C10H12/c1-8-6-9-4-2-3-5-10(9)7-8/h2-6,9-10H,7H2,1H3



     GEOMETRY OPTIMISED USING EIGENVECTOR FOLLOWING (EF).     
     SCF FIELD WAS ACHIEVED                                   


                              PM3 CALCULATION
                                                       MOPAC v23.1.2 MacOS
                                                       Tue Jun  3 16:27:03 2025




          FINAL HEAT OF FORMATION =         30.43951 KCAL/MOL =     127.35889 KJ/MOL


          COSMO AREA              =        177.68 SQUARE ANGSTROMS
          COSMO VOLUME            =        180.46 CUBIC ANGSTROMS

          GRADIENT NORM           =          0.04792          =       0.01022 PER ATOM
          IONIZATION POTENTIAL    =          8.985714 EV
          HOMO LUMO ENERGIES (EV) =         -8.986  0.281
          NO. OF FILLED LEVELS    =         26
          MOLECULAR WEIGHT        =        132.2048         POINT GROUP:  C1  

          MOLECULAR DIMENSIONS (Angstroms)

            Atom       Atom       Distance
            H    22    H    15     7.29511
            H    20    H    19     5.22991
            H    17    H    12     4.04544


          SCF CALCULATIONS        =        137

          WALL-CLOCK TIME         =      0.977 SECONDS
          COMPUTATION TIME        =      0.646 SECONDS




   ATOM   CHEMICAL          X               Y               Z
  NUMBER   SYMBOL      (ANGSTROMS)     (ANGSTROMS)     (ANGSTROMS)

     1       C         -0.39176475  *  -0.81274611  *  -0.98736067  *
     2       C         -0.97871513  *  -0.45465970  *   0.40416606  *
     3       C          1.14386277  *  -0.72246533  *  -0.83299172  *
     4       C          2.73716447  *  -0.21772722  *   1.13970026  *
     5       C          1.37198809  *  -0.36612940  *   0.60384625  *
     6       C          0.22215204  *  -0.21313901  *   1.27500283  *
     7       C         -0.86178556  *   0.03862314  *  -2.11385520  *
     8       C         -1.89891443  *   0.71561217  *   0.43824611  *
     9       C         -2.25390741  *   1.39659125  *  -0.65698688  *
    10       C         -1.72836090  *   1.04639572  *  -1.96159807  *
    11       H         -0.68177232  *  -1.86059018  *  -1.23844902  *
    12       H         -1.54815994  *  -1.32840504  *   0.80499641  *
    13       H          1.58798048  *   0.04156314  *  -1.49890895  *
    14       H          1.63884233  *  -1.67803214  *  -1.08645037  *
    15       H          3.30205606  *  -1.15302823  *   1.02757181  *
    16       H          2.73327988  *   0.04817503  *   2.20443123  *
    17       H          3.28246594  *   0.56703394  *   0.59820455  *
    18       H         -2.27536990  *   0.99622938  *   1.42851037  *
    19       H          0.11316409  *   0.05866109  *   2.32512097  *
    20       H         -0.45031540  *  -0.20758055  *  -3.09958651  *
    21       H         -2.06131226  *   1.64344589  *  -2.81694811  *
    22       H         -2.94510131  *   2.24389134  *  -0.60112506  *

                             CARTESIAN COORDINATES

   1    C       -0.391764747    -0.812746108    -0.987360673
   2    C       -0.978715133    -0.454659704     0.404166060
   3    C        1.143862770    -0.722465330    -0.832991717
   4    C        2.737164468    -0.217727224     1.139700255
   5    C        1.371988093    -0.366129404     0.603846248
   6    C        0.222152041    -0.213139006     1.275002833
   7    C       -0.861785561     0.038623140    -2.113855202
   8    C       -1.898914428     0.715612173     0.438246111
   9    C       -2.253907411     1.396591248    -0.656986877
  10    C       -1.728360902     1.046395724    -1.961598068
  11    H       -0.681772323    -1.860590184    -1.238449021
  12    H       -1.548159941    -1.328405040     0.804996407
  13    H        1.587980480     0.041563137    -1.498908953
  14    H        1.638842325    -1.678032136    -1.086450373
  15    H        3.302056062    -1.153028227     1.027571811
  16    H        2.733279882     0.048175030     2.204431234
  17    H        3.282465937     0.567033937     0.598204550
  18    H       -2.275369896     0.996229381     1.428510370
  19    H        0.113164085     0.058661088     2.325120970
  20    H       -0.450315404    -0.207580551    -3.099586507
  21    H       -2.061312262     1.643445893    -2.816948113
  22    H       -2.945101310     2.243891342    -0.601125064


           Empirical Formula: C10 H12  =    22 atoms



      MOLECULAR POINT GROUP   :   C1  


                  EIGENVALUES  
 -41.76449 -35.48017 -31.14479 -30.35260 -26.02797 -24.84862 -20.92913 -20.78263
 -18.65286 -17.30183 -16.73443 -16.03782 -15.75549 -14.70567 -14.63115 -14.22704
 -13.86750 -13.29919 -13.14189 -12.67756 -12.56739 -12.05270 -11.73897 -11.38404
  -9.43143  -8.98571   0.28113   1.04384   2.12150   3.25957   3.32136   3.44934
   3.46300   3.61276   3.76594   3.86053   3.96404   4.00702   4.16505   4.23271
   4.35466   4.38162   4.56208   4.58326   4.83624   5.06985   5.09144   5.40621
   5.65525   6.01635   6.02999   6.29759


              NET ATOMIC CHARGES AND DIPOLE CONTRIBUTIONS

  ATOM NO.   TYPE          CHARGE      No. of ELECS.   s-Pop       p-Pop       
    1          C          -0.039082        4.0391     1.17117     2.86792
    2          C          -0.003453        4.0035     1.15813     2.84532
    3          C          -0.054933        4.0549     1.15609     2.89885
    4          C          -0.051796        4.0518     1.11794     2.93386
    5          C          -0.127992        4.1280     1.20202     2.92597
    6          C          -0.155462        4.1555     1.20159     2.95388
    7          C          -0.132733        4.1327     1.19599     2.93674
    8          C          -0.122085        4.1221     1.19480     2.92729
    9          C          -0.112307        4.1123     1.17745     2.93486
   10          C          -0.106562        4.1066     1.17740     2.92917
   11          H           0.067593        0.9324     0.93241
   12          H           0.072082        0.9279     0.92792
   13          H           0.063311        0.9367     0.93669
   14          H           0.055512        0.9445     0.94449
   15          H           0.044470        0.9555     0.95553
   16          H           0.042680        0.9573     0.95732
   17          H           0.045992        0.9540     0.95401
   18          H           0.099234        0.9008     0.90077
   19          H           0.115772        0.8842     0.88423
   20          H           0.098770        0.9012     0.90123
   21          H           0.100182        0.8998     0.89982
   22          H           0.100810        0.8992     0.89919
 DIPOLE           X         Y         Z       TOTAL
 POINT-CHG.     0.361    -0.268     0.032     0.451
 HYBRID         0.026     0.030    -0.008     0.040
 SUM            0.387    -0.238     0.024     0.455


          ATOMIC ORBITAL ELECTRON POPULATIONS

     Atom    s        px        py        pz   
    1  C   1.17117   0.94766   0.98551   0.93475
    2  C   1.15813   0.94221   0.96451   0.93860
    3  C   1.15609   0.94601   1.00905   0.94379
    4  C   1.11794   0.93305   1.00415   0.99665
    5  C   1.20202   0.95740   1.00541   0.96316
    6  C   1.20159   0.94153   1.02887   0.98348
    7  C   1.19599   0.98454   0.97441   0.97779
    8  C   1.19480   0.97808   0.97064   0.97857
    9  C   1.17745   1.00229   0.99233   0.94024
   10  C   1.17740   0.98752   0.97784   0.96380
   11  H   0.93241
   12  H   0.92792
   13  H   0.93669
   14  H   0.94449
   15  H   0.95553
   16  H   0.95732
   17  H   0.95401
   18  H   0.90077
   19  H   0.88423
   20  H   0.90123
   21  H   0.89982
   22  H   0.89919
 *******************************************************************************
 **                                                                           **
 **                              MOPAC v23.1.2                                **
 **                                                                           **
 *******************************************************************************
 **          Digital Object Identifier (DOI): 10.5281/zenodo.6511958          **
 **    Visit the DOI location for information on how to cite this program.    **
 *******************************************************************************

                              PM3 CALCULATION RESULTS

 *******************************************************************************
 *  CALCULATION DONE: (MAX THREADS = 1)              Tue Jun  3 16:27:03 2025  *
 *  PM3        - The PM3 Hamiltonian to be used
 *  OLDGEO     - PREVIOUS GEOMETRY TO BE USED
 *  PRECISE    - TIGHTER CRITERIA TO BE USED
 *  NOSYM      - POINT-GROUP SYMMETRY SET TO C1
 *  THREADS=1  - MULTI-THREADING NOT USED
 *  T=         - A TIME OF 172800.0 SECONDS REQUESTED
 *  DUMP=N     - RESTART FILE WRITTEN EVERY 7200.0 SECONDS REQUESTED
 *  THERMO     - THERMODYNAMIC QUANTITIES TO BE CALCULATED
 *******************************************************************************
oldgeo thermo nosym precise THREADS=1  pm3
 InChI=1S/C10H12/c1-8-6-9-4-2-3-5-10(9)7-8/h2-6,9-10H,7H2,1H3

   ATOM   CHEMICAL          X               Y               Z
  NUMBER   SYMBOL      (ANGSTROMS)     (ANGSTROMS)     (ANGSTROMS)

     1       C         -0.39176475  *  -0.81274611  *  -0.98736067  *
     2       C         -0.97871513  *  -0.45465970  *   0.40416606  *
     3       C          1.14386277  *  -0.72246533  *  -0.83299172  *
     4       C          2.73716447  *  -0.21772722  *   1.13970026  *
     5       C          1.37198809  *  -0.36612940  *   0.60384625  *
     6       C          0.22215204  *  -0.21313901  *   1.27500283  *
     7       C         -0.86178556  *   0.03862314  *  -2.11385520  *
     8       C         -1.89891443  *   0.71561217  *   0.43824611  *
     9       C         -2.25390741  *   1.39659125  *  -0.65698688  *
    10       C         -1.72836090  *   1.04639572  *  -1.96159807  *
    11       H         -0.68177232  *  -1.86059018  *  -1.23844902  *
    12       H         -1.54815994  *  -1.32840504  *   0.80499641  *
    13       H          1.58798048  *   0.04156314  *  -1.49890895  *
    14       H          1.63884233  *  -1.67803214  *  -1.08645037  *
    15       H          3.30205606  *  -1.15302823  *   1.02757181  *
    16       H          2.73327988  *   0.04817503  *   2.20443123  *
    17       H          3.28246594  *   0.56703394  *   0.59820455  *
    18       H         -2.27536990  *   0.99622938  *   1.42851037  *
    19       H          0.11316409  *   0.05866109  *   2.32512097  *
    20       H         -0.45031540  *  -0.20758055  *  -3.09958651  *
    21       H         -2.06131226  *   1.64344589  *  -2.81694811  *
    22       H         -2.94510131  *   2.24389134  *  -0.60112506  *



          CARTESIAN COORDINATES 

    NO.       ATOM           X           Y           Z

     1         C         -0.3918     -0.8127     -0.9874
     2         C         -0.9787     -0.4547      0.4042
     3         C          1.1439     -0.7225     -0.8330
     4         C          2.7372     -0.2177      1.1397
     5         C          1.3720     -0.3661      0.6038
     6         C          0.2222     -0.2131      1.2750
     7         C         -0.8618      0.0386     -2.1139
     8         C         -1.8989      0.7156      0.4382
     9         C         -2.2539      1.3966     -0.6570
    10         C         -1.7284      1.0464     -1.9616
    11         H         -0.6818     -1.8606     -1.2384
    12         H         -1.5482     -1.3284      0.8050
    13         H          1.5880      0.0416     -1.4989
    14         H          1.6388     -1.6780     -1.0865
    15         H          3.3021     -1.1530      1.0276
    16         H          2.7333      0.0482      2.2044
    17         H          3.2825      0.5670      0.5982
    18         H         -2.2754      0.9962      1.4285
    19         H          0.1132      0.0587      2.3251
    20         H         -0.4503     -0.2076     -3.0996
    21         H         -2.0613      1.6434     -2.8169
    22         H         -2.9451      2.2439     -0.6011

  H: (PM3): J. J. P. STEWART, J. COMP. CHEM. 10, 209 (1989).
  C: (PM3): J. J. P. STEWART, J. COMP. CHEM. 10, 209 (1989).

           Empirical Formula: C10 H12  =    22 atoms



      MOLECULAR POINT GROUP   :   C1  


      RHF CALCULATION, NO. OF DOUBLY OCCUPIED LEVELS = 26



          HEAT OF FORMATION =      30.439506 KCALS/MOLE


          CARTESIAN COORDINATE DERIVATIVES

   NUMBER  ATOM         X            Y            Z

     1       C     -0.001072     0.003159    -0.000622
     2       C      0.001135     0.000542     0.001361
     3       C      0.005296     0.000897     0.006113
     4       C     -0.010227    -0.007919    -0.007166
     5       C     -0.012635     0.001755    -0.006301
     6       C      0.003915    -0.000869     0.011214
     7       C     -0.000696     0.004206     0.000885
     8       C      0.002527     0.008905     0.004433
     9       C      0.001294     0.007126     0.001452
    10       C     -0.000935     0.004785    -0.006573
    11       H      0.001164     0.000349    -0.003240
    12       H     -0.004558    -0.001757    -0.005138
    13       H     -0.004537     0.000348     0.003813
    14       H     -0.007105    -0.000549    -0.003133
    15       H     -0.007594     0.001738    -0.013999
    16       H      0.023946     0.001605     0.005279
    17       H     -0.001327    -0.003597     0.011098
    18       H      0.004999    -0.002260     0.002210
    19       H      0.005333    -0.005707    -0.000494
    20       H     -0.001003    -0.002528    -0.000459
    21       H      0.000068    -0.005046     0.000774
    22       H      0.002011    -0.005185    -0.001507



          GRADIENT NORM =   0.04701

          MOLECULAR WEIGHT =  132.20



          ROTATIONAL CONSTANTS IN CM(-1)

          A =    0.09170758   B =    0.03521228   C =    0.02927921



           PRINCIPAL MOMENTS OF INERTIA IN UNITS OF 10**(-40)*GRAM-CM**2

          A =      305.2393   B =      794.9713   C =      956.0625


          ORIENTATION OF MOLECULE IN FORCE CALCULATION

    NO.       ATOM         X         Y         Z

     1          C      -0.7823   -0.5267   -0.6202
     2          C       0.7698   -0.5267   -0.6202
     3          C      -1.2038    0.9607   -0.6202
     4          C       0.0787    3.2044   -0.6969
     5          C       0.0803    1.7308   -0.6585
     6          C       1.1521    0.9264   -0.6511
     7          C      -1.4181   -1.2574    0.5098
     8          C       1.4183   -1.2184    0.5281
     9          C       0.7278   -1.8529    1.4819
    10          C      -0.7214   -1.8776    1.4687
    11          H      -1.1395   -1.0170   -1.5567
    12          H       1.1429   -1.0203   -1.5505
    13          H      -1.7925    1.2296    0.2774
    14          H      -1.8387    1.2075   -1.4910
    15          H      -0.4512    3.5690   -1.5872
    16          H       1.0961    3.6153   -0.7182
    17          H      -0.4319    3.6141    0.1851
    18          H       2.5132   -1.1770    0.5517
    19          H       2.1975    1.2356   -0.6598
    20          H      -2.5142   -1.2604    0.5171
    21          H      -1.2246   -2.4165    2.2783
    22          H       1.2347   -2.3656    2.3059


    FIRST DERIVATIVES WILL BE USED IN THE CALCULATION OF SECOND DERIVATIVES

          ESTIMATED TIME TO COMPLETE CALCULATION =        2.06 SECONDS

    FOR POINT-GROUP C1   THERE ARE   1 UNIQUE SYMMETRY FUNCTIONS.

 STEP:   1 TIME =     0.02 SECS, INTEGRAL =      0.02 TIME LEFT: 172799.97
 STEP:   2 TIME =     0.02 SECS, INTEGRAL =      0.04 TIME LEFT: 172799.95
 STEP:   3 TIME =     0.02 SECS, INTEGRAL =      0.06 TIME LEFT: 172799.93
 STEP:   4 TIME =     0.02 SECS, INTEGRAL =      0.08 TIME LEFT: 172799.91
 STEP:   5 TIME =     0.02 SECS, INTEGRAL =      0.11 TIME LEFT: 172799.89
 STEP:   6 TIME =     0.02 SECS, INTEGRAL =      0.12 TIME LEFT: 172799.87
 STEP:   7 TIME =     0.02 SECS, INTEGRAL =      0.14 TIME LEFT: 172799.85
 STEP:   8 TIME =     0.02 SECS, INTEGRAL =      0.17 TIME LEFT: 172799.82
 STEP:   9 TIME =     0.02 SECS, INTEGRAL =      0.19 TIME LEFT: 172799.80
 STEP:  10 TIME =     0.02 SECS, INTEGRAL =      0.21 TIME LEFT: 172799.78
 STEP:  11 TIME =     0.02 SECS, INTEGRAL =      0.23 TIME LEFT: 172799.76
 STEP:  12 TIME =     0.02 SECS, INTEGRAL =      0.26 TIME LEFT: 172799.73
 STEP:  13 TIME =     0.02 SECS, INTEGRAL =      0.28 TIME LEFT: 172799.71
 STEP:  14 TIME =     0.02 SECS, INTEGRAL =      0.30 TIME LEFT: 172799.69
 STEP:  15 TIME =     0.02 SECS, INTEGRAL =      0.32 TIME LEFT: 172799.67
 STEP:  16 TIME =     0.02 SECS, INTEGRAL =      0.34 TIME LEFT: 172799.65
 STEP:  17 TIME =     0.02 SECS, INTEGRAL =      0.36 TIME LEFT: 172799.63
 STEP:  18 TIME =     0.03 SECS, INTEGRAL =      0.39 TIME LEFT: 172799.60
 STEP:  19 TIME =     0.02 SECS, INTEGRAL =      0.41 TIME LEFT: 172799.58
 STEP:  20 TIME =     0.02 SECS, INTEGRAL =      0.44 TIME LEFT: 172799.55
 STEP:  21 TIME =     0.02 SECS, INTEGRAL =      0.46 TIME LEFT: 172799.54
 STEP:  22 TIME =     0.02 SECS, INTEGRAL =      0.48 TIME LEFT: 172799.52
 STEP:  23 TIME =     0.02 SECS, INTEGRAL =      0.50 TIME LEFT: 172799.49
 STEP:  24 TIME =     0.02 SECS, INTEGRAL =      0.52 TIME LEFT: 172799.47
 STEP:  25 TIME =     0.02 SECS, INTEGRAL =      0.54 TIME LEFT: 172799.45
 STEP:  26 TIME =     0.02 SECS, INTEGRAL =      0.56 TIME LEFT: 172799.43
 STEP:  27 TIME =     0.02 SECS, INTEGRAL =      0.58 TIME LEFT: 172799.41
 STEP:  28 TIME =     0.02 SECS, INTEGRAL =      0.60 TIME LEFT: 172799.39
 STEP:  29 TIME =     0.02 SECS, INTEGRAL =      0.62 TIME LEFT: 172799.37
 STEP:  30 TIME =     0.02 SECS, INTEGRAL =      0.65 TIME LEFT: 172799.34
 STEP:  31 TIME =     0.02 SECS, INTEGRAL =      0.67 TIME LEFT: 172799.32
 STEP:  32 TIME =     0.02 SECS, INTEGRAL =      0.70 TIME LEFT: 172799.30
 STEP:  33 TIME =     0.02 SECS, INTEGRAL =      0.72 TIME LEFT: 172799.27
 STEP:  34 TIME =     0.02 SECS, INTEGRAL =      0.74 TIME LEFT: 172799.25
 STEP:  35 TIME =     0.02 SECS, INTEGRAL =      0.77 TIME LEFT: 172799.23
 STEP:  36 TIME =     0.02 SECS, INTEGRAL =      0.79 TIME LEFT: 172799.21
 STEP:  37 TIME =     0.02 SECS, INTEGRAL =      0.81 TIME LEFT: 172799.18
 STEP:  38 TIME =     0.02 SECS, INTEGRAL =      0.83 TIME LEFT: 172799.16
 STEP:  39 TIME =     0.02 SECS, INTEGRAL =      0.85 TIME LEFT: 172799.14
 STEP:  40 TIME =     0.02 SECS, INTEGRAL =      0.88 TIME LEFT: 172799.12
 STEP:  41 TIME =     0.02 SECS, INTEGRAL =      0.90 TIME LEFT: 172799.09
 STEP:  42 TIME =     0.02 SECS, INTEGRAL =      0.92 TIME LEFT: 172799.07
 STEP:  43 TIME =     0.02 SECS, INTEGRAL =      0.95 TIME LEFT: 172799.05
 STEP:  44 TIME =     0.02 SECS, INTEGRAL =      0.97 TIME LEFT: 172799.02
 STEP:  45 TIME =     0.02 SECS, INTEGRAL =      0.99 TIME LEFT: 172799.00
 STEP:  46 TIME =     0.02 SECS, INTEGRAL =      1.01 TIME LEFT: 172798.98
 STEP:  47 TIME =     0.02 SECS, INTEGRAL =      1.03 TIME LEFT: 172798.96
 STEP:  48 TIME =     0.02 SECS, INTEGRAL =      1.05 TIME LEFT: 172798.94
 STEP:  49 TIME =     0.02 SECS, INTEGRAL =      1.07 TIME LEFT: 172798.92
 STEP:  50 TIME =     0.02 SECS, INTEGRAL =      1.09 TIME LEFT: 172798.90
 STEP:  51 TIME =     0.02 SECS, INTEGRAL =      1.11 TIME LEFT: 172798.88
 STEP:  52 TIME =     0.02 SECS, INTEGRAL =      1.13 TIME LEFT: 172798.86
 STEP:  53 TIME =     0.03 SECS, INTEGRAL =      1.16 TIME LEFT: 172798.83
 STEP:  54 TIME =     0.02 SECS, INTEGRAL =      1.18 TIME LEFT: 172798.81
 STEP:  55 TIME =     0.02 SECS, INTEGRAL =      1.20 TIME LEFT: 172798.79
 STEP:  56 TIME =     0.02 SECS, INTEGRAL =      1.23 TIME LEFT: 172798.77
 STEP:  57 TIME =     0.02 SECS, INTEGRAL =      1.25 TIME LEFT: 172798.74
 STEP:  58 TIME =     0.02 SECS, INTEGRAL =      1.27 TIME LEFT: 172798.72
 STEP:  59 TIME =     0.02 SECS, INTEGRAL =      1.29 TIME LEFT: 172798.70
 STEP:  60 TIME =     0.03 SECS, INTEGRAL =      1.32 TIME LEFT: 172798.67
 STEP:  61 TIME =     0.02 SECS, INTEGRAL =      1.34 TIME LEFT: 172798.65
 STEP:  62 TIME =     0.02 SECS, INTEGRAL =      1.37 TIME LEFT: 172798.62
 STEP:  63 TIME =     0.02 SECS, INTEGRAL =      1.39 TIME LEFT: 172798.60
 STEP:  64 TIME =     0.02 SECS, INTEGRAL =      1.41 TIME LEFT: 172798.58
 STEP:  65 TIME =     0.02 SECS, INTEGRAL =      1.43 TIME LEFT: 172798.56
 STEP:  66 TIME =     0.02 SECS, INTEGRAL =      1.45 TIME LEFT: 172798.54

(To convert to Hartree/Bohr^2, multiply by (10^(-21) x N x a0^2)/(4.184 x 627.51) =  0.0642)


           FORCE MATRIX IN MILLIDYNES/ANGSTROM


                  C  1       C  2       C  3       C  4       C  5       C  6
 ------------------------------------------------------------------------------
     C    1  14.540394
     C    2   3.271320  14.947390
     C    3   3.424176   0.695382  14.539779
     C    4   0.048119   0.124784   0.521630  14.849018
     C    5   0.856632   1.138041   4.593746   5.414103  18.916280
     C    6   0.830560   4.428471   1.135233   0.728089  10.332606  18.332420
     C    7   4.907152   0.579933   0.662609   0.006881   0.032400   0.034667
     C    8   0.564577   4.853231   0.033195   0.019468   0.037471   0.730856
     C    9   0.119285   0.833746   0.016414   0.003875   0.010200   0.045580
     C   10   0.825510   0.120805   0.042471   0.003287   0.009520   0.019734
     H   11   4.262375   0.420168   0.431767   0.003656   0.024911   0.028514
     H   12   0.419971   4.197764   0.029831   0.018447   0.035134   0.412342
     H   13   0.449775   0.024865   4.496998   0.012855   0.435943   0.034349
     H   14   0.433725   0.029212   4.520593   0.012986   0.440234   0.036686
     H   15   0.002401   0.017237   0.014050   4.702514   0.451115   0.031816
     H   16   0.007727   0.003215   0.043081   4.751613   0.472731   0.027607
     H   17   0.002040   0.017188   0.014487   4.705155   0.450081   0.032452
     H   18   0.043051   0.432258   0.005695   0.000689   0.002053   0.019465
     H   19   0.039508   0.413282   0.109746   0.056806   0.459321   5.000246
     H   20   0.429531   0.043718   0.019547   0.000686   0.001878   0.006215
     H   21   0.122217   0.003050   0.017232   0.000567   0.001933   0.000654
     H   22   0.003285   0.120890   0.000821   0.001357   0.002102   0.018443


                  C  7       C  8       C  9       C 10       H 11       H 12
 ------------------------------------------------------------------------------
     C    7  18.118082
     C    8   0.167967  18.108918
     C    9   1.137659  10.341958  18.446436
     C   10  10.337256   1.142127   5.693955  18.444811
     H   11   0.396089   0.029629   0.012981   0.039441   4.693309
     H   12   0.027740   0.401104   0.038304   0.013580   0.023358   4.639375
     H   13   0.064071   0.002119   0.001478   0.005005   0.028467   0.003367
     H   14   0.026418   0.004361   0.001987   0.003910   0.028395   0.001158
     H   15   0.000716   0.002301   0.000314   0.000327   0.000236   0.003186
     H   16   0.001433   0.000978   0.000447   0.000593   0.000742   0.000527
     H   17   0.000771   0.003451   0.000978   0.000434   0.000429   0.002186
     H   18   0.012583   4.818361   0.444668   0.129216   0.005442   0.030185
     H   19   0.003851   0.014882   0.002387   0.001226   0.002965   0.014130
     H   20   4.809967   0.012313   0.128580   0.444821   0.032077   0.005397
     H   21   0.443080   0.047782   0.435191   4.850417   0.015950   0.000657
     H   22   0.047696   0.443954   4.852449   0.435461   0.000696   0.016137


                  H 13       H 14       H 15       H 16       H 17       H 18
 ------------------------------------------------------------------------------
     H   13   5.110180
     H   14   0.567700   5.122433
     H   15   0.001088   0.006480   5.412146
     H   16   0.001369   0.001330   0.558170   5.455538
     H   17   0.006294   0.001012   0.571116   0.558529   5.413746
     H   18   0.000636   0.001043   0.000147   0.000268   0.000196   5.194506
     H   19   0.015064   0.015188   0.007094   0.013504   0.007150   0.008107
     H   20   0.017059   0.001042   0.000158   0.000158   0.000221   0.010721
     H   21   0.000926   0.001563   0.000069   0.000131   0.000111   0.007595
     H   22   0.000344   0.000202   0.000136   0.000105   0.000223   0.067210


                  H 19       H 20       H 21       H 22
 ------------------------------------------------------
     H   19   5.402817
     H   20   0.001378   5.187872
     H   21   0.000391   0.067786   5.214251
     H   22   0.000757   0.007412   0.032365   5.217243


          HEAT OF FORMATION =      30.439506 KCALS/MOLE

          ZERO POINT ENERGY     118.784 KCAL/MOL


           NORMAL COORDINATE ANALYSIS (Total motion = 1 Angstrom)


   Root No.       1         2         3         4         5         6         7         8

                 1 A       2 A       3 A       4 A       5 A       6 A       7 A       8 A   

                  58.0     105.4     113.4     219.7     271.7     373.3     417.6     464.0
  
           1   -0.0010    0.0008   -0.0043    0.0076   -0.0193   -0.0144   -0.0004    0.0090
           2    0.0073   -0.0097   -0.0086   -0.0044   -0.0030    0.0128   -0.0093   -0.0054
           3    0.0048   -0.0146   -0.0129   -0.0173   -0.0023    0.0121   -0.0210    0.0113
           4   -0.0011    0.0009   -0.0042    0.0079   -0.0197   -0.0140    0.0036    0.0051
           5    0.0009   -0.0099   -0.0133   -0.0018    0.0018   -0.0118   -0.0090    0.0090
           6    0.0041   -0.0131   -0.0206   -0.0096   -0.0025   -0.0140   -0.0137   -0.0028
           7    0.0044    0.0010    0.0002    0.0048   -0.0230    0.0201   -0.0069    0.0065
           8    0.0087   -0.0093   -0.0068   -0.0049    0.0014    0.0170   -0.0148   -0.0030
           9    0.0539   -0.0123    0.0075    0.0338   -0.0149   -0.0106    0.0128   -0.0080
          10    0.0111    0.0023    0.0079   -0.0162    0.0529   -0.0282    0.0028    0.0030
          11    0.0027   -0.0083   -0.0098   -0.0036    0.0020   -0.0047   -0.0295    0.0193
          12   -0.0242    0.0400    0.0400   -0.0236   -0.0123   -0.0053   -0.0065   -0.0040
          13    0.0061    0.0012    0.0021    0.0017   -0.0199    0.0327   -0.0054    0.0008
          14    0.0033   -0.0093   -0.0106   -0.0021    0.0021   -0.0027   -0.0226    0.0164
          15   -0.0021   -0.0003    0.0029    0.0271    0.0168    0.0206    0.0593    0.0551
          16    0.0032    0.0008   -0.0006    0.0044   -0.0231    0.0213   -0.0002    0.0005
          17   -0.0009   -0.0097   -0.0141    0.0016   -0.0007   -0.0166   -0.0134    0.0135
          18   -0.0281   -0.0163   -0.0297    0.0353    0.0376    0.0142    0.0058   -0.0381
          19   -0.0046   -0.0009   -0.0015    0.0005    0.0017   -0.0064   -0.0050    0.0024
          20   -0.0300   -0.0038   -0.0111   -0.0098   -0.0260    0.0027    0.0401   -0.0264
          21   -0.0217   -0.0115   -0.0126   -0.0253   -0.0045    0.0113    0.0036   -0.0012
          22   -0.0053   -0.0012   -0.0019    0.0027    0.0017   -0.0052    0.0080   -0.0111
          23    0.0257    0.0079    0.0128   -0.0335    0.0095   -0.0007    0.0441   -0.0078
          24    0.0215   -0.0005   -0.0053   -0.0265   -0.0113   -0.0145    0.0130   -0.0026
          25   -0.0078   -0.0028    0.0003   -0.0046    0.0164    0.0025    0.0016   -0.0088
          26    0.0104    0.0306    0.0403    0.0175    0.0241    0.0294   -0.0062   -0.0081
          27    0.0097    0.0134    0.0144    0.0020    0.0074    0.0098   -0.0274    0.0015
          28   -0.0069   -0.0026    0.0007   -0.0050    0.0170    0.0036    0.0012   -0.0089
          29   -0.0290    0.0221    0.0214    0.0402   -0.0116   -0.0265    0.0130   -0.0015
          30   -0.0193    0.0063    0.0067    0.0103   -0.0050   -0.0141   -0.0207    0.0236
          31   -0.0003    0.0009   -0.0108    0.0099   -0.0196   -0.0378   -0.0053    0.0122
          32    0.0424   -0.0097    0.0025    0.0219   -0.0044    0.0103   -0.0148   -0.0084
          33   -0.0139   -0.0144   -0.0160   -0.0312   -0.0017    0.0216   -0.0151    0.0109
          34   -0.0014    0.0039   -0.0069    0.0135   -0.0185   -0.0371    0.0165    0.0015
          35   -0.0238   -0.0184   -0.0282    0.0334    0.0240   -0.0088   -0.0252   -0.0018
          36    0.0172   -0.0070   -0.0132   -0.0260   -0.0135   -0.0241    0.0012    0.0010
          37    0.0578   -0.0072    0.0095    0.0318   -0.0516   -0.0136   -0.0350   -0.0956
          38   -0.0054   -0.0128   -0.0151   -0.0300   -0.0011    0.0379   -0.0396   -0.0104
          39    0.0932   -0.0167    0.0162    0.0597   -0.0340   -0.0399    0.0024   -0.0760
          40   -0.0453    0.0091   -0.0073   -0.0226    0.0039    0.0654    0.0198    0.1013
          41    0.0267   -0.0055    0.0051    0.0188   -0.0031    0.0255    0.0151   -0.0112
          42    0.0954   -0.0172    0.0165    0.0608   -0.0358   -0.0424    0.0014   -0.0819
          43   -0.0186   -0.1577    0.1341   -0.0292    0.0726   -0.0546    0.0034    0.0050
          44   -0.0088    0.0239    0.0121   -0.0481    0.0118   -0.0583   -0.0876   -0.0323
          45   -0.0113    0.1487   -0.0262   -0.0345   -0.0198   -0.0125   -0.0314   -0.0272
          46    0.0121    0.0007    0.0111   -0.0222    0.0780   -0.0521    0.0061    0.0045
          47   -0.0019   -0.0133   -0.0096    0.0093   -0.0585    0.0508   -0.0391    0.0148
          48   -0.0663   -0.1303    0.1933   -0.0499   -0.0276   -0.0205   -0.0388   -0.0317
          49    0.0438    0.1651   -0.1168   -0.0147    0.0831   -0.0502    0.0080    0.0054
          50    0.0185   -0.0346   -0.0311    0.0260    0.0554   -0.0118    0.0327    0.0774
          51   -0.0126    0.1467   -0.0223   -0.0367   -0.0203   -0.0144   -0.0335   -0.0306
          52   -0.0069   -0.0012   -0.0019    0.0054    0.0016   -0.0056    0.0040   -0.0098
          53    0.0545    0.0063    0.0153   -0.0880    0.0223    0.0135    0.1214   -0.0394
          54    0.0429   -0.0006   -0.0076   -0.0545   -0.0255   -0.0176    0.0610   -0.0114
          55    0.0041    0.0009    0.0003    0.0035   -0.0226    0.0285   -0.0023   -0.0003
          56   -0.0050   -0.0099   -0.0175    0.0047    0.0001   -0.0414   -0.0072    0.0128
          57   -0.0677   -0.0216   -0.0467    0.0491    0.0717    0.0252   -0.0251   -0.1525
          58   -0.0046   -0.0009   -0.0015    0.0004    0.0019   -0.0063   -0.0051    0.0024
          59   -0.0568   -0.0173   -0.0346   -0.0348   -0.0645   -0.0088    0.1134   -0.0562
          60   -0.0424   -0.0221   -0.0252   -0.0488   -0.0078    0.0151    0.0511   -0.0321
          61   -0.0083   -0.0037    0.0031   -0.0095    0.0274    0.0132    0.0020   -0.0083
          62   -0.0567    0.0330    0.0286    0.0751   -0.0347   -0.0868    0.0402    0.0136
          63   -0.0387    0.0129    0.0129    0.0307   -0.0138   -0.0483   -0.0022    0.0339
          64   -0.0106   -0.0042    0.0021   -0.0091    0.0252    0.0086   -0.0046    0.0005
          65    0.0268    0.0512    0.0704    0.0202    0.0557    0.0904   -0.0197   -0.0300
          66    0.0217    0.0270    0.0320    0.0065    0.0214    0.0439   -0.0322   -0.0176


   Root No.       9        10        11        12        13        14        15        16

                 9 A      10 A      11 A      12 A      13 A      14 A      15 A      16 A   

                 495.2     513.5     555.9     630.0     721.2     757.2     828.0     847.2
  
           1    0.0283   -0.0127    0.0071   -0.0060   -0.0280   -0.0098   -0.0003   -0.0291
           2   -0.0199   -0.0269   -0.0119   -0.0388   -0.0237    0.0019   -0.0006   -0.0050
           3    0.0191    0.0049   -0.0482   -0.0051   -0.0323    0.0003    0.0055   -0.0282
           4    0.0288   -0.0158   -0.0111   -0.0072   -0.0285   -0.0001   -0.0067    0.0291
           5    0.0140    0.0164   -0.0142   -0.0348    0.0371    0.0144    0.0042   -0.0005
           6   -0.0243   -0.0162   -0.0381    0.0116    0.0354    0.0128    0.0001   -0.0090
           7    0.0052    0.0298    0.0095    0.0289    0.0134   -0.0061    0.0070   -0.0153
           8   -0.0320   -0.0156    0.0002   -0.0185   -0.0266    0.0066   -0.0153    0.0244
           9    0.0103   -0.0027   -0.0027    0.0010   -0.0079    0.0022    0.0002   -0.0329
          10    0.0107    0.0026   -0.0016   -0.0021    0.0043    0.0011   -0.0002    0.0013
          11    0.0001    0.0059    0.0300    0.0612   -0.0089   -0.0088   -0.0003   -0.0007
          12   -0.0001   -0.0008   -0.0012   -0.0010    0.0012   -0.0017   -0.0020    0.0082
          13   -0.0142    0.0262    0.0004    0.0051    0.0095    0.0013   -0.0006    0.0014
          14   -0.0005    0.0046    0.0207    0.0360   -0.0034   -0.0039   -0.0000   -0.0017
          15   -0.0030   -0.0141    0.0058    0.0028    0.0064   -0.0047   -0.0011    0.0110
          16    0.0043    0.0242   -0.0145   -0.0303    0.0244    0.0136    0.0054    0.0095
          17    0.0240    0.0083   -0.0020   -0.0167    0.0236    0.0142    0.0085    0.0094
          18   -0.0005    0.0197    0.0034    0.0014   -0.0029    0.0019    0.0083   -0.0079
          19   -0.0113   -0.0184    0.0598   -0.0384   -0.0124   -0.0073   -0.0098   -0.0136
          20    0.0178   -0.0403    0.0126    0.0002    0.0096   -0.0227    0.0244   -0.0074
          21    0.0266    0.0098    0.0048    0.0029    0.0041   -0.0103    0.0077    0.0218
          22   -0.0059   -0.0237   -0.0561    0.0387   -0.0173    0.0020   -0.0140    0.0293
          23   -0.0060    0.0467   -0.0046   -0.0111    0.0026   -0.0215   -0.0223   -0.0117
          24   -0.0242   -0.0094    0.0044    0.0070    0.0020   -0.0092   -0.0113    0.0082
          25   -0.0265   -0.0082   -0.0000    0.0078    0.0137    0.0033    0.0106   -0.0062
          26    0.0321   -0.0068   -0.0232    0.0044    0.0069   -0.0136   -0.0315   -0.0022
          27   -0.0112   -0.0355    0.0361   -0.0068    0.0243   -0.0021    0.0009   -0.0075
          28   -0.0257   -0.0087    0.0068    0.0024    0.0148    0.0026    0.0097   -0.0081
          29   -0.0303    0.0046   -0.0261    0.0065    0.0010   -0.0155    0.0333   -0.0078
          30    0.0020    0.0331    0.0222   -0.0239   -0.0189   -0.0108   -0.0025    0.0239
          31    0.0254   -0.0201   -0.0338   -0.0058   -0.0051    0.0076    0.0016   -0.0384
          32   -0.0559   -0.0300   -0.0098   -0.0440   -0.0566    0.0222   -0.0332   -0.0194
          33    0.0390    0.0095   -0.0327   -0.0020   -0.0233   -0.0166    0.0213   -0.0143
          34    0.0304   -0.0097    0.0307   -0.0031   -0.0108   -0.0090   -0.0105    0.0586
          35    0.0524    0.0266   -0.0056   -0.0405    0.0524    0.0460    0.0451    0.0116
          36   -0.0437   -0.0189   -0.0251    0.0163    0.0334   -0.0074   -0.0232   -0.0020
          37    0.0141    0.0536    0.0423    0.0394    0.0524   -0.0202    0.0125    0.0758
          38   -0.0374   -0.0039   -0.0396   -0.0360   -0.0581    0.0204   -0.0232   -0.0077
          39    0.0188    0.0092    0.0318    0.0132    0.0288   -0.0118    0.0068    0.0395
          40   -0.0170    0.0174   -0.0247    0.0157   -0.0128    0.0130   -0.0024   -0.0828
          41   -0.0572   -0.0139    0.0308   -0.0218    0.0242    0.0109   -0.0229    0.1200
          42    0.0200    0.0078    0.0325    0.0111    0.0274   -0.0114    0.0054    0.0457
          43    0.0242   -0.0067   -0.0023   -0.0027    0.0052    0.0011    0.0045   -0.0035
          44    0.0186    0.0060    0.0212    0.0629   -0.0122    0.0061    0.0192   -0.0534
          45   -0.0000    0.0048   -0.0049   -0.0006   -0.0003    0.0049    0.0038   -0.0117
          46    0.0237   -0.0064   -0.0026   -0.0056    0.0049    0.0013    0.0041   -0.0037
          47   -0.0298    0.0281    0.0324    0.0706   -0.0096   -0.0088   -0.0095    0.0099
          48    0.0016    0.0036   -0.0077   -0.0033    0.0015    0.0074    0.0060   -0.0161
          49    0.0243   -0.0055   -0.0010   -0.0028    0.0044    0.0006    0.0042   -0.0033
          50    0.0142   -0.0164    0.0436    0.0716   -0.0095   -0.0279   -0.0093    0.0405
          51    0.0008    0.0051   -0.0072   -0.0056    0.0012    0.0070    0.0049   -0.0144
          52   -0.0055   -0.0257   -0.0581    0.0369   -0.0111   -0.0030   -0.0233    0.0282
          53   -0.0299    0.0958    0.0507    0.0188   -0.1029    0.0763    0.1640   -0.0055
          54   -0.0007    0.0147    0.0267    0.0193   -0.1047    0.0510    0.0833    0.0721
          55   -0.0039    0.0316   -0.0101   -0.0203    0.0280    0.0098    0.0048   -0.0020
          56    0.0522   -0.0150   -0.0156   -0.0499    0.0074    0.0258    0.0081    0.0509
          57    0.0093    0.0862    0.0344   -0.0071   -0.1005   -0.0627   -0.0739   -0.0056
          58   -0.0114   -0.0180    0.0591   -0.0380   -0.0123   -0.0071   -0.0100   -0.0136
          59    0.0715   -0.0550    0.0781    0.0485    0.0336    0.1045   -0.1504   -0.0725
          60    0.0226    0.0041    0.0442    0.0469    0.0613    0.0867   -0.0963    0.0267
          61   -0.0113    0.0196   -0.0327    0.0219    0.0140    0.0030   -0.0003    0.0234
          62   -0.0826    0.0633    0.0039    0.0258   -0.0454    0.1559   -0.0683   -0.0527
          63   -0.0246    0.0897    0.0173    0.0015   -0.0500    0.1039   -0.0768    0.0156
          64   -0.0177    0.0251    0.0291   -0.0238    0.0165   -0.0038    0.0015   -0.0176
          65    0.0924   -0.0493    0.0297    0.0332   -0.0424    0.1513    0.0733    0.0156
          66    0.0214   -0.0825    0.0506    0.0310   -0.0084    0.1051    0.0716    0.0120


   Root No.      17        18        19        20        21        22        23        24

                17 A      18 A      19 A      20 A      21 A      22 A      23 A      24 A   

                 864.0     894.2     936.1     957.7     969.5     990.9     995.4    1005.5
  
           1   -0.0098   -0.0161   -0.0144    0.0017    0.0018    0.0176   -0.0021    0.0146
           2    0.0020   -0.0072   -0.0089   -0.0061   -0.0005   -0.0050   -0.0122   -0.0005
           3    0.0130   -0.0100   -0.0272   -0.0006    0.0014    0.0004   -0.0015    0.0005
           4    0.0134    0.0227   -0.0117    0.0045   -0.0070    0.0080   -0.0105   -0.0023
           5    0.0036   -0.0086    0.0103    0.0053    0.0027   -0.0028    0.0095    0.0017
           6   -0.0242   -0.0277    0.0249   -0.0022    0.0088    0.0032    0.0054    0.0107
           7    0.0017    0.0023    0.0026   -0.0429    0.0026    0.0146    0.0299    0.0035
           8   -0.0100    0.0053   -0.0063   -0.0040    0.0019    0.0177    0.0081    0.0111
           9    0.0068    0.0235    0.0276    0.0080   -0.0010   -0.0023    0.0089   -0.0084
          10   -0.0023   -0.0017   -0.0008    0.0406   -0.0041    0.0053    0.0136   -0.0011
          11    0.0007    0.0001   -0.0003    0.0140   -0.0022   -0.0122   -0.0207   -0.0062
          12    0.0122   -0.0171   -0.0096   -0.0031    0.0105    0.0031    0.0111   -0.0167
          13   -0.0039   -0.0024    0.0013    0.0130   -0.0005   -0.0066   -0.0075   -0.0024
          14   -0.0014   -0.0014   -0.0001    0.0019   -0.0001    0.0044    0.0089    0.0025
          15    0.0042   -0.0081   -0.0018    0.0005   -0.0063   -0.0024   -0.0106    0.0188
          16    0.0167    0.0018    0.0046    0.0071    0.0013   -0.0254   -0.0375   -0.0085
          17    0.0213    0.0061    0.0048   -0.0049    0.0021   -0.0069   -0.0030   -0.0024
          18   -0.0447    0.0167   -0.0249   -0.0049   -0.0044    0.0023   -0.0125   -0.0162
          19   -0.0309   -0.0160    0.0182   -0.0041    0.0019   -0.0250    0.0099   -0.0143
          20   -0.0034   -0.0053    0.0060   -0.0025   -0.0264   -0.0125    0.0093    0.0062
          21   -0.0022    0.0038    0.0040   -0.0015   -0.0175    0.0015    0.0011    0.0091
          22   -0.0164   -0.0012    0.0184   -0.0040    0.0064   -0.0246    0.0142   -0.0084
          23   -0.0071   -0.0006   -0.0037   -0.0030   -0.0255    0.0143   -0.0025   -0.0169
          24    0.0105    0.0096   -0.0021   -0.0018   -0.0155   -0.0017    0.0051   -0.0160
          25    0.0179    0.0045   -0.0101    0.0017   -0.0001    0.0092   -0.0013    0.0054
          26   -0.0200    0.0013   -0.0051    0.0001    0.0173   -0.0197    0.0039    0.0177
          27    0.0308    0.0173   -0.0242    0.0043    0.0111   -0.0087    0.0055    0.0146
          28    0.0175    0.0063   -0.0100    0.0025   -0.0040    0.0054   -0.0040   -0.0002
          29    0.0135    0.0057    0.0035    0.0065    0.0200    0.0173   -0.0095   -0.0151
          30   -0.0264   -0.0040    0.0231   -0.0011    0.0191    0.0092   -0.0051   -0.0076
          31   -0.0272   -0.0676   -0.0143    0.0429    0.0237    0.0855   -0.0511    0.0944
          32    0.0051    0.0339    0.0303   -0.0410    0.0342    0.0462   -0.0259   -0.0324
          33    0.0180   -0.0108   -0.0481    0.0022   -0.0257   -0.0507    0.0243   -0.0118
          34   -0.0073    0.0627   -0.0039    0.0161   -0.0303    0.1034    0.0242    0.0168
          35   -0.0327    0.0433   -0.0276    0.0257    0.0306   -0.0174    0.1710   -0.0095
          36   -0.0117   -0.0380    0.0487   -0.0090   -0.0156    0.0476   -0.0665    0.0231
          37   -0.0127   -0.0704   -0.0896   -0.0859    0.0121    0.0295    0.0338    0.0100
          38    0.0134    0.0164   -0.0385   -0.0402    0.0323    0.0375    0.0437   -0.0557
          39   -0.0099   -0.0298   -0.0253   -0.0085   -0.0045    0.0001   -0.0020    0.0169
          40    0.0127    0.0834    0.0977   -0.0591   -0.0016    0.0262    0.0757    0.0132
          41   -0.0355    0.0231    0.0390   -0.0477   -0.0199    0.0303    0.0212    0.1023
          42   -0.0096   -0.0334   -0.0313    0.0065   -0.0044   -0.0066   -0.0197    0.0121
          43    0.0089    0.0029    0.0025   -0.0541    0.0059   -0.0103   -0.0196   -0.0013
          44   -0.0587    0.0963    0.0490   -0.0904   -0.0399   -0.0526   -0.1272    0.0667
          45   -0.0202    0.0214    0.0094    0.0087   -0.0116   -0.0041   -0.0131    0.0149
          46    0.0078    0.0026    0.0024   -0.0535    0.0056   -0.0049   -0.0106    0.0018
          47   -0.0241   -0.0074   -0.0065    0.2380   -0.0266    0.0091    0.0312   -0.0124
          48   -0.0267    0.0292    0.0125   -0.0025   -0.0141   -0.0039   -0.0156    0.0220
          49    0.0093    0.0032    0.0029   -0.0539    0.0051   -0.0105   -0.0206    0.0004
          50    0.0880   -0.0825   -0.0406   -0.1115    0.0574   -0.0265   -0.0291   -0.0835
          51   -0.0237    0.0259    0.0118    0.0027   -0.0130    0.0001   -0.0066    0.0212
          52   -0.0159   -0.0011    0.0186   -0.0049   -0.0014   -0.0209    0.0133   -0.0124
          53   -0.0210   -0.0153   -0.0035    0.0130    0.1337   -0.0398    0.0092    0.0848
          54    0.0051    0.0332    0.0053    0.0140    0.0694   -0.0610    0.0116    0.0116
          55    0.0056   -0.0091    0.0085    0.0121    0.0029   -0.0358   -0.0448   -0.0099
          56    0.0684    0.0419   -0.0035   -0.0187   -0.0026    0.0247    0.0171    0.0036
          57    0.2487   -0.0580    0.1351    0.0216    0.0041   -0.0094    0.0250    0.0636
          58   -0.0312   -0.0161    0.0183   -0.0042    0.0020   -0.0246    0.0095   -0.0144
          59   -0.0119    0.0015   -0.0074    0.0193    0.1409    0.0422   -0.0255   -0.0187
          60    0.0338    0.0507   -0.0010    0.0159    0.0753    0.0293   -0.0408   -0.0299
          61    0.0098    0.0132   -0.0077    0.0035   -0.0048    0.0570   -0.0353    0.0244
          62    0.0404   -0.0245   -0.0774   -0.0213   -0.1195   -0.0816    0.0442    0.0414
          63   -0.0132   -0.0192   -0.0288   -0.0191   -0.0741   -0.0243    0.0112    0.0455
          64   -0.0048   -0.0064   -0.0127    0.0009    0.0030    0.0623   -0.0316    0.0392
          65   -0.0213   -0.0738    0.0850   -0.0133   -0.0933    0.0922   -0.0305   -0.0626
          66    0.0453   -0.0216    0.0330   -0.0035   -0.0596    0.0280    0.0032   -0.0562


   Root No.      25        26        27        28        29        30        31        32

                25 A      26 A      27 A      28 A      29 A      30 A      31 A      32 A   

                1023.1    1029.5    1062.1    1071.1    1086.2    1113.1    1144.6    1150.0
  
           1   -0.0055   -0.0063    0.0029   -0.0031   -0.0126    0.0012   -0.0046    0.0142
           2    0.0006    0.0084    0.0162    0.0149   -0.0152   -0.0230   -0.0020   -0.0053
           3   -0.0164    0.0023   -0.0082    0.0035   -0.0102   -0.0169   -0.0058   -0.0056
           4    0.0042   -0.0029   -0.0046   -0.0000    0.0002   -0.0079    0.0009   -0.0119
           5   -0.0024   -0.0086   -0.0031    0.0073    0.0018   -0.0035    0.0016    0.0027
           6    0.0106   -0.0003   -0.0125    0.0064    0.0051   -0.0092    0.0068   -0.0062
           7   -0.0019    0.0252    0.0059    0.0107   -0.0055   -0.0044    0.0001   -0.0034
           8   -0.0070   -0.0139   -0.0203   -0.0134    0.0078    0.0175   -0.0028    0.0078
           9    0.0159   -0.0093   -0.0136   -0.0126    0.0021    0.0137    0.0022   -0.0002
          10    0.0006    0.0181    0.0030    0.0010   -0.0020   -0.0011    0.0009    0.0001
          11    0.0050   -0.0100    0.0007   -0.0028    0.0007   -0.0007    0.0013   -0.0056
          12    0.0185   -0.0053   -0.0043   -0.0094   -0.0104   -0.0006   -0.0001    0.0001
          13    0.0008   -0.0123   -0.0009   -0.0006    0.0031    0.0002   -0.0013   -0.0008
          14   -0.0025    0.0055    0.0012    0.0042   -0.0010   -0.0013   -0.0013    0.0062
          15   -0.0256    0.0074    0.0082    0.0204    0.0244    0.0008    0.0006   -0.0004
          16    0.0047   -0.0094    0.0011   -0.0110    0.0050    0.0039   -0.0004    0.0041
          17   -0.0003    0.0241    0.0015   -0.0075    0.0015    0.0054   -0.0007    0.0126
          18    0.0093    0.0098   -0.0033   -0.0114   -0.0099    0.0045   -0.0016    0.0009
          19   -0.0049    0.0082   -0.0216    0.0104   -0.0008    0.0037   -0.0055   -0.0049
          20    0.0179   -0.0006    0.0070   -0.0012    0.0058    0.0067    0.0054   -0.0015
          21    0.0163   -0.0034    0.0136    0.0020   -0.0002    0.0086   -0.0089    0.0019
          22   -0.0092    0.0027    0.0218   -0.0112    0.0071    0.0006   -0.0067    0.0029
          23   -0.0114   -0.0080    0.0078   -0.0041   -0.0038    0.0029   -0.0040   -0.0044
          24   -0.0127   -0.0063    0.0133   -0.0004   -0.0052    0.0061    0.0079    0.0026
          25   -0.0031   -0.0035    0.0180   -0.0197    0.0101   -0.0077    0.0023    0.0003
          26    0.0174    0.0061   -0.0131    0.0088    0.0003    0.0001    0.0001   -0.0021
          27    0.0019   -0.0016    0.0148   -0.0113    0.0047   -0.0009    0.0005    0.0038
          28    0.0026   -0.0017   -0.0194    0.0188   -0.0115    0.0083    0.0012    0.0016
          29   -0.0175   -0.0011   -0.0149    0.0067   -0.0075   -0.0020    0.0003   -0.0019
          30   -0.0070    0.0006    0.0176   -0.0090    0.0050   -0.0014   -0.0011    0.0023
          31    0.0231   -0.0832    0.0516   -0.0076   -0.0318    0.1856   -0.0601   -0.0873
          32    0.0848    0.0523    0.2149    0.0835   -0.0149   -0.0631   -0.0179    0.0118
          33   -0.0717    0.0073   -0.1334   -0.0310   -0.0043   -0.0673    0.0220    0.0231
          34    0.0766   -0.0773   -0.1021    0.0388    0.0989   -0.1561   -0.0890    0.0371
          35   -0.0422   -0.1768    0.0835    0.0479    0.0025   -0.0255    0.0152   -0.0226
          36    0.0607    0.0616   -0.0984    0.0009    0.0446   -0.0576   -0.0349    0.0268
          37   -0.0483    0.0572    0.0065    0.0470    0.0551    0.0181    0.0041   -0.0175
          38    0.0108   -0.0044   -0.0576    0.0102    0.1866    0.1414    0.0156   -0.0089
          39   -0.0214    0.0089   -0.0011    0.0043   -0.0133   -0.0113   -0.0006   -0.0040
          40    0.0265    0.0098   -0.0368   -0.0424   -0.0548    0.0174    0.0051   -0.0188
          41   -0.0464   -0.0262   -0.0521   -0.0892   -0.1498   -0.0312   -0.0048   -0.0165
          42   -0.0185   -0.0009    0.0068    0.0049   -0.0066   -0.0150   -0.0021    0.0034
          43    0.0013   -0.0193   -0.0023   -0.0026    0.0013    0.0009   -0.0006   -0.0008
          44   -0.0749   -0.0434    0.0121    0.0307    0.0519    0.0048    0.0016   -0.0157
          45   -0.0166    0.0042    0.0039    0.0076    0.0097    0.0006    0.0007   -0.0027
          46   -0.0016   -0.0135   -0.0018    0.0008    0.0011    0.0004   -0.0015    0.0037
          47    0.0088    0.0649    0.0130   -0.0025   -0.0050   -0.0039    0.0073   -0.0161
          48   -0.0243    0.0056    0.0049    0.0120    0.0137    0.0010   -0.0000    0.0004
          49   -0.0009   -0.0185   -0.0016   -0.0009    0.0033    0.0011   -0.0006   -0.0007
          50    0.0891   -0.0904   -0.0238   -0.0494   -0.0362   -0.0005    0.0009   -0.0159
          51   -0.0229    0.0110    0.0047    0.0118    0.0110    0.0008   -0.0005    0.0035
          52   -0.0114    0.0011    0.0245   -0.0136    0.0080   -0.0004   -0.0078    0.0024
          53    0.0360    0.0257    0.0161   -0.0513    0.0401   -0.0319   -0.1125    0.0463
          54    0.0229    0.0026   -0.0705    0.1033   -0.0446    0.0323    0.1840   -0.0683
          55    0.0040   -0.0580    0.0041    0.0041    0.0067   -0.0152   -0.0026    0.0209
          56    0.0020    0.1803   -0.0088   -0.0586   -0.0008    0.0682    0.0057   -0.0426
          57   -0.0309   -0.0219    0.0016    0.0249    0.0205   -0.0091    0.0031   -0.0020
          58   -0.0041    0.0083   -0.0231    0.0134   -0.0022    0.0058   -0.0081   -0.0063
          59   -0.0730    0.0001    0.0165   -0.0571    0.0179   -0.0406    0.0908    0.0820
          60   -0.0100    0.0076   -0.0559    0.1000   -0.0640    0.0162   -0.1460   -0.1308
          61    0.0410   -0.0149   -0.0266    0.0815   -0.0599    0.0638    0.1251    0.1937
          62    0.0367    0.0068   -0.0085   -0.0098    0.0126   -0.0165   -0.0314   -0.0538
          63    0.0534   -0.0025    0.0198    0.0187   -0.0117    0.0242    0.0531    0.0885
          64    0.0349   -0.0081    0.0329   -0.0625    0.0564   -0.0836    0.1942   -0.1542
          65   -0.0269   -0.0122   -0.0021   -0.0076    0.0088   -0.0254    0.0556   -0.0495
          66   -0.0496   -0.0107    0.0145    0.0043   -0.0187    0.0307   -0.0820    0.0713


   Root No.      33        34        35        36        37        38        39        40

                33 A      34 A      35 A      36 A      37 A      38 A      39 A      40 A   

                1171.3    1202.3    1226.9    1233.4    1311.8    1335.0    1369.2    1390.5
  
           1   -0.0024   -0.0053   -0.0440    0.0154    0.0017   -0.0422   -0.0251    0.0045
           2    0.0074   -0.0192    0.0488   -0.0311   -0.0013   -0.0118   -0.0078    0.0037
           3    0.0051    0.0220   -0.0016    0.0050   -0.0250    0.0143    0.0074   -0.0068
           4   -0.0021   -0.0033   -0.0113   -0.0259    0.0564    0.0441    0.0134    0.0027
           5   -0.0228    0.0058    0.0065   -0.0120    0.0577   -0.0119   -0.0192   -0.0100
           6    0.0245    0.0001   -0.0192    0.0045    0.0189    0.0129    0.0038    0.0073
           7   -0.0047   -0.0118    0.0155    0.0015    0.0108   -0.0014    0.0162   -0.0167
           8   -0.0065   -0.0204   -0.0161    0.0381    0.0173   -0.0075    0.0302    0.0137
           9   -0.0028   -0.0078    0.0050   -0.0046    0.0029   -0.0025   -0.0021    0.0006
          10   -0.0038    0.0041   -0.0023   -0.0073   -0.0025   -0.0057    0.0110   -0.0179
          11    0.0163    0.0096   -0.0002   -0.0063   -0.0034    0.0189   -0.0294    0.0073
          12   -0.0008   -0.0005    0.0004    0.0002    0.0002   -0.0003    0.0004    0.0158
          13    0.0109   -0.0071    0.0098    0.0184    0.0076    0.0121   -0.0215   -0.0067
          14   -0.0247   -0.0181    0.0028    0.0129   -0.0119    0.0233   -0.0082   -0.0071
          15    0.0041    0.0016   -0.0027   -0.0002    0.0004   -0.0001    0.0006    0.0007
          16    0.0123    0.0047   -0.0068    0.0081   -0.0247   -0.0052    0.0022    0.0059
          17   -0.0303   -0.0032   -0.0142    0.0004   -0.0534    0.0002    0.0252    0.0033
          18   -0.0091    0.0001    0.0036   -0.0014    0.0017   -0.0016   -0.0015   -0.0010
          19    0.0107    0.0063   -0.0001   -0.0033   -0.0153    0.0151    0.0082   -0.0043
          20    0.0027   -0.0021   -0.0084   -0.0037   -0.0068   -0.0026   -0.0039   -0.0030
          21   -0.0077    0.0101    0.0014    0.0124    0.0121    0.0061    0.0061    0.0047
          22   -0.0109   -0.0081    0.0094   -0.0031   -0.0186   -0.0151   -0.0047   -0.0043
          23    0.0034    0.0052    0.0035    0.0059    0.0059   -0.0031   -0.0040    0.0022
          24    0.0055   -0.0114   -0.0058   -0.0080   -0.0208    0.0062    0.0085   -0.0023
          25   -0.0135    0.0055    0.0149    0.0058    0.0166   -0.0219   -0.0180    0.0013
          26    0.0027    0.0042   -0.0012    0.0049    0.0010    0.0041    0.0028    0.0019
          27   -0.0078   -0.0050    0.0014   -0.0070    0.0024   -0.0073   -0.0056   -0.0031
          28    0.0014    0.0163   -0.0003    0.0138    0.0063    0.0215    0.0170    0.0051
          29    0.0039    0.0013   -0.0064    0.0005   -0.0056    0.0053    0.0034   -0.0011
          30   -0.0038   -0.0031    0.0129   -0.0019    0.0069   -0.0074   -0.0044    0.0019
          31   -0.0205    0.0091    0.1484   -0.0205   -0.0814    0.0362    0.0380   -0.0118
          32    0.0031    0.0941   -0.1025    0.0495   -0.0067    0.0148   -0.0038   -0.0019
          33    0.0145   -0.0432    0.0040   -0.0238    0.0104   -0.0295   -0.0183    0.0026
          34    0.0288    0.0333    0.1054    0.0285   -0.1304   -0.0404   -0.0056   -0.0072
          35    0.1221   -0.0034   -0.0061    0.0209   -0.0486    0.0058    0.0071    0.0109
          36   -0.0407    0.0201    0.0349    0.0090   -0.0003   -0.0305   -0.0174   -0.0079
          37   -0.0013    0.0535    0.0002   -0.0814   -0.0174   -0.0283    0.0208    0.0944
          38   -0.0059    0.0765   -0.0694   -0.1018   -0.0327   -0.0064   -0.0861   -0.0554
          39    0.0001    0.0050    0.0114   -0.0146   -0.0014   -0.0171    0.0324    0.0825
          40   -0.0114    0.0396    0.0172   -0.0843   -0.0140   -0.0308    0.0193    0.0903
          41    0.0057    0.1272   -0.0660   -0.0696   -0.0675    0.0156   -0.0688   -0.0605
          42    0.0052   -0.0030   -0.0088    0.0252   -0.0028    0.0224   -0.0280   -0.0859
          43    0.0081    0.0002    0.0025    0.0039   -0.0023    0.0010   -0.0302    0.2025
          44    0.0703    0.0328    0.0014   -0.0138    0.0544   -0.1010    0.0906    0.0066
          45    0.0111    0.0087   -0.0015   -0.0074    0.0193   -0.0430    0.0624   -0.1175
          46   -0.0122   -0.0143    0.0035    0.0137   -0.0144    0.0413   -0.0339   -0.0313
          47    0.0453    0.0593   -0.0139   -0.0603    0.0308   -0.1121    0.0886    0.0598
          48   -0.0002   -0.0011   -0.0003    0.0014   -0.0004    0.0018    0.0005   -0.1562
          49    0.0081    0.0001    0.0023    0.0040   -0.0026    0.0014   -0.0292    0.0500
          50    0.0660    0.0307    0.0043   -0.0135    0.0538   -0.0987    0.0889   -0.0860
          51   -0.0137   -0.0101    0.0006    0.0080   -0.0218    0.0479   -0.0658    0.0789
          52   -0.0108   -0.0092    0.0100   -0.0044   -0.0196   -0.0154   -0.0049   -0.0046
          53    0.0465   -0.0371   -0.0434   -0.0582    0.0161    0.0474    0.0227   -0.0029
          54   -0.0928    0.0613    0.0658    0.0873    0.0004   -0.0794   -0.0416    0.0022
          55   -0.0628    0.0044   -0.0303   -0.0203   -0.0433    0.0012    0.0283    0.0102
          56    0.2234   -0.0023    0.0621    0.0975    0.0057   -0.0163   -0.0617   -0.0096
          57    0.0122   -0.0007   -0.0077   -0.0003    0.0021    0.0036    0.0025    0.0013
          58    0.0117    0.0053   -0.0026   -0.0039   -0.0176    0.0148    0.0081   -0.0048
          59    0.0029    0.0594    0.0779    0.0174    0.0167    0.0491    0.0310    0.0059
          60    0.0019   -0.1007   -0.0879   -0.0381   -0.0317   -0.0775   -0.0461   -0.0077
          61    0.0854   -0.0611   -0.0162   -0.0794   -0.0413   -0.0026   -0.0078   -0.0149
          62   -0.0196    0.0233   -0.0019    0.0248    0.0075    0.0125    0.0104    0.0041
          63    0.0322   -0.0384    0.0074   -0.0450   -0.0127   -0.0209   -0.0174   -0.0070
          64    0.0015   -0.0759   -0.0588   -0.0335   -0.0722    0.0047    0.0122   -0.0110
          65    0.0099   -0.0204   -0.0222   -0.0076   -0.0235    0.0126    0.0117   -0.0019
          66   -0.0144    0.0294    0.0356    0.0087    0.0427   -0.0216   -0.0209    0.0015


   Root No.      41        42        43        44        45        46        47        48

                41 A      42 A      43 A      44 A      45 A      46 A      47 A      48 A   

                1390.8    1396.4    1405.7    1457.9    1489.5    1851.9    1868.2    1885.0
  
           1    0.0035   -0.0101   -0.0204    0.0372   -0.0023    0.0025    0.0059   -0.0062
           2    0.0030   -0.0045   -0.0438    0.0290    0.0007    0.0077    0.0151   -0.0078
           3   -0.0051    0.0076    0.0409   -0.0337    0.0013   -0.0130   -0.0210    0.0024
           4    0.0019    0.0000   -0.0111   -0.0283    0.0205   -0.0039    0.0050   -0.0022
           5   -0.0073    0.0077    0.0589    0.0281   -0.0298    0.0114   -0.0148    0.0078
           6    0.0053   -0.0070   -0.0397   -0.0263    0.0178   -0.0144    0.0192    0.0041
           7   -0.0117    0.0325   -0.0160   -0.0144   -0.0567    0.0026   -0.0006    0.0096
           8    0.0089   -0.0042    0.0143   -0.0185   -0.0400    0.0012    0.0016   -0.0063
           9    0.0007   -0.0012   -0.0058    0.0044    0.0017   -0.0004    0.0001    0.0001
          10   -0.0129   -0.0166   -0.0060   -0.0026   -0.0088    0.0010   -0.0006    0.0071
          11    0.0045   -0.0209   -0.0046   -0.0129   -0.0835   -0.0057    0.0034   -0.0455
          12   -0.0279    0.0006   -0.0003    0.0002    0.0024    0.0001   -0.0001    0.0012
          13   -0.0044   -0.0031    0.0234    0.0186    0.0774   -0.0218    0.0115   -0.1676
          14   -0.0047   -0.0018    0.0034    0.0134    0.0939    0.0201   -0.0123    0.1702
          15   -0.0004    0.0000   -0.0012   -0.0014   -0.0029   -0.0003    0.0003   -0.0025
          16    0.0041   -0.0083   -0.0092   -0.0065   -0.0269    0.0174   -0.0102    0.1454
          17    0.0023    0.0039   -0.0261   -0.0116    0.0170   -0.0161    0.0096   -0.1383
          18   -0.0009    0.0008    0.0054    0.0019   -0.0015   -0.0009    0.0004    0.0028
          19   -0.0032    0.0055    0.0227   -0.0215    0.0013    0.0526    0.0499   -0.0013
          20   -0.0021    0.0018    0.0155   -0.0313    0.0058   -0.0640   -0.0709    0.0031
          21    0.0033   -0.0036   -0.0172    0.0459   -0.0073    0.0975    0.1081   -0.0047
          22   -0.0031    0.0037    0.0222    0.0173   -0.0120   -0.0554    0.0448    0.0136
          23    0.0018   -0.0031   -0.0150   -0.0288    0.0097   -0.0696    0.0653    0.0205
          24   -0.0019    0.0038    0.0173    0.0433   -0.0140    0.1051   -0.0990   -0.0276
          25    0.0014   -0.0047   -0.0171   -0.0632    0.0186    0.1136   -0.0607   -0.0231
          26    0.0014   -0.0015   -0.0091    0.0039    0.0016    0.0569   -0.0555   -0.0146
          27   -0.0022    0.0023    0.0154   -0.0080   -0.0022   -0.0835    0.0834    0.0216
          28    0.0034   -0.0018   -0.0174    0.0657   -0.0125   -0.1091   -0.0706    0.0079
          29   -0.0009    0.0015    0.0083    0.0050   -0.0020    0.0496    0.0585   -0.0011
          30    0.0015   -0.0024   -0.0148   -0.0054    0.0027   -0.0782   -0.0908    0.0019
          31   -0.0088    0.0219    0.0355   -0.0240   -0.0165    0.0131    0.0020   -0.0025
          32   -0.0019   -0.0042    0.0645   -0.0185    0.0103    0.0046   -0.0003   -0.0024
          33    0.0023   -0.0049   -0.0372    0.0138    0.0007   -0.0129   -0.0084   -0.0044
          34   -0.0054    0.0048    0.0330    0.0042   -0.0182   -0.0112    0.0002    0.0184
          35    0.0077   -0.0115   -0.0545   -0.0157    0.0060    0.0072   -0.0012    0.0163
          36   -0.0057    0.0055    0.0390    0.0098   -0.0177   -0.0120    0.0071   -0.0003
          37    0.0637   -0.1213    0.0524    0.0075    0.0406    0.0039   -0.0005    0.0207
          38   -0.0378    0.0450   -0.0820    0.0500    0.0360    0.0072    0.0046    0.0282
          39    0.0559   -0.1020    0.0594   -0.0034    0.0358   -0.0026   -0.0025    0.0015
          40    0.0631   -0.1167    0.0437    0.0126    0.0372    0.0021   -0.0020    0.0221
          41   -0.0397    0.0511   -0.0270    0.0130    0.0343    0.0018   -0.0049    0.0295
          42   -0.0594    0.1079   -0.0510   -0.0064   -0.0391   -0.0015   -0.0019   -0.0036
          43   -0.0498    0.1357    0.0141    0.0089    0.0432    0.0006   -0.0004    0.0046
          44   -0.1161    0.0236    0.0152    0.0210    0.0996   -0.0029    0.0016   -0.0225
          45   -0.0302   -0.0703   -0.0044    0.0052    0.0346    0.0005   -0.0003    0.0044
          46   -0.0168   -0.0603   -0.0045   -0.0080   -0.0479   -0.0037    0.0020   -0.0276
          47    0.0492    0.1289   -0.0030    0.0062    0.0440    0.0057   -0.0030    0.0404
          48    0.2730   -0.0020    0.0027    0.0003   -0.0012   -0.0001    0.0001   -0.0008
          49    0.2252    0.1378    0.0169    0.0092    0.0417    0.0006   -0.0004    0.0045
          50    0.0603    0.0271    0.0159    0.0203    0.0978   -0.0030    0.0016   -0.0221
          51    0.0967    0.0662    0.0039   -0.0063   -0.0407   -0.0004    0.0003   -0.0033
          52   -0.0034    0.0040    0.0238    0.0162   -0.0124   -0.0775    0.0659    0.0202
          53   -0.0024    0.0069    0.0261    0.0446   -0.0117    0.0107   -0.0195   -0.0035
          54    0.0023   -0.0089   -0.0283   -0.0644    0.0123   -0.0177    0.0333    0.0061
          55    0.0070   -0.0037   -0.0291   -0.0203   -0.0307    0.0144   -0.0083    0.1228
          56   -0.0062   -0.0160    0.0390    0.0305    0.0273    0.0102   -0.0074    0.0870
          57    0.0017   -0.0009   -0.0081   -0.0039    0.0023   -0.0010    0.0010   -0.0044
          58   -0.0036    0.0060    0.0248   -0.0221    0.0010    0.0717    0.0712   -0.0018
          59    0.0039   -0.0002   -0.0168    0.0435   -0.0073    0.0120    0.0236   -0.0001
          60   -0.0051   -0.0007    0.0223   -0.0643    0.0102   -0.0144   -0.0336   -0.0019
          61   -0.0107    0.0128    0.0681   -0.0666    0.0049    0.0237    0.0882    0.0066
          62    0.0028   -0.0021   -0.0147    0.0434   -0.0076    0.0249    0.0273   -0.0013
          63   -0.0048    0.0039    0.0212   -0.0672    0.0111   -0.0386   -0.0404    0.0021
          64   -0.0084    0.0126    0.0661    0.0578   -0.0242   -0.0305    0.0863    0.0136
          65   -0.0017    0.0038    0.0169    0.0435   -0.0123    0.0250   -0.0216   -0.0070
          66    0.0015   -0.0047   -0.0175   -0.0631    0.0158   -0.0426    0.0388    0.0110


   Root No.      49        50        51        52        53        54        55        56

                49 A      50 A      51 A      52 A      53 A      54 A      55 A      56 A   

                2867.6    2885.9    2973.5    3045.7    3048.2    3049.8    3063.5    3067.8
  
           1    0.0061   -0.0172   -0.0009   -0.0002    0.0004   -0.0005   -0.0002    0.0000
           2    0.0071   -0.0238   -0.0015   -0.0003    0.0001    0.0006   -0.0001   -0.0000
           3    0.0137   -0.0454   -0.0028   -0.0003    0.0004   -0.0004   -0.0004   -0.0000
           4    0.0194    0.0043    0.0000    0.0001   -0.0004    0.0003   -0.0001    0.0000
           5   -0.0254   -0.0068   -0.0001    0.0002    0.0002   -0.0004    0.0001   -0.0000
           6   -0.0473   -0.0127   -0.0002   -0.0001    0.0003   -0.0001    0.0003   -0.0001
           7   -0.0004    0.0004    0.0000   -0.0002   -0.0005   -0.0384   -0.0000    0.0000
           8    0.0004   -0.0007   -0.0014   -0.0000    0.0002    0.0158   -0.0001   -0.0000
           9   -0.0008    0.0039   -0.0583    0.0000   -0.0000   -0.0016    0.0000    0.0001
          10   -0.0000    0.0000   -0.0000   -0.0000   -0.0000    0.0001   -0.0000   -0.0012
          11   -0.0001   -0.0001   -0.0000   -0.0000    0.0000    0.0000    0.0000   -0.0014
          12   -0.0000    0.0000   -0.0002   -0.0000    0.0000   -0.0001    0.0000   -0.0576
          13   -0.0004   -0.0001    0.0000    0.0000    0.0000   -0.0007    0.0000   -0.0000
          14    0.0006    0.0007    0.0001   -0.0000   -0.0000   -0.0000   -0.0000    0.0000
          15   -0.0002   -0.0001   -0.0001   -0.0000    0.0000   -0.0000   -0.0000   -0.0001
[...]

 VIBRATION         43   43A           ATOM PAIR      ENERGY CONTRIBUTION    RADIAL
 FREQUENCY          1405.72         C  1 -- C  2         +15.4% ( 61.2%)      0.5%
 TRANSITION DIPOLE   0.1208         C  2 -- C  8         +12.3% ( 54.7%)     87.7%
 TRAVEL (Ang.)       0.1693         C  2 -- C  6         +11.3% ( 52.3%)     73.7%
 REDUCED MASS        1.6743         C  1 -- C  7         +10.4% ( 50.4%)     96.0%
 EFFECTIVE MASS      9.4139
 FORCE CONSTANT      1.9493

 VIBRATION         44   44A           ATOM PAIR      ENERGY CONTRIBUTION    RADIAL
 FREQUENCY          1457.86         C  9 -- C 10         +15.5% ( 60.4%)    100.0%
 TRANSITION DIPOLE   0.1551         C  1 -- C  7         +11.4% ( 51.9%)     98.8%
 TRAVEL (Ang.)       0.1827         C  2 -- C  8          +8.8% ( 45.6%)     98.3%
 REDUCED MASS        1.3862         C  7 -- C 10          +8.7% ( 45.3%)      0.6%
 EFFECTIVE MASS     10.5297
 FORCE CONSTANT      1.7359

 VIBRATION         45   45A           ATOM PAIR      ENERGY CONTRIBUTION    RADIAL
 FREQUENCY          1489.51         C  4 -- C  5         +24.1% ( 75.1%)     80.8%
 TRANSITION DIPOLE   0.0417         C  3 -- C  5         +21.1% ( 70.2%)     94.1%
 TRAVEL (Ang.)       0.1212         C  5 -- C  6         +13.8% ( 56.7%)      8.3%
 REDUCED MASS        3.0835         C  4 -- H 17          +6.6% ( 39.4%)      3.2%
 EFFECTIVE MASS     10.8108
 FORCE CONSTANT      4.0306

 VIBRATION         46   46A           ATOM PAIR      ENERGY CONTRIBUTION    RADIAL
 FREQUENCY          1851.87         C  8 -- C  9         +22.9% ( 71.4%)     99.1%
 TRANSITION DIPOLE   0.2941         C  7 -- C 10         +20.0% ( 66.7%)     98.8%
 TRAVEL (Ang.)       0.1143         C  9 -- C 10         +16.4% ( 60.4%)     99.9%
 REDUCED MASS        2.7855         C  9 -- H 22          +7.5% ( 40.8%)      1.8%
 EFFECTIVE MASS     11.9559
 FORCE CONSTANT      5.6282

 VIBRATION         47   47A           ATOM PAIR      ENERGY CONTRIBUTION    RADIAL
 FREQUENCY          1868.16         C  7 -- C 10         +24.1% ( 71.9%)     99.4%
 TRANSITION DIPOLE   0.3892         C  8 -- C  9         +20.0% ( 65.5%)     99.1%
 TRAVEL (Ang.)       0.1163         C  9 -- C 10         +12.0% ( 50.8%)      0.2%
 REDUCED MASS        2.6673         C  1 -- C  7          +8.6% ( 42.9%)     56.7%
 EFFECTIVE MASS     11.7862
 FORCE CONSTANT      5.4846

 VIBRATION         48   48A           ATOM PAIR      ENERGY CONTRIBUTION    RADIAL
 FREQUENCY          1884.95         C  5 -- C  6         +42.6% ( 96.4%)     98.2%
 TRANSITION DIPOLE   0.2200         C  4 -- C  5         +17.4% ( 61.6%)     60.5%
 TRAVEL (Ang.)       0.0820         C  3 -- C  5         +15.8% ( 58.6%)      6.0%
 REDUCED MASS        5.3247         C  2 -- C  6         +10.5% ( 47.9%)     24.9%
 EFFECTIVE MASS     11.8774         C  6 -- H 19         +10.0% ( 46.7%)      8.9%
 FORCE CONSTANT     11.1467

 VIBRATION         49   49A           ATOM PAIR      ENERGY CONTRIBUTION    RADIAL
 FREQUENCY          2867.57         C  2 -- H 12         +89.5% ( 96.2%)    100.0%
 TRANSITION DIPOLE   0.0708         C  1 -- H 11          +7.3% ( 27.5%)    100.0%
 TRAVEL (Ang.)       0.1714         C  1 -- C  2          +1.1% ( 10.6%)      3.6%
 REDUCED MASS        0.8004         C  2 -- C  8          +1.0% (  9.9%)      6.9%
 EFFECTIVE MASS      1.4491
 FORCE CONSTANT      3.8778

 VIBRATION         50   50A           ATOM PAIR      ENERGY CONTRIBUTION    RADIAL
 FREQUENCY          2885.85         C  1 -- H 11         +89.3% ( 95.9%)    100.0%
 TRANSITION DIPOLE   0.0876         C  2 -- H 12          +7.2% ( 27.2%)    100.0%
 TRAVEL (Ang.)       0.1716         C  1 -- C  2          +1.0% ( 10.1%)     25.5%
 REDUCED MASS        0.7938         C  1 -- C  3          +1.0% ( 10.1%)      9.2%
 EFFECTIVE MASS      1.4429
 FORCE CONSTANT      3.8953

 VIBRATION         51   51A           ATOM PAIR      ENERGY CONTRIBUTION    RADIAL
 FREQUENCY          2973.47         C  3 -- H 13         +52.5% ( 75.2%)     97.1%
 TRANSITION DIPOLE   0.0539         C  3 -- H 14         +44.9% ( 69.5%)     96.1%
 TRAVEL (Ang.)       0.2094         C  3 -- C  5          +1.1% ( 10.9%)      0.0%
 REDUCED MASS        0.5172         C  1 -- C  3          +1.1% ( 10.9%)      0.0%
 EFFECTIVE MASS      1.5382
 FORCE CONSTANT      2.6944

 VIBRATION         52   52A           ATOM PAIR      ENERGY CONTRIBUTION    RADIAL
 FREQUENCY          3045.68         C  7 -- H 20         +55.2% ( 75.5%)    100.0%
 TRANSITION DIPOLE   0.2594         C 10 -- H 21         +27.5% ( 53.3%)    100.0%
 TRAVEL (Ang.)       0.2403         C  9 -- H 22          +7.6% ( 28.1%)    100.0%
 REDUCED MASS        0.3834         C  8 -- H 18          +7.2% ( 27.2%)    100.0%
 EFFECTIVE MASS      1.4700
 FORCE CONSTANT      2.0952

 VIBRATION         53   53A           ATOM PAIR      ENERGY CONTRIBUTION    RADIAL
 FREQUENCY          3048.23         C  8 -- H 18         +58.1% ( 77.4%)    100.0%
 TRANSITION DIPOLE   0.2500         C  9 -- H 22         +24.2% ( 50.0%)    100.0%
 TRAVEL (Ang.)       0.2334         C  7 -- H 20         +13.6% ( 37.4%)    100.0%
 REDUCED MASS        0.4060         C 10 -- H 21          +1.5% ( 12.6%)     99.6%
 EFFECTIVE MASS      1.4623
 FORCE CONSTANT      2.2229

 VIBRATION         54   54A           ATOM PAIR      ENERGY CONTRIBUTION    RADIAL
 FREQUENCY          3049.84         C  3 -- H 14         +53.5% ( 72.1%)     98.0%
 TRANSITION DIPOLE   0.0898         C  3 -- H 13         +45.1% ( 66.2%)     97.0%
 TRAVEL (Ang.)       0.2132         C  1 -- C  3          +0.7% (  8.1%)     37.3%
 REDUCED MASS        0.4863         C  3 -- C  5          +0.7% (  8.1%)     34.8%
 EFFECTIVE MASS      1.2808
 FORCE CONSTANT      2.6651

 VIBRATION         55   55A           ATOM PAIR      ENERGY CONTRIBUTION    RADIAL
 FREQUENCY          3063.54         C 10 -- H 21         +34.4% ( 59.6%)     99.9%
 TRANSITION DIPOLE   0.3552         C  9 -- H 22         +24.2% ( 50.0%)     99.9%
 TRAVEL (Ang.)       0.2976         C  7 -- H 20         +19.1% ( 44.4%)     99.9%
 REDUCED MASS        0.2486         C  8 -- H 18         +18.7% ( 44.0%)     99.9%
 EFFECTIVE MASS      1.5735
 FORCE CONSTANT      1.3745

 VIBRATION         56   56A           ATOM PAIR      ENERGY CONTRIBUTION    RADIAL
 FREQUENCY          3067.85         C  4 -- H 15         +49.8% ( 72.8%)     97.1%
 TRANSITION DIPOLE   0.0267         C  4 -- H 17         +48.3% ( 71.7%)     96.9%
 TRAVEL (Ang.)       0.2076         C  4 -- C  5          +1.0% ( 10.2%)      0.0%
 REDUCED MASS        0.5099         C  4 -- H 16          +0.9% (  9.9%)      0.1%
 EFFECTIVE MASS      1.5037
 FORCE CONSTANT      2.8277

 VIBRATION         57   57A           ATOM PAIR      ENERGY CONTRIBUTION    RADIAL
 FREQUENCY          3073.94         C  9 -- H 22         +40.9% ( 64.9%)    100.0%
 TRANSITION DIPOLE   0.3572         C 10 -- H 21         +33.5% ( 58.7%)    100.0%
 TRAVEL (Ang.)       0.2680         C  8 -- H 18         +12.9% ( 36.4%)     99.8%
 REDUCED MASS        0.3055         C  7 -- H 20          +8.9% ( 30.3%)     99.8%
 EFFECTIVE MASS      1.6022
 FORCE CONSTANT      1.7007

 VIBRATION         58   58A           ATOM PAIR      ENERGY CONTRIBUTION    RADIAL
 FREQUENCY          3078.11         C  4 -- H 16         +61.0% ( 80.6%)     98.7%
 TRANSITION DIPOLE   0.0419         C  4 -- H 17         +19.6% ( 45.6%)     86.3%
 TRAVEL (Ang.)       0.2145         C  4 -- H 15         +18.3% ( 44.2%)     85.2%
 REDUCED MASS        0.4760         C  4 -- C  5          +1.0% ( 10.5%)      0.0%
 EFFECTIVE MASS      1.5134
 FORCE CONSTANT      2.6574

 VIBRATION         59   59A           ATOM PAIR      ENERGY CONTRIBUTION    RADIAL
 FREQUENCY          3120.43         C  6 -- H 19         +96.5% ( 99.9%)    100.0%
 TRANSITION DIPOLE   0.3618         C  5 -- C  6          +1.8% ( 13.6%)     49.6%
 TRAVEL (Ang.)       0.1526         C  2 -- C  6          +1.6% ( 12.9%)     21.8%
 REDUCED MASS        0.9281
 EFFECTIVE MASS      1.5537
 FORCE CONSTANT      5.3242

 VIBRATION         60   60A           ATOM PAIR      ENERGY CONTRIBUTION    RADIAL
 FREQUENCY          3166.17         C  4 -- H 16         +37.8% ( 59.2%)     97.7%
 TRANSITION DIPOLE   0.0542         C  4 -- H 17         +31.1% ( 53.8%)     96.7%
 TRAVEL (Ang.)       0.2542         C  4 -- H 15         +30.7% ( 53.4%)     96.7%
 REDUCED MASS        0.3295         C  4 -- C  5          +0.3% (  5.4%)     99.4%
 EFFECTIVE MASS      1.1394
 FORCE CONSTANT      1.9463

      SYMMETRY NUMBER FOR POINT-GROUP C1  =  1


          SYSTEM IS A GROUND STATE



 InChI=1S/C10H12/c1-8-6-9-4-2-3-5-10(9)7-8/h2-6,9-10H,7H2,1H3


          MOLECULE IS NOT LINEAR

          THERE ARE 60 GENUINE VIBRATIONS IN THIS SYSTEM
          THIS THERMODYNAMICS CALCULATION IS LIMITED TO
          MOLECULES WHICH HAVE NO INTERNAL ROTATIONS




                    CALCULATED THERMODYNAMIC PROPERTIES
                                          *
   TEMP. (K)   PARTITION FUNCTION   H.O.F.    ENTHALPY  HEAT CAPACITY ENTROPY
                                   KCAL/MOL   CAL/MOLE    CAL/K/MOL  CAL/K/MOL


 298.00  VIB.     0.1361D+03                  3722.1975    28.6342    22.2544
         ROT.     0.5434D+06                   888.2803     2.9808    29.2229
         INT.     0.7394D+08                  4610.4778    31.6150    51.4772
         TRA.     0.1470D+28                  1480.4672     4.9680    40.5480
         TOT.                       30.440    6090.9450    36.5830    92.0252

 200.00  VIB.     0.1899D+02                  1522.6537    16.6063    13.4634
         ROT.     0.2987D+06                   596.1613     2.9808    28.0342
         INT.     0.5673D+07                  2118.8150    19.5871    41.4976
         TRA.     0.8080D+27                   993.6021     4.9680    38.5668
         TOT.                       27.461    3112.4171    24.5552    80.0644

 210.00  VIB.     0.2302D+02                  1694.2397    17.7169    14.3004
         ROT.     0.3214D+06                   625.9693     2.9808    28.1796
         INT.     0.7399D+07                  2320.2090    20.6977    42.4800
         TRA.     0.8694D+27                  1043.2822     4.9680    38.8092
         TOT.                       27.712    3363.4912    25.6657    81.2892

 220.00  VIB.     0.2796D+02                  1877.1073    18.8623    15.1509
         ROT.     0.3447D+06                   655.7774     2.9808    28.3183
         INT.     0.9635D+07                  2532.8847    21.8431    43.4692
         TRA.     0.9322D+27                  1092.9623     4.9680    39.0403
         TOT.                       27.974    3625.8471    26.8111    82.5095

 230.00  VIB.     0.3401D+02                  2071.5935    20.0401    16.0152
         ROT.     0.3684D+06                   685.5855     2.9808    28.4508
         INT.     0.1253D+08                  2757.1790    23.0209    44.4660
         TRA.     0.9965D+27                  1142.6424     4.9680    39.2612
         TOT.                       28.248    3899.8214    27.9889    83.7272

 240.00  VIB.     0.4146D+02                  2278.0066    21.2471    16.8935
         ROT.     0.3927D+06                   715.3935     2.9808    28.5776
         INT.     0.1628D+08                  2993.4001    24.2279    45.4712
         TRA.     0.1062D+28                  1192.3226     4.9680    39.4726
         TOT.                       28.534    4185.7227    29.1959    84.9438

 250.00  VIB.     0.5064D+02                  2496.6219    22.4799    17.7858
         ROT.     0.4175D+06                   745.2016     2.9808    28.6993
         INT.     0.2114D+08                  3241.8235    25.4607    46.4851
         TRA.     0.1129D+28                  1242.0027     4.9680    39.6754
         TOT.                       28.832    4483.8261    30.4287    86.1605

 260.00  VIB.     0.6198D+02                  2727.6780    23.7346    18.6918
         ROT.     0.4428D+06                   775.0097     2.9808    28.8162
         INT.     0.2744D+08                  3502.6876    26.7155    47.5081
         TRA.     0.1198D+28                  1291.6828     4.9680    39.8703
         TOT.                       29.143    4794.3704    31.6835    87.3783

 270.00  VIB.     0.7601D+02                  2971.3751    25.0075    19.6114
         ROT.     0.4686D+06                   804.8177     2.9808    28.9287
         INT.     0.3562D+08                  3776.1928    27.9883    48.5401
         TRA.     0.1267D+28                  1341.3629     4.9680    40.0578
         TOT.                       29.466    5117.5557    32.9563    88.5979

 280.00  VIB.     0.9341D+02                  3227.8741    26.2944    20.5441
         ROT.     0.4949D+06                   834.6258     2.9808    29.0371
         INT.     0.4623D+08                  4062.4998    29.2752    49.5812
         TRA.     0.1338D+28                  1391.0430     4.9680    40.2384
         TOT.                       29.802    5453.5428    34.2432    89.8197

 290.00  VIB.     0.1150D+03                  3497.2968    27.5916    21.4894
         ROT.     0.5216D+06                   864.4339     2.9808    29.1417
         INT.     0.6000D+08                  4361.7306    30.5724    50.6311
         TRA.     0.1411D+28                  1440.7231     4.9680    40.4128
         TOT.                       30.151    5802.4537    35.5404    91.0439

 300.00  VIB.     0.1420D+03                  3779.7269    28.8953    22.4468
         ROT.     0.5488D+06                   894.2419     2.9808    29.2428
         INT.     0.7791D+08                  4673.9688    31.8761    51.6895
         TRA.     0.1484D+28                  1490.4032     4.9680    40.5812
         TOT.                       30.513    6164.3720    36.8441    92.2707

 310.00  VIB.     0.1755D+03                  4075.2117    30.2019    23.4155
         ROT.     0.5765D+06                   924.0500     2.9808    29.3405
         INT.     0.1012D+09                  4999.2617    33.1827    52.7561
         TRA.     0.1559D+28                  1540.0833     4.9680    40.7441
         TOT.                       30.888    6539.3450    38.1507    93.5002

 320.00  VIB.     0.2175D+03                  4383.7644    31.5083    24.3950
         ROT.     0.6046D+06                   953.8580     2.9808    29.4352
         INT.     0.1315D+09                  5337.6224    34.4891    53.8302
         TRA.     0.1635D+28                  1589.7634     4.9680    40.9018
         TOT.                       31.276    6927.3858    39.4571    94.7320

 330.00  VIB.     0.2701D+03                  4705.3661    32.8113    25.3846
         ROT.     0.6332D+06                   983.6661     2.9808    29.5269
         INT.     0.1710D+09                  5689.0323    35.7921    54.9114
         TRA.     0.1713D+28                  1639.4435     4.9680    41.0547
         TOT.                       31.677    7328.4758    40.7601    95.9661

 340.00  VIB.     0.3360D+03                  5039.9693    34.1081    26.3833
         ROT.     0.6622D+06                  1013.4742     2.9808    29.6159
         INT.     0.2225D+09                  6053.4434    37.0889    55.9992
         TRA.     0.1791D+28                  1689.1236     4.9680    41.2030
         TOT.                       32.091    7742.5671    42.0569    97.2022

 350.00  VIB.     0.4189D+03                  5387.4997    35.3963    27.3907
         ROT.     0.6916D+06                  1043.2822     2.9808    29.7023
         INT.     0.2897D+09                  6430.7819    38.3771    57.0929
         TRA.     0.1871D+28                  1738.8037     4.9680    41.3470
         TOT.                       32.518    8169.5857    43.3452    98.4400

 360.00  VIB.     0.5231D+03                  5747.8599    36.6737    28.4057
         ROT.     0.7215D+06                  1073.0903     2.9808    29.7863
         INT.     0.3774D+09                  6820.9502    39.6545    58.1920
         TRA.     0.1951D+28                  1788.4838     4.9680    41.4870
         TOT.                       32.958    8609.4341    44.6226    99.6790

 370.00  VIB.     0.6545D+03                  6120.9319    37.9384    29.4278
         ROT.     0.7517D+06                  1102.8984     2.9808    29.8679
         INT.     0.4920D+09                  7223.8302    40.9192    59.2958
         TRA.     0.2033D+28                  1838.1639     4.9680    41.6231
         TOT.                       33.411    9061.9942    45.8872   100.9189

 380.00  VIB.     0.8204D+03                  6506.5793    39.1886    30.4562
         ROT.     0.7824D+06                  1132.7064     2.9808    29.9474
         INT.     0.6419D+09                  7639.2857    42.1694    60.4036
         TRA.     0.2116D+28                  1887.8440     4.9680    41.7556
         TOT.                       33.876    9527.1298    47.1374   102.1592

 390.00  VIB.     0.1030D+04                  6904.6507    40.4229    31.4902
         ROT.     0.8135D+06                  1162.5145     2.9808    30.0248
         INT.     0.8379D+09                  8067.1651    43.4037    61.5150
         TRA.     0.2200D+28                  1937.5242     4.9680    41.8846
         TOT.                       34.353   10004.6893    48.3718   103.3996

 400.00  VIB.     0.1295D+04                  7314.9813    41.6403    32.5290
         ROT.     0.8450D+06                  1192.3226     2.9808    30.1003
         INT.     0.1095D+10                  8507.3038    44.6211    62.6293
         TRA.     0.2285D+28                  1987.2043     4.9680    42.0104
         TOT.                       34.843   10494.5081    49.5891   104.6397

   *: NOTE: HEATS OF FORMATION ARE RELATIVE TO THE
            ELEMENTS IN THEIR STANDARD STATE AT 298K
              (=  Standard Enthalpy of Formation).

            Hvib:  Zero-point energy is not included.
                   frequencies of less than zero cm-1 are not included.
            Hrot = (3/2)RT
            Htra = (3/2)RT + pV = (5/2)RT

            Heat capacity is Cp, not Cv

          For more information, see: HTTP://OpenMOPAC.net/Manual/thermochemistry.html


           FORCE CONSTANT IN CARTESIAN COORDINATES (Millidynes/A)

    ATOM   CHEMICAL       X               Y               Z
   NUMBER   SYMBOL  FORCE CONSTANT  FORCE CONSTANT  FORCE CONSTANT

      1       C        7.904781        8.261748        8.828224
      2       C        7.960885        9.240379        8.537164
      3       C        9.477025        7.465612        8.111229
      4       C        8.439585        9.261906        7.966604
      5       C       12.212598       13.602575        2.725098
      6       C       14.425428       10.604272        2.358411
      7       C       11.211906        5.863427       10.093840
      8       C       11.176598        5.824461       10.113369
      9       C       11.603723        5.647144       10.427404
     10       C       11.636554        5.674991       10.370158
     11       H        1.094919        1.431670        3.419301
     12       H        1.122182        1.380786        3.338829
     13       H        1.805590        0.992230        3.611749
     14       H        2.014501        0.898116        3.468842
     15       H        1.751838        1.107268        3.779292
     16       H        4.782801        1.301812        0.654811
     17       H        1.673402        1.235096        3.731116
     18       H        5.117932        0.466355        0.648074
     19       H        4.964531        1.093863        0.342848
     20       H        5.118667        0.471081        0.641313
     21       H        1.696087        1.529599        3.026677
     22       H        1.710050        1.425413        3.121179

 **********************
 *                    *
 * JOB ENDED NORMALLY *
 *                    *
 **********************



 TOTAL JOB TIME:             3.56 SECONDS

 == MOPAC DONE ==
