 *******************************************************************************
 **                                                                           **
 **                              MOPAC v23.1.2                                **
 **                                                                           **
 *******************************************************************************
 **          Digital Object Identifier (DOI): 10.5281/zenodo.6511958          **
 **    Visit the DOI location for information on how to cite this program.    **
 *******************************************************************************

                              PM3 CALCULATION RESULTS

 *******************************************************************************
 *  CALCULATION DONE: (MAX THREADS = 1)              Tue Jun  3 16:27:05 2025  *
 *  PM3        - The PM3 Hamiltonian to be used
 *  PRECISE    - TIGHTER CRITERIA TO BE USED
 *  NOSYM      - POINT-GROUP SYMMETRY SET TO C1
 *  THREADS=1  - MULTI-THREADING NOT USED
 *  T=         - A TIME OF 172800.0 SECONDS REQUESTED
 *  DUMP=N     - RESTART FILE WRITTEN EVERY 7200.0 SECONDS REQUESTED
 *******************************************************************************
pm3  precise nosym THREADS=1
 InChI=1S/C10H12/c1-8-6-9-4-2-3-5-10(9)7-8/h2,4-6,9H,3,7H2,1H3

   ATOM   CHEMICAL          X               Y               Z
  NUMBER   SYMBOL      (ANGSTROMS)     (ANGSTROMS)     (ANGSTROMS)

     1       C          0.32700000  *  -0.88760000  *   0.45830000  *
     2       C         -1.09380000  *   1.13410000  *   0.32130000  *
     3       C          2.73370000  *   0.65280000  *   0.37630000  *
     4       C         -3.23560000  *  -0.13230000  *  -0.56440000  *
     5       C          0.28130000  *   0.60790000  *   0.56220000  *
     6       C         -1.80580000  *  -0.10620000  *  -0.11940000  *
     7       C         -1.02820000  *  -1.19190000  *  -0.08480000  *
     8       C          1.40010000  *   1.35030000  *   0.51740000  *
     9       C          1.45550000  *  -1.31420000  *  -0.45100000  *
    10       C          2.59430000  *  -0.59440000  *  -0.47620000  *
    11       H          0.45550000  *  -1.33920000  *   1.46520000  *
    12       H         -1.53290000  *   1.54120000  *   1.25630000  *
    13       H         -1.09840000  *   1.88880000  *  -0.49440000  *
    14       H          3.09110000  *   0.35650000  *   1.38510000  *
    15       H          3.47680000  *   1.34210000  *  -0.07700000  *
    16       H         -3.82060000  *  -0.80910000  *   0.09300000  *
    17       H         -3.29590000  *  -0.49510000  *  -1.61200000  *
    18       H         -3.67390000  *   0.88640000  *  -0.51160000  *
    19       H          1.37370000  *  -2.22300000  *  -1.03970000  *
    20       H         -1.36740000  *  -2.18750000  *  -0.35480000  *
    21       H          1.34230000  *   2.43280000  *   0.45370000  *
    22       H          3.42120000  *  -0.91240000  *  -1.10340000  *



          CARTESIAN COORDINATES 

    NO.       ATOM           X           Y           Z

     1         C          0.3270     -0.8876      0.4583
     2         C         -1.0938      1.1341      0.3213
     3         C          2.7337      0.6528      0.3763
     4         C         -3.2356     -0.1323     -0.5644
     5         C          0.2813      0.6079      0.5622
     6         C         -1.8058     -0.1062     -0.1194
     7         C         -1.0282     -1.1919     -0.0848
     8         C          1.4001      1.3503      0.5174
     9         C          1.4555     -1.3142     -0.4510
    10         C          2.5943     -0.5944     -0.4762
    11         H          0.4555     -1.3392      1.4652
    12         H         -1.5329      1.5412      1.2563
    13         H         -1.0984      1.8888     -0.4944
    14         H          3.0911      0.3565      1.3851
    15         H          3.4768      1.3421     -0.0770
    16         H         -3.8206     -0.8091      0.0930
    17         H         -3.2959     -0.4951     -1.6120
    18         H         -3.6739      0.8864     -0.5116
    19         H          1.3737     -2.2230     -1.0397
    20         H         -1.3674     -2.1875     -0.3548
    21         H          1.3423      2.4328      0.4537
    22         H          3.4212     -0.9124     -1.1034

  H: (PM3): J. J. P. STEWART, J. COMP. CHEM. 10, 209 (1989).
  C: (PM3): J. J. P. STEWART, J. COMP. CHEM. 10, 209 (1989).

           Empirical Formula: C10 H12  =    22 atoms



      MOLECULAR POINT GROUP   :   C1  


      RHF CALCULATION, NO. OF DOUBLY OCCUPIED LEVELS = 26


          Geometry optimization using EF

          DIAGONAL MATRIX USED AS START HESSIAN

 CYCLE:     1 TIME:   0.008 TIME LEFT:  2.00D  GRAD.:    86.916 HEAT:  35.43378
 CYCLE:     2 TIME:   0.020 TIME LEFT:  2.00D  GRAD.:    65.125 HEAT:  33.85075
 CYCLE:     3 TIME:   0.008 TIME LEFT:  2.00D  GRAD.:    44.654 HEAT:  32.90548
 CYCLE:     4 TIME:   0.012 TIME LEFT:  2.00D  GRAD.:    29.344 HEAT:  32.44441
 CYCLE:     5 TIME:   0.004 TIME LEFT:  2.00D  GRAD.:    41.566 HEAT:  32.28097
 CYCLE:     6 TIME:   0.012 TIME LEFT:  2.00D  GRAD.:    36.895 HEAT:  32.08732
 CYCLE:     7 TIME:   0.012 TIME LEFT:  2.00D  GRAD.:    19.409 HEAT:  31.75195
 CYCLE:     8 TIME:   0.012 TIME LEFT:  2.00D  GRAD.:    12.906 HEAT:  31.63151
 CYCLE:     9 TIME:   0.008 TIME LEFT:  2.00D  GRAD.:    18.682 HEAT:  31.55752
 CYCLE:    10 TIME:   0.008 TIME LEFT:  2.00D  GRAD.:    16.256 HEAT:  31.39260
 CYCLE:    11 TIME:   0.012 TIME LEFT:  2.00D  GRAD.:    20.245 HEAT:  31.33842
 CYCLE:    12 TIME:   0.008 TIME LEFT:  2.00D  GRAD.:    11.915 HEAT:  31.21902
 CYCLE:    13 TIME:   0.008 TIME LEFT:  2.00D  GRAD.:    12.662 HEAT:  31.14204
 CYCLE:    14 TIME:   0.008 TIME LEFT:  2.00D  GRAD.:    19.041 HEAT:  31.13975
 CYCLE:    15 TIME:   0.008 TIME LEFT:  2.00D  GRAD.:    23.065 HEAT:  31.11980
 CYCLE:    16 TIME:   0.012 TIME LEFT:  2.00D  GRAD.:    13.613 HEAT:  31.01018
 CYCLE:    17 TIME:   0.008 TIME LEFT:  2.00D  GRAD.:    13.425 HEAT:  30.99688
 CYCLE:    18 TIME:   0.008 TIME LEFT:  2.00D  GRAD.:    12.416 HEAT:  30.95864
 CYCLE:    19 TIME:   0.012 TIME LEFT:  2.00D  GRAD.:    10.996 HEAT:  30.93582
 CYCLE:    20 TIME:   0.008 TIME LEFT:  2.00D  GRAD.:     8.791 HEAT:  30.91811
 CYCLE:    21 TIME:   0.008 TIME LEFT:  2.00D  GRAD.:     5.004 HEAT:  30.89051
 CYCLE:    22 TIME:   0.008 TIME LEFT:  2.00D  GRAD.:     6.002 HEAT:  30.87596
 CYCLE:    23 TIME:   0.008 TIME LEFT:  2.00D  GRAD.:     4.244 HEAT:  30.85070
 CYCLE:    24 TIME:   0.008 TIME LEFT:  2.00D  GRAD.:    10.887 HEAT:  30.85070
 CYCLE:    25 TIME:   0.008 TIME LEFT:  2.00D  GRAD.:     8.162 HEAT:  30.82481
 CYCLE:    26 TIME:   0.004 TIME LEFT:  2.00D  GRAD.:     6.781 HEAT:  30.80827
 CYCLE:    27 TIME:   0.008 TIME LEFT:  2.00D  GRAD.:     3.459 HEAT:  30.78616
 CYCLE:    28 TIME:   0.008 TIME LEFT:  2.00D  GRAD.:     4.182 HEAT:  30.76247
 CYCLE:    29 TIME:   0.008 TIME LEFT:  2.00D  GRAD.:     5.735 HEAT:  30.73210
 CYCLE:    30 TIME:   0.008 TIME LEFT:  2.00D  GRAD.:     5.664 HEAT:  30.70995
 CYCLE:    31 TIME:   0.008 TIME LEFT:  2.00D  GRAD.:     4.631 HEAT:  30.69890
 CYCLE:    32 TIME:   0.008 TIME LEFT:  2.00D  GRAD.:     2.957 HEAT:  30.68633
 CYCLE:    33 TIME:   0.008 TIME LEFT:  2.00D  GRAD.:     4.352 HEAT:  30.68069
 CYCLE:    34 TIME:   0.008 TIME LEFT:  2.00D  GRAD.:     3.373 HEAT:  30.66990
 CYCLE:    35 TIME:   0.008 TIME LEFT:  2.00D  GRAD.:     2.462 HEAT:  30.66328
 CYCLE:    36 TIME:   0.008 TIME LEFT:  2.00D  GRAD.:     2.257 HEAT:  30.65863
 CYCLE:    37 TIME:   0.008 TIME LEFT:  2.00D  GRAD.:     1.828 HEAT:  30.65380
 CYCLE:    38 TIME:   0.008 TIME LEFT:  2.00D  GRAD.:     1.375 HEAT:  30.64996
 CYCLE:    39 TIME:   0.008 TIME LEFT:  2.00D  GRAD.:     1.370 HEAT:  30.64739
 CYCLE:    40 TIME:   0.008 TIME LEFT:  2.00D  GRAD.:     1.490 HEAT:  30.64459
 CYCLE:    41 TIME:   0.008 TIME LEFT:  2.00D  GRAD.:     1.244 HEAT:  30.64132
 CYCLE:    42 TIME:   0.008 TIME LEFT:  2.00D  GRAD.:     1.082 HEAT:  30.63792
 CYCLE:    43 TIME:   0.008 TIME LEFT:  2.00D  GRAD.:     1.157 HEAT:  30.63543
 CYCLE:    44 TIME:   0.008 TIME LEFT:  2.00D  GRAD.:     1.192 HEAT:  30.63272
 CYCLE:    45 TIME:   0.008 TIME LEFT:  2.00D  GRAD.:     1.027 HEAT:  30.63055
 CYCLE:    46 TIME:   0.012 TIME LEFT:  2.00D  GRAD.:     0.845 HEAT:  30.62875
 CYCLE:    47 TIME:   0.008 TIME LEFT:  2.00D  GRAD.:     0.829 HEAT:  30.62726
 CYCLE:    48 TIME:   0.008 TIME LEFT:  2.00D  GRAD.:     0.842 HEAT:  30.62572
 CYCLE:    49 TIME:   0.008 TIME LEFT:  2.00D  GRAD.:     0.723 HEAT:  30.62464
 CYCLE:    50 TIME:   0.008 TIME LEFT:  2.00D  GRAD.:     0.584 HEAT:  30.62386
 CYCLE:    51 TIME:   0.008 TIME LEFT:  2.00D  GRAD.:     0.591 HEAT:  30.62312
 CYCLE:    52 TIME:   0.008 TIME LEFT:  2.00D  GRAD.:     0.623 HEAT:  30.62225
 CYCLE:    53 TIME:   0.008 TIME LEFT:  2.00D  GRAD.:     0.547 HEAT:  30.62151
 CYCLE:    54 TIME:   0.008 TIME LEFT:  2.00D  GRAD.:     0.455 HEAT:  30.62095
 CYCLE:    55 TIME:   0.008 TIME LEFT:  2.00D  GRAD.:     0.515 HEAT:  30.62035
 CYCLE:    56 TIME:   0.008 TIME LEFT:  2.00D  GRAD.:     0.678 HEAT:  30.61951
 CYCLE:    57 TIME:   0.008 TIME LEFT:  2.00D  GRAD.:     0.792 HEAT:  30.61834
 CYCLE:    58 TIME:   0.008 TIME LEFT:  2.00D  GRAD.:     0.722 HEAT:  30.61685
 CYCLE:    59 TIME:   0.008 TIME LEFT:  2.00D  GRAD.:     0.534 HEAT:  30.61604
 CYCLE:    60 TIME:   0.008 TIME LEFT:  2.00D  GRAD.:     0.467 HEAT:  30.61509
 CYCLE:    61 TIME:   0.008 TIME LEFT:  2.00D  GRAD.:     0.437 HEAT:  30.61478
 CYCLE:    62 TIME:   0.008 TIME LEFT:  2.00D  GRAD.:     0.562 HEAT:  30.61404
 CYCLE:    63 TIME:   0.008 TIME LEFT:  2.00D  GRAD.:     0.474 HEAT:  30.61368
 CYCLE:    64 TIME:   0.008 TIME LEFT:  2.00D  GRAD.:     0.508 HEAT:  30.61282
 CYCLE:    65 TIME:   0.008 TIME LEFT:  2.00D  GRAD.:     0.390 HEAT:  30.61238
 CYCLE:    66 TIME:   0.008 TIME LEFT:  2.00D  GRAD.:     0.486 HEAT:  30.61187
 CYCLE:    67 TIME:   0.008 TIME LEFT:  2.00D  GRAD.:     0.445 HEAT:  30.61136
 CYCLE:    68 TIME:   0.008 TIME LEFT:  2.00D  GRAD.:     0.850 HEAT:  30.60967
 CYCLE:    69 TIME:   0.008 TIME LEFT:  2.00D  GRAD.:     0.793 HEAT:  30.60867
 CYCLE:    70 TIME:   0.008 TIME LEFT:  2.00D  GRAD.:     1.877 HEAT:  30.60541
 CYCLE:    71 TIME:   0.008 TIME LEFT:  2.00D  GRAD.:     1.707 HEAT:  30.60146
 CYCLE:    72 TIME:   0.008 TIME LEFT:  2.00D  GRAD.:     6.759 HEAT:  30.59999
 CYCLE:    73 TIME:   0.008 TIME LEFT:  2.00D  GRAD.:     4.431 HEAT:  30.59812
 CYCLE:    74 TIME:   0.008 TIME LEFT:  2.00D  GRAD.:     1.494 HEAT:  30.57955
 CYCLE:    75 TIME:   0.008 TIME LEFT:  2.00D  GRAD.:     2.958 HEAT:  30.57048
 CYCLE:    76 TIME:   0.008 TIME LEFT:  2.00D  GRAD.:     5.326 HEAT:  30.56127
 CYCLE:    77 TIME:   0.004 TIME LEFT:  2.00D  GRAD.:     2.987 HEAT:  30.53247
 CYCLE:    78 TIME:   0.016 TIME LEFT:  2.00D  GRAD.:     6.084 HEAT:  30.50354
 CYCLE:    79 TIME:   0.008 TIME LEFT:  2.00D  GRAD.:     3.018 HEAT:  30.49407
 CYCLE:    80 TIME:   0.008 TIME LEFT:  2.00D  GRAD.:     1.841 HEAT:  30.47550
 CYCLE:    81 TIME:   0.008 TIME LEFT:  2.00D  GRAD.:     2.895 HEAT:  30.46031
 CYCLE:    82 TIME:   0.008 TIME LEFT:  2.00D  GRAD.:     3.637 HEAT:  30.44212
 CYCLE:    83 TIME:   0.008 TIME LEFT:  2.00D  GRAD.:     5.681 HEAT:  30.42300
 CYCLE:    84 TIME:   0.012 TIME LEFT:  2.00D  GRAD.:     3.959 HEAT:  30.41807
 CYCLE:    85 TIME:   0.008 TIME LEFT:  2.00D  GRAD.:     1.400 HEAT:  30.40679
 CYCLE:    86 TIME:   0.004 TIME LEFT:  2.00D  GRAD.:     1.405 HEAT:  30.39982
 CYCLE:    87 TIME:   0.008 TIME LEFT:  2.00D  GRAD.:     4.607 HEAT:  30.38551
 CYCLE:    88 TIME:   0.012 TIME LEFT:  2.00D  GRAD.:     4.156 HEAT:  30.37513
 CYCLE:    89 TIME:   0.008 TIME LEFT:  2.00D  GRAD.:     3.843 HEAT:  30.33412
 CYCLE:    90 TIME:   0.020 TIME LEFT:  2.00D  GRAD.:     3.686 HEAT:  30.32694
 CYCLE:    91 TIME:   0.008 TIME LEFT:  2.00D  GRAD.:     1.338 HEAT:  30.31814
 CYCLE:    92 TIME:   0.012 TIME LEFT:  2.00D  GRAD.:     3.094 HEAT:  30.28423
 CYCLE:    93 TIME:   0.012 TIME LEFT:  2.00D  GRAD.:     4.768 HEAT:  30.26867
 CYCLE:    94 TIME:   0.004 TIME LEFT:  2.00D  GRAD.:     3.854 HEAT:  30.24440
 CYCLE:    95 TIME:   0.008 TIME LEFT:  2.00D  GRAD.:     1.795 HEAT:  30.22477
 CYCLE:    96 TIME:   0.016 TIME LEFT:  2.00D  GRAD.:     3.494 HEAT:  30.21245
 CYCLE:    97 TIME:   0.008 TIME LEFT:  2.00D  GRAD.:     3.084 HEAT:  30.19796
 CYCLE:    98 TIME:   0.004 TIME LEFT:  2.00D  GRAD.:     2.672 HEAT:  30.18973
 CYCLE:    99 TIME:   0.008 TIME LEFT:  2.00D  GRAD.:     3.374 HEAT:  30.19276
 CYCLE:   100 TIME:   0.008 TIME LEFT:  2.00D  GRAD.:     1.724 HEAT:  30.18172
 CYCLE:   101 TIME:   0.004 TIME LEFT:  2.00D  GRAD.:     0.977 HEAT:  30.17991
 CYCLE:   102 TIME:   0.008 TIME LEFT:  2.00D  GRAD.:     0.967 HEAT:  30.17716
 CYCLE:   103 TIME:   0.008 TIME LEFT:  2.00D  GRAD.:     1.280 HEAT:  30.17445
 CYCLE:   104 TIME:   0.008 TIME LEFT:  2.00D  GRAD.:     0.816 HEAT:  30.17351
 CYCLE:   105 TIME:   0.008 TIME LEFT:  2.00D  GRAD.:     0.642 HEAT:  30.17279
 CYCLE:   106 TIME:   0.004 TIME LEFT:  2.00D  GRAD.:     0.901 HEAT:  30.17159
 CYCLE:   107 TIME:   0.008 TIME LEFT:  2.00D  GRAD.:     0.884 HEAT:  30.17084
 CYCLE:   108 TIME:   0.008 TIME LEFT:  2.00D  GRAD.:     0.502 HEAT:  30.17011
 CYCLE:   109 TIME:   0.008 TIME LEFT:  2.00D  GRAD.:     0.355 HEAT:  30.16983
 CYCLE:   110 TIME:   0.008 TIME LEFT:  2.00D  GRAD.:     0.278 HEAT:  30.16966
 CYCLE:   111 TIME:   0.004 TIME LEFT:  2.00D  GRAD.:     0.400 HEAT:  30.16962
 CYCLE:   112 TIME:   0.008 TIME LEFT:  2.00D  GRAD.:     0.122 HEAT:  30.16951
 CYCLE:   113 TIME:   0.004 TIME LEFT:  2.00D  GRAD.:     0.096 HEAT:  30.16949
 CYCLE:   114 TIME:   0.008 TIME LEFT:  2.00D  GRAD.:     0.117 HEAT:  30.16947
 CYCLE:   115 TIME:   0.008 TIME LEFT:  2.00D  GRAD.:     0.107 HEAT:  30.16945
 CYCLE:   116 TIME:   0.004 TIME LEFT:  2.00D  GRAD.:     0.103 HEAT:  30.16941
 CYCLE:   117 TIME:   0.008 TIME LEFT:  2.00D  GRAD.:     0.050 HEAT:  30.16940
 CYCLE:   118 TIME:   0.008 TIME LEFT:  2.00D  GRAD.:     0.065 HEAT:  30.16939
 CYCLE:   119 TIME:   0.004 TIME LEFT:  2.00D  GRAD.:     0.042 HEAT:  30.16939

     GRADIENT =  0.04190 IS LESS THAN CUTOFF =  0.05000



 -------------------------------------------------------------------------------
 pm3  precise nosym THREADS=1
 InChI=1S/C10H12/c1-8-6-9-4-2-3-5-10(9)7-8/h2,4-6,9H,3,7H2,1H3



     GEOMETRY OPTIMISED USING EIGENVECTOR FOLLOWING (EF).     
     SCF FIELD WAS ACHIEVED                                   


                              PM3 CALCULATION
                                                       MOPAC v23.1.2 MacOS
                                                       Tue Jun  3 16:27:06 2025




          FINAL HEAT OF FORMATION =         30.16939 KCAL/MOL =     126.22872 KJ/MOL


          COSMO AREA              =        178.69 SQUARE ANGSTROMS
          COSMO VOLUME            =        180.38 CUBIC ANGSTROMS

          GRADIENT NORM           =          0.04190          =       0.00893 PER ATOM
          IONIZATION POTENTIAL    =          9.111483 EV
          HOMO LUMO ENERGIES (EV) =         -9.111  0.967
          NO. OF FILLED LEVELS    =         26
          MOLECULAR WEIGHT        =        132.2048         POINT GROUP:  C1  

          MOLECULAR DIMENSIONS (Angstroms)

            Atom       Atom       Distance
            H    22    H    16     7.60490
            H    21    H    20     5.19743
            H    18    H    11     3.61384


          SCF CALCULATIONS        =        137

          WALL-CLOCK TIME         =      0.984 SECONDS
          COMPUTATION TIME        =      0.631 SECONDS




   ATOM   CHEMICAL          X               Y               Z
  NUMBER   SYMBOL      (ANGSTROMS)     (ANGSTROMS)     (ANGSTROMS)

     1       C          0.32760442  *  -0.89344269  *   0.35999855  *
     2       C         -1.13548191  *   1.06301419  *   0.42767535  *
     3       C          2.72870058  *   0.68346009  *   0.35329725  *
     4       C         -3.25482843  *  -0.07395818  *  -0.54824214  *
     5       C          0.29032727  *   0.60960464  *   0.50524127  *
     6       C         -1.84181717  *  -0.14439128  *  -0.13866629  *
     7       C         -1.02779192  *  -1.21231430  *  -0.20737135  *
     8       C          1.40239511  *   1.34499517  *   0.52081344  *
     9       C          1.51045452  *  -1.32476392  *  -0.43446396  *
    10       C          2.63029777  *  -0.59612664  *  -0.41042630  *
    11       H          0.41063340  *  -1.36856208  *   1.37045453  *
    12       H         -1.53689046  *   1.33345546  *   1.42248553  *
    13       H         -1.25870180  *   1.95122593  *  -0.21881573  *
    14       H          3.17458744  *   0.48069046  *   1.34891523  *
    15       H          3.42577371  *   1.37380292  *  -0.16030514  *
    16       H         -3.89393977  *   0.18249411  *   0.30746095  *
    17       H         -3.61025611  *  -1.02670018  *  -0.96081865  *
    18       H         -3.39861353  *   0.70009348  *  -1.31416928  *
    19       H          1.42244628  *  -2.25217952  *  -1.00808376  *
    20       H         -1.27215883  *  -2.20124906  *  -0.59333694  *
    21       H          1.37898354  *   2.43494897  *   0.60973745  *
    22       H          3.52494048  *  -0.91103160  *  -0.95702914  *

                             CARTESIAN COORDINATES

   1    C        0.327604420    -0.893442690     0.359998550
   2    C       -1.135481908     1.063014195     0.427675349
   3    C        2.728700583     0.683460087     0.353297251
   4    C       -3.254828432    -0.073958178    -0.548242138
   5    C        0.290327267     0.609604638     0.505241273
   6    C       -1.841817174    -0.144391284    -0.138666289
   7    C       -1.027791917    -1.212314296    -0.207371352
   8    C        1.402395111     1.344995171     0.520813443
   9    C        1.510454521    -1.324763918    -0.434463955
  10    C        2.630297770    -0.596126636    -0.410426303
  11    H        0.410633399    -1.368562085     1.370454527
  12    H       -1.536890463     1.333455465     1.422485531
  13    H       -1.258701804     1.951225925    -0.218815728
  14    H        3.174587444     0.480690464     1.348915228
  15    H        3.425773706     1.373802923    -0.160305142
  16    H       -3.893939773     0.182494109     0.307460951
  17    H       -3.610256108    -1.026700182    -0.960818651
  18    H       -3.398613532     0.700093479    -1.314169284
  19    H        1.422446281    -2.252179520    -1.008083765
  20    H       -1.272158834    -2.201249057    -0.593336941
  21    H        1.378983545     2.434948971     0.609737449
  22    H        3.524940478    -0.911031603    -0.957029144


           Empirical Formula: C10 H12  =    22 atoms



      MOLECULAR POINT GROUP   :   C1  


                  EIGENVALUES  
 -41.63556 -35.99973 -30.83581 -30.30059 -26.11899 -25.09819 -21.47316 -19.99652
 -18.54721 -17.06410 -16.39729 -15.92308 -15.86268 -14.93987 -14.66494 -14.36158
 -14.01248 -13.42516 -13.26834 -13.09340 -12.68430 -12.47368 -11.64820 -10.04046
  -9.74080  -9.11148   0.96667   1.00096   1.20893   3.20170   3.31794   3.45277
   3.56882   3.61394   3.80173   3.92727   3.98936   4.19115   4.25811   4.33419
   4.38052   4.43249   4.53067   4.61558   4.66481   4.80368   5.33995   5.45057
   5.58029   5.98816   6.13013   6.19919


              NET ATOMIC CHARGES AND DIPOLE CONTRIBUTIONS

  ATOM NO.   TYPE          CHARGE      No. of ELECS.   s-Pop       p-Pop       
    1          C           0.026212        3.9738     1.14330     2.83049
    2          C          -0.004291        4.0043     1.13639     2.86790
    3          C          -0.017771        4.0178     1.13299     2.88478
    4          C          -0.051497        4.0515     1.11760     2.93389
    5          C          -0.129923        4.1299     1.20680     2.92312
    6          C          -0.133528        4.1335     1.20569     2.92783
    7          C          -0.149014        4.1490     1.20091     2.94811
    8          C          -0.144635        4.1446     1.18846     2.95618
    9          C          -0.133231        4.1332     1.19283     2.94040
   10          C          -0.151358        4.1514     1.19584     2.95552
   11          H           0.082697        0.9173     0.91730
   12          H           0.063926        0.9361     0.93607
   13          H           0.062720        0.9373     0.93728
   14          H           0.062927        0.9371     0.93707
   15          H           0.055357        0.9446     0.94464
   16          H           0.044714        0.9553     0.95529
   17          H           0.042883        0.9571     0.95712
   18          H           0.045885        0.9541     0.95412
   19          H           0.105373        0.8946     0.89463
   20          H           0.116928        0.8831     0.88307
   21          H           0.105610        0.8944     0.89439
   22          H           0.100015        0.9000     0.89998
 DIPOLE           X         Y         Z       TOTAL
 POINT-CHG.    -0.229     0.120     0.144     0.295
 HYBRID         0.012     0.005    -0.019     0.023
 SUM           -0.217     0.125     0.124     0.280


          ATOMIC ORBITAL ELECTRON POPULATIONS

     Atom    s        px        py        pz   
    1  C   1.14330   0.92187   0.92905   0.97957
    2  C   1.13639   0.91471   0.95538   0.99781
    3  C   1.13299   0.95005   0.94620   0.98853
    4  C   1.11760   0.92568   1.01008   0.99813
    5  C   1.20680   0.95389   0.96035   1.00889
    6  C   1.20569   0.96248   0.96304   1.00232
    7  C   1.20091   0.95378   0.97712   1.01721
    8  C   1.18846   0.94573   0.98197   1.02848
    9  C   1.19283   0.95054   0.99099   0.99887
   10  C   1.19584   0.97930   0.97020   1.00602
   11  H   0.91730
   12  H   0.93607
   13  H   0.93728
   14  H   0.93707
   15  H   0.94464
   16  H   0.95529
   17  H   0.95712
   18  H   0.95412
   19  H   0.89463
   20  H   0.88307
   21  H   0.89439
   22  H   0.89998
 *******************************************************************************
 **                                                                           **
 **                              MOPAC v23.1.2                                **
 **                                                                           **
 *******************************************************************************
 **          Digital Object Identifier (DOI): 10.5281/zenodo.6511958          **
 **    Visit the DOI location for information on how to cite this program.    **
 *******************************************************************************

                              PM3 CALCULATION RESULTS

 *******************************************************************************
 *  CALCULATION DONE: (MAX THREADS = 1)              Tue Jun  3 16:27:06 2025  *
 *  PM3        - The PM3 Hamiltonian to be used
 *  OLDGEO     - PREVIOUS GEOMETRY TO BE USED
 *  PRECISE    - TIGHTER CRITERIA TO BE USED
 *  NOSYM      - POINT-GROUP SYMMETRY SET TO C1
 *  THREADS=1  - MULTI-THREADING NOT USED
 *  T=         - A TIME OF 172800.0 SECONDS REQUESTED
 *  DUMP=N     - RESTART FILE WRITTEN EVERY 7200.0 SECONDS REQUESTED
 *  THERMO     - THERMODYNAMIC QUANTITIES TO BE CALCULATED
 *******************************************************************************
oldgeo thermo nosym precise THREADS=1  pm3
 InChI=1S/C10H12/c1-8-6-9-4-2-3-5-10(9)7-8/h2,4-6,9H,3,7H2,1H3

   ATOM   CHEMICAL          X               Y               Z
  NUMBER   SYMBOL      (ANGSTROMS)     (ANGSTROMS)     (ANGSTROMS)

     1       C          0.32760442  *  -0.89344269  *   0.35999855  *
     2       C         -1.13548191  *   1.06301419  *   0.42767535  *
     3       C          2.72870058  *   0.68346009  *   0.35329725  *
     4       C         -3.25482843  *  -0.07395818  *  -0.54824214  *
     5       C          0.29032727  *   0.60960464  *   0.50524127  *
     6       C         -1.84181717  *  -0.14439128  *  -0.13866629  *
     7       C         -1.02779192  *  -1.21231430  *  -0.20737135  *
     8       C          1.40239511  *   1.34499517  *   0.52081344  *
     9       C          1.51045452  *  -1.32476392  *  -0.43446396  *
    10       C          2.63029777  *  -0.59612664  *  -0.41042630  *
    11       H          0.41063340  *  -1.36856208  *   1.37045453  *
    12       H         -1.53689046  *   1.33345546  *   1.42248553  *
    13       H         -1.25870180  *   1.95122593  *  -0.21881573  *
    14       H          3.17458744  *   0.48069046  *   1.34891523  *
    15       H          3.42577371  *   1.37380292  *  -0.16030514  *
    16       H         -3.89393977  *   0.18249411  *   0.30746095  *
    17       H         -3.61025611  *  -1.02670018  *  -0.96081865  *
    18       H         -3.39861353  *   0.70009348  *  -1.31416928  *
    19       H          1.42244628  *  -2.25217952  *  -1.00808376  *
    20       H         -1.27215883  *  -2.20124906  *  -0.59333694  *
    21       H          1.37898354  *   2.43494897  *   0.60973745  *
    22       H          3.52494048  *  -0.91103160  *  -0.95702914  *



          CARTESIAN COORDINATES 

    NO.       ATOM           X           Y           Z

     1         C          0.3276     -0.8934      0.3600
     2         C         -1.1355      1.0630      0.4277
     3         C          2.7287      0.6835      0.3533
     4         C         -3.2548     -0.0740     -0.5482
     5         C          0.2903      0.6096      0.5052
     6         C         -1.8418     -0.1444     -0.1387
     7         C         -1.0278     -1.2123     -0.2074
     8         C          1.4024      1.3450      0.5208
     9         C          1.5105     -1.3248     -0.4345
    10         C          2.6303     -0.5961     -0.4104
    11         H          0.4106     -1.3686      1.3705
    12         H         -1.5369      1.3335      1.4225
    13         H         -1.2587      1.9512     -0.2188
    14         H          3.1746      0.4807      1.3489
    15         H          3.4258      1.3738     -0.1603
    16         H         -3.8939      0.1825      0.3075
    17         H         -3.6103     -1.0267     -0.9608
    18         H         -3.3986      0.7001     -1.3142
    19         H          1.4224     -2.2522     -1.0081
    20         H         -1.2722     -2.2012     -0.5933
    21         H          1.3790      2.4349      0.6097
    22         H          3.5249     -0.9110     -0.9570

  H: (PM3): J. J. P. STEWART, J. COMP. CHEM. 10, 209 (1989).
  C: (PM3): J. J. P. STEWART, J. COMP. CHEM. 10, 209 (1989).

           Empirical Formula: C10 H12  =    22 atoms



      MOLECULAR POINT GROUP   :   C1  


      RHF CALCULATION, NO. OF DOUBLY OCCUPIED LEVELS = 26



          HEAT OF FORMATION =      30.169388 KCALS/MOLE


          CARTESIAN COORDINATE DERIVATIVES

   NUMBER  ATOM         X            Y            Z

     1       C     -0.001604    -0.002351     0.001472
     2       C     -0.008676    -0.004417     0.004608
     3       C      0.003731     0.002317     0.003138
     4       C      0.006938    -0.004757     0.001002
     5       C     -0.005996    -0.002421    -0.002533
     6       C      0.001900    -0.005760    -0.001692
     7       C     -0.008685    -0.009987     0.002542
     8       C     -0.002315    -0.000712     0.002541
     9       C      0.003696     0.000189    -0.001090
    10       C      0.006593     0.002300    -0.001043
    11       H     -0.001436     0.001072    -0.002611
    12       H     -0.000525     0.002880    -0.004239
    13       H     -0.006775     0.000066     0.005984
    14       H      0.004959    -0.004406    -0.000427
    15       H      0.005101    -0.000526     0.001665
    16       H      0.008312     0.013029    -0.005976
    17       H      0.006457     0.005181     0.009368
    18       H     -0.003492     0.012540    -0.009684
    19       H      0.000006     0.002989     0.001888
    20       H     -0.013364     0.001310    -0.003443
    21       H      0.005358    -0.006774     0.001860
    22       H     -0.000187    -0.001762    -0.003333



          GRADIENT NORM =   0.04191

          MOLECULAR WEIGHT =  132.20



          ROTATIONAL CONSTANTS IN CM(-1)

          A =    0.10860410   B =    0.03219079   C =    0.02618987



           PRINCIPAL MOMENTS OF INERTIA IN UNITS OF 10**(-40)*GRAM-CM**2

          A =      257.7504   B =      869.5888   C =     1068.8388


          ORIENTATION OF MOLECULE IN FORCE CALCULATION

    NO.       ATOM         X         Y         Z

     1          C      -0.7859   -0.3551   -0.3440
     2          C       1.6580   -0.3551   -0.3440
     3          C      -0.9612    2.5121   -0.3440
     4          C       1.9896   -2.7327    0.6430
     5          C       0.4436    0.5151   -0.4558
     6          C       1.0986   -1.6435    0.2079
     7          C      -0.2455   -1.6312    0.2394
     8          C       0.3670    1.8461   -0.4743
     9          C      -1.8613    0.3343    0.4206
    10          C      -1.9478    1.6675    0.3933
    11          H      -1.1880   -0.5738   -1.3658
    12          H       2.1424   -0.5153   -1.3256
    13          H       2.4249    0.0786    0.3237
    14          H      -1.3629    2.7471   -1.3512
    15          H      -0.8401    3.4841    0.1726
    16          H       2.6012   -3.0914   -0.1958
    17          H       1.4282   -3.5876    1.0408
    18          H       2.6741   -2.3837    1.4280
    19          H      -2.5669   -0.2912    0.9753
    20          H      -0.9016   -2.4189    0.6079
    21          H       1.2560    2.4800   -0.5391
    22          H      -2.7506    2.1957    0.9175


    FIRST DERIVATIVES WILL BE USED IN THE CALCULATION OF SECOND DERIVATIVES

          ESTIMATED TIME TO COMPLETE CALCULATION =        2.06 SECONDS

    FOR POINT-GROUP C1   THERE ARE   1 UNIQUE SYMMETRY FUNCTIONS.

 STEP:   1 TIME =     0.02 SECS, INTEGRAL =      0.02 TIME LEFT: 172799.97
 STEP:   2 TIME =     0.02 SECS, INTEGRAL =      0.04 TIME LEFT: 172799.95
 STEP:   3 TIME =     0.02 SECS, INTEGRAL =      0.07 TIME LEFT: 172799.93
 STEP:   4 TIME =     0.02 SECS, INTEGRAL =      0.09 TIME LEFT: 172799.91
 STEP:   5 TIME =     0.02 SECS, INTEGRAL =      0.11 TIME LEFT: 172799.88
 STEP:   6 TIME =     0.02 SECS, INTEGRAL =      0.13 TIME LEFT: 172799.86
 STEP:   7 TIME =     0.02 SECS, INTEGRAL =      0.16 TIME LEFT: 172799.84
 STEP:   8 TIME =     0.02 SECS, INTEGRAL =      0.18 TIME LEFT: 172799.81
 STEP:   9 TIME =     0.02 SECS, INTEGRAL =      0.20 TIME LEFT: 172799.79
 STEP:  10 TIME =     0.02 SECS, INTEGRAL =      0.22 TIME LEFT: 172799.77
 STEP:  11 TIME =     0.02 SECS, INTEGRAL =      0.24 TIME LEFT: 172799.75
 STEP:  12 TIME =     0.02 SECS, INTEGRAL =      0.26 TIME LEFT: 172799.73
 STEP:  13 TIME =     0.02 SECS, INTEGRAL =      0.29 TIME LEFT: 172799.71
 STEP:  14 TIME =     0.02 SECS, INTEGRAL =      0.30 TIME LEFT: 172799.69
 STEP:  15 TIME =     0.02 SECS, INTEGRAL =      0.32 TIME LEFT: 172799.67
 STEP:  16 TIME =     0.02 SECS, INTEGRAL =      0.34 TIME LEFT: 172799.65
 STEP:  17 TIME =     0.02 SECS, INTEGRAL =      0.36 TIME LEFT: 172799.63
 STEP:  18 TIME =     0.02 SECS, INTEGRAL =      0.38 TIME LEFT: 172799.61
 STEP:  19 TIME =     0.02 SECS, INTEGRAL =      0.40 TIME LEFT: 172799.59
 STEP:  20 TIME =     0.02 SECS, INTEGRAL =      0.42 TIME LEFT: 172799.57
 STEP:  21 TIME =     0.02 SECS, INTEGRAL =      0.45 TIME LEFT: 172799.55
 STEP:  22 TIME =     0.02 SECS, INTEGRAL =      0.46 TIME LEFT: 172799.53
 STEP:  23 TIME =     0.02 SECS, INTEGRAL =      0.49 TIME LEFT: 172799.50
 STEP:  24 TIME =     0.02 SECS, INTEGRAL =      0.51 TIME LEFT: 172799.48
 STEP:  25 TIME =     0.02 SECS, INTEGRAL =      0.54 TIME LEFT: 172799.46
 STEP:  26 TIME =     0.02 SECS, INTEGRAL =      0.56 TIME LEFT: 172799.43
 STEP:  27 TIME =     0.02 SECS, INTEGRAL =      0.58 TIME LEFT: 172799.41
 STEP:  28 TIME =     0.02 SECS, INTEGRAL =      0.61 TIME LEFT: 172799.39
 STEP:  29 TIME =     0.02 SECS, INTEGRAL =      0.62 TIME LEFT: 172799.37
 STEP:  30 TIME =     0.02 SECS, INTEGRAL =      0.64 TIME LEFT: 172799.35
 STEP:  31 TIME =     0.02 SECS, INTEGRAL =      0.67 TIME LEFT: 172799.32
 STEP:  32 TIME =     0.02 SECS, INTEGRAL =      0.69 TIME LEFT: 172799.30
 STEP:  33 TIME =     0.02 SECS, INTEGRAL =      0.71 TIME LEFT: 172799.28
 STEP:  34 TIME =     0.02 SECS, INTEGRAL =      0.74 TIME LEFT: 172799.25
 STEP:  35 TIME =     0.02 SECS, INTEGRAL =      0.76 TIME LEFT: 172799.23
 STEP:  36 TIME =     0.02 SECS, INTEGRAL =      0.78 TIME LEFT: 172799.21
 STEP:  37 TIME =     0.02 SECS, INTEGRAL =      0.80 TIME LEFT: 172799.19
 STEP:  38 TIME =     0.02 SECS, INTEGRAL =      0.83 TIME LEFT: 172799.16
 STEP:  39 TIME =     0.02 SECS, INTEGRAL =      0.85 TIME LEFT: 172799.14
 STEP:  40 TIME =     0.02 SECS, INTEGRAL =      0.87 TIME LEFT: 172799.12
 STEP:  41 TIME =     0.02 SECS, INTEGRAL =      0.89 TIME LEFT: 172799.10
 STEP:  42 TIME =     0.02 SECS, INTEGRAL =      0.91 TIME LEFT: 172799.08
 STEP:  43 TIME =     0.02 SECS, INTEGRAL =      0.93 TIME LEFT: 172799.06
 STEP:  44 TIME =     0.02 SECS, INTEGRAL =      0.95 TIME LEFT: 172799.04
 STEP:  45 TIME =     0.02 SECS, INTEGRAL =      0.97 TIME LEFT: 172799.02
 STEP:  46 TIME =     0.02 SECS, INTEGRAL =      1.00 TIME LEFT: 172799.00
 STEP:  47 TIME =     0.02 SECS, INTEGRAL =      1.02 TIME LEFT: 172798.98
 STEP:  48 TIME =     0.02 SECS, INTEGRAL =      1.04 TIME LEFT: 172798.96
 STEP:  49 TIME =     0.02 SECS, INTEGRAL =      1.05 TIME LEFT: 172798.94
 STEP:  50 TIME =     0.02 SECS, INTEGRAL =      1.07 TIME LEFT: 172798.92
 STEP:  51 TIME =     0.02 SECS, INTEGRAL =      1.09 TIME LEFT: 172798.90
 STEP:  52 TIME =     0.02 SECS, INTEGRAL =      1.11 TIME LEFT: 172798.88
 STEP:  53 TIME =     0.02 SECS, INTEGRAL =      1.14 TIME LEFT: 172798.86
 STEP:  54 TIME =     0.02 SECS, INTEGRAL =      1.16 TIME LEFT: 172798.83
 STEP:  55 TIME =     0.02 SECS, INTEGRAL =      1.18 TIME LEFT: 172798.81
 STEP:  56 TIME =     0.02 SECS, INTEGRAL =      1.20 TIME LEFT: 172798.79
 STEP:  57 TIME =     0.02 SECS, INTEGRAL =      1.23 TIME LEFT: 172798.77
 STEP:  58 TIME =     0.02 SECS, INTEGRAL =      1.25 TIME LEFT: 172798.74
 STEP:  59 TIME =     0.02 SECS, INTEGRAL =      1.27 TIME LEFT: 172798.72
 STEP:  60 TIME =     0.02 SECS, INTEGRAL =      1.29 TIME LEFT: 172798.70
 STEP:  61 TIME =     0.02 SECS, INTEGRAL =      1.31 TIME LEFT: 172798.68
 STEP:  62 TIME =     0.02 SECS, INTEGRAL =      1.34 TIME LEFT: 172798.66
 STEP:  63 TIME =     0.02 SECS, INTEGRAL =      1.36 TIME LEFT: 172798.63
 STEP:  64 TIME =     0.02 SECS, INTEGRAL =      1.38 TIME LEFT: 172798.61
 STEP:  65 TIME =     0.02 SECS, INTEGRAL =      1.40 TIME LEFT: 172798.59
 STEP:  66 TIME =     0.02 SECS, INTEGRAL =      1.42 TIME LEFT: 172798.57

(To convert to Hartree/Bohr^2, multiply by (10^(-21) x N x a0^2)/(4.184 x 627.51) =  0.0642)


           FORCE MATRIX IN MILLIDYNES/ANGSTROM


                  C  1       C  2       C  3       C  4       C  5       C  6
 ------------------------------------------------------------------------------
     C    1  15.529377
     C    2   0.757786  14.863349
     C    3   0.200985   0.127354  14.902466
     C    4   0.128247   0.506615   0.002587  14.859780
     C    5   4.149060   4.576784   0.930850   0.050383  19.206448
     C    6   1.182662   4.252793   0.011002   5.453780   1.052777  18.734498
     C    7   4.425881   1.112754   0.010543   0.716472   1.015306  10.126370
     C    8   0.787832   0.651121   4.798496   0.008875  10.569664   0.051861
     C    9   4.855467   0.048173   0.856717   0.018410   0.737678   0.042140
     C   10   0.920808   0.006291   4.740499   0.003614   0.102331   0.009127
     H   11   4.102696   0.019632   0.019249   0.018323   0.414884   0.032950
     H   12   0.022282   4.477131   0.016331   0.009752   0.428257   0.437655
     H   13   0.039396   4.515015   0.009556   0.013203   0.442337   0.441808
     H   14   0.020817   0.017928   4.366222   0.000442   0.026854   0.001767
     H   15   0.012888   0.013039   4.472013   0.000677   0.047753   0.001920
     H   16   0.017789   0.012824   0.000181   4.701962   0.002317   0.450348
     H   17   0.002953   0.042549   0.000461   4.751785   0.008031   0.472950
     H   18   0.017130   0.015057   0.000306   4.703998   0.002230   0.450325
     H   19   0.438229   0.005662   0.121049   0.000811   0.039268   0.002786
     H   20   0.412094   0.108909   0.001152   0.056598   0.041070   0.458234
     H   21   0.113752   0.069179   0.429889   0.001168   0.462702   0.004198
     H   22   0.118492   0.002160   0.429005   0.000984   0.006068   0.001951


                  C  7       C  8       C  9       C 10       H 11       H 12
 ------------------------------------------------------------------------------
     C    7  18.195525
     C    8   0.050295  18.195403
     C    9   0.593334   0.083710  18.151218
     C   10   0.049693   0.748997  10.547403  18.029954
     H   11   0.401542   0.024752   0.399646   0.030941   4.558953
     H   12   0.033203   0.022751   0.003251   0.001186   0.001836   5.078081
     H   13   0.037475   0.016492   0.004290   0.001223   0.001641   0.552460
     H   14   0.002974   0.420170   0.027984   0.420193   0.007802   0.002611
     H   15   0.001406   0.426304   0.047131   0.428880   0.002224   0.001572
     H   16   0.030791   0.001010   0.001791   0.000223   0.003095   0.003966
     H   17   0.026673   0.001809   0.000949   0.000303   0.000502   0.001192
     H   18   0.033221   0.000830   0.003174   0.000902   0.002201   0.001154
     H   19   0.016586   0.006203   4.876553   0.447784   0.012836   0.000491
     H   20   5.026243   0.006634   0.011341   0.002590   0.010044   0.015347
     H   21   0.010495   4.882434   0.008971   0.040657   0.014675   0.009846
     H   22   0.012518   0.040817   0.445856   4.857430   0.015712   0.000176


                  H 13       H 14       H 15       H 16       H 17       H 18
 ------------------------------------------------------------------------------
     H   13   5.113070
     H   14   0.001580   4.960565
     H   15   0.000948   0.564725   5.046410
     H   16   0.000994   0.000067   0.000076   5.410985
     H   17   0.001517   0.000108   0.000149   0.559467   5.455285
     H   18   0.007709   0.000075   0.000074   0.572083   0.558622   5.412610
     H   19   0.000838   0.017152   0.012123   0.000141   0.000263   0.000224
     H   20   0.013870   0.000421   0.000262   0.007041   0.012395   0.006916
     H   21   0.008728   0.012628   0.035714   0.000173   0.000269   0.000178
     H   22   0.000225   0.013313   0.036716   0.000117   0.000116   0.000189


                  H 19       H 20       H 21       H 22
 ------------------------------------------------------
     H   19   5.255653
     H   20   0.007645   5.427256
     H   21   0.002127   0.001639   5.260265
     H   22   0.067357   0.000562   0.005397   5.231468


          HEAT OF FORMATION =      30.169388 KCALS/MOLE

          ZERO POINT ENERGY     118.695 KCAL/MOL


           NORMAL COORDINATE ANALYSIS (Total motion = 1 Angstrom)


   Root No.       1         2         3         4         5         6         7         8

                 1 A       2 A       3 A       4 A       5 A       6 A       7 A       8 A   

                  88.2      94.7     141.3     233.2     266.7     319.8     410.2     435.6
  
           1   -0.0002    0.0052    0.0018    0.0057   -0.0225   -0.0064    0.0173    0.0126
           2   -0.0030    0.0058   -0.0044    0.0108   -0.0107   -0.0059    0.0210    0.0121
           3   -0.0089    0.0152    0.0281    0.0061    0.0039   -0.0324    0.0096   -0.0164
           4   -0.0015    0.0068   -0.0015    0.0015   -0.0211   -0.0047    0.0005   -0.0044
           5   -0.0042    0.0118   -0.0064   -0.0141   -0.0092    0.0028   -0.0223   -0.0175
           6   -0.0177    0.0434   -0.0095   -0.0408    0.0156    0.0064    0.0017    0.0018
           7    0.0078   -0.0149    0.0097   -0.0122    0.0217    0.0017   -0.0092   -0.0037
           8    0.0048   -0.0071    0.0094   -0.0139    0.0054   -0.0128   -0.0088   -0.0053
           9    0.0233   -0.0383    0.0070   -0.0283   -0.0096   -0.0093    0.0010    0.0056
          10    0.0018   -0.0030    0.0171   -0.0051    0.0488    0.0015    0.0131    0.0014
          11    0.0083   -0.0238   -0.0137    0.0019    0.0399    0.0080    0.0063    0.0136
          12    0.0134   -0.0380   -0.0398    0.0111   -0.0080   -0.0187   -0.0012   -0.0110
          13   -0.0011    0.0054   -0.0016    0.0110   -0.0183   -0.0045    0.0248    0.0171
          14   -0.0017    0.0066   -0.0029    0.0076   -0.0160   -0.0043    0.0164    0.0070
          15   -0.0065    0.0225    0.0152    0.0230    0.0115   -0.0225    0.0431   -0.0130
          16    0.0008    0.0019    0.0072    0.0011   -0.0191   -0.0094   -0.0171   -0.0260
          17    0.0026   -0.0033   -0.0019   -0.0049   -0.0158    0.0171   -0.0183    0.0097
          18    0.0013    0.0028    0.0098   -0.0181   -0.0065    0.0311   -0.0005    0.0465
          19    0.0008    0.0018    0.0079    0.0014   -0.0203   -0.0091   -0.0166   -0.0249
          20    0.0030   -0.0026    0.0092    0.0050   -0.0274    0.0191    0.0016    0.0055
          21    0.0044   -0.0024    0.0545   -0.0036   -0.0194    0.0296   -0.0012   -0.0050
          22    0.0030   -0.0042    0.0032    0.0091    0.0107    0.0075    0.0033    0.0058
          23   -0.0013    0.0059   -0.0031    0.0079   -0.0151   -0.0033    0.0146    0.0072
          24    0.0104   -0.0034    0.0123    0.0588    0.0175    0.0186   -0.0316   -0.0009
          25   -0.0083    0.0068   -0.0236    0.0033   -0.0083   -0.0067   -0.0198    0.0337
          26   -0.0049    0.0060    0.0083    0.0028    0.0159   -0.0083   -0.0060   -0.0117
          27   -0.0191    0.0178   -0.0217    0.0111    0.0048   -0.0310   -0.0246    0.0247
          28   -0.0041   -0.0037   -0.0235   -0.0108    0.0106    0.0265    0.0031   -0.0140
          29   -0.0045    0.0051    0.0079    0.0017    0.0184   -0.0056   -0.0045   -0.0179
          30   -0.0040   -0.0083   -0.0406   -0.0084   -0.0085    0.0325    0.0239   -0.0225
          31    0.0072    0.0048    0.0200    0.0083   -0.0315    0.0082    0.0674   -0.0004
          32   -0.0109    0.0166   -0.0373    0.0254    0.0032   -0.0358    0.0473    0.0334
          33   -0.0101    0.0127    0.0271    0.0020    0.0045   -0.0305   -0.0170   -0.0152
          34   -0.0180    0.0397   -0.0271   -0.0670   -0.0062    0.0058   -0.0481   -0.0383
          35   -0.0143    0.0358   -0.0114   -0.0225    0.0044   -0.0205   -0.0305   -0.0831
          36   -0.0241    0.0559   -0.0215   -0.0739    0.0206    0.0154   -0.0218   -0.0054
          37    0.0108   -0.0180    0.0172    0.0550   -0.0317   -0.0119    0.0457    0.0300
          38   -0.0014    0.0044   -0.0075   -0.0344   -0.0134    0.0198   -0.0616   -0.0144
          39   -0.0336    0.0771   -0.0304   -0.0903    0.0314    0.0039   -0.0260   -0.0412
          40    0.0143   -0.0133    0.0370    0.0209    0.0372   -0.0112   -0.0438    0.0126
          41    0.0370   -0.0573    0.0502   -0.1068   -0.0058   -0.0885   -0.0303    0.0417
          42    0.0283   -0.0507    0.0057   -0.0639   -0.0184   -0.0225    0.0092    0.0109
          43    0.0145   -0.0339    0.0147   -0.0662    0.0244   -0.0199   -0.0061   -0.0085
          44   -0.0106    0.0170   -0.0096    0.0302    0.0119    0.0229    0.0007   -0.0292
          45    0.0513   -0.0796    0.0424   -0.1007   -0.0227   -0.0740   -0.0182    0.0533
          46   -0.1342   -0.0954    0.0203    0.0086    0.0554   -0.0201    0.0194   -0.0269
          47   -0.1272   -0.0771    0.0336   -0.0145    0.0684    0.0444    0.0231    0.0671
          48   -0.0280   -0.0828   -0.0579    0.0284   -0.0158   -0.0507   -0.0041   -0.0557
          49    0.0100   -0.0021    0.0255   -0.0114    0.1156    0.0151    0.0482    0.0383
          50    0.0867    0.0123   -0.0386    0.0098    0.0102   -0.0098   -0.0101   -0.0166
          51    0.1937    0.0408   -0.0816    0.0192    0.0195   -0.0387    0.0110   -0.0263
          52    0.1299    0.0841    0.0142   -0.0181    0.0443    0.0221    0.0088    0.0288
          53    0.0652   -0.0271   -0.0456    0.0176    0.1011   -0.0206    0.0385   -0.0040
          54   -0.1238   -0.1127   -0.0232    0.0156   -0.0305   -0.0243   -0.0111   -0.0274
          55   -0.0199    0.0200   -0.0505    0.0172   -0.0181   -0.0149   -0.0473    0.0844
          56   -0.0085    0.0098    0.0158    0.0006    0.0351   -0.0158   -0.0227   -0.0235
          57   -0.0376    0.0384   -0.0473    0.0259    0.0136   -0.0495   -0.0785    0.0759
          58    0.0016   -0.0003    0.0131   -0.0007   -0.0196   -0.0117   -0.0375   -0.0493
          59    0.0087   -0.0107    0.0202    0.0136   -0.0386    0.0332    0.0157    0.0083
          60    0.0178   -0.0232    0.0869    0.0110   -0.0431    0.0547   -0.0090   -0.0428
          61    0.0058   -0.0098    0.0069    0.0055    0.0269    0.0134   -0.0186   -0.0027
          62   -0.0046    0.0134   -0.0087    0.0176   -0.0357   -0.0064    0.0356    0.0202
          63    0.0150   -0.0020    0.0047    0.1130    0.0387    0.0734   -0.1217    0.0094
          64   -0.0115   -0.0005   -0.0518   -0.0109    0.0168    0.0669    0.0179   -0.0406
          65   -0.0098    0.0114    0.0102    0.0063    0.0327   -0.0052   -0.0048   -0.0298
          66   -0.0098   -0.0102   -0.0858   -0.0139   -0.0132    0.0930    0.0465   -0.0516


   Root No.       9        10        11        12        13        14        15        16

                 9 A      10 A      11 A      12 A      13 A      14 A      15 A      16 A   

                 466.8     490.6     531.0     637.6     677.6     757.0     792.9     836.3
  
           1   -0.0054   -0.0171    0.0085   -0.0037   -0.0289   -0.0001    0.0075    0.0138
           2   -0.0157    0.0016   -0.0312    0.0189    0.0159    0.0077   -0.0077    0.0021
           3    0.0001    0.0240   -0.0054    0.0130   -0.0388    0.0298    0.0072   -0.0010
           4   -0.0121    0.0070   -0.0355   -0.0447   -0.0050    0.0194   -0.0111   -0.0201
           5    0.0063    0.0272    0.0201    0.0014    0.0008   -0.0118    0.0041    0.0176
           6   -0.0070   -0.0051    0.0012   -0.0011    0.0079   -0.0020   -0.0088    0.0206
           7   -0.0040    0.0354    0.0069    0.0133    0.0060   -0.0112    0.0049    0.0007
           8    0.0246   -0.0407    0.0289   -0.0036   -0.0128    0.0119   -0.0167   -0.0354
           9   -0.0067   -0.0005   -0.0145    0.0048   -0.0099   -0.0276    0.0155   -0.0091
          10    0.0080   -0.0285   -0.0176    0.0269    0.0213   -0.0033   -0.0022   -0.0009
          11   -0.0224    0.0285    0.0095   -0.0351   -0.0202    0.0032    0.0012   -0.0017
          12    0.0063   -0.0106   -0.0044    0.0138    0.0074   -0.0024   -0.0013   -0.0078
          13   -0.0187   -0.0041   -0.0237   -0.0179   -0.0133    0.0161    0.0021   -0.0026
          14    0.0021   -0.0052    0.0249    0.0367   -0.0046    0.0048    0.0097    0.0034
          15    0.0206    0.0210    0.0402   -0.0420    0.0308   -0.0174   -0.0111   -0.0000
          16    0.0217   -0.0003   -0.0137    0.0068    0.0150   -0.0032   -0.0012   -0.0001
          17    0.0142    0.0443   -0.0023   -0.0262   -0.0086   -0.0002    0.0009   -0.0039
          18    0.0513    0.0054   -0.0223    0.0097    0.0003   -0.0016    0.0001   -0.0095
          19    0.0176   -0.0010   -0.0096    0.0069    0.0105   -0.0016   -0.0002    0.0008
          20   -0.0262    0.0040   -0.0205    0.0055    0.0397    0.0014   -0.0207   -0.0041
          21   -0.0270   -0.0134    0.0260   -0.0049   -0.0105    0.0034    0.0142    0.0134
          22   -0.0154    0.0387    0.0025    0.0369    0.0054   -0.0059    0.0240    0.0120
          23    0.0033   -0.0102    0.0285    0.0468   -0.0093    0.0071    0.0131   -0.0028
          24   -0.0005   -0.0107   -0.0001   -0.0069   -0.0042   -0.0008    0.0079   -0.0261
          25   -0.0028   -0.0343    0.0322   -0.0222   -0.0211   -0.0362   -0.0079    0.0172
          26    0.0106   -0.0251   -0.0322   -0.0193   -0.0047   -0.0152    0.0123    0.0160
          27   -0.0130    0.0193   -0.0059    0.0178    0.0069    0.0023   -0.0268   -0.0095
          28    0.0137    0.0086    0.0483    0.0083   -0.0082    0.0143   -0.0368   -0.0188
          29    0.0149   -0.0237   -0.0315   -0.0184   -0.0039   -0.0127    0.0114    0.0118
          30    0.0047   -0.0069   -0.0248   -0.0024   -0.0090   -0.0135   -0.0071    0.0172
          31    0.0026   -0.0168    0.0461   -0.0353   -0.0146   -0.0023    0.0531    0.0258
          32   -0.0087    0.0251   -0.0446    0.0115    0.0450   -0.0082   -0.0515   -0.0312
          33   -0.0046    0.0179   -0.0167    0.0263   -0.0491    0.0339   -0.0013    0.0014
          34   -0.1126   -0.0235   -0.0683   -0.0151   -0.0447    0.0376    0.0247   -0.1112
          35   -0.0504    0.0187    0.0633   -0.0032    0.0309   -0.0418    0.0023    0.0258
          36   -0.0498   -0.0198   -0.0221    0.0155   -0.0169    0.0116    0.0101   -0.0276
          37    0.0561    0.0269   -0.0165   -0.0763    0.0152    0.0205   -0.0396    0.0333
          38    0.0377    0.0413   -0.0085    0.0259   -0.0031   -0.0220    0.0175    0.0157
          39   -0.1098   -0.0373   -0.0027    0.0190   -0.0140    0.0041    0.0165   -0.0430
          40   -0.0127    0.0415    0.0085    0.0072    0.0257   -0.0067    0.0595   -0.0410
          41    0.0199   -0.0502    0.0637   -0.0538    0.0558    0.1272   -0.0479    0.0293
          42   -0.0043   -0.0056   -0.0061   -0.0057    0.0003    0.0000   -0.0137    0.0250
          43    0.0040    0.0286   -0.0144   -0.0432    0.0321    0.0074   -0.0240    0.0640
          44    0.0286   -0.0391    0.0113    0.0165   -0.0460   -0.0383   -0.0052   -0.0717
          45   -0.0158   -0.0031    0.0252   -0.0219    0.0489    0.0687   -0.0019    0.0449
          46   -0.0242   -0.0436   -0.0059    0.0327    0.0228    0.0039    0.0016    0.0274
          47   -0.0073    0.0254   -0.0055   -0.0386   -0.0236    0.0027   -0.0089   -0.0352
          48   -0.0244   -0.0201    0.0115    0.0191    0.0093    0.0032    0.0063    0.0285
          49   -0.0127   -0.0558   -0.0245    0.0366    0.0204    0.0050   -0.0105   -0.0114
          50   -0.0230    0.0394    0.0173   -0.0402   -0.0210    0.0018    0.0073    0.0141
          51   -0.0223   -0.0250    0.0037    0.0178    0.0047    0.0056    0.0013    0.0121
          52    0.0385   -0.0181   -0.0316    0.0274    0.0254   -0.0105   -0.0075   -0.0289
          53   -0.0861   -0.0039    0.0261   -0.0339   -0.0303    0.0216    0.0031    0.0344
          54    0.0067   -0.0062    0.0004    0.0134    0.0087   -0.0039    0.0024    0.0014
          55   -0.0187   -0.0620    0.0543   -0.0607    0.0640   -0.0248    0.1163    0.0242
          56    0.0250   -0.0172   -0.0135   -0.0235    0.0002    0.0054    0.0147   -0.0118
          57   -0.0172   -0.0082    0.0435   -0.0362    0.1199    0.0404    0.1338   -0.0326
          58    0.0271    0.0222   -0.0012   -0.0167    0.0008   -0.0005    0.0119   -0.0057
          59   -0.0786   -0.0348   -0.0005    0.0125    0.0836   -0.0349   -0.0654   -0.0239
          60   -0.1221   -0.0553    0.0832   -0.0315    0.0657   -0.0714   -0.0594   -0.0409
          61   -0.0072    0.0430    0.0127    0.0371    0.0113   -0.0068    0.0052    0.0258
          62   -0.0091   -0.0219    0.0125    0.0499   -0.0196    0.0236    0.0281   -0.0011
          63   -0.0118   -0.0575   -0.0160    0.0269   -0.0190    0.1371   -0.1066    0.1749
          64    0.0286    0.0041    0.0611   -0.0221    0.0592    0.1183    0.0585   -0.0263
          65    0.0115    0.0101   -0.0525   -0.0048    0.0207    0.0095    0.0161    0.0204
          66    0.0315   -0.0478    0.0163   -0.0623    0.0697    0.1245    0.1345   -0.0030


   Root No.      17        18        19        20        21        22        23        24

                17 A      18 A      19 A      20 A      21 A      22 A      23 A      24 A   

                 874.9     888.1     931.6     943.5     952.3     978.0     998.7    1004.6
  
           1   -0.0034   -0.0220   -0.0074    0.0179   -0.0092   -0.0016   -0.0011    0.0144
           2   -0.0160   -0.0163   -0.0037    0.0121   -0.0127    0.0009   -0.0002    0.0094
           3   -0.0005   -0.0156   -0.0089    0.0241   -0.0090    0.0030   -0.0066    0.0218
           4    0.0049    0.0228    0.0026    0.0048    0.0287   -0.0016   -0.0124   -0.0237
           5   -0.0029   -0.0065   -0.0137    0.0188    0.0296   -0.0064   -0.0196   -0.0130
           6   -0.0015    0.0338   -0.0229    0.0037   -0.0139    0.0074   -0.0074    0.0200
           7   -0.0034    0.0020    0.0016    0.0119   -0.0025    0.0032   -0.0012   -0.0013
           8   -0.0078    0.0178    0.0080    0.0210   -0.0125    0.0116    0.0121   -0.0174
           9   -0.0035    0.0168    0.0059    0.0208   -0.0044    0.0088   -0.0106   -0.0008
          10   -0.0023   -0.0038    0.0017   -0.0056   -0.0174   -0.0060   -0.0260   -0.0191
          11    0.0117    0.0003    0.0054   -0.0087   -0.0297    0.0067   -0.0049    0.0114
          12    0.0137   -0.0134    0.0100    0.0030    0.0154    0.0141   -0.0094    0.0125
          13    0.0113    0.0066   -0.0003   -0.0035    0.0058   -0.0041   -0.0103   -0.0055
          14    0.0130    0.0059    0.0018   -0.0100    0.0054   -0.0024    0.0011    0.0001
          15   -0.0021   -0.0080    0.0187   -0.0081    0.0010    0.0023    0.0150   -0.0126
          16    0.0005    0.0017    0.0011   -0.0038   -0.0101    0.0028    0.0125    0.0116
          17    0.0052   -0.0002    0.0019   -0.0046   -0.0080   -0.0045    0.0050   -0.0085
          18    0.0045   -0.0095    0.0006    0.0013    0.0029   -0.0102    0.0096   -0.0158
          19   -0.0002    0.0041    0.0014   -0.0061   -0.0109    0.0077    0.0247    0.0253
          20   -0.0498    0.0013    0.0060   -0.0053   -0.0043    0.0152    0.0047    0.0214
          21   -0.0318    0.0041    0.0132   -0.0124    0.0054    0.0007   -0.0050   -0.0214
          22    0.0194    0.0099    0.0048   -0.0127    0.0033    0.0071    0.0143   -0.0143
          23    0.0200    0.0151    0.0036   -0.0160    0.0084   -0.0017    0.0038   -0.0054
          24   -0.0144   -0.0122   -0.0202   -0.0194    0.0059   -0.0134   -0.0064    0.0176
          25   -0.0107   -0.0169   -0.0135   -0.0123   -0.0005    0.0177    0.0031   -0.0062
          26    0.0080   -0.0043   -0.0028   -0.0100    0.0048   -0.0010   -0.0025    0.0029
          27    0.0029    0.0009   -0.0070   -0.0099    0.0016    0.0045    0.0086   -0.0213
          28   -0.0162   -0.0001    0.0056   -0.0037    0.0054   -0.0217   -0.0181    0.0242
          29    0.0103   -0.0012    0.0004   -0.0066    0.0036   -0.0042    0.0014    0.0008
          30    0.0063   -0.0002    0.0097   -0.0103    0.0041   -0.0129    0.0097    0.0026
          31   -0.0156   -0.0595    0.0399    0.0664   -0.0340   -0.0984    0.0388    0.0203
          32    0.0215   -0.0760   -0.0159    0.0700   -0.0570   -0.0453    0.0223   -0.0914
          33   -0.0023    0.0131   -0.0246   -0.0087    0.0109    0.0510   -0.0270    0.0402
          34    0.0120   -0.0603    0.0611   -0.0260    0.0185   -0.0424    0.0468   -0.0633
          35    0.0004   -0.0852    0.0626    0.0183    0.1005    0.0667   -0.0875   -0.0520
          36    0.0011    0.0022   -0.0046   -0.0122   -0.0311   -0.0248    0.0345    0.0071
          37    0.0132    0.1111   -0.0341    0.0118    0.0353    0.0302   -0.0624   -0.0093
          38   -0.0369   -0.0442   -0.0651    0.0733    0.0437   -0.0849    0.0297   -0.0226
          39    0.0119   -0.0461    0.0558   -0.0410   -0.0293    0.0210    0.0188    0.0058
          40   -0.0227   -0.0243   -0.0722    0.0013   -0.0067    0.0393    0.0064   -0.0388
          41    0.0186   -0.0506   -0.0218   -0.0681    0.0141   -0.0247    0.0303   -0.0047
          42    0.0113    0.0097    0.0279    0.0022    0.0042   -0.0146   -0.0090    0.0175
          43    0.0014   -0.0399    0.0121    0.0071   -0.0021   -0.0237    0.0120    0.0244
          44   -0.0214    0.0518    0.0226    0.0672   -0.0284    0.0308    0.0101   -0.0304
          45    0.0221   -0.0386   -0.0247   -0.0682    0.0266   -0.0234   -0.0097    0.0179
          46   -0.0646    0.0353   -0.0325   -0.0017   -0.0158   -0.0517    0.0013   -0.0692
          47    0.0584   -0.0331    0.0308    0.0221    0.0864    0.0670    0.0437    0.1016
          48   -0.0537    0.0308   -0.0268   -0.0079   -0.0352   -0.0463   -0.0089   -0.0634
          49   -0.0181   -0.0031   -0.0064    0.0453    0.1604    0.0158    0.0625    0.0257
          50   -0.0016    0.0141   -0.0017   -0.0359   -0.1285   -0.0197   -0.0405   -0.0263
          51   -0.0363    0.0165   -0.0164    0.0141    0.0467   -0.0143    0.0321   -0.0115
          52    0.0534   -0.0424    0.0340   -0.0064   -0.0070    0.0344   -0.0623    0.0153
          53   -0.0855    0.0624   -0.0499    0.0271    0.0728   -0.0359    0.1229    0.0043
          54    0.0055   -0.0060    0.0054   -0.0117   -0.0372   -0.0036   -0.0337   -0.0166
          55   -0.0195    0.0157    0.0475    0.0558   -0.0197   -0.0141    0.0035    0.0425
          56    0.0240    0.0227    0.0091   -0.0224    0.0296   -0.0388   -0.0461    0.0295
          57    0.0099    0.0739    0.0840    0.0635    0.0047   -0.0772   -0.0388    0.0687
          58    0.0475    0.0395    0.0115   -0.0401   -0.0143    0.0084    0.1005    0.0289
          59    0.0413   -0.0237   -0.0456    0.0531   -0.0134   -0.0045   -0.0394    0.0348
          60    0.2490    0.0143   -0.0793    0.0522   -0.0176   -0.0415    0.0306    0.0082
          61    0.0064    0.0063    0.0208    0.0332   -0.0220    0.0322    0.0463   -0.0347
          62    0.0492    0.0233   -0.0068   -0.0710    0.0421   -0.0339   -0.0383    0.0158
          63    0.0744    0.0071    0.0936    0.0819   -0.0229    0.0190    0.0173   -0.0411
          64    0.0053   -0.0299   -0.0530    0.0079   -0.0044    0.0282   -0.0210   -0.0059
          65    0.0297   -0.0055   -0.0004   -0.0227    0.0209   -0.0455   -0.0166    0.0211
          66    0.0218   -0.0403   -0.0788    0.0224   -0.0273    0.1039    0.0238   -0.0647


   Root No.      25        26        27        28        29        30        31        32

                25 A      26 A      27 A      28 A      29 A      30 A      31 A      32 A   

                1023.3    1034.6    1049.3    1055.4    1061.4    1090.8    1142.7    1163.3
  
           1    0.0053   -0.0021   -0.0022   -0.0007   -0.0101    0.0018    0.0103   -0.0171
           2   -0.0004   -0.0002    0.0107    0.0044   -0.0009    0.0003    0.0078    0.0226
           3   -0.0104   -0.0114    0.0031    0.0129   -0.0042   -0.0094   -0.0072    0.0165
           4    0.0046   -0.0093   -0.0019   -0.0024    0.0078   -0.0032    0.0042    0.0027
           5    0.0066   -0.0047    0.0044   -0.0047    0.0063    0.0022   -0.0016    0.0086
           6    0.0135    0.0068    0.0099   -0.0076    0.0064   -0.0053   -0.0009   -0.0025
           7    0.0029    0.0041   -0.0033   -0.0004   -0.0039    0.0213   -0.0031    0.0036
           8    0.0184   -0.0135    0.0056   -0.0060   -0.0034   -0.0013    0.0007   -0.0060
           9   -0.0211    0.0220   -0.0149   -0.0002    0.0028    0.0069    0.0066    0.0018
          10    0.0008   -0.0074   -0.0016   -0.0008    0.0041    0.0009   -0.0016    0.0141
          11    0.0047   -0.0002   -0.0011   -0.0030    0.0053   -0.0004    0.0022   -0.0115
          12    0.0099    0.0007    0.0041   -0.0075    0.0190    0.0022   -0.0011    0.0043
          13    0.0009    0.0022    0.0040    0.0004   -0.0039    0.0074   -0.0055   -0.0012
          14    0.0007    0.0004   -0.0030   -0.0002   -0.0015    0.0114   -0.0031   -0.0004
          15   -0.0211   -0.0105   -0.0181    0.0100    0.0151    0.0126    0.0048   -0.0014
          16   -0.0020    0.0049   -0.0002    0.0013   -0.0032   -0.0023    0.0007   -0.0229
          17   -0.0066    0.0009   -0.0005    0.0063   -0.0138   -0.0019   -0.0023    0.0150
          18   -0.0143   -0.0019   -0.0070    0.0143   -0.0368   -0.0047    0.0014   -0.0023
          19   -0.0018    0.0095   -0.0001    0.0014   -0.0061   -0.0011    0.0012   -0.0290
          20   -0.0069   -0.0011   -0.0123    0.0000    0.0041   -0.0036   -0.0100    0.0169
          21    0.0097    0.0140    0.0216   -0.0086    0.0186    0.0056    0.0042   -0.0178
          22   -0.0027   -0.0209    0.0084   -0.0115    0.0055   -0.0286   -0.0032   -0.0063
          23   -0.0006   -0.0026   -0.0018   -0.0018    0.0020    0.0059   -0.0003   -0.0055
          24    0.0065   -0.0097    0.0199   -0.0189   -0.0116   -0.0025   -0.0025    0.0014
          25   -0.0202    0.0028   -0.0049   -0.0009    0.0081   -0.0036   -0.0069    0.0091
          26   -0.0111    0.0047   -0.0033    0.0029    0.0052   -0.0114    0.0003    0.0079
          27    0.0194    0.0130   -0.0219   -0.0288   -0.0048    0.0039    0.0033   -0.0012
          28   -0.0117    0.0108    0.0037    0.0160    0.0044   -0.0086    0.0054    0.0118
          29    0.0021    0.0017   -0.0026    0.0008    0.0004   -0.0019    0.0065    0.0006
          30    0.0330   -0.0194    0.0081    0.0242    0.0014   -0.0040   -0.0043   -0.0103
          31    0.1379    0.0741   -0.1242   -0.1094   -0.0169   -0.0821   -0.0439    0.0815
          32   -0.0319    0.1240    0.2093    0.0235    0.0508   -0.0224   -0.0181   -0.0974
          33   -0.0559   -0.0679    0.0094    0.0518   -0.0127    0.0294    0.0201    0.0023
          34   -0.0463   -0.0379   -0.0426    0.0125    0.0377    0.0266    0.0076    0.0123
          35    0.0246    0.0301    0.0383    0.0265   -0.1559   -0.0573    0.0049   -0.0130
          36   -0.0160   -0.0128   -0.0164   -0.0044    0.0460    0.0193   -0.0004    0.0052
          37    0.0490    0.0102    0.0263   -0.0143   -0.0156   -0.0205    0.0027    0.0190
          38   -0.0351   -0.0613   -0.0265   -0.0264    0.1569    0.0291    0.0071   -0.0268
          39   -0.0120    0.0200   -0.0031    0.0210   -0.0651   -0.0028   -0.0044    0.0024
          40    0.1524    0.0608   -0.0779    0.2030    0.0359    0.0536   -0.0471   -0.0184
          41    0.0706   -0.0555    0.0349    0.0128   -0.0036   -0.0245   -0.0086   -0.0208
          42   -0.0686   -0.0111    0.0218   -0.0767   -0.0129   -0.0120    0.0213    0.0078
          43    0.0191   -0.0504    0.0526   -0.0981   -0.0763    0.2023   -0.1774   -0.0135
          44    0.0124   -0.0036   -0.0037   -0.0192   -0.0105    0.0259   -0.0050   -0.0123
          45   -0.0106    0.0154   -0.0099    0.0469    0.0322   -0.0847    0.0615    0.0152
          46   -0.0298   -0.0099   -0.0099    0.0213   -0.0478   -0.0038   -0.0038    0.0381
          47    0.0281    0.0215    0.0124   -0.0207    0.0453    0.0019    0.0032   -0.0516
          48   -0.0234   -0.0102   -0.0080    0.0169   -0.0381   -0.0024   -0.0027    0.0353
          49   -0.0035    0.0160    0.0109    0.0008    0.0014    0.0016   -0.0073    0.0405
          50   -0.0037   -0.0128   -0.0114    0.0039   -0.0124   -0.0029    0.0057   -0.0295
          51   -0.0137    0.0051    0.0003    0.0094   -0.0219   -0.0016   -0.0019    0.0113
          52    0.0296   -0.0090    0.0070   -0.0218    0.0568    0.0067   -0.0046    0.0358
          53   -0.0427    0.0213   -0.0078    0.0304   -0.0790   -0.0106    0.0055   -0.0608
          54    0.0048   -0.0076   -0.0005   -0.0032    0.0086    0.0016   -0.0004    0.0111
          55    0.0101   -0.0645    0.0688    0.0610   -0.0050    0.0507    0.0991    0.0529
          56   -0.0714    0.0670   -0.0516   -0.0128    0.0193   -0.1022   -0.1738   -0.0756
          57   -0.0067   -0.0054    0.0181    0.0323   -0.0065   -0.0273   -0.0585   -0.0399
          58    0.0003    0.0799    0.0816    0.0066    0.0082    0.0138   -0.0059    0.1839
          59   -0.0214   -0.0677   -0.0867    0.0098   -0.0326   -0.0192   -0.0051   -0.1189
          60   -0.0169   -0.0059    0.0079    0.0214   -0.0334   -0.0005    0.0030    0.0702
          61    0.0172   -0.0614    0.0183   -0.0333    0.0040   -0.0992    0.0465   -0.0055
          62   -0.0327    0.0576   -0.0238    0.0351    0.0083    0.1113   -0.0733   -0.0078
          63   -0.0396    0.0336   -0.0598    0.0497    0.0303    0.0323   -0.0078    0.0046
          64   -0.0498    0.0585   -0.0334   -0.0575   -0.0146    0.0399    0.1163   -0.0092
          65    0.0216    0.0530   -0.0363   -0.0478   -0.0308    0.0785    0.2550   -0.0578
          66   -0.0435    0.0028   -0.0168   -0.0405    0.0039   -0.0133   -0.0808    0.0129


   Root No.      33        34        35        36        37        38        39        40

                33 A      34 A      35 A      36 A      37 A      38 A      39 A      40 A   

                1170.8    1201.6    1276.3    1284.7    1343.1    1361.1    1376.8    1390.0
  
           1   -0.0026   -0.0239    0.0160   -0.0050    0.0151    0.0223   -0.0293    0.0004
           2    0.0080   -0.0143    0.0004   -0.0342    0.0234    0.0348    0.0235    0.0003
           3   -0.0065    0.0185   -0.0110    0.0295   -0.0058   -0.0137    0.0000   -0.0002
           4   -0.0062    0.0086   -0.0297    0.0051   -0.0085   -0.0040    0.0096    0.0016
           5   -0.0225    0.0032    0.0358   -0.0119    0.0232   -0.0308   -0.0075    0.0010
           6    0.0083    0.0015   -0.0089    0.0052   -0.0059    0.0122    0.0014   -0.0003
           7    0.0010    0.0114    0.0068   -0.0160    0.0117    0.0097   -0.0331    0.0010
           8    0.0164    0.0006    0.0128    0.0070   -0.0042   -0.0025   -0.0433   -0.0001
           9   -0.0017   -0.0045   -0.0034    0.0029   -0.0011   -0.0021    0.0310   -0.0003
          10   -0.0017   -0.0027   -0.0045    0.0014    0.0145   -0.0269   -0.0009   -0.0058
          11    0.0093   -0.0017   -0.0060    0.0009   -0.0088    0.0192   -0.0020   -0.0207
          12   -0.0040    0.0007    0.0029   -0.0003    0.0031   -0.0070    0.0007   -0.0374
          13    0.0266   -0.0296    0.0342   -0.0130   -0.0204   -0.0347    0.0051   -0.0009
          14   -0.0198   -0.0125   -0.0169   -0.0096   -0.0081   -0.0040    0.0048    0.0001
          15    0.0001   -0.0057    0.0068   -0.0037    0.0032    0.0018   -0.0007   -0.0000
          16    0.0009    0.0103    0.0006   -0.0103   -0.0046    0.0056    0.0104   -0.0001
          17   -0.0145    0.0063    0.0267    0.0084   -0.0214    0.0189    0.0097   -0.0015
          18    0.0070   -0.0023   -0.0127   -0.0029    0.0091   -0.0074   -0.0037   -0.0004
          19    0.0013    0.0076    0.0001   -0.0126   -0.0030    0.0077    0.0055   -0.0006
          20    0.0025   -0.0007   -0.0046    0.0367   -0.0006   -0.0225   -0.0223   -0.0001
          21   -0.0024   -0.0006    0.0036   -0.0159   -0.0002    0.0090    0.0077   -0.0002
          22    0.0171    0.0163    0.0126    0.0244    0.0061    0.0004    0.0041   -0.0003
          23   -0.0147   -0.0027   -0.0307    0.0010   -0.0117   -0.0009    0.0063    0.0002
          24   -0.0014    0.0012   -0.0015   -0.0018   -0.0002    0.0004   -0.0025    0.0001
          25   -0.0102    0.0033   -0.0096    0.0301    0.0039   -0.0019    0.0033    0.0001
          26   -0.0002    0.0103   -0.0056   -0.0183   -0.0058   -0.0030    0.0135   -0.0002
          27    0.0089    0.0000    0.0057   -0.0229   -0.0027    0.0014   -0.0007   -0.0001
          28    0.0010    0.0039   -0.0074   -0.0209   -0.0075   -0.0028    0.0239   -0.0004
          29    0.0025    0.0108   -0.0004   -0.0162   -0.0072   -0.0044    0.0004   -0.0001
          30   -0.0016   -0.0054    0.0054    0.0173    0.0052    0.0018   -0.0166    0.0002
          31    0.0047    0.0762   -0.0330    0.0223   -0.0108   -0.0174    0.0222   -0.0003
          32   -0.0438    0.0559   -0.0176    0.0588   -0.0218   -0.0265   -0.0222    0.0002
          33    0.0023   -0.0374    0.0134   -0.0033    0.0137    0.0153   -0.0103    0.0001
          34   -0.0618    0.0209   -0.0607   -0.0070    0.0920    0.0840   -0.0460   -0.0053
          35    0.1337   -0.0292   -0.1064    0.0262   -0.0056    0.0615   -0.0085   -0.0038
          36   -0.0437    0.0117    0.0037   -0.0071    0.0422    0.0322   -0.0224   -0.0026
          37   -0.0707    0.0454   -0.0528    0.0008    0.0827    0.0675   -0.0359   -0.0033
          38    0.1588   -0.0677   -0.0736    0.0198   -0.0516    0.0147    0.0126    0.0015
          39   -0.0370    0.0064    0.0816   -0.0107   -0.0529   -0.0880    0.0360    0.0038
          40   -0.0307   -0.0449   -0.0310    0.0246   -0.0141   -0.0072    0.0519   -0.0009
          41    0.0265    0.0016    0.0563    0.0817    0.0783    0.0210    0.2049    0.0004
          42    0.0118    0.0180    0.0180   -0.0007    0.0221    0.0082    0.0356    0.0005
          43   -0.0585   -0.0392   -0.0819    0.0138   -0.0491   -0.0161   -0.0023   -0.0013
          44    0.0309   -0.0023    0.0417    0.0491    0.0407    0.0097    0.0944    0.0001
          45   -0.0097    0.0143   -0.0274   -0.0711   -0.0585   -0.0155   -0.2017    0.0001
          46   -0.0129   -0.0028    0.0279    0.0275   -0.0507    0.0791   -0.0078    0.1266
          47    0.0099    0.0107   -0.0281   -0.0274    0.0349   -0.0471    0.0055    0.2594
          48   -0.0106   -0.0047    0.0310    0.0270   -0.0542    0.0848   -0.0067   -0.0323
          49   -0.0409    0.0089    0.0746    0.0303   -0.0761    0.1004    0.0072   -0.0080
          50    0.0321   -0.0071   -0.0538   -0.0175    0.0465   -0.0588   -0.0058    0.1796
          51   -0.0127    0.0034    0.0201    0.0057   -0.0151    0.0184    0.0039    0.3795
          52   -0.0126   -0.0038    0.0269    0.0269   -0.0478    0.0744   -0.0083   -0.0488
          53    0.0154    0.0119   -0.0435   -0.0398    0.0636   -0.0941    0.0080   -0.1846
          54    0.0006   -0.0043   -0.0024   -0.0003    0.0160   -0.0307    0.0021    0.1079
          55    0.0076    0.0775   -0.0246   -0.0170   -0.0242   -0.0239    0.0270   -0.0005
          56   -0.0355   -0.1213    0.0217    0.0672    0.0447    0.0372   -0.0298    0.0010
          57   -0.0065   -0.0519    0.0188    0.0120    0.0168    0.0169   -0.0221    0.0005
          58    0.0449   -0.0896   -0.0226    0.0396    0.0419   -0.0216   -0.0436    0.0015
          59   -0.0269    0.0677    0.0109    0.0016   -0.0310   -0.0002    0.0126   -0.0012
          60    0.0119   -0.0258   -0.0061   -0.0007    0.0144    0.0021   -0.0016    0.0014
          61   -0.0776   -0.0874   -0.0436   -0.0122   -0.0323   -0.0236    0.0389   -0.0005
          62    0.1204    0.1448    0.0477    0.0558    0.0411    0.0316   -0.0433    0.0005
          63    0.0024    0.0076    0.0023    0.0043    0.0013   -0.0020    0.0017   -0.0000
          64   -0.0137   -0.0219   -0.0049    0.0486    0.0016   -0.0026    0.0134   -0.0003
          65   -0.0300   -0.0556    0.0088    0.1532    0.0123   -0.0065   -0.0255   -0.0000
          66    0.0092    0.0205    0.0025   -0.0435   -0.0004    0.0037   -0.0122    0.0003


   Root No.      41        42        43        44        45        46        47        48

                41 A      42 A      43 A      44 A      45 A      46 A      47 A      48 A   

                1391.6    1393.1    1398.4    1450.7    1486.7    1852.4    1868.9    1932.2
  
           1    0.0063    0.0159    0.0113    0.0559    0.0732   -0.0194   -0.0007   -0.0064
           2    0.0210    0.0124   -0.0436   -0.0313   -0.0344    0.0158    0.0092   -0.0220
           3   -0.0034   -0.0041    0.0024   -0.0135   -0.0144    0.0064    0.0047    0.0001
           4    0.0244    0.0474   -0.0062    0.0144   -0.0050    0.0104   -0.0104    0.0196
           5   -0.0088   -0.0026   -0.0105    0.0276   -0.0438   -0.0053    0.0044   -0.0227
           6    0.0001   -0.0061    0.0028   -0.0114    0.0161    0.0011   -0.0009    0.0025
           7    0.0012    0.0329    0.0562   -0.0448   -0.0195   -0.0120   -0.0033   -0.0112
           8    0.0064   -0.0065   -0.0274   -0.0091   -0.0083   -0.0130   -0.0112    0.0172
           9   -0.0035   -0.0096   -0.0084    0.0182    0.0094    0.0073    0.0039    0.0001
          10    0.0188   -0.0057    0.0009   -0.0177    0.0396    0.0134   -0.0249   -0.0080
          11    0.0126   -0.0060    0.0132    0.0330   -0.0571   -0.0122    0.0228    0.0082
          12   -0.0099    0.0052   -0.0070   -0.0137    0.0229    0.0047   -0.0089   -0.0032
          13   -0.0254   -0.0374    0.0140   -0.0295   -0.0286   -0.0050    0.0035   -0.0244
          14   -0.0045    0.0031    0.0207   -0.0103   -0.0035    0.0427   -0.0184    0.2342
          15    0.0007    0.0003   -0.0023    0.0035    0.0026   -0.0018   -0.0015   -0.0109
          16   -0.0002   -0.0049   -0.0067   -0.0173   -0.0037   -0.0895    0.1668    0.0508
          17    0.0087   -0.0076   -0.0062   -0.0516    0.0869    0.0135   -0.0282   -0.0170
          18   -0.0032    0.0038    0.0021    0.0210   -0.0366   -0.0034    0.0075    0.0051
          19   -0.0019   -0.0068    0.0005    0.0056   -0.0384    0.0736   -0.1382   -0.0418
          20   -0.0103   -0.0031    0.0211    0.0255    0.0124   -0.0105    0.0152   -0.0014
          21    0.0037    0.0013   -0.0071   -0.0085   -0.0023    0.0038   -0.0019    0.0007
          22    0.0046   -0.0115   -0.0374    0.0266    0.0112    0.0084   -0.0045    0.0384
          23    0.0005    0.0086    0.0156   -0.0033    0.0008   -0.0380    0.0211   -0.1945
          24   -0.0001    0.0019    0.0042   -0.0037   -0.0016   -0.0004   -0.0002    0.0013
          25    0.0046    0.0028   -0.0101   -0.0329   -0.0318    0.0282    0.0170   -0.0044
          26   -0.0043   -0.0042    0.0049    0.0145    0.0091   -0.1463   -0.0905    0.0315
          27   -0.0028   -0.0017    0.0061    0.0199    0.0197   -0.0108   -0.0052    0.0021
          28   -0.0039   -0.0116   -0.0095    0.0245    0.0147    0.0081    0.0045   -0.0004
          29   -0.0062   -0.0038    0.0125    0.0243    0.0224    0.1497    0.0903   -0.0317
          30    0.0031    0.0070    0.0037   -0.0168   -0.0106   -0.0149   -0.0090    0.0031
          31   -0.0015   -0.0078   -0.0113   -0.0343   -0.0418   -0.0047   -0.0073   -0.0111
          32   -0.0145   -0.0046    0.0377    0.0276    0.0169   -0.0001   -0.0170    0.0053
          33    0.0068    0.0082   -0.0056    0.0097    0.0207    0.0027    0.0046    0.0012
          34   -0.0662   -0.1302    0.0247   -0.0107    0.0043   -0.0000    0.0010    0.0082
          35   -0.0209   -0.0536    0.0281   -0.0313    0.0299    0.0131   -0.0215    0.0026
          36   -0.0361   -0.0716    0.0094   -0.0098    0.0054   -0.0045    0.0055   -0.0029
          37   -0.0453   -0.0925    0.0085    0.0011   -0.0025    0.0011   -0.0000   -0.0036
          38    0.0107    0.0149    0.0233   -0.0215    0.0249    0.0207   -0.0308    0.0192
          39    0.0579    0.1233   -0.0328    0.0293   -0.0282   -0.0071    0.0148    0.0031
          40   -0.0014   -0.0274   -0.0447    0.0360    0.0152   -0.0100   -0.0034   -0.0095
          41   -0.0247    0.0285    0.1022    0.0116    0.0092    0.0004    0.0007   -0.0018
          42   -0.0071    0.0197    0.0510   -0.0104   -0.0016    0.0063    0.0033    0.0023
          43    0.0115   -0.0457   -0.1090    0.0469    0.0157   -0.0270   -0.0085   -0.0279
          44   -0.0104    0.0069    0.0327    0.0032    0.0002   -0.0135   -0.0112    0.0162
          45    0.0212   -0.0116   -0.0647   -0.0250   -0.0131    0.0142    0.0078   -0.0011
          46   -0.1549    0.0689   -0.0371    0.0168   -0.0233    0.0065   -0.0119   -0.0036
          47   -0.1027    0.0473   -0.0539   -0.0543    0.0670   -0.0055    0.0103    0.0029
          48   -0.0750    0.0314   -0.0051    0.0422   -0.0650   -0.0000    0.0000    0.0002
          49    0.1047   -0.0639    0.0540    0.0383   -0.0642   -0.0190    0.0338    0.0084
          50   -0.0380    0.0255   -0.0196   -0.0052    0.0119    0.0062   -0.0104   -0.0010
          51    0.0468   -0.0319    0.0179    0.0019   -0.0030   -0.0020    0.0033    0.0002
          52   -0.1584    0.0733   -0.0392    0.0151   -0.0213    0.0069   -0.0128   -0.0039
          53   -0.0392    0.0272   -0.0423   -0.0706    0.0966   -0.0042    0.0080    0.0019
          54    0.1595   -0.0760    0.0532    0.0109   -0.0042    0.0034   -0.0066   -0.0020
          55   -0.0129   -0.0167    0.0076    0.0100   -0.0026   -0.0711   -0.0457    0.0193
          56    0.0262    0.0315   -0.0229   -0.0532   -0.0351   -0.0229   -0.0138   -0.0016
          57    0.0080    0.0128   -0.0000   -0.0000    0.0097    0.0492    0.0324   -0.0162
          58   -0.0065    0.0175    0.0163    0.0650   -0.0040    0.0143   -0.0324   -0.0165
          59   -0.0062   -0.0208    0.0086   -0.0164   -0.0142    0.0465   -0.0924   -0.0348
          60    0.0045    0.0089   -0.0083    0.0012    0.0033   -0.0202    0.0406    0.0153
          61   -0.0133   -0.0183    0.0082    0.0058   -0.0009   -0.0189    0.0161   -0.1240
          62    0.0258    0.0173   -0.0504    0.0273    0.0180   -0.0119   -0.0022   -0.0336
          63   -0.0000   -0.0009   -0.0027    0.0016   -0.0011    0.0032    0.0006    0.0047
          64    0.0045   -0.0096   -0.0314   -0.0069   -0.0128   -0.0729   -0.0452    0.0182
          65    0.0135   -0.0045   -0.0474   -0.0470   -0.0415    0.0127    0.0061    0.0039
          66   -0.0038    0.0110    0.0315    0.0080    0.0141    0.0498    0.0311   -0.0158


   Root No.      49        50        51        52        53        54        55        56

                49 A      50 A      51 A      52 A      53 A      54 A      55 A      56 A   

                2844.6    2939.5    2972.4    3020.0    3044.1    3059.7    3067.5    3076.0
  
           1   -0.0269    0.0002    0.0001   -0.0001   -0.0005    0.0002   -0.0000    0.0001
           2   -0.0141    0.0002   -0.0000   -0.0001    0.0001   -0.0002   -0.0000    0.0004
           3   -0.0664    0.0005   -0.0002   -0.0002   -0.0000   -0.0002   -0.0001    0.0000
           4    0.0002    0.0000   -0.0071   -0.0000    0.0409   -0.0000    0.0003    0.0001
           5    0.0001    0.0001   -0.0198   -0.0000    0.0102   -0.0000    0.0001   -0.0003
           6    0.0000    0.0001   -0.0571    0.0000   -0.0060    0.0000    0.0000    0.0002
           7   -0.0001   -0.0187   -0.0000    0.0057    0.0000   -0.0003    0.0000   -0.0001
           8   -0.0001   -0.0195   -0.0001   -0.0392   -0.0001    0.0024   -0.0000   -0.0030
           9   -0.0003   -0.0529   -0.0002    0.0069    0.0000    0.0004    0.0000   -0.0005
          10   -0.0001    0.0000   -0.0000    0.0000   -0.0000    0.0000   -0.0017   -0.0000
          11    0.0001    0.0000   -0.0001    0.0000    0.0001    0.0000   -0.0224   -0.0000
          12   -0.0001    0.0000   -0.0002   -0.0000    0.0005   -0.0000   -0.0528   -0.0000
          13   -0.0008   -0.0002    0.0001   -0.0003    0.0005   -0.0002   -0.0000   -0.0007
          14   -0.0011   -0.0003   -0.0004    0.0004   -0.0003    0.0002   -0.0000    0.0054
          15   -0.0001   -0.0002   -0.0001    0.0000    0.0000    0.0001    0.0000   -0.0002
          16    0.0010   -0.0000    0.0001   -0.0000    0.0007   -0.0000    0.0000    0.0001
          17   -0.0005    0.0000    0.0001   -0.0000    0.0006   -0.0000   -0.0000   -0.0001
          18   -0.0001    0.0000   -0.0002    0.0000   -0.0003    0.0000   -0.0001    0.0000
          19   -0.0010    0.0000   -0.0001   -0.0000   -0.0001    0.0002   -0.0000   -0.0000
          20    0.0008   -0.0000   -0.0001    0.0000    0.0003    0.0001   -0.0001   -0.0000
[...]
 EFFECTIVE MASS      6.0164
 FORCE CONSTANT      0.8123

 VIBRATION         43   43A           ATOM PAIR      ENERGY CONTRIBUTION    RADIAL
 FREQUENCY          1398.37         C  3 -- C  8         +17.6% ( 61.3%)     99.8%
 TRANSITION DIPOLE   0.0692         C  3 -- H 15         +12.4% ( 51.4%)      3.5%
 TRAVEL (Ang.)       0.1896         C  3 -- H 14         +11.8% ( 50.2%)      3.0%
 REDUCED MASS        1.3417         C  3 -- C 10          +9.6% ( 45.3%)     11.8%
 EFFECTIVE MASS      8.1566
 FORCE CONSTANT      1.5458

 VIBRATION         44   44A           ATOM PAIR      ENERGY CONTRIBUTION    RADIAL
 FREQUENCY          1450.69         C  1 -- C  9         +11.2% ( 52.2%)     94.7%
 TRANSITION DIPOLE   0.0396         C  4 -- C  6          +8.2% ( 44.7%)     63.8%
 TRAVEL (Ang.)       0.1917         C  1 -- C  5          +8.1% ( 44.4%)     43.0%
 REDUCED MASS        1.2645         C  1 -- C  7          +7.8% ( 43.6%)     71.6%
 EFFECTIVE MASS     10.5932
 FORCE CONSTANT      1.5679

 VIBRATION         45   45A           ATOM PAIR      ENERGY CONTRIBUTION    RADIAL
 FREQUENCY          1486.69         C  4 -- C  6         +16.9% ( 64.2%)     86.3%
 TRANSITION DIPOLE   0.0735         C  2 -- C  6         +11.9% ( 53.9%)     86.8%
 TRAVEL (Ang.)       0.1503         C  1 -- C  9          +9.3% ( 47.7%)     91.5%
 REDUCED MASS        2.0089         C  6 -- C  7          +9.1% ( 47.2%)     15.3%
 EFFECTIVE MASS     11.0201
 FORCE CONSTANT      2.6160

 VIBRATION         46   46A           ATOM PAIR      ENERGY CONTRIBUTION    RADIAL
 FREQUENCY          1852.44         C  9 -- C 10         +31.9% ( 84.1%)    100.0%
 TRANSITION DIPOLE   0.1095         C  1 -- C  9         +10.2% ( 47.6%)     48.5%
 TRAVEL (Ang.)       0.1078         C  3 -- C 10         +10.2% ( 47.4%)     49.4%
 REDUCED MASS        3.1319         C  6 -- C  7          +9.6% ( 46.2%)     97.7%
 EFFECTIVE MASS     11.8881
 FORCE CONSTANT      6.3320

 VIBRATION         47   47A           ATOM PAIR      ENERGY CONTRIBUTION    RADIAL
 FREQUENCY          1868.93         C  6 -- C  7         +32.0% ( 83.5%)     98.0%
 TRANSITION DIPOLE   0.2181         C  4 -- C  6         +13.6% ( 54.4%)     63.4%
 TRAVEL (Ang.)       0.1034         C  2 -- C  6         +12.2% ( 51.6%)      3.7%
 REDUCED MASS        3.3729         C  9 -- C 10         +11.3% ( 49.6%)    100.0%
 EFFECTIVE MASS     11.8721
 FORCE CONSTANT      6.9413

 VIBRATION         48   48A           ATOM PAIR      ENERGY CONTRIBUTION    RADIAL
 FREQUENCY          1932.22         C  5 -- C  8         +41.0% ( 94.6%)     99.2%
 TRANSITION DIPOLE   0.1531         C  2 -- C  5         +16.3% ( 59.6%)     50.7%
 TRAVEL (Ang.)       0.0833         C  1 -- C  5         +15.9% ( 58.9%)     27.1%
 REDUCED MASS        5.0297         C  3 -- C  8         +10.2% ( 47.1%)     40.6%
 EFFECTIVE MASS     11.9217
 FORCE CONSTANT     11.0638

 VIBRATION         49   49A           ATOM PAIR      ENERGY CONTRIBUTION    RADIAL
 FREQUENCY          2844.60         C  1 -- H 11         +97.1% (100.0%)    100.0%
 TRANSITION DIPOLE   0.1049         C  1 -- C  9          +1.0% (  9.9%)      7.6%
 TRAVEL (Ang.)       0.1597         C  1 -- C  5          +1.0% (  9.9%)     10.8%
 REDUCED MASS        0.9297         C  1 -- C  7          +1.0% (  9.9%)      9.4%
 EFFECTIVE MASS      1.4278
 FORCE CONSTANT      4.4326

 VIBRATION         50   50A           ATOM PAIR      ENERGY CONTRIBUTION    RADIAL
 FREQUENCY          2939.49         C  3 -- H 14         +62.7% ( 82.1%)     97.8%
 TRANSITION DIPOLE   0.0370         C  3 -- H 15         +35.0% ( 61.3%)     94.6%
 TRAVEL (Ang.)       0.2032         C  3 -- C  8          +1.1% ( 10.8%)      0.3%
 REDUCED MASS        0.5554         C  3 -- C 10          +1.1% ( 10.8%)      0.2%
 EFFECTIVE MASS      1.5324
 FORCE CONSTANT      2.8273

 VIBRATION         51   51A           ATOM PAIR      ENERGY CONTRIBUTION    RADIAL
 FREQUENCY          2972.44         C  2 -- H 12         +55.4% ( 77.1%)     97.3%
 TRANSITION DIPOLE   0.0505         C  2 -- H 13         +42.4% ( 67.5%)     95.9%
 TRAVEL (Ang.)       0.2076         C  2 -- C  6          +1.1% ( 10.8%)      0.0%
 REDUCED MASS        0.5262         C  2 -- C  5          +1.1% ( 10.8%)      0.0%
 EFFECTIVE MASS      1.5353
 FORCE CONSTANT      2.7394

 VIBRATION         52   52A           ATOM PAIR      ENERGY CONTRIBUTION    RADIAL
 FREQUENCY          3020.00         C  3 -- H 15         +63.7% ( 78.8%)     99.0%
 TRANSITION DIPOLE   0.0867         C  3 -- H 14         +34.0% ( 57.6%)     95.1%
 TRAVEL (Ang.)       0.2087         C  3 -- C 10          +0.7% (  8.2%)     21.7%
 REDUCED MASS        0.5126         C  3 -- C  8          +0.7% (  8.2%)     23.4%
 EFFECTIVE MASS      1.2901
 FORCE CONSTANT      2.7546

 VIBRATION         53   53A           ATOM PAIR      ENERGY CONTRIBUTION    RADIAL
 FREQUENCY          3044.09         C  2 -- H 13         +56.3% ( 74.2%)     98.2%
 TRANSITION DIPOLE   0.1056         C  2 -- H 12         +42.2% ( 64.2%)     96.4%
 TRAVEL (Ang.)       0.2121         C  2 -- C  5          +0.7% (  8.4%)     38.6%
 REDUCED MASS        0.4924         C  2 -- C  6          +0.7% (  8.4%)     36.4%
 EFFECTIVE MASS      1.2858
 FORCE CONSTANT      2.6882

 VIBRATION         54   54A           ATOM PAIR      ENERGY CONTRIBUTION    RADIAL
 FREQUENCY          3059.74         C 10 -- H 22         +66.8% ( 82.9%)    100.0%
 TRANSITION DIPOLE   0.2993         C  9 -- H 19         +30.3% ( 55.8%)    100.0%
 TRAVEL (Ang.)       0.2048         C  9 -- C 10          +1.1% ( 10.7%)      2.1%
 REDUCED MASS        0.5255         C  3 -- C 10          +0.9% (  9.7%)     22.0%
 EFFECTIVE MASS      1.4610
 FORCE CONSTANT      2.8989

 VIBRATION         55   55A           ATOM PAIR      ENERGY CONTRIBUTION    RADIAL
 FREQUENCY          3067.51         C  4 -- H 16         +50.0% ( 72.9%)     97.2%
 TRANSITION DIPOLE   0.0262         C  4 -- H 18         +48.1% ( 71.5%)     96.9%
 TRAVEL (Ang.)       0.2076         C  4 -- C  6          +1.0% ( 10.2%)      0.0%
 REDUCED MASS        0.5098         C  4 -- H 17          +0.9% ( 10.0%)      0.3%
 EFFECTIVE MASS      1.5036
 FORCE CONSTANT      2.8265

 VIBRATION         56   56A           ATOM PAIR      ENERGY CONTRIBUTION    RADIAL
 FREQUENCY          3076.03         C  8 -- H 21         +93.4% ( 98.1%)    100.0%
 TRANSITION DIPOLE   0.3566         C  9 -- H 19          +2.8% ( 17.1%)    100.0%
 TRAVEL (Ang.)       0.1594         C  5 -- C  8          +1.6% ( 12.7%)     41.7%
 REDUCED MASS        0.8632         C  3 -- C  8          +1.4% ( 12.1%)     19.7%
 EFFECTIVE MASS      1.5292
 FORCE CONSTANT      4.8123

 VIBRATION         57   57A           ATOM PAIR      ENERGY CONTRIBUTION    RADIAL
 FREQUENCY          3078.19         C  4 -- H 17         +60.9% ( 80.5%)     98.7%
 TRANSITION DIPOLE   0.0422         C  4 -- H 18         +19.9% ( 46.0%)     86.6%
 TRAVEL (Ang.)       0.2148         C  4 -- H 16         +18.1% ( 43.9%)     85.1%
 REDUCED MASS        0.4748         C  4 -- C  6          +1.0% ( 10.5%)      0.0%
 EFFECTIVE MASS      1.5132
 FORCE CONSTANT      2.6506

 VIBRATION         58   58A           ATOM PAIR      ENERGY CONTRIBUTION    RADIAL
 FREQUENCY          3081.12         C  9 -- H 19         +63.9% ( 81.1%)     99.9%
 TRANSITION DIPOLE   0.2737         C 10 -- H 22         +29.2% ( 54.9%)     99.8%
 TRAVEL (Ang.)       0.2102         C  8 -- H 21          +2.9% ( 17.4%)    100.0%
 REDUCED MASS        0.4953         C  9 -- C 10          +2.0% ( 14.3%)     95.1%
 EFFECTIVE MASS      1.5926
 FORCE CONSTANT      2.7704

 VIBRATION         59   59A           ATOM PAIR      ENERGY CONTRIBUTION    RADIAL
 FREQUENCY          3128.46         C  7 -- H 20         +96.5% ( 99.9%)    100.0%
 TRANSITION DIPOLE   0.3772         C  6 -- C  7          +1.8% ( 13.6%)     49.6%
 TRAVEL (Ang.)       0.1523         C  1 -- C  7          +1.6% ( 13.0%)     23.3%
 REDUCED MASS        0.9286
 EFFECTIVE MASS      1.5555
 FORCE CONSTANT      5.3549

 VIBRATION         60   60A           ATOM PAIR      ENERGY CONTRIBUTION    RADIAL
 FREQUENCY          3166.16         C  4 -- H 17         +38.0% ( 59.4%)     97.7%
 TRANSITION DIPOLE   0.0608         C  4 -- H 18         +30.9% ( 53.6%)     96.7%
 TRAVEL (Ang.)       0.2542         C  4 -- H 16         +30.8% ( 53.5%)     96.7%
 REDUCED MASS        0.3297         C  4 -- C  6          +0.3% (  5.5%)     99.3%
 EFFECTIVE MASS      1.1396
 FORCE CONSTANT      1.9474

      SYMMETRY NUMBER FOR POINT-GROUP C1  =  1


          SYSTEM IS A GROUND STATE



 InChI=1S/C10H12/c1-8-6-9-4-2-3-5-10(9)7-8/h2,4-6,9H,3,7H2,1H3


          MOLECULE IS NOT LINEAR

          THERE ARE 60 GENUINE VIBRATIONS IN THIS SYSTEM
          THIS THERMODYNAMICS CALCULATION IS LIMITED TO
          MOLECULES WHICH HAVE NO INTERNAL ROTATIONS




                    CALCULATED THERMODYNAMIC PROPERTIES
                                          *
   TEMP. (K)   PARTITION FUNCTION   H.O.F.    ENTHALPY  HEAT CAPACITY ENTROPY
                                   KCAL/MOL   CAL/MOLE    CAL/K/MOL  CAL/K/MOL


 298.00  VIB.     0.9886D+02                  3768.3987    29.1078    21.7742
         ROT.     0.5521D+06                   888.2803     2.9808    29.2548
         INT.     0.5458D+08                  4656.6790    32.0886    51.0290
         TRA.     0.1470D+28                  1480.4672     4.9680    40.5480
         TOT.                       30.169    6137.1462    37.0566    91.5770

 200.00  VIB.     0.1359D+02                  1519.2517    17.1043    12.7811
         ROT.     0.3036D+06                   596.1613     2.9808    28.0661
         INT.     0.4125D+07                  2115.4129    20.0851    40.8472
         TRA.     0.8080D+27                   993.6021     4.9680    38.5668
         TOT.                       27.141    3109.0151    25.0531    79.4140

 210.00  VIB.     0.1647D+02                  1695.8767    18.2260    13.6427
         ROT.     0.3266D+06                   625.9693     2.9808    28.2115
         INT.     0.5379D+07                  2321.8460    21.2068    41.8542
         TRA.     0.8694D+27                  1043.2822     4.9680    38.8092
         TOT.                       27.397    3365.1282    26.1748    80.6634

 220.00  VIB.     0.2001D+02                  1883.8728    19.3782    14.5170
         ROT.     0.3502D+06                   655.7774     2.9808    28.3502
         INT.     0.7008D+07                  2539.6502    22.3590    42.8672
         TRA.     0.9322D+27                  1092.9623     4.9680    39.0403
         TOT.                       27.665    3632.6126    27.3270    81.9075

 230.00  VIB.     0.2437D+02                  2083.5365    20.5591    15.4044
         ROT.     0.3744D+06                   685.5855     2.9808    28.4827
         INT.     0.9122D+07                  2769.1220    23.5399    43.8871
         TRA.     0.9965D+27                  1142.6424     4.9680    39.2612
         TOT.                       27.944    3911.7645    28.5079    83.1482

 240.00  VIB.     0.2974D+02                  2295.1410    21.7659    16.3048
         ROT.     0.3991D+06                   715.3935     2.9808    28.6096
         INT.     0.1187D+08                  3010.5345    24.7467    44.9143
         TRA.     0.1062D+28                  1192.3226     4.9680    39.4726
         TOT.                       28.235    4202.8570    29.7147    84.3869

 250.00  VIB.     0.3639D+02                  2518.9309    22.9956    17.2181
         ROT.     0.4243D+06                   745.2016     2.9808    28.7312
         INT.     0.1544D+08                  3264.1325    25.9764    45.9494
         TRA.     0.1129D+28                  1242.0027     4.9680    39.6754
         TOT.                       28.538    4506.1351    30.9445    85.6248

 260.00  VIB.     0.4462D+02                  2755.1188    24.2449    18.1443
         ROT.     0.4500D+06                   775.0097     2.9808    28.8481
         INT.     0.2008D+08                  3530.1285    27.2257    46.9925
         TRA.     0.1198D+28                  1291.6828     4.9680    39.8703
         TOT.                       28.854    4821.8113    32.1937    86.8627

 270.00  VIB.     0.5484D+02                  3003.8828    25.5102    19.0830
         ROT.     0.4762D+06                   804.8177     2.9808    28.9606
         INT.     0.2611D+08                  3808.7005    28.4910    48.0437
         TRA.     0.1267D+28                  1341.3629     4.9680    40.0578
         TOT.                       29.182    5150.0634    33.4591    88.1014

 280.00  VIB.     0.6755D+02                  3265.3649    26.7880    20.0338
         ROT.     0.5029D+06                   834.6258     2.9808    29.0690
         INT.     0.3397D+08                  4099.9907    29.7688    49.1029
         TRA.     0.1338D+28                  1391.0430     4.9680    40.2384
         TOT.                       29.523    5491.0336    34.7368    89.3413

 290.00  VIB.     0.8339D+02                  3539.6713    28.0745    20.9963
         ROT.     0.5301D+06                   864.4339     2.9808    29.1736
         INT.     0.4420D+08                  4404.1051    31.0553    50.1699
         TRA.     0.1411D+28                  1440.7231     4.9680    40.4128
         TOT.                       29.877    5844.8282    36.0233    90.5827

 300.00  VIB.     0.1032D+03                  3826.8729    29.3664    21.9698
         ROT.     0.5577D+06                   894.2419     2.9808    29.2747
         INT.     0.5754D+08                  4721.1148    32.3472    51.2445
         TRA.     0.1484D+28                  1490.4032     4.9680    40.5812
         TOT.                       30.244    6211.5180    37.3153    91.8257

 310.00  VIB.     0.1279D+03                  4127.0069    30.6604    22.9538
         ROT.     0.5858D+06                   924.0500     2.9808    29.3724
         INT.     0.7495D+08                  5051.0569    33.6412    52.3263
         TRA.     0.1559D+28                  1540.0833     4.9680    40.7441
         TOT.                       30.623    6591.1402    38.6093    93.0704

 320.00  VIB.     0.1590D+03                  4440.0782    31.9534    23.9477
         ROT.     0.6144D+06                   953.8580     2.9808    29.4671
         INT.     0.9767D+08                  5393.9362    34.9342    53.4148
         TRA.     0.1635D+28                  1589.7634     4.9680    40.9018
         TOT.                       31.016    6983.6996    39.9022    94.3166

 330.00  VIB.     0.1979D+03                  4766.0621    33.2425    24.9507
         ROT.     0.6434D+06                   983.6661     2.9808    29.5588
         INT.     0.1273D+09                  5749.7283    36.2233    54.5095
         TRA.     0.1713D+28                  1639.4435     4.9680    41.0547
         TOT.                       31.421    7389.1718    41.1913    95.5642

 340.00  VIB.     0.2469D+03                  5104.9066    34.5251    25.9621
         ROT.     0.6729D+06                  1013.4742     2.9808    29.6478
         INT.     0.1662D+09                  6118.3808    37.5059    55.6099
         TRA.     0.1791D+28                  1689.1236     4.9680    41.2030
         TOT.                       31.840    7807.5044    42.4739    96.8129

 350.00  VIB.     0.3087D+03                  5456.5348    35.7989    26.9813
         ROT.     0.7028D+06                  1043.2822     2.9808    29.7342
         INT.     0.2169D+09                  6499.8170    38.7797    56.7155
         TRA.     0.1871D+28                  1738.8037     4.9680    41.3470
         TOT.                       32.271    8238.6208    43.7477    98.0625

 360.00  VIB.     0.3866D+03                  5820.8476    37.0617    28.0076
         ROT.     0.7331D+06                  1073.0903     2.9808    29.8182
         INT.     0.2834D+09                  6893.9379    40.0425    57.8257
         TRA.     0.1951D+28                  1788.4838     4.9680    41.4870
         TOT.                       32.715    8682.4218    45.0105    99.3127

 370.00  VIB.     0.4851D+03                  6197.7265    38.3118    29.0401
         ROT.     0.7639D+06                  1102.8984     2.9808    29.8998
         INT.     0.3705D+09                  7300.6249    41.2926    58.9399
         TRA.     0.2033D+28                  1838.1639     4.9680    41.6231
         TOT.                       33.171    9138.7888    46.2606   100.5630

 380.00  VIB.     0.6097D+03                  6587.0358    39.5476    30.0782
         ROT.     0.7951D+06                  1132.7064     2.9808    29.9793
         INT.     0.4848D+09                  7719.7423    42.5284    60.0576
         TRA.     0.2116D+28                  1887.8440     4.9680    41.7556
         TOT.                       33.640    9607.5863    47.4964   101.8131

 390.00  VIB.     0.7677D+03                  6988.6253    40.7676    31.1213
         ROT.     0.8267D+06                  1162.5145     2.9808    30.0568
         INT.     0.6346D+09                  8151.1398    43.7484    61.1781
         TRA.     0.2200D+28                  1937.5242     4.9680    41.8846
         TOT.                       34.121   10088.6640    48.7164   103.0627

 400.00  VIB.     0.9682D+03                  7402.3322    41.9709    32.1687
         ROT.     0.8587D+06                  1192.3226     2.9808    30.1322
         INT.     0.8313D+09                  8594.6548    44.9517    62.3009
         TRA.     0.2285D+28                  1987.2043     4.9680    42.0104
         TOT.                       34.614   10581.8591    49.9197   104.3113

   *: NOTE: HEATS OF FORMATION ARE RELATIVE TO THE
            ELEMENTS IN THEIR STANDARD STATE AT 298K
              (=  Standard Enthalpy of Formation).

            Hvib:  Zero-point energy is not included.
                   frequencies of less than zero cm-1 are not included.
            Hrot = (3/2)RT
            Htra = (3/2)RT + pV = (5/2)RT

            Heat capacity is Cp, not Cv

          For more information, see: HTTP://OpenMOPAC.net/Manual/thermochemistry.html


           FORCE CONSTANT IN CARTESIAN COORDINATES (Millidynes/A)

    ATOM   CHEMICAL       X               Y               Z
   NUMBER   SYMBOL  FORCE CONSTANT  FORCE CONSTANT  FORCE CONSTANT

      1       C        9.832991        9.162493        7.635944
      2       C        9.716081        8.028737        7.858421
      3       C        8.759556        9.159899        7.823786
      4       C        8.665086        8.896418        8.122942
      5       C        8.737939       16.747567        2.899862
      6       C       15.209881        9.228918        3.820685
      7       C       14.868397        8.761775        3.611350
      8       C        9.555839       15.258656        2.442548
      9       C        7.248275       15.132522        4.877759
     10       C        7.358943       15.036798        4.637814
     11       H        1.118035        0.758861        3.814228
     12       H        1.415015        0.728005        4.127142
     13       H        2.679519        1.341864        2.321365
     14       H        1.173013        0.783041        4.173294
     15       H        0.770785        3.872892        1.667467
     16       H        2.036143        1.109596        3.486210
     17       H        2.018632        3.454324        1.260683
     18       H        2.400488        1.198724        3.039857
     19       H        2.468758        2.173014        1.631907
     20       H        2.385325        3.089766        0.937330
     21       H        3.697981        2.217117        0.358685
     22       H        3.010551        1.769597        1.490143

 **********************
 *                    *
 * JOB ENDED NORMALLY *
 *                    *
 **********************



 TOTAL JOB TIME:             3.56 SECONDS

 == MOPAC DONE ==
