 *******************************************************************************
 **                                                                           **
 **                              MOPAC v23.1.2                                **
 **                                                                           **
 *******************************************************************************
 **          Digital Object Identifier (DOI): 10.5281/zenodo.6511958          **
 **    Visit the DOI location for information on how to cite this program.    **
 *******************************************************************************

                              PM3 CALCULATION RESULTS

 *******************************************************************************
 *  CALCULATION DONE: (MAX THREADS = 1)              Tue Jun  3 16:27:53 2025  *
 *  PM3        - The PM3 Hamiltonian to be used
 *  PRECISE    - TIGHTER CRITERIA TO BE USED
 *  NOSYM      - POINT-GROUP SYMMETRY SET TO C1
 *  THREADS=1  - MULTI-THREADING NOT USED
 *  T=         - A TIME OF 172800.0 SECONDS REQUESTED
 *  DUMP=N     - RESTART FILE WRITTEN EVERY 7200.0 SECONDS REQUESTED
 *******************************************************************************
pm3  precise nosym THREADS=1
 InChI=1S/C10H10/c1-8-6-7-9-4-2-3-5-10(8)9/h2-5,7,10H,1,6H2

   ATOM   CHEMICAL          X               Y               Z
  NUMBER   SYMBOL      (ANGSTROMS)     (ANGSTROMS)     (ANGSTROMS)

     1       C          0.18630000  *  -0.40830000  *   0.59630000  *
     2       C          1.72210000  *   1.15360000  *  -0.54330000  *
     3       C          1.49950000  *  -0.26120000  *  -0.10490000  *
     4       C         -0.40680000  *   0.94370000  *   0.38950000  *
     5       C          0.42640000  *   1.79950000  *  -0.18670000  *
     6       C         -0.72930000  *  -1.46800000  *   0.02750000  *
     7       C         -1.86050000  *   1.13380000  *   0.46770000  *
     8       C         -2.05750000  *  -1.26480000  *  -0.02350000  *
     9       C         -2.64550000  *   0.06410000  *   0.28750000  *
    10       C          2.40980000  *  -1.23290000  *  -0.22960000  *
    11       H          0.34790000  *  -0.59210000  *   1.68030000  *
    12       H          1.88850000  *   1.20180000  *  -1.64040000  *
    13       H          2.56140000  *   1.62070000  *   0.01420000  *
    14       H          0.14010000  *   2.79170000  *  -0.51220000  *
    15       H         -0.33350000  *  -2.44820000  *  -0.20700000  *
    16       H         -3.72140000  *   0.18110000  *   0.29160000  *
    17       H         -2.28950000  *   2.12130000  *   0.58290000  *
    18       H         -2.71080000  *  -2.07130000  *  -0.33040000  *
    19       H          3.36100000  *  -1.03620000  *  -0.71420000  *
    20       H          2.21180000  *  -2.22840000  *   0.15460000  *



          CARTESIAN COORDINATES 

    NO.       ATOM           X           Y           Z

     1         C          0.1863     -0.4083      0.5963
     2         C          1.7221      1.1536     -0.5433
     3         C          1.4995     -0.2612     -0.1049
     4         C         -0.4068      0.9437      0.3895
     5         C          0.4264      1.7995     -0.1867
     6         C         -0.7293     -1.4680      0.0275
     7         C         -1.8605      1.1338      0.4677
     8         C         -2.0575     -1.2648     -0.0235
     9         C         -2.6455      0.0641      0.2875
    10         C          2.4098     -1.2329     -0.2296
    11         H          0.3479     -0.5921      1.6803
    12         H          1.8885      1.2018     -1.6404
    13         H          2.5614      1.6207      0.0142
    14         H          0.1401      2.7917     -0.5122
    15         H         -0.3335     -2.4482     -0.2070
    16         H         -3.7214      0.1811      0.2916
    17         H         -2.2895      2.1213      0.5829
    18         H         -2.7108     -2.0713     -0.3304
    19         H          3.3610     -1.0362     -0.7142
    20         H          2.2118     -2.2284      0.1546

  H: (PM3): J. J. P. STEWART, J. COMP. CHEM. 10, 209 (1989).
  C: (PM3): J. J. P. STEWART, J. COMP. CHEM. 10, 209 (1989).

           Empirical Formula: C10 H10  =    20 atoms



      MOLECULAR POINT GROUP   :   C1  


      RHF CALCULATION, NO. OF DOUBLY OCCUPIED LEVELS = 25


          Geometry optimization using EF

          DIAGONAL MATRIX USED AS START HESSIAN

 CYCLE:     1 TIME:   0.008 TIME LEFT:  2.00D  GRAD.:   105.880 HEAT:  65.40068
 CYCLE:     2 TIME:   0.016 TIME LEFT:  2.00D  GRAD.:    63.888 HEAT:  63.37106
 CYCLE:     3 TIME:   0.008 TIME LEFT:  2.00D  GRAD.:    61.448 HEAT:  62.70692
 CYCLE:     4 TIME:   0.004 TIME LEFT:  2.00D  GRAD.:    34.754 HEAT:  61.76851
 CYCLE:     5 TIME:   0.008 TIME LEFT:  2.00D  GRAD.:    65.561 HEAT:  61.71689
 CYCLE:     6 TIME:   0.008 TIME LEFT:  2.00D  GRAD.:    52.958 HEAT:  61.39668
 CYCLE:     7 TIME:   0.008 TIME LEFT:  2.00D  GRAD.:    32.101 HEAT:  60.80415
 CYCLE:     8 TIME:   0.012 TIME LEFT:  2.00D  GRAD.:    31.503 HEAT:  60.69675
 CYCLE:     9 TIME:   0.008 TIME LEFT:  2.00D  GRAD.:    26.868 HEAT:  60.57081
 CYCLE:    10 TIME:   0.008 TIME LEFT:  2.00D  GRAD.:    24.224 HEAT:  60.47866
 CYCLE:    11 TIME:   0.004 TIME LEFT:  2.00D  GRAD.:    16.868 HEAT:  60.36911
 CYCLE:    12 TIME:   0.012 TIME LEFT:  2.00D  GRAD.:    19.167 HEAT:  60.32060
 CYCLE:    13 TIME:   0.008 TIME LEFT:  2.00D  GRAD.:    12.849 HEAT:  60.25169
 CYCLE:    14 TIME:   0.004 TIME LEFT:  2.00D  GRAD.:    13.243 HEAT:  60.20082
 CYCLE:    15 TIME:   0.008 TIME LEFT:  2.00D  GRAD.:    14.363 HEAT:  60.15448
 CYCLE:    16 TIME:   0.012 TIME LEFT:  2.00D  GRAD.:    13.408 HEAT:  60.12674
 CYCLE:    17 TIME:   0.004 TIME LEFT:  2.00D  GRAD.:     9.658 HEAT:  60.06979
 CYCLE:    18 TIME:   0.008 TIME LEFT:  2.00D  GRAD.:    11.448 HEAT:  60.04506
 CYCLE:    19 TIME:   0.008 TIME LEFT:  2.00D  GRAD.:    10.046 HEAT:  60.00542
 CYCLE:    20 TIME:   0.008 TIME LEFT:  2.00D  GRAD.:    10.142 HEAT:  59.97984
 CYCLE:    21 TIME:   0.008 TIME LEFT:  2.00D  GRAD.:     8.374 HEAT:  59.94564
 CYCLE:    22 TIME:   0.004 TIME LEFT:  2.00D  GRAD.:     6.520 HEAT:  59.92758
 CYCLE:    23 TIME:   0.008 TIME LEFT:  2.00D  GRAD.:     5.481 HEAT:  59.90773
 CYCLE:    24 TIME:   0.008 TIME LEFT:  2.00D  GRAD.:     5.404 HEAT:  59.89490
 CYCLE:    25 TIME:   0.008 TIME LEFT:  2.00D  GRAD.:     4.249 HEAT:  59.87769
 CYCLE:    26 TIME:   0.004 TIME LEFT:  2.00D  GRAD.:     3.072 HEAT:  59.85876
 CYCLE:    27 TIME:   0.008 TIME LEFT:  2.00D  GRAD.:     4.716 HEAT:  59.84647
 CYCLE:    28 TIME:   0.008 TIME LEFT:  2.00D  GRAD.:     3.314 HEAT:  59.83339
 CYCLE:    29 TIME:   0.008 TIME LEFT:  2.00D  GRAD.:     2.578 HEAT:  59.82395
 CYCLE:    30 TIME:   0.004 TIME LEFT:  2.00D  GRAD.:     2.976 HEAT:  59.81396
 CYCLE:    31 TIME:   0.008 TIME LEFT:  2.00D  GRAD.:     2.981 HEAT:  59.80741
 CYCLE:    32 TIME:   0.008 TIME LEFT:  2.00D  GRAD.:     2.091 HEAT:  59.79918
 CYCLE:    33 TIME:   0.008 TIME LEFT:  2.00D  GRAD.:     2.056 HEAT:  59.78921
 CYCLE:    34 TIME:   0.004 TIME LEFT:  2.00D  GRAD.:     2.235 HEAT:  59.78250
 CYCLE:    35 TIME:   0.008 TIME LEFT:  2.00D  GRAD.:     2.112 HEAT:  59.77403
 CYCLE:    36 TIME:   0.008 TIME LEFT:  2.00D  GRAD.:     2.061 HEAT:  59.76727
 CYCLE:    37 TIME:   0.008 TIME LEFT:  2.00D  GRAD.:     1.911 HEAT:  59.76080
 CYCLE:    38 TIME:   0.004 TIME LEFT:  2.00D  GRAD.:     1.697 HEAT:  59.75165
 CYCLE:    39 TIME:   0.008 TIME LEFT:  2.00D  GRAD.:     1.461 HEAT:  59.74608
 CYCLE:    40 TIME:   0.008 TIME LEFT:  2.00D  GRAD.:     1.385 HEAT:  59.74192
 CYCLE:    41 TIME:   0.004 TIME LEFT:  2.00D  GRAD.:     1.298 HEAT:  59.73881
 CYCLE:    42 TIME:   0.008 TIME LEFT:  2.00D  GRAD.:     1.051 HEAT:  59.73598
 CYCLE:    43 TIME:   0.008 TIME LEFT:  2.00D  GRAD.:     0.909 HEAT:  59.73325
 CYCLE:    44 TIME:   0.008 TIME LEFT:  2.00D  GRAD.:     0.934 HEAT:  59.73101
 CYCLE:    45 TIME:   0.004 TIME LEFT:  2.00D  GRAD.:     0.901 HEAT:  59.72886
 CYCLE:    46 TIME:   0.008 TIME LEFT:  2.00D  GRAD.:     0.666 HEAT:  59.72730
 CYCLE:    47 TIME:   0.008 TIME LEFT:  2.00D  GRAD.:     0.611 HEAT:  59.72597
 CYCLE:    48 TIME:   0.004 TIME LEFT:  2.00D  GRAD.:     0.599 HEAT:  59.72502
 CYCLE:    49 TIME:   0.008 TIME LEFT:  2.00D  GRAD.:     0.490 HEAT:  59.72428
 CYCLE:    50 TIME:   0.008 TIME LEFT:  2.00D  GRAD.:     0.397 HEAT:  59.72379
 CYCLE:    51 TIME:   0.008 TIME LEFT:  2.00D  GRAD.:     0.366 HEAT:  59.72345
 CYCLE:    52 TIME:   0.004 TIME LEFT:  2.00D  GRAD.:     0.350 HEAT:  59.72316
 CYCLE:    53 TIME:   0.008 TIME LEFT:  2.00D  GRAD.:     0.308 HEAT:  59.72292
 CYCLE:    54 TIME:   0.008 TIME LEFT:  2.00D  GRAD.:     0.242 HEAT:  59.72272
 CYCLE:    55 TIME:   0.004 TIME LEFT:  2.00D  GRAD.:     0.218 HEAT:  59.72258
 CYCLE:    56 TIME:   0.008 TIME LEFT:  2.00D  GRAD.:     0.198 HEAT:  59.72247
 CYCLE:    57 TIME:   0.008 TIME LEFT:  2.00D  GRAD.:     0.159 HEAT:  59.72241
 CYCLE:    58 TIME:   0.004 TIME LEFT:  2.00D  GRAD.:     0.157 HEAT:  59.72237
 CYCLE:    59 TIME:   0.008 TIME LEFT:  2.00D  GRAD.:     0.097 HEAT:  59.72233
 CYCLE:    60 TIME:   0.004 TIME LEFT:  2.00D  GRAD.:     0.074 HEAT:  59.72231
 CYCLE:    61 TIME:   0.008 TIME LEFT:  2.00D  GRAD.:     0.086 HEAT:  59.72230
 CYCLE:    62 TIME:   0.008 TIME LEFT:  2.00D  GRAD.:     0.059 HEAT:  59.72229
 CYCLE:    63 TIME:   0.004 TIME LEFT:  2.00D  GRAD.:     0.085 HEAT:  59.72228
 CYCLE:    64 TIME:   0.008 TIME LEFT:  2.00D  GRAD.:     0.041 HEAT:  59.72227

     GRADIENT =  0.04103 IS LESS THAN CUTOFF =  0.05000



 -------------------------------------------------------------------------------
 pm3  precise nosym THREADS=1
 InChI=1S/C10H10/c1-8-6-7-9-4-2-3-5-10(8)9/h2-5,7,10H,1,6H2



     GEOMETRY OPTIMISED USING EIGENVECTOR FOLLOWING (EF).     
     SCF FIELD WAS ACHIEVED                                   


                              PM3 CALCULATION
                                                       MOPAC v23.1.2 MacOS
                                                       Tue Jun  3 16:27:54 2025




          FINAL HEAT OF FORMATION =         59.72227 KCAL/MOL =     249.87800 KJ/MOL


          COSMO AREA              =        170.16 SQUARE ANGSTROMS
          COSMO VOLUME            =        172.47 CUBIC ANGSTROMS

          GRADIENT NORM           =          0.04103          =       0.00917 PER ATOM
          IONIZATION POTENTIAL    =          8.602809 EV
          HOMO LUMO ENERGIES (EV) =         -8.603 -0.203
          NO. OF FILLED LEVELS    =         25
          MOLECULAR WEIGHT        =        130.1890         POINT GROUP:  C1  

          MOLECULAR DIMENSIONS (Angstroms)

            Atom       Atom       Distance
            H    19    H    16     7.27893
            H    18    H    14     5.40343
            H    11    H    12     2.91280


          SCF CALCULATIONS        =         71

          WALL-CLOCK TIME         =      0.473 SECONDS
          COMPUTATION TIME        =      0.298 SECONDS




   ATOM   CHEMICAL          X               Y               Z
  NUMBER   SYMBOL      (ANGSTROMS)     (ANGSTROMS)     (ANGSTROMS)

     1       C          0.16343144  *  -0.37358890  *   0.54914464  *
     2       C          1.76652890  *   1.17550767  *  -0.44952610  *
     3       C          1.52322108  *  -0.26942252  *  -0.09541076  *
     4       C         -0.45560211  *   0.97702156  *   0.27093743  *
     5       C          0.44088357  *   1.84226470  *  -0.23347773  *
     6       C         -0.73269804  *  -1.47691604  *   0.10458903  *
     7       C         -1.88835085  *   1.11668668  *   0.42396964  *
     8       C         -2.05806376  *  -1.28086886  *   0.02286690  *
     9       C         -2.65407429  *   0.01659795  *   0.29968736  *
    10       C          2.37379452  *  -1.26581920  *  -0.30622831  *
    11       H          0.30861714  *  -0.49395476  *   1.65335807  *
    12       H          2.10696815  *   1.29331091  *  -1.49503943  *
    13       H          2.55277103  *   1.61742974  *   0.19135124  *
    14       H          0.26836496  *   2.88308618  *  -0.50351591  *
    15       H         -0.26951909  *  -2.44463660  *  -0.11474381  *
    16       H         -3.74427374  *   0.06688691  *   0.38225905  *
    17       H         -2.30483577  *   2.11407288  *   0.59282461  *
    18       H         -2.73473342  *  -2.09327134  *  -0.26144735  *
    19       H          3.34562032  *  -1.11533097  *  -0.76603390  *
    20       H          2.15238845  *  -2.29396958  *  -0.03529688  *

                             CARTESIAN COORDINATES

   1    C        0.163431436    -0.373588904     0.549144636
   2    C        1.766528899     1.175507675    -0.449526099
   3    C        1.523221082    -0.269422519    -0.095410755
   4    C       -0.455602110     0.977021563     0.270937428
   5    C        0.440883565     1.842264704    -0.233477726
   6    C       -0.732698040    -1.476916043     0.104589030
   7    C       -1.888350851     1.116686684     0.423969636
   8    C       -2.058063762    -1.280868858     0.022866904
   9    C       -2.654074287     0.016597953     0.299687356
  10    C        2.373794522    -1.265819199    -0.306228313
  11    H        0.308617137    -0.493954764     1.653358066
  12    H        2.106968148     1.293310913    -1.495039427
  13    H        2.552771029     1.617429744     0.191351245
  14    H        0.268364963     2.883086181    -0.503515912
  15    H       -0.269519088    -2.444636602    -0.114743810
  16    H       -3.744273740     0.066886906     0.382259050
  17    H       -2.304835767     2.114072882     0.592824605
  18    H       -2.734733421    -2.093271340    -0.261447348
  19    H        3.345620321    -1.115330966    -0.766033902
  20    H        2.152388455    -2.293969578    -0.035296877


           Empirical Formula: C10 H10  =    20 atoms



      MOLECULAR POINT GROUP   :   C1  


                  EIGENVALUES  
 -41.52227 -35.35364 -31.66550 -28.57264 -27.21748 -23.50905 -21.45211 -19.75779
 -18.82562 -17.22198 -17.03381 -16.06438 -15.59120 -14.92849 -14.47162 -14.31242
 -13.72002 -13.48499 -13.19545 -12.20292 -12.09627 -11.60461 -10.41469  -9.92230
  -8.60281  -0.20317   1.05189   1.22565   2.19589   3.12899   3.17626   3.33992
   3.43548   3.55005   3.68033   3.86416   3.95161   4.03346   4.23359   4.38576
   4.47721   4.53117   4.86230   5.05536   5.39770   5.48699   5.62311   5.95104
   6.18551   6.23843


              NET ATOMIC CHARGES AND DIPOLE CONTRIBUTIONS

  ATOM NO.   TYPE          CHARGE      No. of ELECS.   s-Pop       p-Pop       
    1          C           0.027994        3.9720     1.14258     2.82942
    2          C          -0.024745        4.0247     1.14117     2.88358
    3          C          -0.106652        4.1067     1.20579     2.90086
    4          C          -0.101135        4.1011     1.18955     2.91159
    5          C          -0.137362        4.1374     1.19971     2.93765
    6          C          -0.116493        4.1165     1.19536     2.92114
    7          C          -0.077828        4.0778     1.17385     2.90398
    8          C          -0.117723        4.1177     1.18007     2.93765
    9          C          -0.098668        4.0987     1.18146     2.91721
   10          C          -0.168490        4.1685     1.17536     2.99313
   11          H           0.086596        0.9134     0.91340
   12          H           0.065321        0.9347     0.93468
   13          H           0.065761        0.9342     0.93424
   14          H           0.116002        0.8840     0.88400
   15          H           0.106124        0.8939     0.89388
   16          H           0.101231        0.8988     0.89877
   17          H           0.105930        0.8941     0.89407
   18          H           0.101917        0.8981     0.89808
   19          H           0.085946        0.9141     0.91405
   20          H           0.086274        0.9137     0.91373
 DIPOLE           X         Y         Z       TOTAL
 POINT-CHG.     0.127     0.152     0.043     0.203
 HYBRID         0.038    -0.020    -0.016     0.046
 SUM            0.166     0.131     0.028     0.213


          ATOMIC ORBITAL ELECTRON POPULATIONS

     Atom    s        px        py        pz   
    1  C   1.14258   0.91376   0.92581   0.98986
    2  C   1.14117   0.95732   0.92092   1.00533
    3  C   1.20579   0.95637   0.95953   0.98495
    4  C   1.18955   0.94418   0.95858   1.00883
    5  C   1.19971   0.95545   0.98447   0.99773
    6  C   1.19536   0.95141   0.97920   0.99052
    7  C   1.17385   0.92573   0.97626   1.00199
    8  C   1.18007   0.95548   0.96510   1.01707
    9  C   1.18146   0.98007   0.93764   0.99950
   10  C   1.17536   0.98786   0.97655   1.02871
   11  H   0.91340
   12  H   0.93468
   13  H   0.93424
   14  H   0.88400
   15  H   0.89388
   16  H   0.89877
   17  H   0.89407
   18  H   0.89808
   19  H   0.91405
   20  H   0.91373
 *******************************************************************************
 **                                                                           **
 **                              MOPAC v23.1.2                                **
 **                                                                           **
 *******************************************************************************
 **          Digital Object Identifier (DOI): 10.5281/zenodo.6511958          **
 **    Visit the DOI location for information on how to cite this program.    **
 *******************************************************************************

                              PM3 CALCULATION RESULTS

 *******************************************************************************
 *  CALCULATION DONE: (MAX THREADS = 1)              Tue Jun  3 16:27:54 2025  *
 *  PM3        - The PM3 Hamiltonian to be used
 *  OLDGEO     - PREVIOUS GEOMETRY TO BE USED
 *  PRECISE    - TIGHTER CRITERIA TO BE USED
 *  NOSYM      - POINT-GROUP SYMMETRY SET TO C1
 *  THREADS=1  - MULTI-THREADING NOT USED
 *  T=         - A TIME OF 172800.0 SECONDS REQUESTED
 *  DUMP=N     - RESTART FILE WRITTEN EVERY 7200.0 SECONDS REQUESTED
 *  THERMO     - THERMODYNAMIC QUANTITIES TO BE CALCULATED
 *******************************************************************************
oldgeo thermo nosym precise THREADS=1  pm3
 InChI=1S/C10H10/c1-8-6-7-9-4-2-3-5-10(8)9/h2-5,7,10H,1,6H2

   ATOM   CHEMICAL          X               Y               Z
  NUMBER   SYMBOL      (ANGSTROMS)     (ANGSTROMS)     (ANGSTROMS)

     1       C          0.16343144  *  -0.37358890  *   0.54914464  *
     2       C          1.76652890  *   1.17550767  *  -0.44952610  *
     3       C          1.52322108  *  -0.26942252  *  -0.09541076  *
     4       C         -0.45560211  *   0.97702156  *   0.27093743  *
     5       C          0.44088357  *   1.84226470  *  -0.23347773  *
     6       C         -0.73269804  *  -1.47691604  *   0.10458903  *
     7       C         -1.88835085  *   1.11668668  *   0.42396964  *
     8       C         -2.05806376  *  -1.28086886  *   0.02286690  *
     9       C         -2.65407429  *   0.01659795  *   0.29968736  *
    10       C          2.37379452  *  -1.26581920  *  -0.30622831  *
    11       H          0.30861714  *  -0.49395476  *   1.65335807  *
    12       H          2.10696815  *   1.29331091  *  -1.49503943  *
    13       H          2.55277103  *   1.61742974  *   0.19135124  *
    14       H          0.26836496  *   2.88308618  *  -0.50351591  *
    15       H         -0.26951909  *  -2.44463660  *  -0.11474381  *
    16       H         -3.74427374  *   0.06688691  *   0.38225905  *
    17       H         -2.30483577  *   2.11407288  *   0.59282461  *
    18       H         -2.73473342  *  -2.09327134  *  -0.26144735  *
    19       H          3.34562032  *  -1.11533097  *  -0.76603390  *
    20       H          2.15238845  *  -2.29396958  *  -0.03529688  *



          CARTESIAN COORDINATES 

    NO.       ATOM           X           Y           Z

     1         C          0.1634     -0.3736      0.5491
     2         C          1.7665      1.1755     -0.4495
     3         C          1.5232     -0.2694     -0.0954
     4         C         -0.4556      0.9770      0.2709
     5         C          0.4409      1.8423     -0.2335
     6         C         -0.7327     -1.4769      0.1046
     7         C         -1.8884      1.1167      0.4240
     8         C         -2.0581     -1.2809      0.0229
     9         C         -2.6541      0.0166      0.2997
    10         C          2.3738     -1.2658     -0.3062
    11         H          0.3086     -0.4940      1.6534
    12         H          2.1070      1.2933     -1.4950
    13         H          2.5528      1.6174      0.1914
    14         H          0.2684      2.8831     -0.5035
    15         H         -0.2695     -2.4446     -0.1147
    16         H         -3.7443      0.0669      0.3823
    17         H         -2.3048      2.1141      0.5928
    18         H         -2.7347     -2.0933     -0.2614
    19         H          3.3456     -1.1153     -0.7660
    20         H          2.1524     -2.2940     -0.0353

  H: (PM3): J. J. P. STEWART, J. COMP. CHEM. 10, 209 (1989).
  C: (PM3): J. J. P. STEWART, J. COMP. CHEM. 10, 209 (1989).

           Empirical Formula: C10 H10  =    20 atoms



      MOLECULAR POINT GROUP   :   C1  


      RHF CALCULATION, NO. OF DOUBLY OCCUPIED LEVELS = 25



          HEAT OF FORMATION =      59.722274 KCALS/MOLE


          CARTESIAN COORDINATE DERIVATIVES

   NUMBER  ATOM         X            Y            Z

     1       C     -0.000725    -0.003164     0.001438
     2       C      0.004305     0.000995    -0.001010
     3       C      0.002067     0.002460    -0.000848
     4       C      0.000524    -0.003542     0.003732
     5       C     -0.001018     0.000306    -0.003374
     6       C     -0.001077    -0.004407     0.006297
     7       C     -0.000375    -0.000504     0.005733
     8       C     -0.008116    -0.004076     0.007322
     9       C      0.005864     0.003759    -0.000455
    10       C      0.007121     0.003579    -0.002233
    11       H      0.008706     0.001226    -0.003993
    12       H     -0.003763     0.002365    -0.004764
    13       H      0.002764     0.006117    -0.000728
    14       H     -0.004819    -0.003947    -0.002290
    15       H     -0.012674    -0.011536     0.005533
    16       H      0.005942     0.010290    -0.005533
    17       H     -0.005496    -0.003302     0.002979
    18       H     -0.015390    -0.006775    -0.000228
    19       H      0.007627     0.007288    -0.006518
    20       H      0.008532     0.002869    -0.001061



          GRADIENT NORM =   0.04148

          MOLECULAR WEIGHT =  130.19



          ROTATIONAL CONSTANTS IN CM(-1)

          A =    0.08542827   B =    0.04282187   C =    0.02971264



           PRINCIPAL MOMENTS OF INERTIA IN UNITS OF 10**(-40)*GRAM-CM**2

          A =      327.6755   B =      653.7022   C =      942.1158


          ORIENTATION OF MOLECULE IN FORCE CALCULATION

    NO.       ATOM         X         Y         Z

     1          C      -0.2743    0.4147   -0.5053
     2          C       2.1684    0.4147   -0.5053
     3          C       0.9476    1.2991   -0.5053
     4          C       0.2897   -0.9546   -0.2022
     5          C       1.6329   -0.9626   -0.2506
     6          C      -1.3804    0.7591    0.4307
     7          C      -0.6246   -1.9893    0.2326
     8          C      -2.0924   -0.2122    1.0234
     9          C      -1.7740   -1.6176    0.8266
    10          C       0.9601    2.6259   -0.5184
    11          H      -0.7068    0.4165   -1.5386
    12          H       2.8940    0.7115    0.2747
    13          H       2.7026    0.4704   -1.4726
    14          H       2.2902   -1.8166   -0.0931
    15          H      -1.6004    1.8212    0.5813
    16          H      -2.4913   -2.3569    1.1963
    17          H      -0.3345   -3.0362    0.1036
    18          H      -2.9355    0.0238    1.6809
    19          H       1.8813    3.2001   -0.5306
    20          H       0.0521    3.2216   -0.5154


    FIRST DERIVATIVES WILL BE USED IN THE CALCULATION OF SECOND DERIVATIVES

          ESTIMATED TIME TO COMPLETE CALCULATION =        1.88 SECONDS

    FOR POINT-GROUP C1   THERE ARE   1 UNIQUE SYMMETRY FUNCTIONS.

 STEP:   1 TIME =     0.02 SECS, INTEGRAL =      0.02 TIME LEFT: 172799.97
 STEP:   2 TIME =     0.02 SECS, INTEGRAL =      0.04 TIME LEFT: 172799.95
 STEP:   3 TIME =     0.02 SECS, INTEGRAL =      0.06 TIME LEFT: 172799.93
 STEP:   4 TIME =     0.02 SECS, INTEGRAL =      0.08 TIME LEFT: 172799.91
 STEP:   5 TIME =     0.02 SECS, INTEGRAL =      0.10 TIME LEFT: 172799.89
 STEP:   6 TIME =     0.02 SECS, INTEGRAL =      0.12 TIME LEFT: 172799.87
 STEP:   7 TIME =     0.02 SECS, INTEGRAL =      0.14 TIME LEFT: 172799.85
 STEP:   8 TIME =     0.02 SECS, INTEGRAL =      0.16 TIME LEFT: 172799.83
 STEP:   9 TIME =     0.02 SECS, INTEGRAL =      0.18 TIME LEFT: 172799.81
 STEP:  10 TIME =     0.02 SECS, INTEGRAL =      0.21 TIME LEFT: 172799.79
 STEP:  11 TIME =     0.02 SECS, INTEGRAL =      0.23 TIME LEFT: 172799.77
 STEP:  12 TIME =     0.02 SECS, INTEGRAL =      0.25 TIME LEFT: 172799.74
 STEP:  13 TIME =     0.02 SECS, INTEGRAL =      0.27 TIME LEFT: 172799.72
 STEP:  14 TIME =     0.02 SECS, INTEGRAL =      0.29 TIME LEFT: 172799.70
 STEP:  15 TIME =     0.02 SECS, INTEGRAL =      0.31 TIME LEFT: 172799.68
 STEP:  16 TIME =     0.02 SECS, INTEGRAL =      0.33 TIME LEFT: 172799.66
 STEP:  17 TIME =     0.02 SECS, INTEGRAL =      0.35 TIME LEFT: 172799.64
 STEP:  18 TIME =     0.02 SECS, INTEGRAL =      0.37 TIME LEFT: 172799.62
 STEP:  19 TIME =     0.02 SECS, INTEGRAL =      0.39 TIME LEFT: 172799.60
 STEP:  20 TIME =     0.02 SECS, INTEGRAL =      0.41 TIME LEFT: 172799.58
 STEP:  21 TIME =     0.02 SECS, INTEGRAL =      0.43 TIME LEFT: 172799.56
 STEP:  22 TIME =     0.02 SECS, INTEGRAL =      0.45 TIME LEFT: 172799.54
 STEP:  23 TIME =     0.02 SECS, INTEGRAL =      0.47 TIME LEFT: 172799.52
 STEP:  24 TIME =     0.02 SECS, INTEGRAL =      0.49 TIME LEFT: 172799.50
 STEP:  25 TIME =     0.02 SECS, INTEGRAL =      0.51 TIME LEFT: 172799.48
 STEP:  26 TIME =     0.02 SECS, INTEGRAL =      0.54 TIME LEFT: 172799.46
 STEP:  27 TIME =     0.02 SECS, INTEGRAL =      0.55 TIME LEFT: 172799.44
 STEP:  28 TIME =     0.02 SECS, INTEGRAL =      0.57 TIME LEFT: 172799.42
 STEP:  29 TIME =     0.02 SECS, INTEGRAL =      0.59 TIME LEFT: 172799.40
 STEP:  30 TIME =     0.02 SECS, INTEGRAL =      0.61 TIME LEFT: 172799.38
 STEP:  31 TIME =     0.02 SECS, INTEGRAL =      0.64 TIME LEFT: 172799.36
 STEP:  32 TIME =     0.02 SECS, INTEGRAL =      0.66 TIME LEFT: 172799.33
 STEP:  33 TIME =     0.02 SECS, INTEGRAL =      0.68 TIME LEFT: 172799.31
 STEP:  34 TIME =     0.02 SECS, INTEGRAL =      0.70 TIME LEFT: 172799.29
 STEP:  35 TIME =     0.02 SECS, INTEGRAL =      0.72 TIME LEFT: 172799.27
 STEP:  36 TIME =     0.02 SECS, INTEGRAL =      0.74 TIME LEFT: 172799.25
 STEP:  37 TIME =     0.02 SECS, INTEGRAL =      0.76 TIME LEFT: 172799.23
 STEP:  38 TIME =     0.02 SECS, INTEGRAL =      0.78 TIME LEFT: 172799.21
 STEP:  39 TIME =     0.02 SECS, INTEGRAL =      0.80 TIME LEFT: 172799.20
 STEP:  40 TIME =     0.02 SECS, INTEGRAL =      0.82 TIME LEFT: 172799.18
 STEP:  41 TIME =     0.02 SECS, INTEGRAL =      0.84 TIME LEFT: 172799.16
 STEP:  42 TIME =     0.02 SECS, INTEGRAL =      0.86 TIME LEFT: 172799.13
 STEP:  43 TIME =     0.02 SECS, INTEGRAL =      0.88 TIME LEFT: 172799.11
 STEP:  44 TIME =     0.02 SECS, INTEGRAL =      0.90 TIME LEFT: 172799.09
 STEP:  45 TIME =     0.02 SECS, INTEGRAL =      0.92 TIME LEFT: 172799.07
 STEP:  46 TIME =     0.02 SECS, INTEGRAL =      0.94 TIME LEFT: 172799.05
 STEP:  47 TIME =     0.02 SECS, INTEGRAL =      0.96 TIME LEFT: 172799.03
 STEP:  48 TIME =     0.02 SECS, INTEGRAL =      0.98 TIME LEFT: 172799.01
 STEP:  49 TIME =     0.02 SECS, INTEGRAL =      1.00 TIME LEFT: 172798.99
 STEP:  50 TIME =     0.02 SECS, INTEGRAL =      1.02 TIME LEFT: 172798.97
 STEP:  51 TIME =     0.02 SECS, INTEGRAL =      1.05 TIME LEFT: 172798.95
 STEP:  52 TIME =     0.02 SECS, INTEGRAL =      1.07 TIME LEFT: 172798.93
 STEP:  53 TIME =     0.02 SECS, INTEGRAL =      1.09 TIME LEFT: 172798.91
 STEP:  54 TIME =     0.02 SECS, INTEGRAL =      1.11 TIME LEFT: 172798.89
 STEP:  55 TIME =     0.02 SECS, INTEGRAL =      1.12 TIME LEFT: 172798.87
 STEP:  56 TIME =     0.02 SECS, INTEGRAL =      1.14 TIME LEFT: 172798.85
 STEP:  57 TIME =     0.02 SECS, INTEGRAL =      1.16 TIME LEFT: 172798.83
 STEP:  58 TIME =     0.02 SECS, INTEGRAL =      1.18 TIME LEFT: 172798.81
 STEP:  59 TIME =     0.02 SECS, INTEGRAL =      1.20 TIME LEFT: 172798.79
 STEP:  60 TIME =     0.02 SECS, INTEGRAL =      1.23 TIME LEFT: 172798.77

(To convert to Hartree/Bohr^2, multiply by (10^(-21) x N x a0^2)/(4.184 x 627.51) =  0.0642)


           FORCE MATRIX IN MILLIDYNES/ANGSTROM


                  C  1       C  2       C  3       C  4       C  5       C  6
 ------------------------------------------------------------------------------
     C    1  15.379164
     C    2   0.759134  14.859569
     C    3   4.200253   4.298785  18.951243
     C    4   4.159300   1.229082   0.988132  19.386007
     C    5   1.101672   4.564776   0.981079   9.973555  18.107425
     C    6   4.823229   0.042810   0.580693   0.725131   0.049305  17.890797
     C    7   0.595245   0.135472   0.049986   5.780737   0.879338   0.182430
     C    8   0.897603   0.020074   0.053257   0.167658   0.053616  10.097685
     C    9   0.140934   0.028687   0.015367   1.200575   0.139678   1.121144
     C   10   0.686924   0.709409  10.968237   0.050947   0.054359   0.042474
     H   11   4.093062   0.024364   0.404777   0.412160   0.034181   0.394322
     H   12   0.036413   4.502549   0.438991   0.037247   0.427997   0.003794
     H   13   0.025282   4.474138   0.427860   0.036573   0.426280   0.004071
     H   14   0.110899   0.407195   0.044013   0.459189   5.039559   0.017525
     H   15   0.434304   0.003980   0.015161   0.042645   0.006826   4.843691
     H   16   0.004224   0.009167   0.001200   0.122424   0.011482   0.047742
     H   17   0.036596   0.006632   0.007080   0.445895   0.018245   0.017435
     H   18   0.119626   0.001901   0.013417   0.004562   0.000776   0.442589
     H   19   0.127543   0.089816   0.478287   0.008225   0.002459   0.012944
     H   20   0.090170   0.127792   0.479393   0.004271   0.007127   0.019275


                  C  7       C  8       C  9       C 10       H 11       H 12
 ------------------------------------------------------------------------------
     C    7  18.245866
     C    8   1.127533  18.165593
     C    9   9.851934   5.463211  18.086139
     C   10   0.009668   0.006275   0.003630  18.104210
     H   11   0.014091   0.035357   0.018429   0.022269   4.543270
     H   12   0.019449   0.002944   0.004320   0.020333   0.002049   5.100767
     H   13   0.018816   0.003354   0.002958   0.022237   0.002011   0.557244
     H   14   0.060101   0.009328   0.011062   0.007626   0.016698   0.015165
     H   15   0.014416   0.442541   0.124151   0.009960   0.013721   0.000713
     H   16   0.439762   0.432879   4.868802   0.000604   0.001125   0.001367
     H   17   4.877407   0.123977   0.446670   0.001966   0.004459   0.001108
     H   18   0.047836   4.855214   0.433990   0.001028   0.015781   0.000255
     H   19   0.001718   0.001910   0.000795   5.106879   0.015397   0.010893
     H   20   0.001267   0.003922   0.001155   5.087470   0.012387   0.011476


                  H 13       H 14       H 15       H 16       H 17       H 18
 ------------------------------------------------------------------------------
     H   13   5.076044
     H   14   0.010322   5.434997
     H   15   0.000667   0.003960   5.223404
     H   16   0.001454   0.003802   0.007504   5.233314
     H   17   0.000986   0.006573   0.009690   0.062605   5.251388
     H   18   0.000211   0.000757   0.065446   0.031725   0.007470   5.219482
     H   19   0.011519   0.000878   0.002027   0.000168   0.000325   0.000702
     H   20   0.014760   0.001307   0.021685   0.000237   0.000294   0.000702


                  H 19       H 20
 ------------------------------
     H   19   5.485621
     H   20   0.410149   5.470146


          HEAT OF FORMATION =      59.722274 KCALS/MOLE

          ZERO POINT ENERGY     104.709 KCAL/MOL


           NORMAL COORDINATE ANALYSIS (Total motion = 1 Angstrom)


   Root No.       1         2         3         4         5         6         7         8

                 1 A       2 A       3 A       4 A       5 A       6 A       7 A       8 A   

                  85.0     165.1     224.6     272.1     374.3     415.1     484.6     498.3
  
           1    0.0020   -0.0082   -0.0004   -0.0157    0.0179   -0.0042    0.0016    0.0149
           2   -0.0054   -0.0039   -0.0138    0.0192    0.0062   -0.0205    0.0236   -0.0205
           3   -0.0105   -0.0442   -0.0248   -0.0076    0.0314    0.0059   -0.0137   -0.0049
           4   -0.0009   -0.0045   -0.0032   -0.0105    0.0151   -0.0071    0.0000   -0.0319
           5   -0.0057   -0.0002    0.0001   -0.0008   -0.0117    0.0182   -0.0202    0.0201
           6   -0.0464    0.0446   -0.0237   -0.0122   -0.0120    0.0015    0.0022    0.0015
           7    0.0004   -0.0067   -0.0070   -0.0034    0.0218   -0.0200    0.0183   -0.0207
           8   -0.0028   -0.0040   -0.0062    0.0110    0.0003   -0.0012    0.0103    0.0231
           9    0.0033    0.0012   -0.0232   -0.0055    0.0409    0.0004    0.0262    0.0598
          10    0.0045   -0.0142    0.0052   -0.0168    0.0079    0.0198   -0.0220   -0.0020
          11   -0.0008   -0.0065   -0.0050    0.0177    0.0011   -0.0080    0.0171   -0.0393
          12    0.0076   -0.0444    0.0088   -0.0042    0.0089    0.0364    0.0080   -0.0203
          13    0.0041   -0.0127    0.0065   -0.0163    0.0082    0.0185   -0.0255   -0.0004
          14   -0.0022   -0.0057    0.0096    0.0157   -0.0085    0.0038   -0.0096    0.0018
          15   -0.0169   -0.0061    0.0553    0.0396    0.0080   -0.0209   -0.0051   -0.0010
          16   -0.0201   -0.0041    0.0228   -0.0280   -0.0267   -0.0249   -0.0080    0.0338
          17    0.0011    0.0010    0.0024   -0.0135    0.0025   -0.0034    0.0044   -0.0070
          18   -0.0403   -0.0403   -0.0015   -0.0062   -0.0210   -0.0262   -0.0220   -0.0075
          19    0.0151   -0.0063   -0.0131    0.0024   -0.0175   -0.0070    0.0191   -0.0142
          20    0.0042   -0.0024   -0.0025   -0.0037    0.0040   -0.0015   -0.0063   -0.0273
          21    0.0399   -0.0178   -0.0197   -0.0158   -0.0395   -0.0002    0.0319    0.0081
          22   -0.0173    0.0333    0.0280    0.0003   -0.0022    0.0124    0.0378    0.0103
          23    0.0077    0.0126    0.0118   -0.0272    0.0032    0.0063   -0.0093    0.0090
          24   -0.0264    0.0223    0.0184    0.0091    0.0097    0.0331    0.0117   -0.0167
          25    0.0070    0.0302   -0.0091    0.0127    0.0132   -0.0134   -0.0119   -0.0085
          26    0.0070    0.0090    0.0078   -0.0255    0.0056    0.0065   -0.0161    0.0022
          27    0.0226    0.0451   -0.0188    0.0144    0.0190   -0.0155   -0.0283    0.0052
          28    0.0045   -0.0092   -0.0257    0.0644   -0.0239    0.0214   -0.0102    0.0095
          29   -0.0024   -0.0037   -0.0057    0.0105    0.0000   -0.0017    0.0112    0.0252
          30    0.0671    0.0209    0.0261   -0.0088   -0.0150   -0.0002   -0.0061   -0.0113
          31    0.0237    0.0048   -0.0084   -0.0106    0.0518    0.0200    0.0399    0.0414
          32   -0.0160    0.0105   -0.0288    0.0316    0.0189   -0.0688    0.0415    0.0020
          33   -0.0199   -0.0486   -0.0202   -0.0093    0.0156   -0.0048   -0.0290   -0.0155
          34    0.0366   -0.0490    0.0304    0.0218    0.0725   -0.0306    0.0311    0.0393
          35   -0.0041   -0.0151    0.0443    0.0213   -0.0181    0.0192   -0.0542    0.0121
          36   -0.0822    0.0923   -0.0728   -0.0513   -0.0648    0.0241   -0.0150   -0.0643
          37   -0.0464    0.0493   -0.0467   -0.0464   -0.0507    0.0131   -0.0269   -0.1242
          38   -0.0123    0.0232   -0.0511   -0.0413   -0.0258    0.0515   -0.0249    0.0345
          39   -0.0721    0.0761   -0.0513   -0.0351   -0.0503    0.0151   -0.0134   -0.0507
          40    0.0066   -0.0180    0.0131   -0.0241    0.0035    0.0388   -0.0501    0.0331
          41   -0.0001   -0.0075    0.0266    0.0193   -0.0138    0.0086   -0.0291    0.0299
          42   -0.0160    0.0067    0.1201    0.0919   -0.0019   -0.0807   -0.0079    0.0107
          43   -0.0403   -0.0244    0.0449   -0.0605   -0.0833   -0.0460   -0.0268    0.0763
          44    0.0017    0.0023    0.0053   -0.0189    0.0005   -0.0009   -0.0010   -0.0001
          45   -0.0732   -0.0771    0.0102   -0.0158   -0.0881   -0.0758   -0.0115    0.0083
          46    0.0175    0.0506   -0.0336    0.0304    0.0237   -0.0538   -0.0519   -0.0135
          47    0.0078    0.0164    0.0168   -0.0349    0.0030    0.0109   -0.0075    0.0231
          48    0.0448    0.0996   -0.0487    0.0298    0.0346   -0.0847   -0.0903    0.0381
          49    0.0300   -0.0200   -0.0358    0.0166   -0.0563   -0.0421    0.0670   -0.0272
          50    0.0036   -0.0045   -0.0047    0.0034    0.0023   -0.0054    0.0022   -0.0358
          51    0.0777   -0.0311   -0.0514   -0.0415   -0.1122   -0.0463    0.0722    0.0481
          52   -0.0336    0.0551    0.0590    0.0017   -0.0180    0.0511    0.0962    0.0131
          53    0.0151    0.0263    0.0200   -0.0373    0.0008    0.0074   -0.0123    0.0339
          54   -0.0499    0.0456    0.0550    0.0148   -0.0097    0.0820    0.0880   -0.0224
          55    0.0068   -0.0099   -0.0345    0.1009   -0.0538    0.0508   -0.0348    0.0354
          56   -0.0056   -0.0016    0.0089   -0.0468    0.0453   -0.0474    0.0493   -0.0146
          57    0.0823    0.0679    0.0545   -0.0160   -0.0720   -0.0049   -0.0102   -0.0244
          58    0.0074   -0.0103   -0.0343    0.1011   -0.0541    0.0512   -0.0350    0.0368
          59    0.0019   -0.0051   -0.0185    0.0648   -0.0446    0.0421   -0.0249    0.0661
          60    0.1086   -0.0089    0.0426   -0.0020   -0.0155    0.0051   -0.0396   -0.0830


   Root No.       9        10        11        12        13        14        15        16

                 9 A      10 A      11 A      12 A      13 A      14 A      15 A      16 A   

                 521.1     557.5     608.6     686.3     697.3     754.3     811.9     822.5
  
           1   -0.0385   -0.0057   -0.0033   -0.0161   -0.0054    0.0012   -0.0064    0.0088
           2   -0.0047   -0.0076    0.0037    0.0001    0.0002   -0.0027   -0.0006    0.0084
           3    0.0130   -0.0255   -0.0067   -0.0108   -0.0310    0.0130   -0.0062    0.0207
           4   -0.0173    0.0329   -0.0016    0.0412   -0.0203    0.0084    0.0040   -0.0125
           5   -0.0114    0.0113   -0.0047    0.0379   -0.0149    0.0010   -0.0053   -0.0037
           6    0.0068   -0.0014    0.0012   -0.0041    0.0096    0.0030   -0.0180   -0.0256
           7   -0.0344    0.0113   -0.0009    0.0079   -0.0193    0.0085    0.0065   -0.0121
           8   -0.0358   -0.0163   -0.0009   -0.0408   -0.0027    0.0070    0.0063   -0.0060
           9    0.0363    0.0276   -0.0043    0.0260    0.0202   -0.0132    0.0093    0.0097
          10    0.0093    0.0156    0.0022   -0.0256    0.0112    0.0037    0.0015    0.0102
          11    0.0023    0.0057    0.0159    0.0133    0.0348   -0.0112   -0.0076    0.0073
          12   -0.0253   -0.0493    0.0323    0.0247    0.0323    0.0026    0.0073    0.0045
          13    0.0094    0.0238   -0.0008   -0.0207    0.0059    0.0066   -0.0005    0.0122
          14   -0.0089    0.0146   -0.0040    0.0635   -0.0214   -0.0008   -0.0026   -0.0139
          15    0.0101   -0.0059   -0.0055   -0.0100    0.0031    0.0091   -0.0130   -0.0130
          16   -0.0262   -0.0121    0.0035    0.0068    0.0155   -0.0263   -0.0218    0.0050
          17    0.0476   -0.0448    0.0034    0.0209   -0.0174    0.0080    0.0058    0.0138
          18    0.0139    0.0022    0.0054   -0.0056   -0.0101   -0.0099   -0.0090   -0.0017
          19    0.0483   -0.0062   -0.0009   -0.0174    0.0048   -0.0114    0.0107   -0.0138
          20   -0.0007    0.0500    0.0049   -0.0228    0.0427   -0.0130   -0.0192    0.0244
          21   -0.0091    0.0151   -0.0078   -0.0002   -0.0115   -0.0222    0.0138   -0.0074
          22    0.0015   -0.0386   -0.0003    0.0220   -0.0046   -0.0159   -0.0233    0.0256
          23    0.0228   -0.0060   -0.0040   -0.0028   -0.0054    0.0017    0.0049   -0.0094
          24   -0.0014    0.0372   -0.0078   -0.0269   -0.0145   -0.0053   -0.0111   -0.0166
          25    0.0470   -0.0315    0.0054   -0.0116    0.0032   -0.0059    0.0179   -0.0238
          26    0.0342    0.0077   -0.0061   -0.0211   -0.0034    0.0040    0.0061   -0.0199
          27   -0.0376   -0.0005    0.0090    0.0124    0.0083   -0.0175    0.0113   -0.0021
          28   -0.0022    0.0035    0.0003    0.0026   -0.0068    0.0038    0.0045   -0.0079
          29   -0.0418   -0.0196   -0.0013   -0.0532   -0.0047    0.0102    0.0096   -0.0092
          30   -0.0037   -0.0049   -0.0005    0.0003   -0.0003   -0.0003    0.0010    0.0014
          31   -0.0537   -0.0003   -0.0185    0.0029    0.0280    0.0197    0.0244    0.0076
          32    0.0076    0.0436   -0.0360    0.0111   -0.0350   -0.0379    0.0031    0.0171
          33    0.0195   -0.0264    0.0001   -0.0183   -0.0448    0.0053   -0.0179    0.0205
          34    0.0170    0.0670    0.0353    0.0584   -0.0064    0.0185   -0.0339   -0.0836
          35    0.0071    0.0107   -0.0104    0.0383   -0.0163    0.0190   -0.0516   -0.0259
          36   -0.0338   -0.0335   -0.0327   -0.0185   -0.0045   -0.0136    0.0374    0.0518
          37   -0.0731   -0.0088   -0.0464    0.0269   -0.0494    0.0025    0.0577    0.0560
          38   -0.0010    0.0292   -0.0054    0.0655   -0.0065   -0.0316    0.0406    0.0767
          39   -0.0245   -0.0249   -0.0251   -0.0119   -0.0056   -0.0030    0.0162    0.0201
          40    0.0029    0.0221   -0.0088   -0.0243   -0.0139    0.0152    0.0056    0.0246
          41   -0.0085    0.0260   -0.0222    0.0525   -0.0507   -0.0084    0.0283    0.0304
          42    0.0382    0.0653   -0.0725   -0.0587   -0.0761   -0.0660    0.1330    0.1775
          43   -0.0172    0.0203    0.0087    0.0388    0.1037    0.0505    0.0965   -0.0431
          44    0.0496   -0.0405    0.0025    0.0191   -0.0140    0.0098    0.0102    0.0081
          45    0.0089    0.0213    0.0182    0.0535    0.0932    0.0880    0.1328   -0.0300
          46    0.0497   -0.0149    0.0118   -0.0130    0.0472    0.0872   -0.0165    0.0242
          47    0.0274   -0.0231   -0.0097    0.0055   -0.0278    0.0029    0.0093   -0.0188
          48   -0.0457   -0.0297    0.0136    0.0632    0.0422    0.1626   -0.0486    0.0933
          49    0.0646    0.0040   -0.0067   -0.0086    0.0258    0.0443   -0.0717    0.0357
          50   -0.0024    0.0463    0.0099   -0.0169    0.0550   -0.0174   -0.0249    0.0325
          51    0.0423    0.0627   -0.0601   -0.0255   -0.0610    0.1349   -0.1265    0.0399
          52   -0.0003   -0.0006   -0.0172    0.0403    0.0305    0.1012    0.0385    0.0513
          53   -0.0301    0.0106   -0.0054    0.0092    0.0147   -0.0136   -0.0110    0.0047
          54    0.0148    0.0798   -0.0289   -0.0076    0.0224    0.1512    0.0747    0.0105
          55    0.0253   -0.0014    0.0022    0.0070    0.0107   -0.0085   -0.0112    0.0148
          56   -0.0860   -0.0114    0.0016   -0.0633   -0.0346    0.0308    0.0347   -0.0452
          57   -0.0085    0.0350    0.2752   -0.0573   -0.1030    0.0255   -0.0005    0.0209
          58    0.0223   -0.0045   -0.0035   -0.0008    0.0116   -0.0063   -0.0082    0.0106
          59   -0.0062   -0.0318   -0.0061   -0.0611    0.0226   -0.0042   -0.0082    0.0176
          60   -0.0483   -0.0864   -0.2699    0.0115    0.0643   -0.0001   -0.0270   -0.0444


   Root No.      17        18        19        20        21        22        23        24

                17 A      18 A      19 A      20 A      21 A      22 A      23 A      24 A   

                 865.0     915.4     927.4     947.3     965.1     976.9    1002.1    1018.4
  
           1   -0.0044    0.0176   -0.0309   -0.0055   -0.0064    0.0102   -0.0073   -0.0078
           2    0.0191   -0.0049   -0.0075    0.0185    0.0101    0.0189    0.0079   -0.0147
           3    0.0079    0.0261   -0.0365   -0.0207   -0.0189   -0.0048   -0.0135    0.0008
           4   -0.0019    0.0321    0.0407    0.0051    0.0023   -0.0071    0.0038    0.0038
           5    0.0021   -0.0049   -0.0088   -0.0073   -0.0036    0.0054   -0.0016   -0.0062
           6    0.0214    0.0000    0.0153   -0.0304   -0.0025    0.0200   -0.0007   -0.0263
           7   -0.0045   -0.0084   -0.0017   -0.0025   -0.0003    0.0020   -0.0004   -0.0023
           8   -0.0023    0.0036    0.0143    0.0007    0.0005   -0.0058    0.0004    0.0034
           9   -0.0151   -0.0065    0.0049    0.0123    0.0031   -0.0113    0.0029    0.0258
          10    0.0177   -0.0109    0.0122    0.0087    0.0037    0.0016    0.0052   -0.0012
          11   -0.0119    0.0040   -0.0012   -0.0058   -0.0019    0.0005    0.0033   -0.0042
          12   -0.0310   -0.0120    0.0117    0.0041    0.0089    0.0174    0.0190   -0.0198
          13    0.0295   -0.0140    0.0168    0.0161    0.0046    0.0025    0.0074   -0.0004
          14   -0.0180    0.0059   -0.0141   -0.0061   -0.0014   -0.0084   -0.0058    0.0100
          15    0.0075    0.0010   -0.0186    0.0265    0.0052   -0.0188    0.0023    0.0344
          16   -0.0177    0.0026   -0.0125   -0.0115    0.0205   -0.0072    0.0154   -0.0015
          17    0.0315   -0.0078    0.0247    0.0031   -0.0113   -0.0064   -0.0080    0.0090
          18   -0.0034   -0.0087    0.0155   -0.0011    0.0196   -0.0058    0.0105    0.0031
          19   -0.0070    0.0051   -0.0096   -0.0086    0.0147   -0.0011   -0.0135    0.0039
          20    0.0125    0.0013   -0.0099   -0.0137   -0.0137   -0.0121   -0.0113    0.0109
          21    0.0240    0.0032   -0.0016   -0.0071    0.0293   -0.0009   -0.0287    0.0092
          22    0.0171   -0.0075    0.0133    0.0069   -0.0176    0.0024   -0.0208    0.0068
          23   -0.0114    0.0017   -0.0021   -0.0009    0.0018    0.0006    0.0008   -0.0008
          24   -0.0297   -0.0071    0.0100    0.0152   -0.0104    0.0171   -0.0238   -0.0016
          25   -0.0184    0.0061   -0.0133    0.0001   -0.0090    0.0006    0.0192   -0.0066
          26   -0.0263    0.0015   -0.0106    0.0020    0.0102    0.0083    0.0039   -0.0057
          27    0.0267    0.0050   -0.0048    0.0028   -0.0313   -0.0104    0.0299   -0.0033
          28   -0.0023   -0.0457   -0.0098   -0.0125   -0.0057   -0.0086   -0.0016    0.0037
          29   -0.0024    0.0062    0.0263    0.0019    0.0013   -0.0114    0.0011    0.0062
          30   -0.0031   -0.0025    0.0016    0.0089    0.0019   -0.0280   -0.0096   -0.0400
          31   -0.0377    0.0315   -0.0886    0.0425   -0.0643    0.0949   -0.0978   -0.0028
          32    0.0619   -0.0036   -0.1029    0.1214    0.1291    0.1151    0.0717   -0.0718
          33    0.0221    0.0189   -0.0111   -0.0394    0.0067   -0.0398    0.0253   -0.0014
          34    0.0333    0.0469    0.1120   -0.0679   -0.0003    0.0353    0.0227   -0.0184
          35    0.0712   -0.0121   -0.0777    0.0117   -0.0136    0.0031   -0.0640   -0.1135
          36   -0.0399   -0.0112   -0.0255    0.0335    0.0041   -0.0204    0.0058    0.0375
          37   -0.0595    0.0450   -0.0059    0.0949    0.0095   -0.0770   -0.0184    0.0495
          38   -0.0396   -0.0587    0.0096   -0.0047    0.0015    0.0462    0.0837    0.0831
          39   -0.0149    0.0036   -0.0114    0.0214    0.0019   -0.0175   -0.0080    0.0059
          40    0.0601   -0.0733   -0.0046    0.0407    0.0134    0.0239    0.0151   -0.0132
          41   -0.0103   -0.0388   -0.0147   -0.0122   -0.0032    0.0233   -0.0003   -0.0231
          42   -0.0719    0.0027    0.0799   -0.1025   -0.0379    0.0650    0.0049   -0.0919
          43   -0.0239    0.0387   -0.0366    0.0014   -0.0924    0.0051   -0.0489    0.0049
          44    0.0200    0.0001    0.0198   -0.0034   -0.0160   -0.0134   -0.0117    0.0120
          45    0.0726   -0.0122    0.0148    0.0650   -0.1115    0.0609   -0.0562   -0.0079
          46   -0.0727   -0.0118    0.0033   -0.0236    0.0738    0.0153   -0.0709    0.0138
          47   -0.0104   -0.0022    0.0035    0.0183    0.0167    0.0171    0.0215   -0.0168
          48   -0.0439   -0.0379    0.0583   -0.0086    0.1423    0.0358   -0.1096    0.0142
          49   -0.0662    0.0081   -0.0136   -0.0157   -0.0937   -0.0180    0.0341   -0.0051
          50    0.0077    0.0057   -0.0145   -0.0253   -0.0246   -0.0193   -0.0162    0.0146
          51   -0.0706   -0.0244    0.0242    0.0682   -0.1256    0.0172    0.1147   -0.0391
          52    0.0685    0.0385   -0.0602   -0.0609    0.0572   -0.0489    0.0732   -0.0032
          53   -0.0099    0.0155   -0.0362   -0.0158    0.0045   -0.0102    0.0234   -0.0098
          54    0.0361    0.0462   -0.0710   -0.0654    0.0848   -0.0439    0.0888   -0.0116
          55    0.0017    0.0722    0.0080    0.0162    0.0068    0.0154    0.0007   -0.0076
          56   -0.0087   -0.1758    0.0008   -0.0437   -0.0186   -0.0475   -0.0017    0.0291
          57    0.0159    0.0319   -0.0448   -0.0337   -0.0155    0.1176    0.0283    0.1568
          58    0.0005    0.0778    0.0252    0.0169    0.0077    0.0070    0.0023   -0.0005
          59    0.0015    0.1892    0.0810    0.0459    0.0212    0.0096    0.0070    0.0005
          60    0.0327    0.0003    0.0171   -0.0645   -0.0084    0.1284    0.0459    0.1485


   Root No.      25        26        27        28        29        30        31        32

                25 A      26 A      27 A      28 A      29 A      30 A      31 A      32 A   

                1034.0    1052.7    1055.3    1064.9    1119.6    1142.5    1154.0    1188.3
  
           1    0.0070    0.0081   -0.0139   -0.0018   -0.0000    0.0036   -0.0231   -0.0086
           2    0.0027    0.0018   -0.0051   -0.0044    0.0169    0.0250   -0.0196    0.0392
           3   -0.0281    0.0036   -0.0079   -0.0059    0.0010   -0.0046    0.0159    0.0071
           4   -0.0037    0.0156    0.0142    0.0009   -0.0007   -0.0015    0.0070   -0.0063
           5    0.0022    0.0226    0.0055    0.0012   -0.0040   -0.0006   -0.0001   -0.0107
           6   -0.0007   -0.0065   -0.0082    0.0021   -0.0012   -0.0020    0.0037    0.0012
           7    0.0028   -0.0025   -0.0095    0.0038   -0.0004    0.0087   -0.0359    0.0010
           8   -0.0011   -0.0013    0.0024   -0.0003    0.0001   -0.0005    0.0013   -0.0013
           9    0.0015   -0.0155    0.0330   -0.0093    0.0014    0.0061   -0.0129    0.0001
          10   -0.0026   -0.0031    0.0027   -0.0002    0.0013   -0.0021    0.0142    0.0077
          11   -0.0042    0.0036    0.0055   -0.0046    0.0074   -0.0021   -0.0012    0.0332
          12   -0.0054   -0.0086    0.0090   -0.0009   -0.0121   -0.0010    0.0012   -0.0134
          13   -0.0021    0.0011    0.0052    0.0068    0.0070   -0.0029    0.0113    0.0136
          14   -0.0010   -0.0346   -0.0166   -0.0090   -0.0031   -0.0038    0.0184    0.0021
          15   -0.0033    0.0203   -0.0181    0.0042    0.0036    0.0011   -0.0036    0.0008
          16    0.0107   -0.0026    0.0049   -0.0039   -0.0009    0.0030   -0.0007   -0.0047
          17    0.0281   -0.0008   -0.0004    0.0264   -0.0155    0.0006   -0.0015   -0.0061
          18    0.0521    0.0005    0.0034    0.0073    0.0042   -0.0035    0.0076    0.0070
          19   -0.0052    0.0009   -0.0010    0.0048    0.0093    0.0039    0.0047    0.0127
          20    0.0025   -0.0068   -0.0091   -0.0191   -0.0208   -0.0073    0.0061   -0.0141
          21   -0.0013    0.0059   -0.0045   -0.0036   -0.0014    0.0008   -0.0056   -0.0033
          22   -0.0221    0.0000   -0.0042   -0.0260   -0.0071   -0.0046    0.0077   -0.0091
          23   -0.0029   -0.0016    0.0046    0.0278    0.0039    0.0082   -0.0054   -0.0099
          24   -0.0153    0.0017   -0.0018    0.0198    0.0024    0.0056   -0.0079    0.0062
          25    0.0049    0.0007   -0.0006   -0.0157   -0.0042    0.0018    0.0007    0.0018
          26   -0.0017    0.0038   -0.0053   -0.0406    0.0010   -0.0069   -0.0049   -0.0223
          27    0.0124   -0.0037    0.0030    0.0053   -0.0021   -0.0040    0.0002   -0.0028
          28   -0.0036    0.0049    0.0075   -0.0012   -0.0018   -0.0052    0.0137   -0.0028
          29   -0.0037    0.0003    0.0071    0.0020   -0.0027   -0.0040    0.0050   -0.0080
          30   -0.0001    0.0104   -0.0219    0.0038    0.0002   -0.0015    0.0038   -0.0003
          31    0.2878    0.0281   -0.0288    0.0460    0.0197   -0.0332    0.1236    0.0307
          32   -0.1287   -0.0136    0.0177    0.0786   -0.0996   -0.0961    0.1064   -0.1076
          33   -0.1463   -0.0054   -0.0015   -0.0252   -0.0082    0.0105   -0.0457   -0.0113
          34   -0.0161   -0.0010   -0.0614    0.0113   -0.0048   -0.0163    0.0504   -0.0207
          35    0.0375    0.1048    0.2367   -0.0102   -0.0041    0.0337   -0.1109   -0.0053
          36   -0.0027   -0.0225   -0.0246   -0.0031    0.0026   -0.0010    0.0048    0.0112
          37    0.0056   -0.0455    0.0850   -0.0193   -0.0015   -0.0022    0.0170   -0.0221
          38   -0.0280    0.2723   -0.1386    0.0532    0.0092    0.0192   -0.0648    0.0037
          39    0.0026   -0.0257    0.0226   -0.0064   -0.0007   -0.0012    0.0053   -0.0056
          40    0.0180   -0.1985   -0.0762    0.0342    0.0322    0.0142   -0.1046    0.0172
          41    0.0156   -0.1895   -0.0668    0.0079    0.0137    0.0096   -0.0671    0.0047
          42    0.0018    0.0071    0.0494   -0.0131   -0.0063    0.0012    0.0160    0.0015
          43   -0.1498   -0.0111    0.0155    0.1124   -0.1168   -0.0841   -0.0198    0.1833
          44    0.0086   -0.0050    0.0077    0.0709   -0.0527   -0.0267   -0.0050    0.0583
          45   -0.0472    0.0152   -0.0351   -0.1102    0.0900    0.0677    0.0058   -0.1557
          46    0.0004   -0.0072   -0.0161    0.0381   -0.1278    0.1399   -0.0058   -0.0856
          47   -0.0260    0.0197    0.0084   -0.1060    0.1595   -0.1748    0.0025    0.0851
          48   -0.0428    0.0132    0.0008   -0.0182    0.0746   -0.0743    0.0017    0.0488
          49   -0.0154   -0.0263    0.0287    0.1807    0.1447   -0.1150   -0.0570   -0.1597
          50   -0.0023   -0.0131   -0.0021    0.0362    0.0254   -0.0480   -0.0157   -0.0715
          51    0.0147   -0.0050    0.0009   -0.0818   -0.0802    0.0532    0.0344    0.0727
          52    0.0243   -0.0059    0.0082   -0.0165    0.0220    0.0273    0.0348   -0.0011
          53   -0.1079   -0.0213    0.0349    0.0993    0.1737    0.2118    0.1449    0.0391
          54    0.0848    0.0016    0.0031    0.0081   -0.0189   -0.0276   -0.0292   -0.0008
          55    0.0088   -0.0039   -0.0145   -0.0037    0.0077    0.0125   -0.0231    0.0024
          56   -0.0238    0.0136    0.0454    0.0061   -0.0189   -0.0331    0.0633   -0.0184
          57   -0.0034   -0.0393    0.0825   -0.0142   -0.0015    0.0019   -0.0052    0.0021
          58    0.0022   -0.0044   -0.0043    0.0041   -0.0033   -0.0009   -0.0107   -0.0065
          59    0.0037   -0.0137   -0.0088    0.0110   -0.0062    0.0005   -0.0288   -0.0143
          60   -0.0033   -0.0347    0.0682   -0.0085   -0.0028    0.0048   -0.0157    0.0051


   Root No.      33        34        35        36        37        38        39        40

                33 A      34 A      35 A      36 A      37 A      38 A      39 A      40 A   

                1230.7    1284.6    1315.7    1347.3    1370.1    1386.9    1431.4    1494.4
  
           1   -0.0280   -0.0010    0.0018    0.0152   -0.0373    0.0093    0.0873    0.0684
           2   -0.0148   -0.0450    0.0242    0.0113    0.0293   -0.0227    0.0290   -0.0634
           3    0.0155   -0.0134    0.0083   -0.0086    0.0053    0.0051   -0.0404   -0.0181
           4    0.0260   -0.0171    0.0091   -0.0267    0.0151    0.0497    0.0365   -0.0193
           5   -0.0168   -0.0121   -0.0370    0.0733    0.0252    0.0356   -0.0171   -0.0101
           6    0.0023    0.0017    0.0047   -0.0076   -0.0050   -0.0096   -0.0005    0.0019
           7   -0.0072    0.0608   -0.0212    0.0135    0.0208   -0.0229   -0.0664   -0.0127
           8   -0.0042   -0.0060   -0.0194   -0.0215   -0.0002    0.0011   -0.0005    0.0016
           9   -0.0055    0.0014   -0.0009    0.0025   -0.0012    0.0003    0.0044    0.0023
          10   -0.0243    0.0049    0.0081   -0.0048    0.0038   -0.0161   -0.0037   -0.0110
          11    0.0047   -0.0052    0.0055   -0.0023   -0.0241    0.0327   -0.0552    0.1168
          12    0.0024    0.0066   -0.0058    0.0025    0.0023   -0.0056    0.0172   -0.0292
          13   -0.0214   -0.0052    0.0160   -0.0094    0.0105   -0.0123   -0.0297    0.0376
          14   -0.0262    0.0222    0.0313   -0.0381   -0.0072   -0.0364    0.0128   -0.0006
          15    0.0055   -0.0049   -0.0052    0.0065    0.0012    0.0068   -0.0018   -0.0017
          16   -0.0010   -0.0203    0.0159   -0.0075   -0.0100    0.0105   -0.0391   -0.0423
          17   -0.0108    0.0153   -0.0073    0.0033   -0.0172    0.0044    0.0202    0.0117
          18    0.0053    0.0163   -0.0134    0.0048    0.0110   -0.0092    0.0281    0.0316
          19    0.0024    0.0127   -0.0077    0.0054   -0.0262    0.0110    0.0031   -0.0429
          20    0.0154    0.0202   -0.0173    0.0066   -0.0064   -0.0038    0.0290   -0.0662
          21    0.0011   -0.0084    0.0032   -0.0012    0.0121   -0.0033   -0.0011    0.0230
          22    0.0125    0.0001   -0.0024   -0.0036    0.0194   -0.0078   -0.0051    0.0166
          23   -0.0156   -0.0130    0.0151   -0.0064   -0.0324    0.0212   -0.0415   -0.0469
          24   -0.0104   -0.0006    0.0020    0.0031   -0.0147    0.0057    0.0057   -0.0102
          25    0.0103    0.0058   -0.0092    0.0055   -0.0006    0.0011    0.0158   -0.0158
          26    0.0133   -0.0123    0.0028   -0.0040    0.0457   -0.0208    0.0054    0.0600
          27   -0.0052   -0.0030    0.0049   -0.0035    0.0019   -0.0017   -0.0083    0.0082
          28    0.0025   -0.0126    0.0016   -0.0009   -0.0039    0.0062    0.0095    0.0031
          29    0.0091    0.0022   -0.0158   -0.0327   -0.0014    0.0018   -0.0060   -0.0041
          30    0.0012   -0.0003    0.0005   -0.0002    0.0001   -0.0001   -0.0010   -0.0004
          31    0.0621   -0.0161    0.0094   -0.0184    0.0273    0.0000   -0.0651   -0.0273
          32    0.0220    0.0498   -0.0260   -0.0184   -0.0361    0.0220   -0.0059    0.0323
          33   -0.0232   -0.0042    0.0037    0.0058   -0.0219    0.0077    0.0252    0.0217
          34    0.0400   -0.1110   -0.0570    0.0841   -0.0829   -0.1218   -0.0255    0.0126
          35    0.0950    0.0525    0.0259   -0.0984   -0.0389   -0.0516    0.0181   -0.0135
          36   -0.0477    0.0571    0.0364   -0.0393    0.0981    0.1601    0.0365   -0.0247
          37    0.0363   -0.1082   -0.0679    0.0909   -0.1011   -0.1553   -0.0372    0.0226
          38    0.1047    0.0188    0.0208   -0.0783   -0.0584   -0.0847    0.0041   -0.0067
          39    0.0110   -0.0408   -0.0301    0.0431   -0.0638   -0.1108   -0.0342    0.0231
          40    0.1534   -0.0458   -0.0286    0.0070   -0.0178    0.0771   -0.0146    0.0380
          41    0.1022   -0.0056   -0.0017   -0.0257   -0.0302    0.0282    0.0260   -0.0022
          42   -0.0212   -0.0008    0.0010    0.0072    0.0079   -0.0069   -0.0090   -0.0042
          43    0.0286   -0.0148   -0.0253    0.0085    0.0764   -0.0459    0.0594    0.0190
          44   -0.0008    0.0179   -0.0213    0.0087    0.0109   -0.0144    0.0542    0.0296
          45   -0.0288    0.0095    0.0217   -0.0065   -0.0669    0.0390   -0.0429   -0.0124
          46    0.0099   -0.0460    0.0212   -0.0141    0.0640   -0.0208   -0.0155    0.0802
          47    0.0156    0.0525   -0.0364    0.0214   -0.0311    0.0046    0.0489   -0.0592
          48   -0.0076    0.0259   -0.0114    0.0081   -0.0367    0.0109    0.0105   -0.0489
          49   -0.0200   -0.0475    0.0256   -0.0156    0.0922   -0.0517    0.0107    0.0391
          50    0.0109    0.0007   -0.0079    0.0003    0.0340   -0.0247    0.0340   -0.0410
          51    0.0035    0.0263   -0.0115    0.0066   -0.0447    0.0229   -0.0043   -0.0186
          52    0.0274    0.0167   -0.0159    0.0019    0.0328   -0.0167    0.0176    0.0379
          53    0.0606    0.0887   -0.0648    0.0266    0.0312   -0.0258    0.0919    0.0598
          54   -0.0223   -0.0156    0.0142   -0.0009   -0.0268    0.0137   -0.0112   -0.0254
          55   -0.0359   -0.0173   -0.1095   -0.1018    0.0079    0.0003   -0.0215   -0.0089
          56    0.0763    0.0175    0.1731    0.1392   -0.0204    0.0108    0.0409    0.0151
          57    0.0003   -0.0010   -0.0011   -0.0002    0.0016    0.0012   -0.0048   -0.0020
          58    0.0323    0.0555    0.1043    0.1147    0.0002   -0.0088   -0.0061    0.0056
          59    0.0603    0.1079    0.1532    0.1509    0.0036   -0.0210   -0.0273   -0.0004
          60   -0.0066    0.0004   -0.0046   -0.0023   -0.0005   -0.0018    0.0074    0.0030


   Root No.      41        42        43        44        45        46        47        48

                41 A      42 A      43 A      44 A      45 A      46 A      47 A      48 A   

                1807.2    1830.8    1881.9    1920.7    2840.0    2969.6    3043.1    3053.4
  
           1   -0.0067    0.0168   -0.0200   -0.0119   -0.0290    0.0001   -0.0005    0.0002
           2    0.0004    0.0015   -0.0088   -0.0188    0.0006    0.0000    0.0001   -0.0000
           3    0.0018   -0.0147    0.0065   -0.0004   -0.0673   -0.0002   -0.0000   -0.0002
           4    0.0057    0.0040    0.0090    0.0123    0.0002   -0.0048    0.0408    0.0000
           5    0.0035   -0.0007   -0.0056   -0.0201    0.0000   -0.0077    0.0118    0.0000
           6   -0.0015    0.0001    0.0003    0.0000    0.0000   -0.0602   -0.0031    0.0000
           7   -0.0015    0.0005    0.0015    0.0022   -0.0009    0.0000    0.0006    0.0001
           8    0.0033    0.0188    0.0673    0.2160   -0.0009   -0.0002   -0.0005   -0.0000
           9    0.0009   -0.0015   -0.0002   -0.0035   -0.0002   -0.0001   -0.0000   -0.0001
          10    0.0486    0.0671    0.1518   -0.0854   -0.0011   -0.0001   -0.0009   -0.0003
          11   -0.0065    0.0041    0.0276   -0.0233    0.0009   -0.0000   -0.0005    0.0001
          12    0.0025   -0.0042   -0.0212    0.0122   -0.0003   -0.0003    0.0002    0.0001
          13   -0.0611   -0.0615   -0.1139    0.0649    0.0007    0.0003   -0.0002    0.0001
          14   -0.0112   -0.0062   -0.0122    0.0005   -0.0001   -0.0001    0.0015   -0.0000
          15    0.0046    0.0033    0.0069   -0.0031   -0.0003   -0.0001   -0.0003   -0.0000
          16    0.0275   -0.1034    0.0284   -0.0019    0.0012    0.0000    0.0000    0.0058
          17    0.0364   -0.1009    0.0304   -0.0026    0.0001    0.0000    0.0000   -0.0268
          18   -0.0238    0.0851   -0.0241    0.0027   -0.0012    0.0000   -0.0000   -0.0040
          19    0.1588    0.0263   -0.0661    0.0273    0.0001    0.0000    0.0001    0.0008
          20   -0.0317   -0.0100   -0.0171    0.0119   -0.0000   -0.0000   -0.0000   -0.0042
          21   -0.0797   -0.0148    0.0312   -0.0127   -0.0002   -0.0001   -0.0001   -0.0003
          22   -0.0090    0.0767   -0.0225    0.0037   -0.0005   -0.0000    0.0000   -0.0250
          23   -0.0730    0.1352   -0.0343    0.0037   -0.0009   -0.0000   -0.0000    0.0071
          24    0.0110   -0.0641    0.0182   -0.0031    0.0001   -0.0000   -0.0000    0.0194
          25   -0.1575   -0.0349    0.0336   -0.0095   -0.0001   -0.0000    0.0001    0.0087
          26    0.0934   -0.0087   -0.0106    0.0040    0.0003    0.0000    0.0001    0.0084
          27    0.0830    0.0191   -0.0179    0.0052    0.0002    0.0000   -0.0000   -0.0045
          28    0.0002   -0.0001   -0.0007   -0.0016    0.0000   -0.0000    0.0000    0.0005
          29   -0.0033   -0.0179   -0.0553   -0.1634    0.0004    0.0001    0.0001   -0.0004
          30   -0.0000    0.0001    0.0005    0.0017   -0.0002   -0.0001   -0.0000   -0.0000
          31   -0.0007    0.0019    0.0066   -0.0073    0.3511    0.0005    0.0002    0.0004
          32    0.0098   -0.0022    0.0191    0.0039   -0.0052   -0.0003   -0.0001   -0.0006
          33   -0.0025    0.0003   -0.0011    0.0000    0.8318    0.0010    0.0006   -0.0000
          34    0.0005    0.0008    0.0004   -0.0052   -0.0001    0.2969   -0.2990   -0.0001
          35    0.0093    0.0121    0.0243    0.0138    0.0000    0.1198   -0.1263   -0.0001
          36   -0.0004   -0.0040   -0.0076    0.0043   -0.0001    0.3050   -0.3632   -0.0002
          37    0.0015   -0.0005    0.0007    0.0026    0.0010   -0.2415   -0.1891   -0.0001
          38    0.0092    0.0103    0.0191    0.0065   -0.0003   -0.0271   -0.0139   -0.0000
          39   -0.0022    0.0004    0.0019   -0.0027   -0.0019    0.4242    0.4004    0.0002
          40   -0.0076   -0.0144   -0.0264    0.0230    0.0024   -0.0021    0.0103    0.0000
          41    0.0409    0.0420    0.0803   -0.0531   -0.0029    0.0015   -0.0108   -0.0001
          42   -0.0041   -0.0119   -0.0200    0.0120   -0.0004   -0.0015    0.0018   -0.0000
          43   -0.0039    0.0477   -0.0182    0.0005   -0.0017   -0.0000    0.0002   -0.0692
          44    0.0344   -0.0781    0.0249   -0.0031    0.0020    0.0001   -0.0008    0.3193
          45    0.0030   -0.0382    0.0143   -0.0004   -0.0017    0.0000   -0.0001    0.0481
          46   -0.0402    0.0036    0.0112   -0.0050    0.0002   -0.0000   -0.0012   -0.0987
          47   -0.0952   -0.0658    0.0260   -0.0039    0.0003   -0.0000   -0.0012   -0.0995
          48    0.0170   -0.0013   -0.0025    0.0009   -0.0001    0.0001    0.0006    0.0510
          49   -0.0013   -0.0021    0.0289   -0.0129   -0.0000    0.0000   -0.0004   -0.0125
          50   -0.1140   -0.0287    0.0173   -0.0009   -0.0007   -0.0002    0.0017    0.0485
          51   -0.0067    0.0058   -0.0020   -0.0005   -0.0002    0.0000    0.0002    0.0057
          52   -0.0082    0.0617   -0.0180    0.0029   -0.0027   -0.0000   -0.0006    0.2942
          53   -0.0284   -0.0686    0.0264   -0.0046    0.0004    0.0000    0.0002   -0.0841
          54    0.0096   -0.0506    0.0136   -0.0033    0.0007    0.0000    0.0005   -0.2291
          55   -0.0024   -0.0133   -0.0408   -0.1205    0.0010    0.0006    0.0014    0.0005
          56    0.0001   -0.0012   -0.0073   -0.0254    0.0006    0.0006    0.0001    0.0001
          57    0.0000   -0.0001    0.0008    0.0023   -0.0011    0.0005    0.0001    0.0000
          58    0.0019    0.0141    0.0411    0.1210   -0.0013   -0.0006   -0.0006   -0.0060
          59   -0.0015   -0.0012   -0.0074   -0.0278    0.0004    0.0004    0.0002    0.0041
          60    0.0003   -0.0003   -0.0005   -0.0020    0.0008   -0.0009   -0.0001   -0.0001


   Root No.      49        50        51        52        53        54

                49 A      50 A      51 A      52 A      53 A      54 A   

                3061.2    3072.4    3082.3    3131.1    3138.6    3144.1
  
           1   -0.0000   -0.0001    0.0002   -0.0011    0.0000    0.0001
           2   -0.0002   -0.0002    0.0003    0.0005    0.0002    0.0005
           3    0.0001    0.0003   -0.0003   -0.0003   -0.0001    0.0001
           4    0.0001   -0.0000   -0.0000    0.0019    0.0001    0.0001
           5    0.0000    0.0000   -0.0000    0.0006   -0.0003   -0.0004
           6    0.0000   -0.0000   -0.0000    0.0001   -0.0001    0.0001
           7    0.0001    0.0001   -0.0001   -0.0001   -0.0004   -0.0005
           8   -0.0000    0.0000   -0.0000    0.0012   -0.0066    0.0044
           9   -0.0000   -0.0001    0.0000   -0.0001    0.0001   -0.0001
          10   -0.0000    0.0000    0.0010   -0.0068    0.0001   -0.0001
          11   -0.0000    0.0003    0.0002   -0.0008    0.0001   -0.0001
          12    0.0000   -0.0000   -0.0003    0.0006   -0.0000    0.0000
          13   -0.0000    0.0000   -0.0002    0.0500   -0.0006    0.0004
          14    0.0001   -0.0001   -0.0001   -0.0573    0.0008   -0.0004
          15    0.0000    0.0000    0.0000    0.0102   -0.0001    0.0001
          16    0.0029    0.0035   -0.0009    0.0000    0.0003    0.0001
          17   -0.0172   -0.0307    0.0101   -0.0000   -0.0016   -0.0003
          18   -0.0020   -0.0021    0.0005   -0.0000   -0.0002   -0.0000
          19   -0.0053    0.0063    0.0112    0.0002   -0.0000   -0.0000
          20    0.0226   -0.0194   -0.0303    0.0003   -0.0000    0.0000
          21    0.0023   -0.0029   -0.0052   -0.0000    0.0000    0.0000
          22   -0.0007    0.0231   -0.0115   -0.0000    0.0001    0.0001
          23    0.0014   -0.0029    0.0024    0.0001    0.0001   -0.0000
          24    0.0005   -0.0181    0.0089    0.0000   -0.0001   -0.0000
          25   -0.0230   -0.0018   -0.0196    0.0002   -0.0000    0.0000
          26   -0.0232    0.0006   -0.0161   -0.0000    0.0000    0.0000
          27    0.0119    0.0009    0.0101   -0.0001    0.0000   -0.0000
          28    0.0003    0.0006   -0.0002   -0.0001   -0.0393   -0.0639
          29   -0.0003   -0.0005    0.0001    0.0008    0.0457   -0.0299
          30   -0.0000   -0.0000    0.0000   -0.0000   -0.0001    0.0008
          31   -0.0001   -0.0005    0.0003    0.0008    0.0004   -0.0001
          32   -0.0004   -0.0006    0.0002    0.0002    0.0000    0.0003
          33   -0.0006   -0.0012    0.0006    0.0022    0.0008   -0.0005
          34   -0.0010    0.0003    0.0001   -0.0103    0.0002    0.0003
          35   -0.0004    0.0001    0.0000   -0.0072   -0.0002   -0.0006
          36   -0.0012    0.0003    0.0001   -0.0118    0.0001    0.0003
          37   -0.0006    0.0002   -0.0000   -0.0039   -0.0005    0.0007
          38   -0.0000    0.0000    0.0001   -0.0019   -0.0004   -0.0002
          39    0.0013   -0.0003    0.0000    0.0099    0.0009   -0.0010
          40    0.0003   -0.0007   -0.0005   -0.5158    0.0061   -0.0034
          41   -0.0002    0.0007    0.0003    0.6740   -0.0079    0.0045
          42   -0.0001   -0.0001    0.0000   -0.1232    0.0014   -0.0008
          43   -0.0419   -0.0680    0.0210    0.0001   -0.0032   -0.0004
          44    0.1978    0.3277   -0.1018   -0.0006    0.0176    0.0034
          45    0.0289    0.0468   -0.0145   -0.0001    0.0023    0.0003
          46    0.2651    0.0067    0.1905   -0.0000    0.0002   -0.0003
          47    0.2763    0.0027    0.1958    0.0001    0.0002   -0.0003
          48   -0.1363   -0.0036   -0.0979   -0.0001   -0.0001    0.0001
          49    0.0721   -0.0625   -0.0947    0.0008   -0.0001    0.0001
          50   -0.2698    0.2267    0.3400   -0.0012    0.0002   -0.0003
          51   -0.0323    0.0280    0.0426   -0.0004    0.0000   -0.0000
          52    0.0147   -0.2464    0.1211    0.0006   -0.0011   -0.0006
          53   -0.0078    0.0678   -0.0355   -0.0002    0.0002    0.0002
          54   -0.0115    0.1920   -0.0944   -0.0005    0.0009    0.0005
          55    0.0004    0.0004    0.0002   -0.0078   -0.1473    0.6444
          56    0.0000   -0.0001    0.0002   -0.0046   -0.0722    0.3994
          57    0.0000    0.0000   -0.0000    0.0001    0.0019   -0.0086
          58   -0.0042   -0.0075    0.0023    0.0089    0.6174    0.1179
          59    0.0028    0.0050   -0.0016   -0.0056   -0.3954   -0.0954
          60   -0.0001   -0.0001    0.0000    0.0000   -0.0015   -0.0000


           MASS-WEIGHTED COORDINATE ANALYSIS (NORMAL COORDINATES)


   Root No.       1         2         3         4         5         6         7         8

                 1 A       2 A       3 A       4 A       5 A       6 A       7 A       8 A   

                  85.0     165.1     224.6     272.1     374.3     415.1     484.6     498.3
  
           1    0.0147   -0.0604   -0.0032   -0.1240    0.1490   -0.0377    0.0137    0.1141
           2   -0.0409   -0.0285   -0.1155    0.1514    0.0517   -0.1848    0.1994   -0.1568
           3   -0.0791   -0.3256   -0.2073   -0.0601    0.2611    0.0534   -0.1162   -0.0371
           4   -0.0071   -0.0332   -0.0269   -0.0828    0.1253   -0.0640    0.0001   -0.2436
           5   -0.0430   -0.0013    0.0011   -0.0067   -0.0974    0.1640   -0.1714    0.1536
           6   -0.3509    0.3285   -0.1985   -0.0961   -0.0996    0.0135    0.0183    0.0116
           7    0.0034   -0.0492   -0.0586   -0.0271    0.1812   -0.1797    0.1547   -0.1583
           8   -0.0213   -0.0292   -0.0518    0.0870    0.0025   -0.0104    0.0871    0.1767
           9    0.0251    0.0091   -0.1939   -0.0434    0.3401    0.0036    0.2217    0.4569
          10    0.0344   -0.1044    0.0431   -0.1330    0.0655    0.1778   -0.1859   -0.0153
          11   -0.0059   -0.0482   -0.0420    0.1399    0.0091   -0.0720    0.1450   -0.3001
          12    0.0572   -0.3271    0.0732   -0.0334    0.0738    0.3273    0.0675   -0.1552
          13    0.0308   -0.0937    0.0540   -0.1290    0.0682    0.1663   -0.2160   -0.0029
          14   -0.0169   -0.0419    0.0799    0.1238   -0.0710    0.0343   -0.0813    0.0138
          15   -0.1279   -0.0448    0.4627    0.3126    0.0668   -0.1885   -0.0435   -0.0073
          16   -0.1518   -0.0298    0.1905   -0.2208   -0.2218   -0.2238   -0.0678    0.2579
          17    0.0081    0.0071    0.0201   -0.1065    0.0211   -0.0305    0.0377   -0.0538
          18   -0.3047   -0.2971   -0.0129   -0.0487   -0.1742   -0.2357   -0.1861   -0.0574
          19    0.1139   -0.0464   -0.1098    0.0189   -0.1452   -0.0625    0.1613   -0.1087
          20    0.0320   -0.0178   -0.0212   -0.0294    0.0329   -0.0134   -0.0530   -0.2082
          21    0.3015   -0.1309   -0.1650   -0.1246   -0.3280   -0.0017    0.2701    0.0621
          22   -0.1306    0.2449    0.2339    0.0025   -0.0183    0.1118    0.3204    0.0787
          23    0.0582    0.0929    0.0985   -0.2148    0.0263    0.0566   -0.0788    0.0688
          24   -0.1995    0.1642    0.1537    0.0721    0.0809    0.2978    0.0991   -0.1274
          25    0.0530    0.2223   -0.0763    0.0999    0.1094   -0.1204   -0.1004   -0.0649
          26    0.0527    0.0662    0.0650   -0.2017    0.0466    0.0581   -0.1361    0.0167
          27    0.1707    0.3323   -0.1572    0.1139    0.1575   -0.1392   -0.2394    0.0394
          28    0.0341   -0.0676   -0.2146    0.5085   -0.1984    0.1927   -0.0863    0.0722
          29   -0.0179   -0.0270   -0.0474    0.0826    0.0001   -0.0149    0.0947    0.1926
          30    0.5076    0.1540    0.2186   -0.0695   -0.1245   -0.0015   -0.0513   -0.0864
          31    0.0520    0.0103   -0.0203   -0.0242    0.1248    0.0520    0.0979    0.0917
          32   -0.0351    0.0224   -0.0697    0.0724    0.0455   -0.1794    0.1018    0.0043
          33   -0.0436   -0.1037   -0.0490   -0.0214    0.0376   -0.0125   -0.0712   -0.0342
          34    0.0802   -0.1046    0.0737    0.0499    0.1747   -0.0798    0.0763    0.0869
          35   -0.0090   -0.0323    0.1073    0.0487   -0.0435    0.0499   -0.1329    0.0268
          36   -0.1801    0.1968   -0.1764   -0.1173   -0.1561    0.0628   -0.0367   -0.1421
          37   -0.1015    0.1052   -0.1130   -0.1061   -0.1221    0.0342   -0.0661   -0.2747
          38   -0.0270    0.0496   -0.1239   -0.0945   -0.0620    0.1344   -0.0611    0.0763
          39   -0.1578    0.1623   -0.1242   -0.0803   -0.1210    0.0393   -0.0328   -0.1121
          40    0.0144   -0.0384    0.0316   -0.0551    0.0085    0.1012   -0.1228    0.0733
          41   -0.0002   -0.0159    0.0645    0.0442   -0.0333    0.0224   -0.0713    0.0661
          42   -0.0351    0.0143    0.2908    0.2101   -0.0045   -0.2105   -0.0194    0.0236
          43   -0.0884   -0.0520    0.1088   -0.1383   -0.2007   -0.1200   -0.0658    0.1688
          44    0.0036    0.0049    0.0129   -0.0433    0.0012   -0.0023   -0.0024   -0.0003
          45   -0.1602   -0.1645    0.0247   -0.0361   -0.2121   -0.1976   -0.0282    0.0183
          46    0.0383    0.1080   -0.0815    0.0697    0.0571   -0.1402   -0.1273   -0.0298
          47    0.0171    0.0349    0.0408   -0.0798    0.0072    0.0285   -0.0183    0.0511
          48    0.0982    0.2125   -0.1180    0.0682    0.0834   -0.2209   -0.2213    0.0843
          49    0.0656   -0.0426   -0.0868    0.0380   -0.1355   -0.1098    0.1642   -0.0602
          50    0.0078   -0.0095   -0.0113    0.0078    0.0054   -0.0141    0.0053   -0.0793
          51    0.1703   -0.0662   -0.1245   -0.0949   -0.2700   -0.1206    0.1771    0.1064
          52   -0.0735    0.1176    0.1429    0.0038   -0.0433    0.1333    0.2360    0.0289
          53    0.0331    0.0560    0.0484   -0.0852    0.0019    0.0192   -0.0301    0.0749
          54   -0.1093    0.0972    0.1332    0.0340   -0.0234    0.2138    0.2157   -0.0496
          55    0.0148   -0.0211   -0.0836    0.2308   -0.1295    0.1325   -0.0854    0.0782
          56   -0.0122   -0.0033    0.0217   -0.1070    0.1090   -0.1234    0.1209   -0.0323
          57    0.1802    0.1449    0.1319   -0.0365   -0.1733   -0.0128   -0.0250   -0.0540
          58    0.0162   -0.0219   -0.0831    0.2312   -0.1302    0.1336   -0.0859    0.0813
          59    0.0041   -0.0109   -0.0449    0.1482   -0.1073    0.1098   -0.0610    0.1463
          60    0.2379   -0.0189    0.1031   -0.0045   -0.0373    0.0133   -0.0970   -0.1836


   Root No.       9        10        11        12        13        14        15        16

                 9 A      10 A      11 A      12 A      13 A      14 A      15 A      16 A   

                 521.1     557.5     608.6     686.3     697.3     754.3     811.9     822.5
  
           1   -0.2553   -0.0406   -0.0264   -0.1096   -0.0461    0.0106   -0.0607    0.0804
           2   -0.0313   -0.0542    0.0295    0.0008    0.0015   -0.0247   -0.0060    0.0768
           3    0.0863   -0.1828   -0.0531   -0.0735   -0.2622    0.1174   -0.0585    0.1882
           4   -0.1147    0.2359   -0.0125    0.2814   -0.1720    0.0757    0.0376   -0.1137
           5   -0.0757    0.0808   -0.0372    0.2586   -0.1260    0.0089   -0.0502   -0.0333
           6    0.0453   -0.0102    0.0096   -0.0277    0.0815    0.0267   -0.1708   -0.2324
           7   -0.2277    0.0810   -0.0071    0.0543   -0.1638    0.0769    0.0618   -0.1102
           8   -0.2372   -0.1167   -0.0074   -0.2783   -0.0227    0.0627    0.0603   -0.0548
           9    0.2405    0.1983   -0.0343    0.1778    0.1714   -0.1190    0.0885    0.0883
          10    0.0616    0.1118    0.0173   -0.1749    0.0948    0.0336    0.0141    0.0931
          11    0.0155    0.0408    0.1261    0.0906    0.2946   -0.1005   -0.0722    0.0664
          12   -0.1674   -0.3534    0.2563    0.1688    0.2738    0.0237    0.0696    0.0405
          13    0.0622    0.1710   -0.0066   -0.1410    0.0503    0.0594   -0.0043    0.1107
          14   -0.0589    0.1044   -0.0319    0.4337   -0.1817   -0.0071   -0.0249   -0.1262
[...]
 TRAVEL (Ang.)       0.1845         C  2 -- C  3         +15.4% ( 54.2%)     72.6%
 REDUCED MASS        1.4701         C  2 -- H 13         +15.1% ( 53.7%)      0.1%
 EFFECTIVE MASS      6.6497
 FORCE CONSTANT      1.5722

 VIBRATION         37   37A           ATOM PAIR      ENERGY CONTRIBUTION    RADIAL
 FREQUENCY          1370.06         C  8 -- C  9         +14.0% ( 52.5%)     99.5%
 TRANSITION DIPOLE   0.0728         C  1 -- C  4          +8.8% ( 41.5%)     87.5%
 TRAVEL (Ang.)       0.2542         C  7 -- C  9          +7.3% ( 37.9%)      4.2%
 REDUCED MASS        0.7618         C  1 -- C  3          +7.2% ( 37.6%)     20.7%
 EFFECTIVE MASS      7.6287
 FORCE CONSTANT      0.8425

 VIBRATION         38   38A           ATOM PAIR      ENERGY CONTRIBUTION    RADIAL
 FREQUENCY          1386.94         C  2 -- H 13         +16.9% ( 54.4%)      6.4%
 TRANSITION DIPOLE   0.1223         C  2 -- H 12         +16.6% ( 54.0%)      6.9%
 TRAVEL (Ang.)       0.2422         C  2 -- C  5         +16.0% ( 53.0%)     89.2%
 REDUCED MASS        0.8289         C  2 -- C  3         +10.7% ( 43.4%)     22.7%
 EFFECTIVE MASS      6.5319
 FORCE CONSTANT      0.9394

 VIBRATION         39   39A           ATOM PAIR      ENERGY CONTRIBUTION    RADIAL
 FREQUENCY          1431.36         C  1 -- C  3         +16.6% ( 64.5%)     75.8%
 TRANSITION DIPOLE   0.2319         C  1 -- C  6         +15.7% ( 62.6%)     87.7%
 TRAVEL (Ang.)       0.1509         C  1 -- C  4         +13.4% ( 57.9%)     15.5%
 REDUCED MASS        2.0692         C  1 -- H 11         +10.5% ( 51.2%)      0.1%
 EFFECTIVE MASS     10.9175
 FORCE CONSTANT      2.4977

 VIBRATION         40   40A           ATOM PAIR      ENERGY CONTRIBUTION    RADIAL
 FREQUENCY          1494.36         C  4 -- C  7         +18.4% ( 65.9%)     74.6%
 TRANSITION DIPOLE   0.1506         C  1 -- C  4         +18.4% ( 65.8%)     97.8%
 TRAVEL (Ang.)       0.1406         C  4 -- C  5         +10.7% ( 50.2%)     13.8%
 REDUCED MASS        2.2837         C  1 -- C  6          +9.5% ( 47.5%)     84.0%
 EFFECTIVE MASS     11.4936
 FORCE CONSTANT      3.0047

 VIBRATION         41   41A           ATOM PAIR      ENERGY CONTRIBUTION    RADIAL
 FREQUENCY          1807.20         C  7 -- C  9         +37.7% ( 91.2%)     99.7%
 TRANSITION DIPOLE   0.1408         C  8 -- C  9         +15.8% ( 59.1%)     75.1%
 TRAVEL (Ang.)       0.0955         C  9 -- H 16         +12.5% ( 52.6%)      3.9%
 REDUCED MASS        4.0877         C  4 -- C  7         +10.4% ( 47.9%)     29.8%
 EFFECTIVE MASS     11.9340
 FORCE CONSTANT      7.8657

 VIBRATION         42   42A           ATOM PAIR      ENERGY CONTRIBUTION    RADIAL
 FREQUENCY          1830.83         C  6 -- C  8         +37.1% ( 90.1%)    100.0%
 TRANSITION DIPOLE   0.4024         C  8 -- C  9         +12.3% ( 51.8%)     26.6%
 TRAVEL (Ang.)       0.0975         C  1 -- C  6         +11.8% ( 50.9%)     47.2%
 REDUCED MASS        3.8778         C  8 -- H 18         +11.1% ( 49.2%)      5.8%
 EFFECTIVE MASS     11.8486         C  6 -- H 15         +11.0% ( 49.0%)      5.3%
 FORCE CONSTANT      7.6584

 VIBRATION         43   43A           ATOM PAIR      ENERGY CONTRIBUTION    RADIAL
 FREQUENCY          1881.90         C  4 -- C  5         +28.5% ( 79.6%)     97.2%
 TRANSITION DIPOLE   0.2993         C  4 -- C  7         +17.2% ( 61.9%)     65.8%
 TRAVEL (Ang.)       0.1107         C  1 -- C  4         +12.6% ( 52.9%)      2.1%
 REDUCED MASS        2.9259         C  3 -- C 10          +6.3% ( 37.3%)    100.0%
 EFFECTIVE MASS     11.8858
 FORCE CONSTANT      6.1052

 VIBRATION         44   44A           ATOM PAIR      ENERGY CONTRIBUTION    RADIAL
 FREQUENCY          1920.65         C  3 -- C 10         +38.0% ( 91.1%)    100.0%
 TRANSITION DIPOLE   0.3443         C  2 -- C  3         +15.8% ( 58.7%)     38.5%
 TRAVEL (Ang.)       0.0900         C  1 -- C  3         +15.8% ( 58.7%)     40.2%
 REDUCED MASS        4.3365         C 10 -- H 20          +7.6% ( 40.8%)     11.7%
 EFFECTIVE MASS     11.9144
 FORCE CONSTANT      9.4252

 VIBRATION         45   45A           ATOM PAIR      ENERGY CONTRIBUTION    RADIAL
 FREQUENCY          2839.97         C  1 -- H 11         +97.2% (100.0%)    100.0%
 TRANSITION DIPOLE   0.1403         C  1 -- C  3          +0.9% (  9.9%)      9.0%
 TRAVEL (Ang.)       0.1598         C  1 -- C  4          +0.9% (  9.8%)     10.6%
 REDUCED MASS        0.9298         C  1 -- C  6          +0.9% (  9.8%)      6.8%
 EFFECTIVE MASS      1.4266
 FORCE CONSTANT      4.4186

 VIBRATION         46   46A           ATOM PAIR      ENERGY CONTRIBUTION    RADIAL
 FREQUENCY          2969.56         C  2 -- H 13         +53.4% ( 75.8%)     97.1%
 TRANSITION DIPOLE   0.0670         C  2 -- H 12         +44.4% ( 69.1%)     96.2%
 TRAVEL (Ang.)       0.2086         C  2 -- C  5          +1.1% ( 10.8%)      0.1%
 REDUCED MASS        0.5217         C  2 -- C  3          +1.1% ( 10.8%)      0.0%
 EFFECTIVE MASS      1.5345
 FORCE CONSTANT      2.7105

 VIBRATION         47   47A           ATOM PAIR      ENERGY CONTRIBUTION    RADIAL
 FREQUENCY          3043.07         C  2 -- H 12         +54.2% ( 72.7%)     98.0%
 TRANSITION DIPOLE   0.1426         C  2 -- H 13         +44.3% ( 65.7%)     96.8%
 TRAVEL (Ang.)       0.2131         C  2 -- C  3          +0.7% (  8.4%)     36.1%
 REDUCED MASS        0.4878         C  2 -- C  5          +0.7% (  8.3%)     33.6%
 EFFECTIVE MASS      1.2854
 FORCE CONSTANT      2.6613

 VIBRATION         48   48A           ATOM PAIR      ENERGY CONTRIBUTION    RADIAL
 FREQUENCY          3053.44         C  8 -- H 18         +50.9% ( 72.5%)    100.0%
 TRANSITION DIPOLE   0.2257         C  6 -- H 15         +37.9% ( 62.6%)    100.0%
 TRAVEL (Ang.)       0.2350         C  9 -- H 16          +7.8% ( 28.4%)    100.0%
 REDUCED MASS        0.4000         C  6 -- C  8          +1.0% ( 10.3%)      0.2%
 EFFECTIVE MASS      1.4712
 FORCE CONSTANT      2.1975

 VIBRATION         49   49A           ATOM PAIR      ENERGY CONTRIBUTION    RADIAL
 FREQUENCY          3061.23         C  9 -- H 16         +56.2% ( 76.1%)    100.0%
 TRANSITION DIPOLE   0.3049         C  7 -- H 17         +26.9% ( 52.6%)    100.0%
 TRAVEL (Ang.)       0.2346         C  6 -- H 15         +14.2% ( 38.2%)    100.0%
 REDUCED MASS        0.4003         C  7 -- C  9          +1.0% ( 10.2%)      1.8%
 EFFECTIVE MASS      1.4722
 FORCE CONSTANT      2.2100

 VIBRATION         50   50A           ATOM PAIR      ENERGY CONTRIBUTION    RADIAL
 FREQUENCY          3072.35         C  6 -- H 15         +40.4% ( 64.6%)     99.9%
 TRANSITION DIPOLE   0.4568         C  8 -- H 18         +36.2% ( 61.1%)     99.9%
 TRAVEL (Ang.)       0.2562         C  7 -- H 17         +19.8% ( 45.2%)    100.0%
 REDUCED MASS        0.3344         C  6 -- C  8          +1.6% ( 12.9%)     99.9%
 EFFECTIVE MASS      1.5724
 FORCE CONSTANT      1.8599

 VIBRATION         51   51A           ATOM PAIR      ENERGY CONTRIBUTION    RADIAL
 FREQUENCY          3082.29         C  7 -- H 17         +49.4% ( 71.3%)     99.9%
 TRANSITION DIPOLE   0.3397         C  9 -- H 16         +32.9% ( 58.2%)     99.9%
 TRAVEL (Ang.)       0.2448         C  8 -- H 18          +9.7% ( 31.6%)    100.0%
 REDUCED MASS        0.3649         C  6 -- H 15          +4.3% ( 21.1%)     99.9%
 EFFECTIVE MASS      1.6047
 FORCE CONSTANT      2.0427

 VIBRATION         52   52A           ATOM PAIR      ENERGY CONTRIBUTION    RADIAL
 FREQUENCY          3131.08         C  5 -- H 14         +96.5% ( 99.9%)    100.0%
 TRANSITION DIPOLE   0.4334         C  4 -- C  5          +1.8% ( 13.6%)     49.5%
 TRAVEL (Ang.)       0.1523         C  2 -- C  5          +1.6% ( 13.0%)     24.6%
 REDUCED MASS        0.9282
 EFFECTIVE MASS      1.5548
 FORCE CONSTANT      5.3614

 VIBRATION         53   53A           ATOM PAIR      ENERGY CONTRIBUTION    RADIAL
 FREQUENCY          3138.60         C 10 -- H 20         +93.6% ( 97.5%)     99.7%
 TRANSITION DIPOLE   0.2729         C 10 -- H 19          +4.8% ( 22.1%)     32.7%
 TRAVEL (Ang.)       0.1591         C  3 -- C 10          +1.5% ( 12.3%)     63.5%
 REDUCED MASS        0.8486
 EFFECTIVE MASS      1.4553
 FORCE CONSTANT      4.9252

 VIBRATION         54   54A           ATOM PAIR      ENERGY CONTRIBUTION    RADIAL
 FREQUENCY          3144.08         C 10 -- H 19         +92.8% ( 98.0%)     99.9%
 TRANSITION DIPOLE   0.2488         C 10 -- H 20          +5.8% ( 24.4%)     67.8%
 TRAVEL (Ang.)       0.1571         C  3 -- C 10          +1.4% ( 11.9%)     23.5%
 REDUCED MASS        0.8695
 EFFECTIVE MASS      1.5412
 FORCE CONSTANT      5.0640

      SYMMETRY NUMBER FOR POINT-GROUP C1  =  1


          SYSTEM IS A GROUND STATE



 InChI=1S/C10H10/c1-8-6-7-9-4-2-3-5-10(8)9/h2-5,7,10H,1,6H2


          MOLECULE IS NOT LINEAR

          THERE ARE 54 GENUINE VIBRATIONS IN THIS SYSTEM
          THIS THERMODYNAMICS CALCULATION IS LIMITED TO
          MOLECULES WHICH HAVE NO INTERNAL ROTATIONS




                    CALCULATED THERMODYNAMIC PROPERTIES
                                          *
   TEMP. (K)   PARTITION FUNCTION   H.O.F.    ENTHALPY  HEAT CAPACITY ENTROPY
                                   KCAL/MOL   CAL/MOLE    CAL/K/MOL  CAL/K/MOL


 298.00  VIB.     0.3046D+02                  3204.8993    26.6901    17.5437
         ROT.     0.5068D+06                   888.2803     2.9808    29.0843
         INT.     0.1543D+08                  4093.1796    29.6709    46.6280
         TRA.     0.1436D+28                  1480.4672     4.9680    40.5022
         TOT.                       59.722    5573.6467    34.6389    87.1302

 200.00  VIB.     0.6000D+01                  1181.0601    14.8123     9.4659
         ROT.     0.2786D+06                   596.1613     2.9808    27.8956
         INT.     0.1672D+07                  1777.2213    17.7931    37.3615
         TRA.     0.7896D+27                   993.6021     4.9680    38.5210
         TOT.                       56.919    2770.8235    22.7611    75.8826

 210.00  VIB.     0.6974D+01                  1334.8426    15.9489    10.2160
         ROT.     0.2998D+06                   625.9693     2.9808    28.0411
         INT.     0.2091D+07                  1960.8119    18.9297    38.2571
         TRA.     0.8496D+27                  1043.2822     4.9680    38.7634
         TOT.                       57.153    3004.0942    23.8977    77.0205

 220.00  VIB.     0.8137D+01                  1500.1259    17.1119    10.9847
         ROT.     0.3215D+06                   655.7774     2.9808    28.1797
         INT.     0.2615D+07                  2155.9033    20.0927    39.1644
         TRA.     0.9110D+27                  1092.9623     4.9680    38.9945
         TOT.                       57.397    3248.8657    25.0607    78.1589

 230.00  VIB.     0.9527D+01                  1677.1573    18.2979    11.7714
         ROT.     0.3436D+06                   685.5855     2.9808    28.3123
         INT.     0.3274D+07                  2362.7428    21.2787    40.0837
         TRA.     0.9738D+27                  1142.6424     4.9680    39.2154
         TOT.                       57.654    3505.3852    26.2467    79.2990

 240.00  VIB.     0.1119D+02                  1866.1489    19.5033    12.5756
         ROT.     0.3663D+06                   715.3935     2.9808    28.4391
         INT.     0.4100D+07                  2581.5425    22.4842    41.0147
         TRA.     0.1038D+28                  1192.3226     4.9680    39.4268
         TOT.                       57.922    3773.8650    27.4522    80.4415

 250.00  VIB.     0.1320D+02                  2067.2765    20.7245    13.3964
         ROT.     0.3894D+06                   745.2016     2.9808    28.5608
         INT.     0.5140D+07                  2812.4781    23.7053    41.9572
         TRA.     0.1103D+28                  1242.0027     4.9680    39.6296
         TOT.                       58.203    4054.4808    28.6733    81.5868

 260.00  VIB.     0.1562D+02                  2280.6784    21.9576    14.2333
         ROT.     0.4130D+06                   775.0097     2.9808    28.6777
         INT.     0.6449D+07                  3055.6880    24.9384    42.9110
         TRA.     0.1170D+28                  1291.6828     4.9680    39.8245
         TOT.                       58.496    4347.3708    29.9064    82.7354

 270.00  VIB.     0.1854D+02                  2506.4559    23.1990    15.0852
         ROT.     0.4370D+06                   804.8177     2.9808    28.7902
         INT.     0.8101D+07                  3311.2736    26.1798    43.8754
         TRA.     0.1239D+28                  1341.3629     4.9680    40.0120
         TOT.                       58.801    4652.6365    31.1478    83.8874

 280.00  VIB.     0.2207D+02                  2744.6747    24.4453    15.9514
         ROT.     0.4615D+06                   834.6258     2.9808    28.8986
         INT.     0.1019D+08                  3579.3005    27.4261    44.8500
         TRA.     0.1308D+28                  1391.0430     4.9680    40.1926
         TOT.                       59.119    4970.3434    32.3941    85.0426

 290.00  VIB.     0.2636D+02                  2995.3659    25.6930    16.8310
         ROT.     0.4865D+06                   864.4339     2.9808    29.0032
         INT.     0.1283D+08                  3859.7997    28.6738    45.8342
         TRA.     0.1379D+28                  1440.7231     4.9680    40.3670
         TOT.                       59.449    5300.5228    33.6418    86.2012

 300.00  VIB.     0.3159D+02                  3258.5284    26.9390    17.7230
         ROT.     0.5119D+06                   894.2419     2.9808    29.1043
         INT.     0.1617D+08                  4152.7703    29.9198    46.8273
         TRA.     0.1451D+28                  1490.4032     4.9680    40.5354
         TOT.                       59.792    5643.1735    34.8878    87.3627

 310.00  VIB.     0.3795D+02                  3534.1315    28.1806    18.6266
         ROT.     0.5377D+06                   924.0500     2.9808    29.2020
         INT.     0.2041D+08                  4458.1814    31.1614    47.8286
         TRA.     0.1524D+28                  1540.0833     4.9680    40.6983
         TOT.                       60.147    5998.2647    36.1294    88.5269

 320.00  VIB.     0.4573D+02                  3822.1169    29.4151    19.5408
         ROT.     0.5639D+06                   953.8580     2.9808    29.2966
         INT.     0.2579D+08                  4775.9749    32.3959    48.8375
         TRA.     0.1598D+28                  1589.7634     4.9680    40.8560
         TOT.                       60.514    6365.7383    37.3639    89.6935

 330.00  VIB.     0.5526D+02                  4122.4018    30.6401    20.4648
         ROT.     0.5905D+06                   983.6661     2.9808    29.3884
         INT.     0.3263D+08                  5106.0679    33.6210    49.8531
         TRA.     0.1674D+28                  1639.4435     4.9680    41.0089
         TOT.                       60.894    6745.5114    38.5890    90.8620

 340.00  VIB.     0.6694D+02                  4434.8816    31.8537    21.3975
         ROT.     0.6176D+06                  1013.4742     2.9808    29.4773
         INT.     0.4134D+08                  5448.3557    34.8345    50.8749
         TRA.     0.1750D+28                  1689.1236     4.9680    41.1572
         TOT.                       61.286    7137.4794    39.8026    92.0321

 350.00  VIB.     0.8129D+02                  4759.4322    33.0540    22.3382
         ROT.     0.6450D+06                  1043.2822     2.9808    29.5638
         INT.     0.5244D+08                  5802.7144    36.0348    51.9020
         TRA.     0.1828D+28                  1738.8037     4.9680    41.3012
         TOT.                       61.690    7541.5181    41.0029    93.2032

 360.00  VIB.     0.9896D+02                  5095.9129    34.2395    23.2860
         ROT.     0.6729D+06                  1073.0903     2.9808    29.6477
         INT.     0.6659D+08                  6169.0032    37.2203    52.9338
         TRA.     0.1907D+28                  1788.4838     4.9680    41.4412
         TOT.                       62.106    7957.4870    42.1883    94.3749

 370.00  VIB.     0.1208D+03                  5444.1687    35.4089    24.2401
         ROT.     0.7011D+06                  1102.8984     2.9808    29.7294
         INT.     0.8466D+08                  6547.0671    38.3897    53.9695
         TRA.     0.1987D+28                  1838.1639     4.9680    41.5773
         TOT.                       62.534    8385.2310    43.3577    95.5468

 380.00  VIB.     0.1477D+03                  5804.0325    36.5609    25.1998
         ROT.     0.7297D+06                  1132.7064     2.9808    29.8089
         INT.     0.1078D+09                  6936.7389    39.5418    55.0087
         TRA.     0.2068D+28                  1887.8440     4.9680    41.7098
         TOT.                       62.973    8824.5829    44.5098    96.7184

 390.00  VIB.     0.1810D+03                  6175.3272    37.6949    26.1642
         ROT.     0.7587D+06                  1162.5145     2.9808    29.8863
         INT.     0.1373D+09                  7337.8417    40.6757    56.0505
         TRA.     0.2150D+28                  1937.5242     4.9680    41.8388
         TOT.                       63.424    9275.3658    45.6437    97.8893

 400.00  VIB.     0.2222D+03                  6557.8678    38.8100    27.1326
         ROT.     0.7881D+06                  1192.3226     2.9808    29.9618
         INT.     0.1751D+09                  7750.1904    41.7908    57.0944
         TRA.     0.2233D+28                  1987.2043     4.9680    41.9646
         TOT.                       63.886    9737.3947    46.7588    99.0590

   *: NOTE: HEATS OF FORMATION ARE RELATIVE TO THE
            ELEMENTS IN THEIR STANDARD STATE AT 298K
              (=  Standard Enthalpy of Formation).

            Hvib:  Zero-point energy is not included.
                   frequencies of less than zero cm-1 are not included.
            Hrot = (3/2)RT
            Htra = (3/2)RT + pV = (5/2)RT

            Heat capacity is Cp, not Cv

          For more information, see: HTTP://OpenMOPAC.net/Manual/thermochemistry.html


           FORCE CONSTANT IN CARTESIAN COORDINATES (Millidynes/A)

    ATOM   CHEMICAL       X               Y               Z
   NUMBER   SYMBOL  FORCE CONSTANT  FORCE CONSTANT  FORCE CONSTANT

      1       C       10.146284        8.446367        7.803032
      2       C        9.469614        8.272859        7.862698
      3       C        8.096815       16.899849        2.799373
      4       C       15.820908        9.808278        3.367632
      5       C       14.786755        9.708270        2.582710
      6       C        7.997940       12.830336        6.083914
      7       C       11.955069       11.005704        4.568263
      8       C        8.722862       12.395560        6.218181
      9       C       11.837837       10.512323        4.887900
     10       C        9.146227       15.499991        1.952506
     11       H        1.195095        0.593149        3.879222
     12       H        2.447741        0.962565        2.907296
     13       H        1.585437        0.641562        4.042608
     14       H        2.390439        3.576353        0.448026
     15       H        0.774062        4.884325        0.593199
     16       H        2.552690        2.779375        0.934829
     17       H        0.961594        4.818922        0.473058
     18       H        3.205676        0.966908        2.083447
     19       H        4.119927        1.984827        0.332580
     20       H        4.010440        2.090938        0.333024

 **********************
 *                    *
 * JOB ENDED NORMALLY *
 *                    *
 **********************



 TOTAL JOB TIME:             2.29 SECONDS

 == MOPAC DONE ==
