 *******************************************************************************
 **                                                                           **
 **                              MOPAC v23.1.2                                **
 **                                                                           **
 *******************************************************************************
 **          Digital Object Identifier (DOI): 10.5281/zenodo.6511958          **
 **    Visit the DOI location for information on how to cite this program.    **
 *******************************************************************************

                              PM3 CALCULATION RESULTS

 *******************************************************************************
 *  CALCULATION DONE: (MAX THREADS = 1)              Tue Jun  3 16:28:23 2025  *
 *  PM3        - The PM3 Hamiltonian to be used
 *  PRECISE    - TIGHTER CRITERIA TO BE USED
 *  NOSYM      - POINT-GROUP SYMMETRY SET TO C1
 *  THREADS=1  - MULTI-THREADING NOT USED
 *  T=         - A TIME OF 172800.0 SECONDS REQUESTED
 *  DUMP=N     - RESTART FILE WRITTEN EVERY 7200.0 SECONDS REQUESTED
 *******************************************************************************
pm3  precise nosym THREADS=1
 InChI=1S/C7H10/c1-2-7-5-3-4-6-7/h2-4,7H,1,5-6H2

   ATOM   CHEMICAL          X               Y               Z
  NUMBER   SYMBOL      (ANGSTROMS)     (ANGSTROMS)     (ANGSTROMS)

     1       C         -0.19990000  *   0.32700000  *  -0.35160000  *
     2       C          1.05670000  *   1.07030000  *   0.13560000  *
     3       C          0.16390000  *  -1.16680000  *  -0.29690000  *
     4       C          2.12430000  *   0.03730000  *   0.08990000  *
     5       C         -1.42920000  *   0.65210000  *   0.46560000  *
     6       C          1.64180000  *  -1.17130000  *  -0.14240000  *
     7       C         -2.63310000  *   0.18780000  *   0.11840000  *
     8       H         -0.38620000  *   0.61430000  *  -1.41170000  *
     9       H          0.96120000  *   1.43610000  *   1.18090000  *
    10       H          1.30820000  *   1.91730000  *  -0.53830000  *
    11       H         -0.29190000  *  -1.67820000  *   0.57930000  *
    12       H         -0.13050000  *  -1.68570000  *  -1.23430000  *
    13       H          3.17450000  *   0.23690000  *   0.27610000  *
    14       H         -1.35300000  *   1.29290000  *   1.33940000  *
    15       H          2.25510000  *  -2.06620000  *  -0.16670000  *
    16       H         -3.50550000  *   0.44170000  *   0.71170000  *
    17       H         -2.75630000  *  -0.44540000  *  -0.75510000  *



          CARTESIAN COORDINATES 

    NO.       ATOM           X           Y           Z

     1         C         -0.1999      0.3270     -0.3516
     2         C          1.0567      1.0703      0.1356
     3         C          0.1639     -1.1668     -0.2969
     4         C          2.1243      0.0373      0.0899
     5         C         -1.4292      0.6521      0.4656
     6         C          1.6418     -1.1713     -0.1424
     7         C         -2.6331      0.1878      0.1184
     8         H         -0.3862      0.6143     -1.4117
     9         H          0.9612      1.4361      1.1809
    10         H          1.3082      1.9173     -0.5383
    11         H         -0.2919     -1.6782      0.5793
    12         H         -0.1305     -1.6857     -1.2343
    13         H          3.1745      0.2369      0.2761
    14         H         -1.3530      1.2929      1.3394
    15         H          2.2551     -2.0662     -0.1667
    16         H         -3.5055      0.4417      0.7117
    17         H         -2.7563     -0.4454     -0.7551

  H: (PM3): J. J. P. STEWART, J. COMP. CHEM. 10, 209 (1989).
  C: (PM3): J. J. P. STEWART, J. COMP. CHEM. 10, 209 (1989).

           Empirical Formula: C7 H10  =    17 atoms



      MOLECULAR POINT GROUP   :   C1  


      RHF CALCULATION, NO. OF DOUBLY OCCUPIED LEVELS = 19


          Geometry optimization using EF

          DIAGONAL MATRIX USED AS START HESSIAN

 CYCLE:     1 TIME:   0.004 TIME LEFT:  2.00D  GRAD.:    58.231 HEAT:  25.65603
 CYCLE:     2 TIME:   0.008 TIME LEFT:  2.00D  GRAD.:    68.676 HEAT:  25.39329
 CYCLE:     3 TIME:   0.008 TIME LEFT:  2.00D  GRAD.:    42.465 HEAT:  24.61694
 CYCLE:     4 TIME:   0.008 TIME LEFT:  2.00D  GRAD.:    29.806 HEAT:  24.20585
 CYCLE:     5 TIME:   0.012 TIME LEFT:  2.00D  GRAD.:    28.848 HEAT:  24.02414
 CYCLE:     6 TIME:   0.008 TIME LEFT:  2.00D  GRAD.:    24.187 HEAT:  23.79869
 CYCLE:     7 TIME:   0.004 TIME LEFT:  2.00D  GRAD.:    15.464 HEAT:  23.63472
 CYCLE:     8 TIME:   0.012 TIME LEFT:  2.00D  GRAD.:    13.390 HEAT:  23.56581
 CYCLE:     9 TIME:   0.008 TIME LEFT:  2.00D  GRAD.:    12.094 HEAT:  23.51119
 CYCLE:    10 TIME:   0.004 TIME LEFT:  2.00D  GRAD.:    14.995 HEAT:  23.49858
 CYCLE:    11 TIME:   0.008 TIME LEFT:  2.00D  GRAD.:    11.356 HEAT:  23.47397
 CYCLE:    12 TIME:   0.004 TIME LEFT:  2.00D  GRAD.:     8.343 HEAT:  23.45007
 CYCLE:    13 TIME:   0.004 TIME LEFT:  2.00D  GRAD.:     5.158 HEAT:  23.43837
 CYCLE:    14 TIME:   0.008 TIME LEFT:  2.00D  GRAD.:     3.567 HEAT:  23.43100
 CYCLE:    15 TIME:   0.004 TIME LEFT:  2.00D  GRAD.:     4.314 HEAT:  23.42752
 CYCLE:    16 TIME:   0.004 TIME LEFT:  2.00D  GRAD.:     6.259 HEAT:  23.42367
 CYCLE:    17 TIME:   0.004 TIME LEFT:  2.00D  GRAD.:     7.098 HEAT:  23.41357
 CYCLE:    18 TIME:   0.004 TIME LEFT:  2.00D  GRAD.:     3.169 HEAT:  23.39820
 CYCLE:    19 TIME:   0.008 TIME LEFT:  2.00D  GRAD.:     3.906 HEAT:  23.38794
 CYCLE:    20 TIME:   0.004 TIME LEFT:  2.00D  GRAD.:     3.763 HEAT:  23.37250
 CYCLE:    21 TIME:   0.008 TIME LEFT:  2.00D  GRAD.:     6.869 HEAT:  23.35736
 CYCLE:    22 TIME:   0.004 TIME LEFT:  2.00D  GRAD.:     3.766 HEAT:  23.33197
 CYCLE:    23 TIME:   0.004 TIME LEFT:  2.00D  GRAD.:     3.260 HEAT:  23.31508
 CYCLE:    24 TIME:   0.008 TIME LEFT:  2.00D  GRAD.:     4.288 HEAT:  23.28948
 CYCLE:    25 TIME:   0.004 TIME LEFT:  2.00D  GRAD.:     4.902 HEAT:  23.26610
 CYCLE:    26 TIME:   0.004 TIME LEFT:  2.00D  GRAD.:     4.045 HEAT:  23.23805
 CYCLE:    27 TIME:   0.008 TIME LEFT:  2.00D  GRAD.:     4.661 HEAT:  23.20739
 CYCLE:    28 TIME:   0.004 TIME LEFT:  2.00D  GRAD.:     4.366 HEAT:  23.18800
 CYCLE:    29 TIME:   0.008 TIME LEFT:  2.00D  GRAD.:     3.596 HEAT:  23.16727
 CYCLE:    30 TIME:   0.008 TIME LEFT:  2.00D  GRAD.:     3.812 HEAT:  23.13330
 CYCLE:    31 TIME:   0.004 TIME LEFT:  2.00D  GRAD.:     3.938 HEAT:  23.10302
 CYCLE:    32 TIME:   0.004 TIME LEFT:  2.00D  GRAD.:     4.269 HEAT:  23.08329
 CYCLE:    33 TIME:   0.004 TIME LEFT:  2.00D  GRAD.:     3.138 HEAT:  23.06263
 CYCLE:    34 TIME:   0.008 TIME LEFT:  2.00D  GRAD.:     2.867 HEAT:  23.04343
 CYCLE:    35 TIME:   0.004 TIME LEFT:  2.00D  GRAD.:     1.989 HEAT:  23.03585
 CYCLE:    36 TIME:   0.008 TIME LEFT:  2.00D  GRAD.:     1.465 HEAT:  23.03205
 CYCLE:    37 TIME:   0.004 TIME LEFT:  2.00D  GRAD.:     1.230 HEAT:  23.02883
 CYCLE:    38 TIME:   0.008 TIME LEFT:  2.00D  GRAD.:     0.878 HEAT:  23.02607
 CYCLE:    39 TIME:   0.004 TIME LEFT:  2.00D  GRAD.:     1.049 HEAT:  23.02371
 CYCLE:    40 TIME:   0.004 TIME LEFT:  2.00D  GRAD.:     1.003 HEAT:  23.02118
 CYCLE:    41 TIME:   0.004 TIME LEFT:  2.00D  GRAD.:     1.229 HEAT:  23.01776
 CYCLE:    42 TIME:   0.008 TIME LEFT:  2.00D  GRAD.:     1.266 HEAT:  23.01482
 CYCLE:    43 TIME:   0.004 TIME LEFT:  2.00D  GRAD.:     1.706 HEAT:  23.00883
 CYCLE:    44 TIME:   0.004 TIME LEFT:  2.00D  GRAD.:     2.290 HEAT:  23.00279
 CYCLE:    45 TIME:   0.008 TIME LEFT:  2.00D  GRAD.:     2.501 HEAT:  22.99361
 CYCLE:    46 TIME:   0.004 TIME LEFT:  2.00D  GRAD.:     2.966 HEAT:  22.98046
 CYCLE:    47 TIME:   0.004 TIME LEFT:  2.00D  GRAD.:     2.508 HEAT:  22.96985
 CYCLE:    48 TIME:   0.008 TIME LEFT:  2.00D  GRAD.:     2.609 HEAT:  22.95684
 CYCLE:    49 TIME:   0.004 TIME LEFT:  2.00D  GRAD.:     3.455 HEAT:  22.93886
 CYCLE:    50 TIME:   0.004 TIME LEFT:  2.00D  GRAD.:     3.479 HEAT:  22.92462
 CYCLE:    51 TIME:   0.004 TIME LEFT:  2.00D  GRAD.:     2.883 HEAT:  22.90425
 CYCLE:    52 TIME:   0.008 TIME LEFT:  2.00D  GRAD.:     3.719 HEAT:  22.88018
 CYCLE:    53 TIME:   0.008 TIME LEFT:  2.00D  GRAD.:     4.567 HEAT:  22.85782
 CYCLE:    54 TIME:   0.008 TIME LEFT:  2.00D  GRAD.:     7.267 HEAT:  22.82018
 CYCLE:    55 TIME:   0.004 TIME LEFT:  2.00D  GRAD.:     5.625 HEAT:  22.77957
 CYCLE:    56 TIME:   0.008 TIME LEFT:  2.00D  GRAD.:     4.740 HEAT:  22.73840
 CYCLE:    57 TIME:   0.008 TIME LEFT:  2.00D  GRAD.:     4.975 HEAT:  22.70362
 CYCLE:    58 TIME:   0.004 TIME LEFT:  2.00D  GRAD.:     5.700 HEAT:  22.68336
 CYCLE:    59 TIME:   0.008 TIME LEFT:  2.00D  GRAD.:     5.583 HEAT:  22.65950
 CYCLE:    60 TIME:   0.004 TIME LEFT:  2.00D  GRAD.:     5.358 HEAT:  22.62655
 CYCLE:    61 TIME:   0.008 TIME LEFT:  2.00D  GRAD.:     6.418 HEAT:  22.55327
 CYCLE:    62 TIME:   0.004 TIME LEFT:  2.00D  GRAD.:     5.671 HEAT:  22.52934
 CYCLE:    63 TIME:   0.008 TIME LEFT:  2.00D  GRAD.:     6.243 HEAT:  22.52162
 CYCLE:    64 TIME:   0.008 TIME LEFT:  2.00D  GRAD.:     4.246 HEAT:  22.49760
 CYCLE:    65 TIME:   0.004 TIME LEFT:  2.00D  GRAD.:     3.792 HEAT:  22.48498
 CYCLE:    66 TIME:   0.004 TIME LEFT:  2.00D  GRAD.:     3.917 HEAT:  22.45954
 CYCLE:    67 TIME:   0.008 TIME LEFT:  2.00D  GRAD.:     4.492 HEAT:  22.44201
 CYCLE:    68 TIME:   0.008 TIME LEFT:  2.00D  GRAD.:     3.212 HEAT:  22.42845
 CYCLE:    69 TIME:   0.004 TIME LEFT:  2.00D  GRAD.:     4.267 HEAT:  22.41392
 CYCLE:    70 TIME:   0.012 TIME LEFT:  2.00D  GRAD.:     2.420 HEAT:  22.41068
 CYCLE:    71 TIME:   0.004 TIME LEFT:  2.00D  GRAD.:     2.154 HEAT:  22.40138
 CYCLE:    72 TIME:   0.008 TIME LEFT:  2.00D  GRAD.:     2.912 HEAT:  22.39385
 CYCLE:    73 TIME:   0.008 TIME LEFT:  2.00D  GRAD.:     3.094 HEAT:  22.38632
 CYCLE:    74 TIME:   0.008 TIME LEFT:  2.00D  GRAD.:     5.010 HEAT:  22.37568
 CYCLE:    75 TIME:   0.023 TIME LEFT:  2.00D  GRAD.:     5.076 HEAT:  22.36968
 CYCLE:    76 TIME:   0.004 TIME LEFT:  2.00D  GRAD.:     1.872 HEAT:  22.35765
 CYCLE:    77 TIME:   0.012 TIME LEFT:  2.00D  GRAD.:     0.987 HEAT:  22.35282
 CYCLE:    78 TIME:   0.008 TIME LEFT:  2.00D  GRAD.:     1.780 HEAT:  22.34465
 CYCLE:    79 TIME:   0.008 TIME LEFT:  2.00D  GRAD.:     2.397 HEAT:  22.34011
 CYCLE:    80 TIME:   0.008 TIME LEFT:  2.00D  GRAD.:     1.243 HEAT:  22.33615
 CYCLE:    81 TIME:   0.008 TIME LEFT:  2.00D  GRAD.:     0.563 HEAT:  22.33481
 CYCLE:    82 TIME:   0.004 TIME LEFT:  2.00D  GRAD.:     0.385 HEAT:  22.33446
 CYCLE:    83 TIME:   0.008 TIME LEFT:  2.00D  GRAD.:     0.447 HEAT:  22.33406
 CYCLE:    84 TIME:   0.008 TIME LEFT:  2.00D  GRAD.:     0.249 HEAT:  22.33380
 CYCLE:    85 TIME:   0.008 TIME LEFT:  2.00D  GRAD.:     0.390 HEAT:  22.33372
 CYCLE:    86 TIME:   0.004 TIME LEFT:  2.00D  GRAD.:     0.315 HEAT:  22.33365
 CYCLE:    87 TIME:   0.008 TIME LEFT:  2.00D  GRAD.:     0.239 HEAT:  22.33365
 CYCLE:    88 TIME:   0.004 TIME LEFT:  2.00D  GRAD.:     0.107 HEAT:  22.33357
 CYCLE:    89 TIME:   0.008 TIME LEFT:  2.00D  GRAD.:     0.125 HEAT:  22.33354
 CYCLE:    90 TIME:   0.008 TIME LEFT:  2.00D  GRAD.:     0.287 HEAT:  22.33388
 CYCLE:    91 TIME:   0.004 TIME LEFT:  2.00D  GRAD.:     0.130 HEAT:  22.33357
 CYCLE:    92 TIME:   0.039 TIME LEFT:  2.00D  GRAD.:     4.087 HEAT:  22.33869
 CYCLE:    93 TIME:   0.008 TIME LEFT:  2.00D  GRAD.:     2.212 HEAT:  22.33842
 CYCLE:    94 TIME:   0.004 TIME LEFT:  2.00D  GRAD.:     2.128 HEAT:  22.33565
 CYCLE:    95 TIME:   0.008 TIME LEFT:  2.00D  GRAD.:     1.714 HEAT:  22.33431
 CYCLE:    96 TIME:   0.008 TIME LEFT:  2.00D  GRAD.:     0.149 HEAT:  22.33354
 CYCLE:    97 TIME:   0.008 TIME LEFT:  2.00D  GRAD.:     0.088 HEAT:  22.33353
 CYCLE:    98 TIME:   0.008 TIME LEFT:  2.00D  GRAD.:     0.036 HEAT:  22.33352

     GRADIENT =  0.03580 IS LESS THAN CUTOFF =  0.05000



 -------------------------------------------------------------------------------
 pm3  precise nosym THREADS=1
 InChI=1S/C7H10/c1-2-7-5-3-4-6-7/h2-4,7H,1,5-6H2



     GEOMETRY OPTIMISED USING EIGENVECTOR FOLLOWING (EF).     
     SCF FIELD WAS ACHIEVED                                   


                              PM3 CALCULATION
                                                       MOPAC v23.1.2 MacOS
                                                       Tue Jun  3 16:28:24 2025




          FINAL HEAT OF FORMATION =         22.33352 KCAL/MOL =      93.44344 KJ/MOL


          COSMO AREA              =        146.92 SQUARE ANGSTROMS
          COSMO VOLUME            =        139.61 CUBIC ANGSTROMS

          GRADIENT NORM           =          0.03580          =       0.00868 PER ATOM
          IONIZATION POTENTIAL    =          9.579678 EV
          HOMO LUMO ENERGIES (EV) =         -9.580  1.072
          NO. OF FILLED LEVELS    =         19
          MOLECULAR WEIGHT        =         94.1560         POINT GROUP:  C1  

          MOLECULAR DIMENSIONS (Angstroms)

            Atom       Atom       Distance
            H    16    H    15     6.53644
            H    11    H    10     4.13735
            H    12    H     9     3.00515


          SCF CALCULATIONS        =        113

          WALL-CLOCK TIME         =      0.684 SECONDS
          COMPUTATION TIME        =      0.390 SECONDS




   ATOM   CHEMICAL          X               Y               Z
  NUMBER   SYMBOL      (ANGSTROMS)     (ANGSTROMS)     (ANGSTROMS)

     1       C         -0.26618317  *   0.12785542  *  -0.40306983  *
     2       C          0.90542971  *   1.06477316  *  -0.02927786  *
     3       C          0.31163152  *  -1.30470864  *  -0.33917277  *
     4       C          2.08106213  *   0.16118429  *   0.15821124  *
     5       C         -1.40883492  *   0.29066038  *   0.54290886  *
     6       C          1.75854751  *  -1.12588330  *  -0.01023675  *
     7       C         -2.62639846  *   0.64783593  *   0.15204962  *
     8       H         -0.60271133  *   0.34816077  *  -1.44309991  *
     9       H          0.70414531  *   1.64076470  *   0.89366749  *
    10       H          1.10195292  *   1.81066149  *  -0.82075202  *
    11       H         -0.18932129  *  -1.92561975  *   0.42738085  *
    12       H          0.18686359  *  -1.83972706  *  -1.29813281  *
    13       H          3.06506937  *   0.55866921  *   0.40485302  *
    14       H         -1.18597305  *   0.09606104  *   1.59957999  *
    15       H          2.42870181  *  -1.98095835  *   0.07243992  *
    16       H         -3.45254853  *   0.76427174  *   0.84680708  *
    17       H         -2.88674519  *   0.84922701  *  -0.88375661  *

                             CARTESIAN COORDINATES

   1    C       -0.266183168     0.127855424    -0.403069834
   2    C        0.905429706     1.064773159    -0.029277865
   3    C        0.311631521    -1.304708640    -0.339172772
   4    C        2.081062132     0.161184294     0.158211245
   5    C       -1.408834916     0.290660385     0.542908859
   6    C        1.758547507    -1.125883297    -0.010236749
   7    C       -2.626398456     0.647835932     0.152049625
   8    H       -0.602711330     0.348160773    -1.443099906
   9    H        0.704145306     1.640764696     0.893667490
  10    H        1.101952918     1.810661494    -0.820752015
  11    H       -0.189321286    -1.925619746     0.427380845
  12    H        0.186863586    -1.839727059    -1.298132814
  13    H        3.065069374     0.558669213     0.404853017
  14    H       -1.185973052     0.096061037     1.599579986
  15    H        2.428701815    -1.980958347     0.072439915
  16    H       -3.452548535     0.764271742     0.846807082
  17    H       -2.886745192     0.849227011    -0.883756606


           Empirical Formula: C7 H10  =    17 atoms



      MOLECULAR POINT GROUP   :   C1  


                  EIGENVALUES  
 -40.51631 -32.92381 -28.11470 -26.71224 -20.94105 -19.61059 -18.53284 -17.63135
 -16.18180 -15.48189 -13.76499 -13.58751 -13.44937 -13.07658 -12.61571 -12.36151
 -11.94364 -10.24424  -9.57968   1.07208   1.14372   3.30835   3.44483   3.66296
   3.70746   3.83296   3.93609   4.11367   4.18129   4.19096   4.33014   4.53385
   4.83455   5.01297   5.57797   5.64730   5.87381   5.97066


              NET ATOMIC CHARGES AND DIPOLE CONTRIBUTIONS

  ATOM NO.   TYPE          CHARGE      No. of ELECS.   s-Pop       p-Pop       
    1          C          -0.051749        4.0517     1.17474     2.87701
    2          C          -0.063100        4.0631     1.15688     2.90622
    3          C          -0.063092        4.0631     1.15687     2.90622
    4          C          -0.155853        4.1559     1.20225     2.95361
    5          C          -0.134674        4.1347     1.19765     2.93703
    6          C          -0.155853        4.1559     1.20225     2.95361
    7          C          -0.162660        4.1627     1.18303     2.97963
    8          H           0.067609        0.9324     0.93239
    9          H           0.061552        0.9384     0.93845
   10          H           0.056386        0.9436     0.94361
   11          H           0.061543        0.9385     0.93846
   12          H           0.056389        0.9436     0.94361
   13          H           0.110935        0.8891     0.88907
   14          H           0.100940        0.8991     0.89906
   15          H           0.110936        0.8891     0.88906
   16          H           0.079083        0.9209     0.92092
   17          H           0.081609        0.9184     0.91839
 DIPOLE           X         Y         Z       TOTAL
 POINT-CHG.     0.001     0.002    -0.016     0.016
 HYBRID        -0.013     0.000     0.024     0.027
 SUM           -0.011     0.002     0.008     0.014


          ATOMIC ORBITAL ELECTRON POPULATIONS

     Atom    s        px        py        pz   
    1  C   1.17474   0.94279   0.95234   0.98188
    2  C   1.15688   0.93114   0.96522   1.00987
    3  C   1.15687   0.93969   0.95658   1.00994
    4  C   1.20225   0.98176   0.95805   1.01380
    5  C   1.19765   0.95431   0.99430   0.98842
    6  C   1.20225   0.97041   0.97038   1.01282
    7  C   1.18303   0.96420   1.00786   1.00757
    8  H   0.93239
    9  H   0.93845
   10  H   0.94361
   11  H   0.93846
   12  H   0.94361
   13  H   0.88907
   14  H   0.89906
   15  H   0.88906
   16  H   0.92092
   17  H   0.91839
 *******************************************************************************
 **                                                                           **
 **                              MOPAC v23.1.2                                **
 **                                                                           **
 *******************************************************************************
 **          Digital Object Identifier (DOI): 10.5281/zenodo.6511958          **
 **    Visit the DOI location for information on how to cite this program.    **
 *******************************************************************************

                              PM3 CALCULATION RESULTS

 *******************************************************************************
 *  CALCULATION DONE: (MAX THREADS = 1)              Tue Jun  3 16:28:24 2025  *
 *  PM3        - The PM3 Hamiltonian to be used
 *  OLDGEO     - PREVIOUS GEOMETRY TO BE USED
 *  PRECISE    - TIGHTER CRITERIA TO BE USED
 *  NOSYM      - POINT-GROUP SYMMETRY SET TO C1
 *  THREADS=1  - MULTI-THREADING NOT USED
 *  T=         - A TIME OF 172800.0 SECONDS REQUESTED
 *  DUMP=N     - RESTART FILE WRITTEN EVERY 7200.0 SECONDS REQUESTED
 *  THERMO     - THERMODYNAMIC QUANTITIES TO BE CALCULATED
 *******************************************************************************
oldgeo thermo nosym precise THREADS=1  pm3
 InChI=1S/C7H10/c1-2-7-5-3-4-6-7/h2-4,7H,1,5-6H2

   ATOM   CHEMICAL          X               Y               Z
  NUMBER   SYMBOL      (ANGSTROMS)     (ANGSTROMS)     (ANGSTROMS)

     1       C         -0.26618317  *   0.12785542  *  -0.40306983  *
     2       C          0.90542971  *   1.06477316  *  -0.02927786  *
     3       C          0.31163152  *  -1.30470864  *  -0.33917277  *
     4       C          2.08106213  *   0.16118429  *   0.15821124  *
     5       C         -1.40883492  *   0.29066038  *   0.54290886  *
     6       C          1.75854751  *  -1.12588330  *  -0.01023675  *
     7       C         -2.62639846  *   0.64783593  *   0.15204962  *
     8       H         -0.60271133  *   0.34816077  *  -1.44309991  *
     9       H          0.70414531  *   1.64076470  *   0.89366749  *
    10       H          1.10195292  *   1.81066149  *  -0.82075202  *
    11       H         -0.18932129  *  -1.92561975  *   0.42738085  *
    12       H          0.18686359  *  -1.83972706  *  -1.29813281  *
    13       H          3.06506937  *   0.55866921  *   0.40485302  *
    14       H         -1.18597305  *   0.09606104  *   1.59957999  *
    15       H          2.42870181  *  -1.98095835  *   0.07243992  *
    16       H         -3.45254853  *   0.76427174  *   0.84680708  *
    17       H         -2.88674519  *   0.84922701  *  -0.88375661  *



          CARTESIAN COORDINATES 

    NO.       ATOM           X           Y           Z

     1         C         -0.2662      0.1279     -0.4031
     2         C          0.9054      1.0648     -0.0293
     3         C          0.3116     -1.3047     -0.3392
     4         C          2.0811      0.1612      0.1582
     5         C         -1.4088      0.2907      0.5429
     6         C          1.7585     -1.1259     -0.0102
     7         C         -2.6264      0.6478      0.1520
     8         H         -0.6027      0.3482     -1.4431
     9         H          0.7041      1.6408      0.8937
    10         H          1.1020      1.8107     -0.8208
    11         H         -0.1893     -1.9256      0.4274
    12         H          0.1869     -1.8397     -1.2981
    13         H          3.0651      0.5587      0.4049
    14         H         -1.1860      0.0961      1.5996
    15         H          2.4287     -1.9810      0.0724
    16         H         -3.4525      0.7643      0.8468
    17         H         -2.8867      0.8492     -0.8838

  H: (PM3): J. J. P. STEWART, J. COMP. CHEM. 10, 209 (1989).
  C: (PM3): J. J. P. STEWART, J. COMP. CHEM. 10, 209 (1989).

           Empirical Formula: C7 H10  =    17 atoms



      MOLECULAR POINT GROUP   :   C1  


      RHF CALCULATION, NO. OF DOUBLY OCCUPIED LEVELS = 19



          HEAT OF FORMATION =      22.333519 KCALS/MOLE


          CARTESIAN COORDINATE DERIVATIVES

   NUMBER  ATOM         X            Y            Z

     1       C     -0.002156     0.000846     0.000787
     2       C     -0.000661    -0.004864    -0.000108
     3       C     -0.000763     0.000137    -0.001252
     4       C     -0.003634     0.000617    -0.002944
     5       C      0.007521     0.003638     0.000617
     6       C      0.000053     0.000574    -0.000894
     7       C     -0.007872     0.005122     0.003103
     8       H     -0.009822    -0.007829    -0.005265
     9       H     -0.008013    -0.009696    -0.002828
    10       H      0.005539     0.006308    -0.001683
    11       H      0.004412     0.005784     0.004881
    12       H     -0.007382    -0.004656    -0.000474
    13       H     -0.001345     0.001338     0.000002
    14       H      0.007193     0.002036    -0.000217
    15       H      0.003612    -0.000982     0.000755
    16       H      0.002667    -0.003230     0.002983
    17       H      0.010651     0.004857     0.002534



          GRADIENT NORM =   0.03234

          MOLECULAR WEIGHT =   94.16



          ROTATIONAL CONSTANTS IN CM(-1)

          A =    0.20931132   B =    0.06164482   C =    0.05225493



           PRINCIPAL MOMENTS OF INERTIA IN UNITS OF 10**(-40)*GRAM-CM**2

          A =      133.7374   B =      454.0974   C =      535.6959


          ORIENTATION OF MOLECULE IN FORCE CALCULATION

    NO.       ATOM         X         Y         Z

     1          C      -0.2810   -0.3697    0.3126
     2          C       1.2650   -0.3697    0.3126
     3          C      -0.6959    1.1196    0.3126
     4          C       1.6536    1.0718    0.3804
     5          C      -0.8196   -1.0790   -0.8849
     6          C       0.5885    1.8808    0.3805
     7          C      -1.6203   -2.1348   -0.8010
     8          H      -0.6540   -0.8607    1.2417
     9          H       1.6847   -0.8453   -0.5939
    10          H       1.6746   -0.9308    1.1721
    11          H      -1.2664    1.3965   -0.5940
    12          H      -1.3465    1.3635    1.1720
    13          H       2.6999    1.3733    0.4214
    14          H      -0.5132   -0.6747   -1.8579
    15          H       0.5982    2.9696    0.4217
    16          H      -2.0079   -2.6454   -1.6772
    17          H      -1.9460   -2.5647    0.1426


    FIRST DERIVATIVES WILL BE USED IN THE CALCULATION OF SECOND DERIVATIVES

          ESTIMATED TIME TO COMPLETE CALCULATION =        1.59 SECONDS

    FOR POINT-GROUP C1   THERE ARE   1 UNIQUE SYMMETRY FUNCTIONS.

 STEP:   1 TIME =     0.02 SECS, INTEGRAL =      0.02 TIME LEFT: 172799.97
 STEP:   2 TIME =     0.02 SECS, INTEGRAL =      0.04 TIME LEFT: 172799.96
 STEP:   3 TIME =     0.02 SECS, INTEGRAL =      0.05 TIME LEFT: 172799.94
 STEP:   4 TIME =     0.01 SECS, INTEGRAL =      0.06 TIME LEFT: 172799.93
 STEP:   5 TIME =     0.01 SECS, INTEGRAL =      0.07 TIME LEFT: 172799.92
 STEP:   6 TIME =     0.02 SECS, INTEGRAL =      0.09 TIME LEFT: 172799.90
 STEP:   7 TIME =     0.01 SECS, INTEGRAL =      0.10 TIME LEFT: 172799.89
 STEP:   8 TIME =     0.01 SECS, INTEGRAL =      0.11 TIME LEFT: 172799.88
 STEP:   9 TIME =     0.02 SECS, INTEGRAL =      0.13 TIME LEFT: 172799.86
 STEP:  10 TIME =     0.02 SECS, INTEGRAL =      0.14 TIME LEFT: 172799.85
 STEP:  11 TIME =     0.01 SECS, INTEGRAL =      0.16 TIME LEFT: 172799.84
 STEP:  12 TIME =     0.01 SECS, INTEGRAL =      0.17 TIME LEFT: 172799.82
 STEP:  13 TIME =     0.01 SECS, INTEGRAL =      0.18 TIME LEFT: 172799.81
 STEP:  14 TIME =     0.01 SECS, INTEGRAL =      0.19 TIME LEFT: 172799.80
 STEP:  15 TIME =     0.01 SECS, INTEGRAL =      0.20 TIME LEFT: 172799.79
 STEP:  16 TIME =     0.01 SECS, INTEGRAL =      0.21 TIME LEFT: 172799.78
 STEP:  17 TIME =     0.01 SECS, INTEGRAL =      0.23 TIME LEFT: 172799.77
 STEP:  18 TIME =     0.02 SECS, INTEGRAL =      0.24 TIME LEFT: 172799.75
 STEP:  19 TIME =     0.01 SECS, INTEGRAL =      0.25 TIME LEFT: 172799.74
 STEP:  20 TIME =     0.01 SECS, INTEGRAL =      0.27 TIME LEFT: 172799.73
 STEP:  21 TIME =     0.02 SECS, INTEGRAL =      0.28 TIME LEFT: 172799.71
 STEP:  22 TIME =     0.01 SECS, INTEGRAL =      0.29 TIME LEFT: 172799.70
 STEP:  23 TIME =     0.01 SECS, INTEGRAL =      0.30 TIME LEFT: 172799.69
 STEP:  24 TIME =     0.02 SECS, INTEGRAL =      0.32 TIME LEFT: 172799.67
 STEP:  25 TIME =     0.01 SECS, INTEGRAL =      0.33 TIME LEFT: 172799.66
 STEP:  26 TIME =     0.02 SECS, INTEGRAL =      0.35 TIME LEFT: 172799.64
 STEP:  27 TIME =     0.02 SECS, INTEGRAL =      0.36 TIME LEFT: 172799.63
 STEP:  28 TIME =     0.01 SECS, INTEGRAL =      0.38 TIME LEFT: 172799.62
 STEP:  29 TIME =     0.01 SECS, INTEGRAL =      0.39 TIME LEFT: 172799.61
 STEP:  30 TIME =     0.01 SECS, INTEGRAL =      0.40 TIME LEFT: 172799.59
 STEP:  31 TIME =     0.02 SECS, INTEGRAL =      0.41 TIME LEFT: 172799.58
 STEP:  32 TIME =     0.02 SECS, INTEGRAL =      0.43 TIME LEFT: 172799.56
 STEP:  33 TIME =     0.02 SECS, INTEGRAL =      0.45 TIME LEFT: 172799.55
 STEP:  34 TIME =     0.01 SECS, INTEGRAL =      0.46 TIME LEFT: 172799.54
 STEP:  35 TIME =     0.01 SECS, INTEGRAL =      0.47 TIME LEFT: 172799.52
 STEP:  36 TIME =     0.01 SECS, INTEGRAL =      0.48 TIME LEFT: 172799.51
 STEP:  37 TIME =     0.01 SECS, INTEGRAL =      0.49 TIME LEFT: 172799.50
 STEP:  38 TIME =     0.01 SECS, INTEGRAL =      0.50 TIME LEFT: 172799.49
 STEP:  39 TIME =     0.01 SECS, INTEGRAL =      0.52 TIME LEFT: 172799.48
 STEP:  40 TIME =     0.01 SECS, INTEGRAL =      0.53 TIME LEFT: 172799.46
 STEP:  41 TIME =     0.02 SECS, INTEGRAL =      0.54 TIME LEFT: 172799.45
 STEP:  42 TIME =     0.01 SECS, INTEGRAL =      0.55 TIME LEFT: 172799.44
 STEP:  43 TIME =     0.01 SECS, INTEGRAL =      0.57 TIME LEFT: 172799.43
 STEP:  44 TIME =     0.01 SECS, INTEGRAL =      0.58 TIME LEFT: 172799.41
 STEP:  45 TIME =     0.01 SECS, INTEGRAL =      0.59 TIME LEFT: 172799.40
 STEP:  46 TIME =     0.01 SECS, INTEGRAL =      0.60 TIME LEFT: 172799.39
 STEP:  47 TIME =     0.01 SECS, INTEGRAL =      0.61 TIME LEFT: 172799.38
 STEP:  48 TIME =     0.01 SECS, INTEGRAL =      0.62 TIME LEFT: 172799.37
 STEP:  49 TIME =     0.01 SECS, INTEGRAL =      0.64 TIME LEFT: 172799.36
 STEP:  50 TIME =     0.01 SECS, INTEGRAL =      0.65 TIME LEFT: 172799.34
 STEP:  51 TIME =     0.01 SECS, INTEGRAL =      0.66 TIME LEFT: 172799.33

(To convert to Hartree/Bohr^2, multiply by (10^(-21) x N x a0^2)/(4.184 x 627.51) =  0.0642)


           FORCE MATRIX IN MILLIDYNES/ANGSTROM


                  C  1       C  2       C  3       C  4       C  5       C  6
 ------------------------------------------------------------------------------
     C    1  14.589475
     C    2   3.438259  14.578218
     C    3   3.438317   0.722133  14.577914
     C    4   0.863472   4.740686   1.180008  18.366088
     C    5   4.825427   0.641331   0.640998   0.033374  18.210108
     C    6   0.863339   1.179678   4.740749  10.576474   0.033341  18.367162
     C    7   0.820531   0.037537   0.037554   0.005341  11.084015   0.005347
     H    8   4.295748   0.422272   0.422385   0.025302   0.447869   0.025240
     H    9   0.449336   4.494592   0.025898   0.428638   0.064062   0.037607
     H   10   0.437853   4.534207   0.030530   0.431903   0.025574   0.039189
     H   11   0.449409   0.025913   4.494710   0.037597   0.064003   0.428453
     H   12   0.438012   0.030544   4.533933   0.039188   0.025498   0.431824
     H   13   0.042620   0.412402   0.118855   5.020346   0.005125   0.449990
     H   14   0.435175   0.019450   0.019485   0.002693   4.777883   0.002675
     H   15   0.042596   0.118834   0.412552   0.450139   0.005084   5.020331
     H   16   0.138828   0.018257   0.018257   0.002261   0.461093   0.002225
     H   17   0.098531   0.011069   0.011066   0.002184   0.490983   0.002182


                  C  7       H  8       H  9       H 10       H 11       H 12
 ------------------------------------------------------------------------------
     C    7  18.032034
     H    8   0.057275   4.749958
     H    9   0.003847   0.027285   5.113497
     H   10   0.003590   0.028975   0.571215   5.136424
     H   11   0.003842   0.027318   0.001479   0.003923   5.113589
     H   12   0.003564   0.028939   0.003923   0.001232   0.571271   5.136202
     H   13   0.001223   0.002749   0.014183   0.014925   0.016344   0.016126
     H   14   0.453453   0.038604   0.022705   0.001372   0.022762   0.001375
     H   15   0.001235   0.002722   0.016265   0.016063   0.014217   0.014948
     H   16   5.104833   0.002086   0.000882   0.001521   0.000903   0.001574
     H   17   5.066667   0.030113   0.000865   0.001137   0.000858   0.001176


                  H 13       H 14       H 15       H 16       H 17
 ------------------------------------------------------------------
     H   13   5.416592
     H   14   0.000865   5.152990
     H   15   0.048986   0.000863   5.416605
     H   16   0.000498   0.081194   0.000500   5.493606
     H   17   0.000310   0.120394   0.000316   0.424874   5.463349


          HEAT OF FORMATION =      22.333519 KCALS/MOLE

          ZERO POINT ENERGY      92.758 KCAL/MOL


           NORMAL COORDINATE ANALYSIS (Total motion = 1 Angstrom)


   Root No.       1         2         3         4         5         6         7         8

                 1 A       2 A       3 A       4 A       5 A       6 A       7 A       8 A   

                  47.2      65.3     325.0     356.1     372.3     426.9     644.4     686.4
  
           1   -0.0285    0.0054   -0.0236   -0.0017   -0.0109    0.0006    0.0049    0.0259
           2    0.0217    0.0070    0.0179   -0.0023    0.0083    0.0007   -0.0037    0.0340
           3   -0.0001   -0.0254    0.0001    0.0531   -0.0001    0.0309   -0.0000   -0.0242
           4   -0.0281    0.0052   -0.0237    0.0024   -0.0112   -0.0050    0.0244    0.0343
           5   -0.0125    0.0076   -0.0025    0.0052   -0.0002   -0.0298    0.0030   -0.0230
           6   -0.0036   -0.0396   -0.0141   -0.0181   -0.0230   -0.0202    0.0038   -0.0112
           7    0.0045    0.0060   -0.0039    0.0044   -0.0029   -0.0274    0.0037   -0.0314
           8    0.0304    0.0070    0.0236    0.0036    0.0109   -0.0129   -0.0244    0.0269
           9    0.0034   -0.0396    0.0140   -0.0182    0.0230   -0.0202   -0.0038   -0.0112
          10    0.0038    0.0034   -0.0018    0.0032   -0.0022   -0.0222    0.0151   -0.0122
          11   -0.0214    0.0045   -0.0091    0.0045   -0.0067   -0.0307    0.0089   -0.0190
          12   -0.0017    0.0404   -0.0398   -0.0037    0.0367   -0.0064    0.0035   -0.0046
          13   -0.0373   -0.0123    0.0300   -0.0063    0.0132    0.0359   -0.0609   -0.0007
          14    0.0283   -0.0162   -0.0228   -0.0081   -0.0100    0.0472    0.0462   -0.0009
          15   -0.0000   -0.0030    0.0001    0.0597   -0.0001    0.0018   -0.0000    0.0292
          16    0.0216    0.0034    0.0083    0.0034    0.0058   -0.0237   -0.0045   -0.0151
          17    0.0020    0.0045    0.0042    0.0043    0.0039   -0.0297   -0.0169   -0.0169
          18    0.0019    0.0403    0.0398   -0.0040   -0.0367   -0.0064   -0.0035   -0.0046
          19    0.0603   -0.0111    0.0093   -0.0092    0.0047    0.0399    0.0032   -0.0015
          20   -0.0457   -0.0145   -0.0072   -0.0121   -0.0035    0.0526   -0.0024   -0.0020
          21    0.0001    0.0319   -0.0001   -0.0434    0.0001    0.0285    0.0000    0.0011
          22   -0.0380    0.0185   -0.0330    0.0188   -0.0058    0.0027    0.0339    0.0491
          23    0.0289    0.0242    0.0252    0.0247    0.0044    0.0035   -0.0258    0.0646
          24   -0.0000   -0.0106    0.0002    0.0725   -0.0001    0.0322   -0.0000    0.0014
          25   -0.0419   -0.0035   -0.0339   -0.0433   -0.0310   -0.0435    0.0364    0.0727
          26   -0.0196    0.0650   -0.0341    0.0432    0.0704    0.0011   -0.0132   -0.0884
          27   -0.0062   -0.0741   -0.0026   -0.0608   -0.0714   -0.0566    0.0202    0.0432
          28   -0.0384    0.0145   -0.0250    0.0539    0.0056    0.0308    0.0135   -0.0146
          29   -0.0239   -0.0459    0.0147   -0.0264   -0.0717   -0.0665    0.0246    0.0219
          30   -0.0061   -0.0793   -0.0017   -0.0645   -0.0792   -0.0622    0.0236    0.0447
          31    0.0078    0.0636    0.0241    0.0529   -0.0763    0.0127    0.0225   -0.1047
          32    0.0456    0.0139    0.0416   -0.0304    0.0110   -0.0417   -0.0315    0.0463
          33    0.0060   -0.0740    0.0023   -0.0606    0.0715   -0.0566   -0.0201    0.0432
          34    0.0125   -0.0481   -0.0211   -0.0396    0.0707   -0.0724   -0.0200    0.0249
          35    0.0433    0.0015    0.0204    0.0448    0.0138    0.0118   -0.0196   -0.0083
          36    0.0059   -0.0793    0.0013   -0.0643    0.0794   -0.0623   -0.0236    0.0446
          37    0.0106    0.0021    0.0048    0.0033   -0.0013   -0.0252    0.0074   -0.0246
          38   -0.0446    0.0025   -0.0245    0.0036   -0.0178   -0.0218    0.0343    0.0118
          39   -0.0034    0.0893   -0.0950    0.0021    0.0960    0.0002    0.0128    0.0913
          40   -0.1216   -0.0275    0.1240    0.0159    0.0619    0.0466    0.0005   -0.0099
          41    0.0922   -0.0364   -0.0940    0.0216   -0.0470    0.0612   -0.0004   -0.0130
          42   -0.0000   -0.0162    0.0001    0.0761   -0.0001    0.0114   -0.0000    0.0202
          43    0.0458    0.0017    0.0250    0.0025    0.0168   -0.0143   -0.0311    0.0181
          44    0.0017    0.0027    0.0020    0.0041    0.0061   -0.0301   -0.0163   -0.0206
          45    0.0037    0.0893    0.0950    0.0012   -0.0959    0.0003   -0.0128    0.0914
          46    0.0602   -0.0252    0.0935    0.0429    0.0538    0.0233    0.2722    0.0337
          47   -0.0458   -0.0329   -0.0707    0.0567   -0.0409    0.0309   -0.2064    0.0444
          48    0.0002    0.0489   -0.0003   -0.1078    0.0001    0.0503   -0.0000   -0.0428
          49    0.1466    0.0039   -0.0943   -0.0627   -0.0524    0.0610   -0.1655   -0.0373
          50   -0.1109    0.0054    0.0711   -0.0832    0.0399    0.0808    0.1255   -0.0491
          51    0.0001    0.0462   -0.0002   -0.0959    0.0001    0.0491    0.0001   -0.0345


   Root No.       9        10        11        12        13        14        15        16

                 9 A      10 A      11 A      12 A      13 A      14 A      15 A      16 A   

                 745.0     772.8     866.4     873.7     936.0     951.4     986.4    1009.3
  
           1   -0.0146    0.0409   -0.0007   -0.0031   -0.0052    0.0028   -0.0121    0.0147
           2   -0.0193   -0.0310    0.0005   -0.0041    0.0039    0.0037    0.0093   -0.0110
           3    0.0180   -0.0001    0.0001    0.0242    0.0000   -0.0149   -0.0000   -0.0000
           4   -0.0244    0.0020   -0.0046    0.0392    0.0095    0.0014    0.0127   -0.0119
           5    0.0130   -0.0598    0.0054   -0.0107   -0.0081   -0.0020   -0.0168    0.0209
           6   -0.0129   -0.0034   -0.0351    0.0202    0.0013    0.0263    0.0152    0.0171
           7    0.0192    0.0581   -0.0066   -0.0207    0.0104   -0.0022    0.0196   -0.0232
           8   -0.0200    0.0142    0.0034    0.0349   -0.0070    0.0008   -0.0078    0.0057
           9   -0.0129    0.0035    0.0354    0.0197   -0.0015    0.0263   -0.0151   -0.0169
          10    0.0062   -0.0993    0.0016   -0.0024   -0.0032    0.0003    0.0027   -0.0023
          11    0.0101   -0.0188   -0.0020   -0.0029    0.0023    0.0002    0.0108   -0.0124
          12   -0.0203   -0.0022   -0.0042   -0.0129    0.0041   -0.0190   -0.0361   -0.0171
          13    0.0031   -0.0066    0.0009   -0.0073   -0.0432    0.0016   -0.0002    0.0038
          14    0.0041    0.0050   -0.0008   -0.0096    0.0328    0.0023    0.0002   -0.0028
          15   -0.0018    0.0000   -0.0002   -0.0257    0.0000   -0.0090    0.0000    0.0001
          16    0.0080   -0.0086    0.0023   -0.0022   -0.0031    0.0001   -0.0097    0.0113
          17    0.0089    0.1006   -0.0011   -0.0031    0.0025    0.0004   -0.0055    0.0056
          18   -0.0203    0.0023    0.0041   -0.0129   -0.0040   -0.0190    0.0360    0.0170
          19    0.0043    0.0002    0.0008   -0.0117   -0.0130    0.0026    0.0003   -0.0171
          20    0.0057   -0.0001   -0.0008   -0.0154    0.0098    0.0034   -0.0002    0.0129
          21    0.0013    0.0000   -0.0001   -0.0269   -0.0001    0.0246   -0.0001   -0.0001
          22   -0.0197    0.0302    0.0493   -0.0027   -0.0074   -0.0377   -0.1145    0.0609
          23   -0.0260   -0.0228   -0.0375   -0.0029    0.0060   -0.0496    0.0873   -0.0458
          24    0.0129   -0.0000    0.0001    0.0216    0.0003   -0.0595    0.0001    0.0001
          25   -0.0319    0.0381    0.0391   -0.0063    0.0247   -0.0243   -0.0772   -0.0297
          26   -0.0521   -0.0567   -0.0993    0.0222    0.0056    0.0704   -0.0259    0.0642
          27    0.0197    0.0099    0.0437   -0.0195    0.0009   -0.0261   -0.0237   -0.0153
          28   -0.0171    0.0353   -0.0552    0.1261    0.0027    0.0257    0.0806    0.0747
          29    0.0800   -0.0326    0.0981   -0.0162   -0.0221   -0.0699   -0.0320    0.0485
          30    0.0287    0.0016    0.0533   -0.0260   -0.0047   -0.0321   -0.0296   -0.0065
          31   -0.0414    0.0650    0.1066    0.0215    0.0006    0.0742    0.0046   -0.0693
          32   -0.0449   -0.0212   -0.0110   -0.0001   -0.0253   -0.0047    0.0817    0.0116
          33    0.0196   -0.0100   -0.0439   -0.0190   -0.0007   -0.0260    0.0237    0.0152
          34    0.0816    0.0403   -0.1099   -0.0479    0.0226   -0.0740    0.0519   -0.0276
          35    0.0051   -0.0253    0.0283    0.1170    0.0032    0.0061   -0.0696   -0.0867
          36    0.0286   -0.0017   -0.0537   -0.0253    0.0050   -0.0320    0.0295    0.0063
          37    0.0066   -0.0877    0.0003   -0.0187   -0.0081   -0.0033   -0.0236    0.0270
          38   -0.0248   -0.0622   -0.0175    0.0455    0.0234    0.0009    0.0734   -0.1195
          39    0.2202    0.0060    0.1470    0.0683   -0.0310    0.0676    0.1558    0.0548
          40    0.0153   -0.0169    0.0280    0.0050    0.3251   -0.0393    0.0022   -0.0054
          41    0.0202    0.0128   -0.0212    0.0070   -0.2462   -0.0527   -0.0016    0.0044
          42    0.0090   -0.0000   -0.0001   -0.0138    0.0001   -0.0451    0.0001    0.0002
          43   -0.0255    0.0364    0.0176    0.0487   -0.0249    0.0017   -0.0776    0.1224
          44   -0.0000    0.1011    0.0044   -0.0059    0.0016   -0.0029    0.0031    0.0060
          45    0.2200   -0.0072   -0.1463    0.0704    0.0304    0.0679   -0.1554   -0.0544
          46   -0.0043    0.0525   -0.0174   -0.0882    0.0100    0.0650   -0.0061    0.0769
          47   -0.0057   -0.0398    0.0122   -0.1169   -0.0080    0.0858    0.0043   -0.0588
          48    0.0127   -0.0001    0.0003    0.0673    0.0002   -0.0536    0.0001    0.0001
          49    0.0150   -0.0351    0.0163    0.0603    0.2238   -0.0658    0.0015    0.0650
          50    0.0198    0.0265   -0.0118    0.0795   -0.1692   -0.0874   -0.0009   -0.0488
          51    0.0119   -0.0000    0.0002    0.0449    0.0001   -0.0430    0.0001    0.0001


   Root No.      17        18        19        20        21        22        23        24

                17 A      18 A      19 A      20 A      21 A      22 A      23 A      24 A   

                1014.3    1030.5    1063.2    1073.0    1099.2    1110.0    1126.6    1186.4
  
           1   -0.0196   -0.0031   -0.0249    0.0055   -0.0084    0.0189    0.0165   -0.0176
           2   -0.0259    0.0024   -0.0327   -0.0048   -0.0109   -0.0144    0.0215   -0.0233
           3    0.0097   -0.0000   -0.0005   -0.0001    0.0086    0.0001   -0.0090    0.0313
           4    0.0145    0.0006    0.0074   -0.0019    0.0048   -0.0240   -0.0252    0.0025
           5    0.0021   -0.0084    0.0090    0.0012   -0.0154   -0.0057    0.0222   -0.0070
           6   -0.0144   -0.0102   -0.0057    0.0078   -0.0064    0.0137    0.0076   -0.0016
           7   -0.0021    0.0082    0.0067   -0.0014   -0.0160   -0.0012    0.0282   -0.0074
           8    0.0145    0.0016    0.0095    0.0017    0.0003    0.0248   -0.0182    0.0006
           9   -0.0147    0.0102   -0.0054   -0.0079   -0.0062   -0.0138    0.0075   -0.0016
          10   -0.0057    0.0029   -0.0123    0.0002    0.0162    0.0081   -0.0245    0.0069
          11   -0.0026    0.0064   -0.0071    0.0018    0.0187    0.0089   -0.0195    0.0076
          12    0.0142    0.0070   -0.0085   -0.0328    0.0014   -0.0025   -0.0013   -0.0011
          13    0.0018    0.0302    0.0008   -0.0014    0.0004   -0.0012   -0.0001   -0.0018
          14    0.0024   -0.0229    0.0010    0.0011    0.0005    0.0009   -0.0001   -0.0023
          15   -0.0170   -0.0000    0.0119    0.0002   -0.0008   -0.0000    0.0021   -0.0514
          16   -0.0009   -0.0054   -0.0036   -0.0018    0.0136   -0.0062   -0.0123    0.0054
          17   -0.0061   -0.0045   -0.0137   -0.0011    0.0207   -0.0098   -0.0289    0.0086
          18    0.0146   -0.0070   -0.0095    0.0325    0.0014    0.0026   -0.0013   -0.0011
          19    0.0032   -0.0420    0.0018    0.0009    0.0003    0.0012    0.0009    0.0017
          20    0.0044    0.0318    0.0024   -0.0006    0.0005   -0.0009    0.0011    0.0023
          21    0.0227    0.0000    0.0047    0.0000    0.0032    0.0000   -0.0072    0.0155
          22   -0.0576   -0.0428   -0.0322    0.0299   -0.0380    0.2117    0.0617    0.1569
          23   -0.0762    0.0324   -0.0417   -0.0234   -0.0481   -0.1617    0.0803    0.2067
          24   -0.0342   -0.0001   -0.0069   -0.0001   -0.0215   -0.0003    0.0401    0.2241
          25   -0.0047    0.0045    0.1712    0.1275   -0.0377   -0.1224   -0.0562    0.0616
          26   -0.0433   -0.0364    0.1310    0.1130   -0.0817   -0.0668    0.0450    0.0059
          27    0.0019    0.0067    0.0094    0.0102    0.0078   -0.0024   -0.0166    0.0204
          28    0.1095   -0.0504   -0.0531   -0.1549   -0.0852   -0.0362    0.0122   -0.0316
          29    0.1144   -0.0253    0.0035   -0.1214   -0.0902   -0.0661    0.0623   -0.0287
          30    0.0134    0.0032    0.0178    0.0009   -0.0115   -0.0176    0.0131    0.0033
          31   -0.0415    0.0362    0.0826   -0.0718   -0.0687    0.0303    0.0589   -0.0108
          32   -0.0162    0.0051    0.2046   -0.1470   -0.0595    0.1352   -0.0410    0.0610
          33    0.0021   -0.0067    0.0096   -0.0100    0.0077    0.0026   -0.0166    0.0204
          34    0.0810    0.0110    0.0156    0.0757   -0.0642    0.0530    0.0572   -0.0191
          35    0.1355    0.0556   -0.0548    0.1798   -0.1063    0.0515    0.0289   -0.0377
          36    0.0137   -0.0032    0.0177   -0.0003   -0.0116    0.0174    0.0133    0.0032
          37   -0.0174   -0.0121   -0.0329   -0.0018   -0.0300   -0.0153   -0.0791    0.0100
          38    0.0458    0.0594    0.0599   -0.0050    0.1811    0.0837    0.1573   -0.0008
          39   -0.0381   -0.0184    0.0144    0.0644    0.0036    0.0094    0.0059    0.0032
          40   -0.0173   -0.0874    0.0580   -0.0039    0.0109    0.0171   -0.0350   -0.0533
          41   -0.0228    0.0661    0.0763    0.0049    0.0147   -0.0128   -0.0463   -0.0702
          42   -0.0333   -0.0001    0.0618    0.0011    0.0085    0.0001   -0.0284   -0.0966
          43    0.0499   -0.0610    0.0661    0.0060    0.1828   -0.0843    0.1722   -0.0034
          44   -0.0043   -0.0043   -0.0157    0.0025    0.0197   -0.0073   -0.0340    0.0094
          45   -0.0395    0.0183    0.0165   -0.0641    0.0036   -0.0093    0.0059    0.0032
          46    0.0508    0.1661    0.0049   -0.0012    0.0033    0.0010   -0.0051    0.0450
          47    0.0663   -0.1258    0.0062    0.0008    0.0043   -0.0008   -0.0068    0.0593
          48   -0.0359   -0.0001    0.0030    0.0001   -0.0002    0.0000   -0.0002   -0.0388
          49   -0.0483    0.1376    0.0066   -0.0052   -0.0039   -0.0012    0.0111   -0.0337
          50   -0.0643   -0.1045    0.0084    0.0044   -0.0052    0.0008    0.0147   -0.0445
          51   -0.0281   -0.0001    0.0097    0.0002   -0.0006   -0.0000    0.0017   -0.0222


   Root No.      25        26        27        28        29        30        31        32

                25 A      26 A      27 A      28 A      29 A      30 A      31 A      32 A   

                1202.6    1229.3    1248.4    1290.2    1342.7    1370.4    1401.6    1406.3
  
           1   -0.0000    0.0602    0.0366   -0.0196   -0.0008   -0.0056   -0.0309    0.0206
           2   -0.0003   -0.0457   -0.0278   -0.0257   -0.0010    0.0041   -0.0407    0.0273
           3   -0.0313    0.0000    0.0000   -0.0446    0.0176   -0.0001   -0.0371    0.0260
           4   -0.0058   -0.0117   -0.0413   -0.0105    0.0291   -0.0343    0.0135   -0.0262
           5   -0.0016    0.0106   -0.0133   -0.0202    0.0321   -0.0258    0.0409    0.0155
           6    0.0110   -0.0050   -0.0039    0.0083   -0.0009   -0.0015    0.0075   -0.0039
           7   -0.0001   -0.0135    0.0018   -0.0167    0.0231    0.0155    0.0356    0.0225
           8   -0.0060    0.0084    0.0435   -0.0155    0.0367    0.0399    0.0239   -0.0209
           9    0.0111    0.0050    0.0039    0.0083   -0.0009    0.0015    0.0075   -0.0038
          10    0.0016    0.0059    0.0121    0.0112   -0.0135    0.0162   -0.0115   -0.0039
          11    0.0020    0.0255   -0.0177    0.0143   -0.0168    0.0447   -0.0102   -0.0030
          12    0.0002    0.0030   -0.0001    0.0003   -0.0008    0.0018   -0.0011   -0.0001
          13   -0.0072   -0.0103   -0.0046   -0.0094   -0.0112    0.0019    0.0067   -0.0044
          14   -0.0095    0.0078    0.0035   -0.0124   -0.0147   -0.0014    0.0088   -0.0057
          15   -0.0274    0.0001   -0.0000    0.0350   -0.0171    0.0001    0.0273   -0.0172
          16    0.0014   -0.0229    0.0202    0.0109   -0.0127   -0.0386   -0.0067   -0.0022
          17    0.0020   -0.0125   -0.0070    0.0147   -0.0175   -0.0275   -0.0137   -0.0048
          18    0.0002   -0.0030    0.0001    0.0003   -0.0008   -0.0018   -0.0011   -0.0001
          19   -0.0113    0.0034    0.0016    0.0052   -0.0104   -0.0003    0.0142   -0.0100
          20   -0.0149   -0.0025   -0.0012    0.0069   -0.0137    0.0003    0.0188   -0.0132
          21    0.0250   -0.0000    0.0000   -0.0093    0.0049   -0.0000   -0.0050    0.0028
          22    0.0684   -0.1638   -0.0617    0.0388   -0.0207    0.0239    0.0355   -0.0323
          23    0.0907    0.1239    0.0467    0.0509   -0.0272   -0.0179    0.0468   -0.0430
          24    0.0402   -0.0003   -0.0001    0.0200   -0.0044    0.0001    0.0344   -0.0313
          25   -0.0546   -0.0812    0.0481    0.0110   -0.0714    0.1336   -0.0166    0.1203
          26   -0.0190   -0.0554    0.0958    0.0008   -0.0222   -0.0407   -0.0955   -0.0719
          27   -0.0045   -0.0049   -0.0168    0.0055   -0.0166    0.0750    0.0560    0.0969
          28    0.0565   -0.0813    0.0330    0.0862   -0.0907    0.1223    0.0282    0.0798
          29    0.0035   -0.0388    0.0956    0.0108   -0.0255   -0.0385   -0.0845   -0.0687
          30   -0.0149   -0.0040    0.0286   -0.0163    0.0161   -0.0733   -0.0725   -0.0944
          31   -0.0036    0.0314   -0.0792   -0.0024   -0.0018    0.0755   -0.0871   -0.1026
          32   -0.0573    0.0931   -0.0721    0.0107   -0.0749   -0.1178   -0.0417    0.0964
          33   -0.0045    0.0049    0.0167    0.0056   -0.0170   -0.0753    0.0556    0.0977
          34   -0.0118    0.0155   -0.0831   -0.0129    0.0002    0.0702   -0.0885   -0.0885
          35    0.0556    0.0889   -0.0576    0.0857   -0.0943   -0.1073    0.0044    0.0584
          36   -0.0149    0.0040   -0.0286   -0.0164    0.0164    0.0735   -0.0721   -0.0953
          37   -0.0015    0.0388   -0.0341    0.0104   -0.0095    0.0481   -0.0108   -0.0093
          38    0.0124   -0.0873    0.1403    0.0218   -0.0349   -0.0621   -0.0172    0.0106
          39    0.0023   -0.0039    0.0043    0.0032   -0.0022   -0.0008   -0.0001   -0.0003
          40    0.2088    0.0230    0.0089   -0.0342    0.0149   -0.0066   -0.0217    0.0088
          41    0.2753   -0.0180   -0.0068   -0.0451    0.0196    0.0049   -0.0286    0.0116
          42    0.1532   -0.0002   -0.0000    0.0161    0.0050    0.0000    0.0045   -0.0057
          43    0.0125    0.0942   -0.1440    0.0179   -0.0308    0.0727   -0.0139    0.0135
          44    0.0018   -0.0139   -0.0049    0.0159   -0.0186   -0.0296   -0.0149   -0.0064
          45    0.0023    0.0039   -0.0042    0.0032   -0.0022    0.0008   -0.0001   -0.0003
          46    0.0252    0.0032    0.0029    0.0931    0.0861   -0.0006   -0.0440    0.0296
          47    0.0333   -0.0025   -0.0022    0.1228    0.1136    0.0001   -0.0581    0.0391
          48   -0.0192    0.0000    0.0000   -0.1040   -0.1049    0.0002    0.0637   -0.0440
          49   -0.0450   -0.0115   -0.0065    0.1353    0.0793    0.0006   -0.0323    0.0238
          50   -0.0593    0.0090    0.0049    0.1784    0.1047   -0.0007   -0.0426    0.0314
          51   -0.0062    0.0001   -0.0000    0.1050    0.0835   -0.0002   -0.0464    0.0331


   Root No.      33        34        35        36        37        38        39        40

                33 A      34 A      35 A      36 A      37 A      38 A      39 A      40 A   

                1410.0    1829.2    1861.9    2897.2    2974.7    2975.9    3039.7    3052.7
  
           1   -0.0114    0.0047   -0.0182    0.0208    0.0001    0.0012    0.0006   -0.0006
           2    0.0083    0.0062   -0.0240    0.0274   -0.0001    0.0015    0.0008    0.0005
           3   -0.0002    0.0011   -0.0237   -0.0521   -0.0000   -0.0030   -0.0016   -0.0000
           4    0.0070    0.0062   -0.0019    0.0009    0.0010    0.0010    0.0011   -0.0132
           5   -0.0456   -0.0174    0.0001   -0.0004    0.0004    0.0004   -0.0016    0.0169
           6   -0.0011   -0.0005   -0.0004    0.0048   -0.0307   -0.0290   -0.0001   -0.0012
           7    0.0457   -0.0184    0.0006   -0.0006   -0.0002    0.0001   -0.0018   -0.0197
           8    0.0059    0.0013   -0.0017    0.0008   -0.0011    0.0011    0.0007    0.0081
           9    0.0012   -0.0005   -0.0004    0.0048    0.0305   -0.0292   -0.0001    0.0012
          10    0.0063   -0.1620    0.0075   -0.0002   -0.0000    0.0000   -0.0001    0.0007
          11    0.0363    0.1538   -0.0056   -0.0001   -0.0000   -0.0001   -0.0001    0.0004
          12    0.0015    0.0012   -0.0000   -0.0000    0.0001   -0.0002   -0.0000    0.0000
          13    0.0030    0.0064    0.1346   -0.0005    0.0003    0.0002    0.0202   -0.0001
          14   -0.0022    0.0085    0.1776   -0.0007   -0.0002    0.0003    0.0266    0.0001
          15    0.0001   -0.0001    0.0257    0.0015    0.0000    0.0003   -0.0550   -0.0000
          16   -0.0333    0.1917   -0.0074   -0.0001    0.0000   -0.0001   -0.0000   -0.0002
          17   -0.0158   -0.1148    0.0057   -0.0002    0.0000   -0.0000   -0.0001   -0.0008
          18   -0.0015    0.0012   -0.0000   -0.0000   -0.0001   -0.0002   -0.0000   -0.0000
          19   -0.0004   -0.0063   -0.1159    0.0000   -0.0000   -0.0000   -0.0009   -0.0000
          20    0.0004   -0.0083   -0.1530    0.0000    0.0000   -0.0000   -0.0012    0.0000
          21   -0.0000    0.0005    0.0086   -0.0005   -0.0000   -0.0000    0.0047    0.0000
          22    0.0423    0.0021    0.0248   -0.2502   -0.0027   -0.0154   -0.0045   -0.0011
          23   -0.0316    0.0026    0.0327   -0.3293    0.0020   -0.0203   -0.0059    0.0008
          24    0.0003   -0.0038    0.0215    0.6257    0.0001    0.0339    0.0185    0.0000
          25   -0.0654   -0.0177   -0.0088    0.0100   -0.0973   -0.0924   -0.0087    0.0776
          26    0.1038   -0.0269   -0.0017   -0.0144    0.1087    0.1034    0.0078   -0.0848
          27   -0.0979   -0.0017   -0.0051   -0.0270    0.2019    0.1917    0.0159   -0.1899
          28   -0.0585   -0.0178    0.0025   -0.0100    0.0835    0.0791   -0.0073    0.0855
          29    0.0942   -0.0291    0.0031    0.0208   -0.1140   -0.1078    0.0103   -0.1181
          30    0.1054   -0.0020   -0.0023   -0.0309    0.1670    0.1577   -0.0176    0.2044
          31   -0.1167   -0.0212    0.0007   -0.0165   -0.1300    0.1250    0.0099    0.1022
          32    0.0338   -0.0243   -0.0089    0.0057    0.0642   -0.0616   -0.0063   -0.0518
          33    0.0969   -0.0017   -0.0051   -0.0270   -0.2007    0.1926    0.0160    0.1893
          34   -0.1057   -0.0233    0.0023    0.0228    0.1316   -0.1260    0.0119    0.1361
          35    0.0303   -0.0250    0.0032   -0.0041   -0.0496    0.0475   -0.0043   -0.0504
          36   -0.1046   -0.0020   -0.0024   -0.0309   -0.1662    0.1587   -0.0176   -0.2034
          37    0.0349   -0.1339    0.0067   -0.0022   -0.0002    0.0001    0.0009   -0.0043
          38   -0.0607   -0.0927    0.0053   -0.0010   -0.0000    0.0000    0.0002   -0.0004
          39   -0.0013   -0.0074    0.0002   -0.0001   -0.0003   -0.0010    0.0001   -0.0002
          40   -0.0005    0.0008   -0.0026    0.0079    0.0005    0.0010   -0.2038   -0.0004
          41    0.0002    0.0010   -0.0036    0.0104   -0.0004    0.0013   -0.2689    0.0002
          42    0.0000   -0.0073   -0.1336   -0.0165   -0.0000   -0.0012    0.6595    0.0000
          43    0.0676   -0.0535    0.0033   -0.0004   -0.0000    0.0000   -0.0001   -0.0007
          44   -0.0173   -0.1538    0.0079   -0.0024    0.0002    0.0001    0.0008    0.0042
          45    0.0013   -0.0074    0.0002   -0.0001    0.0003   -0.0010    0.0001    0.0002
          46   -0.0020   -0.0007   -0.0211   -0.0010   -0.0001   -0.0001   -0.0233   -0.0000
          47    0.0011   -0.0010   -0.0275   -0.0013    0.0001   -0.0002   -0.0307    0.0000
          48    0.0003   -0.0080   -0.1407   -0.0016   -0.0000   -0.0003   -0.0606   -0.0000
          49    0.0024    0.0000   -0.0008   -0.0024    0.0000   -0.0004   -0.0033    0.0000
          50   -0.0022    0.0000   -0.0009   -0.0032   -0.0000   -0.0005   -0.0043   -0.0000
          51   -0.0002    0.0080    0.1510    0.0031    0.0000    0.0009    0.0056   -0.0000


   Root No.      41        42        43        44        45

                41 A      42 A      43 A      44 A      45 A   

                3053.7    3115.5    3134.2    3134.7    3146.8
  
           1   -0.0001   -0.0001    0.0001    0.0006    0.0003
           2   -0.0001    0.0001    0.0001    0.0008    0.0005
           3   -0.0005   -0.0000    0.0004   -0.0000   -0.0002
           4   -0.0126    0.0002    0.0001   -0.0011   -0.0000
           5    0.0161   -0.0001   -0.0002    0.0017   -0.0000
           6   -0.0012    0.0001    0.0001   -0.0000   -0.0000
           7    0.0190    0.0001   -0.0003    0.0019   -0.0000
           8   -0.0079   -0.0002    0.0001   -0.0006   -0.0000
           9   -0.0012   -0.0001    0.0001   -0.0000   -0.0000
          10    0.0009    0.0365    0.0056   -0.0362    0.0002
          11    0.0006    0.0106    0.0009   -0.0057    0.0000
          12    0.0000    0.0014    0.0002   -0.0012    0.0000
          13    0.0006   -0.0000   -0.0018   -0.0002    0.0053
          14    0.0008    0.0000   -0.0023   -0.0002    0.0070
          15   -0.0018   -0.0000   -0.0011   -0.0002   -0.0048
          16    0.0004   -0.0004   -0.0007    0.0043   -0.0000
          17    0.0011   -0.0380    0.0057   -0.0364    0.0002
          18    0.0000   -0.0014    0.0002   -0.0012    0.0000
          19   -0.0000    0.0000    0.0125    0.0013   -0.0278
          20   -0.0000   -0.0000    0.0165    0.0017   -0.0367
          21    0.0002   -0.0000   -0.0554   -0.0063   -0.0321
          22   -0.0025   -0.0001    0.0023   -0.0004   -0.0011
          23   -0.0033    0.0001    0.0030   -0.0005   -0.0014
          24    0.0061   -0.0000   -0.0020    0.0015    0.0040
          25    0.0724   -0.0004   -0.0002    0.0037   -0.0004
          26   -0.0794    0.0026    0.0005   -0.0057    0.0002
          27   -0.1779    0.0036    0.0009   -0.0109    0.0003
          28    0.0800   -0.0007   -0.0007    0.0040    0.0001
          29   -0.1109    0.0035    0.0011   -0.0075   -0.0000
          30    0.1918   -0.0040   -0.0016    0.0113    0.0001
          31   -0.0964   -0.0026    0.0005   -0.0065    0.0003
          32    0.0487   -0.0003   -0.0001    0.0021   -0.0003
          33   -0.1788   -0.0036    0.0009   -0.0109    0.0003
          34   -0.1288   -0.0036    0.0013   -0.0083   -0.0001
          35    0.0475   -0.0003   -0.0003    0.0019    0.0001
          36    0.1925    0.0040   -0.0016    0.0113    0.0001
          37   -0.0153   -0.4330   -0.0574    0.3686   -0.0019
          38   -0.0033   -0.1280   -0.0166    0.1066   -0.0005
          39   -0.0006   -0.0171   -0.0022    0.0144   -0.0001
          40   -0.0066   -0.0000   -0.0056   -0.0008   -0.0178
          41   -0.0087    0.0000   -0.0074   -0.0011   -0.0235
          42    0.0209    0.0000    0.0106    0.0018    0.0521
          43    0.0009    0.0072   -0.0006    0.0038    0.0000
          44   -0.0157    0.4512   -0.0599    0.3840   -0.0020
          45   -0.0006    0.0171   -0.0022    0.0145   -0.0001
          46   -0.0008    0.0000    0.0611    0.0075    0.2375
          47   -0.0010    0.0000    0.0805    0.0099    0.3129
          48   -0.0020    0.0000    0.1163    0.0146    0.5543
          49    0.0001   -0.0000   -0.1876   -0.0208    0.0461
          50    0.0001    0.0000   -0.2477   -0.0274    0.0609
          51   -0.0004    0.0000    0.5444    0.0601   -0.1673


           MASS-WEIGHTED COORDINATE ANALYSIS (NORMAL COORDINATES)


   Root No.       1         2         3         4         5         6         7         8

                 1 A       2 A       3 A       4 A       5 A       6 A       7 A       8 A   

                  47.2      65.3     325.0     356.1     372.3     426.9     644.4     686.4
  
           1   -0.2093    0.0451   -0.1998   -0.0130   -0.1027    0.0042    0.0328    0.2191
           2    0.1591    0.0585    0.1517   -0.0178    0.0780    0.0053   -0.0250    0.2884
           3   -0.0004   -0.2116    0.0010    0.4180   -0.0005    0.2194   -0.0002   -0.2052
           4   -0.2059    0.0436   -0.2006    0.0187   -0.1059   -0.0354    0.1642    0.2909
           5   -0.0919    0.0638   -0.0214    0.0407   -0.0018   -0.2114    0.0203   -0.1947
           6   -0.0262   -0.3308   -0.1190   -0.1428   -0.2169   -0.1435    0.0258   -0.0946
           7    0.0331    0.0497   -0.0329    0.0344   -0.0269   -0.1942    0.0247   -0.2658
           8    0.2229    0.0583    0.1993    0.0283    0.1024   -0.0913   -0.1638    0.2279
           9    0.0252   -0.3308    0.1181   -0.1431    0.2170   -0.1435   -0.0257   -0.0947
          10    0.0281    0.0287   -0.0155    0.0254   -0.0210   -0.1576    0.1014   -0.1034
          11   -0.1570    0.0377   -0.0773    0.0353   -0.0632   -0.2182    0.0601   -0.1611
          12   -0.0127    0.3368   -0.3369   -0.0290    0.3465   -0.0457    0.0234   -0.0390
          13   -0.2737   -0.1023    0.2541   -0.0497    0.1242    0.2549   -0.4096   -0.0059
          14    0.2075   -0.1353   -0.1933   -0.0638   -0.0940    0.3352    0.3106   -0.0077
          15   -0.0002   -0.0250    0.0012    0.4701   -0.0006    0.0129   -0.0001    0.2474
          16    0.1585    0.0281    0.0706    0.0271    0.0550   -0.1681   -0.0306   -0.1275
          17    0.0147    0.0377    0.0359    0.0338    0.0370   -0.2106   -0.1137   -0.1430
          18    0.0136    0.3367    0.3371   -0.0318   -0.3465   -0.0455   -0.0233   -0.0388
          19    0.4424   -0.0928    0.0786   -0.0723    0.0441    0.2832    0.0213   -0.0126
          20   -0.3350   -0.1208   -0.0605   -0.0955   -0.0333    0.3736   -0.0158   -0.0165
          21    0.0007    0.2666   -0.0008   -0.3418    0.0006    0.2020    0.0002    0.0097
          22   -0.0806    0.0447   -0.0810    0.0430   -0.0159    0.0056    0.0661    0.1204
          23    0.0614    0.0586    0.0617    0.0563    0.0120    0.0071   -0.0502    0.1586
          24   -0.0001   -0.0256    0.0004    0.1654   -0.0002    0.0662   -0.0001    0.0035
          25   -0.0889   -0.0084   -0.0830   -0.0989   -0.0847   -0.0894    0.0709    0.1783
          26   -0.0417    0.1573   -0.0836    0.0986    0.1925    0.0022   -0.0258   -0.2169
          27   -0.0132   -0.1790   -0.0065   -0.1386   -0.1951   -0.1164    0.0393    0.1061
          28   -0.0815    0.0350   -0.0614    0.1229    0.0152    0.0634    0.0262   -0.0359
          29   -0.0507   -0.1110    0.0360   -0.0603   -0.1960   -0.1366    0.0479    0.0537
          30   -0.0130   -0.1917   -0.0042   -0.1472   -0.2165   -0.1280    0.0460    0.1096
          31    0.0166    0.1537    0.0591    0.1207   -0.2086    0.0262    0.0438   -0.2569
          32    0.0969    0.0337    0.1021   -0.0693    0.0301   -0.0858   -0.0614    0.1135
          33    0.0127   -0.1790    0.0056   -0.1383    0.1954   -0.1165   -0.0392    0.1060
          34    0.0265   -0.1163   -0.0518   -0.0903    0.1931   -0.1488   -0.0389    0.0612
          35    0.0919    0.0037    0.0501    0.1023    0.0377    0.0243   -0.0382   -0.0203
          36    0.0125   -0.1918    0.0033   -0.1468    0.2169   -0.1281   -0.0459    0.1095
          37    0.0224    0.0051    0.0117    0.0075   -0.0037   -0.0518    0.0144   -0.0603
          38   -0.0947    0.0060   -0.0600    0.0082   -0.0487   -0.0447    0.0668    0.0290
          39   -0.0072    0.2160   -0.2327    0.0048    0.2624    0.0004    0.0249    0.2241
          40   -0.2583   -0.0664    0.3038    0.0362    0.1693    0.0959    0.0011   -0.0244
          41    0.1958   -0.0880   -0.2304    0.0493   -0.1285    0.1258   -0.0008   -0.0320
          42   -0.0001   -0.0391    0.0004    0.1737   -0.0003    0.0234   -0.0001    0.0496
          43    0.0973    0.0041    0.0612    0.0057    0.0459   -0.0294   -0.0606    0.0443
          44    0.0037    0.0065    0.0049    0.0095    0.0165   -0.0620   -0.0318   -0.0504
          45    0.0079    0.2158    0.2327    0.0027   -0.2620    0.0006   -0.0249    0.2241
          46    0.1279   -0.0609    0.2291    0.0979    0.1470    0.0480    0.5301    0.0826
          47   -0.0973   -0.0796   -0.1732    0.1295   -0.1117    0.0635   -0.4020    0.1089
          48    0.0005    0.1183   -0.0007   -0.2460    0.0003    0.1035   -0.0001   -0.1051
          49    0.3113    0.0094   -0.2312   -0.1430   -0.1433    0.1253   -0.3224   -0.0915
          50   -0.2356    0.0129    0.1742   -0.1897    0.1090    0.1661    0.2444   -0.1205
          51    0.0003    0.1117   -0.0005   -0.2189    0.0003    0.1010    0.0001   -0.0846


   Root No.       9        10        11        12        13        14        15        16

                 9 A      10 A      11 A      12 A      13 A      14 A      15 A      16 A   

                 745.0     772.8     866.4     873.7     936.0     951.4     986.4    1009.3
  
           1   -0.1217    0.2217   -0.0064   -0.0258   -0.0331    0.0284   -0.1030    0.1432
           2   -0.1610   -0.1677    0.0047   -0.0343    0.0251    0.0377    0.0788   -0.1070
           3    0.1498   -0.0003    0.0011    0.2018    0.0003   -0.1529   -0.0001   -0.0004
           4   -0.2035    0.0110   -0.0422    0.3269    0.0604    0.0142    0.1081   -0.1162
           5    0.1080   -0.3240    0.0495   -0.0889   -0.0518   -0.0201   -0.1428    0.2032
           6   -0.1076   -0.0186   -0.3253    0.1687    0.0084    0.2695    0.1288    0.1663
           7    0.1598    0.3143   -0.0614   -0.1728    0.0662   -0.0228    0.1665   -0.2264
           8   -0.1667    0.0770    0.0312    0.2906   -0.0445    0.0079   -0.0660    0.0557
           9   -0.1072    0.0191    0.3278    0.1646   -0.0097    0.2692   -0.1279   -0.1650
          10    0.0518   -0.5374    0.0151   -0.0200   -0.0203    0.0035    0.0229   -0.0225
          11    0.0841   -0.1018   -0.0183   -0.0240    0.0145    0.0017    0.0917   -0.1207
          12   -0.1694   -0.0121   -0.0390   -0.1072    0.0264   -0.1946   -0.3067   -0.1668
          13    0.0256   -0.0360    0.0081   -0.0611   -0.2751    0.0167   -0.0019    0.0367
          14    0.0338    0.0272   -0.0070   -0.0802    0.2086    0.0236    0.0014   -0.0277
          15   -0.0153    0.0000   -0.0014   -0.2146    0.0003   -0.0923    0.0003    0.0009
          16    0.0669   -0.0464    0.0214   -0.0180   -0.0195    0.0005   -0.0821    0.1104
          17    0.0745    0.5446   -0.0101   -0.0255    0.0156    0.0039   -0.0465    0.0546
          18   -0.1688    0.0127    0.0376   -0.1077   -0.0255   -0.1950    0.3057    0.1652
          19    0.0360    0.0008    0.0075   -0.0977   -0.0826    0.0264    0.0023   -0.1662
          20    0.0473   -0.0007   -0.0070   -0.1281    0.0627    0.0350   -0.0019    0.1257
          21    0.0107    0.0000   -0.0013   -0.2239   -0.0005    0.2526   -0.0005   -0.0009
          22   -0.0475    0.0474    0.1321   -0.0065   -0.0136   -0.1119   -0.2818    0.1719
          23   -0.0628   -0.0357   -0.1005   -0.0071    0.0111   -0.1474    0.2148   -0.1292
          24    0.0312   -0.0001    0.0002    0.0521    0.0005   -0.1768    0.0003    0.0004
          25   -0.0769    0.0598    0.1049   -0.0152    0.0456   -0.0721   -0.1900   -0.0838
          26   -0.1257   -0.0889   -0.2663    0.0536    0.0104    0.2089   -0.0637    0.1813
          27    0.0476    0.0155    0.1172   -0.0472    0.0017   -0.0774   -0.0583   -0.0431
          28   -0.0414    0.0554   -0.1480    0.3047    0.0049    0.0764    0.1982    0.2107
          29    0.1930   -0.0511    0.2630   -0.0392   -0.0408   -0.2075   -0.0787    0.1368
          30    0.0693    0.0025    0.1430   -0.0628   -0.0087   -0.0952   -0.0728   -0.0183
          31   -0.0999    0.1020    0.2858    0.0520    0.0011    0.2203    0.0114   -0.1957
          32   -0.1084   -0.0333   -0.0296   -0.0002   -0.0467   -0.0139    0.2011    0.0327
          33    0.0472   -0.0157   -0.1178   -0.0458   -0.0013   -0.0773    0.0583    0.0429
          34    0.1970    0.0633   -0.2948   -0.1157    0.0417   -0.2197    0.1278   -0.0778
          35    0.0123   -0.0397    0.0758    0.2825    0.0059    0.0182   -0.1713   -0.2445
          36    0.0691   -0.0027   -0.1439   -0.0610    0.0092   -0.0951    0.0725    0.0179
          37    0.0159   -0.1375    0.0008   -0.0452   -0.0150   -0.0097   -0.0581    0.0763
          38   -0.0598   -0.0976   -0.0470    0.1099    0.0432    0.0027    0.1805   -0.3372
          39    0.5315    0.0095    0.3941    0.1650   -0.0572    0.2007    0.3833    0.1547
          40    0.0370   -0.0266    0.0750    0.0121    0.5996   -0.1166    0.0055   -0.0153
          41    0.0486    0.0200   -0.0569    0.0168   -0.4540   -0.1566   -0.0039    0.0124
          42    0.0217   -0.0000   -0.0003   -0.0334    0.0002   -0.1339    0.0002    0.0006
          43   -0.0615    0.0571    0.0471    0.1177   -0.0459    0.0049   -0.1908    0.3455
          44   -0.0001    0.1586    0.0117   -0.0143    0.0029   -0.0087    0.0076    0.0170
          45    0.5311   -0.0114   -0.3924    0.1701    0.0561    0.2017   -0.3824   -0.1535
          46   -0.0104    0.0823   -0.0466   -0.2129    0.0184    0.1929   -0.0149    0.2171
          47   -0.0138   -0.0624    0.0328   -0.2822   -0.0148    0.2547    0.0106   -0.1659
          48    0.0306   -0.0001    0.0009    0.1625    0.0003   -0.1590    0.0002    0.0003
          49    0.0363   -0.0551    0.0438    0.1457    0.4128   -0.1954    0.0037    0.1834
          50    0.0479    0.0416   -0.0316    0.1921   -0.3120   -0.2596   -0.0022   -0.1377
          51    0.0288   -0.0000    0.0006    0.1085    0.0002   -0.1277    0.0002    0.0003


   Root No.      17        18        19        20        21        22        23        24

                17 A      18 A      19 A      20 A      21 A      22 A      23 A      24 A   

                1014.3    1030.5    1063.2    1073.0    1099.2    1110.0    1126.6    1186.4
  
           1   -0.1880   -0.0266   -0.2146    0.0458   -0.0763    0.1600    0.1421   -0.1299
           2   -0.2486    0.0206   -0.2814   -0.0402   -0.0986   -0.1225    0.1859   -0.1723
           3    0.0930   -0.0000   -0.0039   -0.0007    0.0779    0.0006   -0.0776    0.2317
           4    0.1390    0.0053    0.0635   -0.0157    0.0437   -0.2037   -0.2177    0.0184
           5    0.0198   -0.0717    0.0771    0.0101   -0.1399   -0.0488    0.1917   -0.0515
           6   -0.1384   -0.0877   -0.0490    0.0653   -0.0579    0.1158    0.0656   -0.0122
           7   -0.0197    0.0705    0.0579   -0.0118   -0.1455   -0.0105    0.2435   -0.0549
           8    0.1393    0.0138    0.0815    0.0141    0.0027    0.2101   -0.1573    0.0044
           9   -0.1413    0.0875   -0.0467   -0.0660   -0.0566   -0.1168    0.0650   -0.0122
          10   -0.0546    0.0247   -0.1058    0.0016    0.1474    0.0684   -0.2118    0.0508
          11   -0.0249    0.0549   -0.0612    0.0152    0.1695    0.0754   -0.1680    0.0561
          12    0.1358    0.0602   -0.0728   -0.2742    0.0129   -0.0215   -0.0109   -0.0084
          13    0.0173    0.2590    0.0070   -0.0119    0.0034   -0.0098   -0.0009   -0.0131
          14    0.0229   -0.1958    0.0085    0.0091    0.0041    0.0075   -0.0011   -0.0171
          15   -0.1631   -0.0001    0.1027    0.0020   -0.0074   -0.0000    0.0182   -0.3798
          16   -0.0086   -0.0464   -0.0308   -0.0153    0.1235   -0.0526   -0.1060    0.0402
          17   -0.0588   -0.0386   -0.1183   -0.0095    0.1880   -0.0828   -0.2498    0.0637
          18    0.1399   -0.0600   -0.0814    0.2717    0.0130    0.0218   -0.0111   -0.0083
          19    0.0307   -0.3597    0.0155    0.0072    0.0032    0.0100    0.0074    0.0129
          20    0.0418    0.2725    0.0211   -0.0051    0.0045   -0.0076    0.0098    0.0171
          21    0.2172    0.0004    0.0405    0.0002    0.0290    0.0002   -0.0624    0.1144
          22   -0.1599   -0.1062   -0.0802    0.0724   -0.1000    0.5201    0.1543    0.3362
          23   -0.2115    0.0805   -0.1039   -0.0566   -0.1263   -0.3970    0.2008    0.4428
          24   -0.0949   -0.0001   -0.0171   -0.0002   -0.0564   -0.0007    0.1002    0.4801
          25   -0.0131    0.0112    0.4269    0.3089   -0.0990   -0.3007   -0.1407    0.1319
          26   -0.1203   -0.0904    0.3266    0.2737   -0.2148   -0.1641    0.1126    0.0127
          27    0.0052    0.0167    0.0233    0.0248    0.0205   -0.0058   -0.0414    0.0438
          28    0.3039   -0.1251   -0.1323   -0.3753   -0.2238   -0.0888    0.0306   -0.0676
          29    0.3177   -0.0627    0.0088   -0.2940   -0.2371   -0.1622    0.1559   -0.0614
          30    0.0373    0.0079    0.0443    0.0021   -0.0302   -0.0432    0.0328    0.0070
          31   -0.1151    0.0898    0.2061   -0.1740   -0.1805    0.0745    0.1474   -0.0232
          32   -0.0449    0.0128    0.5102   -0.3560   -0.1562    0.3322   -0.1025    0.1306
          33    0.0058   -0.0167    0.0240   -0.0243    0.0201    0.0063   -0.0414    0.0438
          34    0.2250    0.0272    0.0390    0.1833   -0.1687    0.1301    0.1431   -0.0409
          35    0.3761    0.1381   -0.1366    0.4356   -0.2792    0.1266    0.0722   -0.0808
          36    0.0379   -0.0079    0.0442   -0.0007   -0.0306    0.0427    0.0332    0.0069
          37   -0.0482   -0.0301   -0.0820   -0.0043   -0.0788   -0.0377   -0.1977    0.0214
          38    0.1273    0.1475    0.1493   -0.0121    0.4758    0.2056    0.3934   -0.0017
          39   -0.1057   -0.0456    0.0360    0.1561    0.0095    0.0230    0.0148    0.0069
          40   -0.0481   -0.2169    0.1446   -0.0094    0.0288    0.0421   -0.0875   -0.1141
          41   -0.0634    0.1642    0.1904    0.0119    0.0386   -0.0313   -0.1157   -0.1504
          42   -0.0925   -0.0002    0.1540    0.0026    0.0222    0.0002   -0.0710   -0.2069
          43    0.1385   -0.1515    0.1649    0.0145    0.4803   -0.2070    0.4307   -0.0073
          44   -0.0120   -0.0106   -0.0393    0.0062    0.0518   -0.0178   -0.0851    0.0201
          45   -0.1096    0.0454    0.0412   -0.1554    0.0093   -0.0229    0.0146    0.0068
          46    0.1409    0.4122    0.0121   -0.0028    0.0087    0.0025   -0.0128    0.0965
          47    0.1842   -0.3122    0.0154    0.0020    0.0113   -0.0019   -0.0169    0.1271
          48   -0.0998   -0.0004    0.0074    0.0003   -0.0004    0.0000   -0.0006   -0.0831
          49   -0.1340    0.3417    0.0165   -0.0127   -0.0102   -0.0029    0.0279   -0.0723
          50   -0.1786   -0.2593    0.0210    0.0106   -0.0137    0.0019    0.0368   -0.0953
          51   -0.0780   -0.0001    0.0242    0.0005   -0.0015   -0.0000    0.0043   -0.0475


   Root No.      25        26        27        28        29        30        31        32

                25 A      26 A      27 A      28 A      29 A      30 A      31 A      32 A   

                1202.6    1229.3    1248.4    1290.2    1342.7    1370.4    1401.6    1406.3
  
           1   -0.0002    0.4761    0.3019   -0.1517   -0.0066   -0.0424   -0.2455    0.1762
           2   -0.0021   -0.3615   -0.2293   -0.1996   -0.0085    0.0314   -0.3238    0.2332
           3   -0.2322    0.0000    0.0003   -0.3458    0.1517   -0.0007   -0.2954    0.2220
           4   -0.0430   -0.0928   -0.3407   -0.0816    0.2507   -0.2610    0.1074   -0.2238
           5   -0.0121    0.0842   -0.1097   -0.1570    0.2759   -0.1961    0.3256    0.1326
           6    0.0818   -0.0398   -0.0318    0.0641   -0.0075   -0.0113    0.0599   -0.0330
           7   -0.0004   -0.1065    0.0148   -0.1293    0.1985    0.1177    0.2834    0.1920
           8   -0.0442    0.0665    0.3584   -0.1205    0.3160    0.3037    0.1906   -0.1785
           9    0.0820    0.0396    0.0318    0.0641   -0.0075    0.0115    0.0599   -0.0329
          10    0.0116    0.0468    0.1000    0.0869   -0.1159    0.1235   -0.0911   -0.0336
          11    0.0148    0.2014   -0.1458    0.1111   -0.1442    0.3402   -0.0814   -0.0252
          12    0.0014    0.0234   -0.0007    0.0022   -0.0067    0.0138   -0.0087   -0.0007
          13   -0.0534   -0.0816   -0.0378   -0.0725   -0.0963    0.0142    0.0535   -0.0372
          14   -0.0702    0.0620    0.0287   -0.0959   -0.1268   -0.0104    0.0704   -0.0491
          15   -0.2028    0.0008   -0.0001    0.2711   -0.1468    0.0005    0.2175   -0.1468
          16    0.0107   -0.1811    0.1669    0.0843   -0.1088   -0.2942   -0.0530   -0.0188
          17    0.0148   -0.0986   -0.0578    0.1137   -0.1509   -0.2097   -0.1091   -0.0411
          18    0.0012   -0.0234    0.0006    0.0022   -0.0068   -0.0138   -0.0087   -0.0008
          19   -0.0838    0.0266    0.0134    0.0407   -0.0895   -0.0025    0.1132   -0.0857
          20   -0.1107   -0.0196   -0.0101    0.0537   -0.1182    0.0024    0.1495   -0.1131
          21    0.1853   -0.0004    0.0000   -0.0721    0.0425   -0.0001   -0.0400    0.0235
          22    0.1469   -0.3753   -0.1473    0.0872   -0.0515    0.0526    0.0817   -0.0801
          23    0.1947    0.2839    0.1114    0.1143   -0.0678   -0.0394    0.1079   -0.1065
          24    0.0864   -0.0007   -0.0002    0.0448   -0.0110    0.0002    0.0792   -0.0776
          25   -0.1173   -0.1861    0.1149    0.0248   -0.1779    0.2948   -0.0383    0.2980
          26   -0.0409   -0.1269    0.2286    0.0017   -0.0554   -0.0898   -0.2202   -0.1783
          27   -0.0097   -0.0112   -0.0401    0.0123   -0.0415    0.1654    0.1291    0.2402
          28    0.1214   -0.1863    0.0787    0.1936   -0.2259    0.2697    0.0650    0.1978
          29    0.0076   -0.0889    0.2281    0.0242   -0.0635   -0.0849   -0.1948   -0.1702
          30   -0.0319   -0.0093    0.0683   -0.0367    0.0401   -0.1616   -0.1672   -0.2340
          31   -0.0078    0.0720   -0.1891   -0.0055   -0.0045    0.1664   -0.2008   -0.2542
          32   -0.1231    0.2134   -0.1722    0.0241   -0.1866   -0.2598   -0.0961    0.2389
          33   -0.0096    0.0113    0.0399    0.0125   -0.0422   -0.1660    0.1282    0.2420
          34   -0.0254    0.0356   -0.1984   -0.0291    0.0004    0.1549   -0.2041   -0.2192
          35    0.1194    0.2037   -0.1376    0.1926   -0.2350   -0.2366    0.0102    0.1448
          36   -0.0319    0.0092   -0.0682   -0.0369    0.0409    0.1622   -0.1663   -0.2361
          37   -0.0033    0.0890   -0.0813    0.0233   -0.0238    0.1060   -0.0249   -0.0231
          38    0.0265   -0.2000    0.3348    0.0489   -0.0870   -0.1371   -0.0397    0.0262
          39    0.0049   -0.0090    0.0101    0.0071   -0.0054   -0.0018   -0.0003   -0.0008
          40    0.4484    0.0527    0.0212   -0.0768    0.0370   -0.0145   -0.0500    0.0217
          41    0.5912   -0.0413   -0.0162   -0.1012    0.0489    0.0108   -0.0660    0.0287
          42    0.3292   -0.0004   -0.0001    0.0362    0.0124    0.0000    0.0104   -0.0141
          43    0.0268    0.2159   -0.3438    0.0402   -0.0766    0.1603   -0.0321    0.0334
          44    0.0039   -0.0319   -0.0117    0.0357   -0.0464   -0.0652   -0.0345   -0.0158
[...]
 FREQUENCY          1290.24         C  1 -- C  5         +16.9% ( 52.4%)     82.5%
 TRANSITION DIPOLE   0.0323         C  7 -- H 17         +14.0% ( 47.6%)      0.9%
 TRAVEL (Ang.)       0.2806         C  1 -- H  8         +10.7% ( 41.7%)      3.7%
 REDUCED MASS        0.6639         C  1 -- C  2         +10.0% ( 40.3%)      2.8%
 EFFECTIVE MASS      5.5055         C  1 -- C  3         +10.0% ( 40.3%)      2.8%
 FORCE CONSTANT      0.6511

 VIBRATION         29   29A           ATOM PAIR      ENERGY CONTRIBUTION    RADIAL
 FREQUENCY          1342.69         C  7 -- H 16         +10.5% ( 41.8%)      0.8%
 TRANSITION DIPOLE   0.0328         C  3 -- C  6          +9.4% ( 39.4%)     80.6%
 TRAVEL (Ang.)       0.2884         C  2 -- C  4          +9.3% ( 39.3%)     80.6%
 REDUCED MASS        0.6037         C  3 -- H 12          +8.9% ( 38.4%)      0.3%
 EFFECTIVE MASS      5.5669
 FORCE CONSTANT      0.6412

 VIBRATION         30   30A           ATOM PAIR      ENERGY CONTRIBUTION    RADIAL
 FREQUENCY          1370.40         C  2 -- C  4         +13.7% ( 46.9%)     87.7%
 TRANSITION DIPOLE   0.0578         C  3 -- C  6         +13.7% ( 46.8%)     87.6%
 TRAVEL (Ang.)       0.2580         C  4 -- C  6         +12.4% ( 44.5%)      0.0%
 REDUCED MASS        0.7391         C  2 -- H  9         +10.2% ( 40.4%)      0.1%
 EFFECTIVE MASS      6.0516         C  3 -- H 11         +10.2% ( 40.4%)      0.1%
 FORCE CONSTANT      0.8178

 VIBRATION         31   31A           ATOM PAIR      ENERGY CONTRIBUTION    RADIAL
 FREQUENCY          1401.56         C  1 -- C  5         +13.6% ( 52.9%)     98.4%
 TRANSITION DIPOLE   0.1075         C  1 -- C  2         +13.5% ( 52.6%)     18.5%
 TRAVEL (Ang.)       0.2006         C  1 -- C  3         +13.4% ( 52.6%)     18.6%
 REDUCED MASS        1.1955         C  1 -- H  8         +10.2% ( 45.9%)      0.0%
 EFFECTIVE MASS      7.5677
 FORCE CONSTANT      1.3837

 VIBRATION         32   32A           ATOM PAIR      ENERGY CONTRIBUTION    RADIAL
 FREQUENCY          1406.34         C  3 -- H 11         +13.1% ( 42.6%)      2.7%
 TRANSITION DIPOLE   0.0148         C  2 -- H  9         +12.9% ( 42.4%)      2.6%
 TRAVEL (Ang.)       0.3288         C  1 -- C  3         +10.6% ( 38.4%)     68.5%
 REDUCED MASS        0.4434         C  1 -- C  2         +10.5% ( 38.3%)     68.0%
 EFFECTIVE MASS      4.3336         C  1 -- C  5         +10.3% ( 37.8%)     98.4%
 FORCE CONSTANT      0.5167

 VIBRATION         33   33A           ATOM PAIR      ENERGY CONTRIBUTION    RADIAL
 FREQUENCY          1409.99         C  2 -- C  4         +12.9% ( 45.7%)     92.8%
 TRANSITION DIPOLE   0.0661         C  3 -- C  6         +12.9% ( 45.7%)     93.0%
 TRAVEL (Ang.)       0.2721         C  2 -- H  9         +11.2% ( 42.6%)      5.6%
 REDUCED MASS        0.6461         C  3 -- H 11         +11.1% ( 42.4%)      5.6%
 EFFECTIVE MASS      5.6935         C  2 -- H 10         +10.7% ( 41.7%)      6.6%
 FORCE CONSTANT      0.7568         C  3 -- H 12         +10.6% ( 41.5%)      6.5%

 VIBRATION         34   34A           ATOM PAIR      ENERGY CONTRIBUTION    RADIAL
 FREQUENCY          1829.20         C  4 -- C  6         +45.7% ( 99.9%)    100.0%
 TRANSITION DIPOLE   0.1334         C  3 -- C  6         +13.9% ( 55.1%)     25.6%
 TRAVEL (Ang.)       0.0829         C  2 -- C  4         +13.9% ( 55.1%)     25.6%
 REDUCED MASS        5.3638         C  6 -- H 15         +12.9% ( 53.2%)      9.7%
 EFFECTIVE MASS     11.8699         C  4 -- H 13         +12.9% ( 53.1%)      9.7%
 FORCE CONSTANT     10.5741

 VIBRATION         35   35A           ATOM PAIR      ENERGY CONTRIBUTION    RADIAL
 FREQUENCY          1861.89         C  5 -- C  7         +45.1% ( 99.2%)     98.9%
 TRANSITION DIPOLE   0.1547         C  1 -- C  5         +16.7% ( 60.3%)     54.7%
 TRAVEL (Ang.)       0.0829         C  5 -- H 14         +15.4% ( 57.9%)      4.0%
 REDUCED MASS        5.2677         C  7 -- H 17         +10.9% ( 48.8%)     11.0%
 EFFECTIVE MASS     11.7912         C  7 -- H 16         +10.7% ( 48.3%)     12.9%
 FORCE CONSTANT     10.7593

 VIBRATION         36   36A           ATOM PAIR      ENERGY CONTRIBUTION    RADIAL
 FREQUENCY          2897.20         C  1 -- H  8         +95.6% ( 99.5%)    100.0%
 TRANSITION DIPOLE   0.0572         C  1 -- C  3          +1.1% ( 10.7%)      9.0%
 TRAVEL (Ang.)       0.1598         C  1 -- C  2          +1.1% ( 10.7%)      9.0%
 REDUCED MASS        0.9114         C  1 -- C  5          +1.1% ( 10.7%)     11.7%
 EFFECTIVE MASS      1.4585
 FORCE CONSTANT      4.5072

 VIBRATION         37   37A           ATOM PAIR      ENERGY CONTRIBUTION    RADIAL
 FREQUENCY          2974.71         C  2 -- H  9         +27.5% ( 54.4%)     97.3%
 TRANSITION DIPOLE   0.0223         C  3 -- H 11         +27.2% ( 54.1%)     97.3%
 TRAVEL (Ang.)       0.2939         C  2 -- H 10         +21.7% ( 48.3%)     95.9%
 REDUCED MASS        0.2624         C  3 -- H 12         +21.5% ( 48.1%)     95.9%
 EFFECTIVE MASS      1.5387
 FORCE CONSTANT      1.3678

 VIBRATION         38   38A           ATOM PAIR      ENERGY CONTRIBUTION    RADIAL
 FREQUENCY          2975.93         C  3 -- H 11         +27.4% ( 54.2%)     97.3%
 TRANSITION DIPOLE   0.0706         C  2 -- H  9         +27.1% ( 53.9%)     97.3%
 TRAVEL (Ang.)       0.2963         C  3 -- H 12         +21.4% ( 48.0%)     95.9%
 REDUCED MASS        0.2580         C  2 -- H 10         +21.2% ( 47.7%)     95.9%
 EFFECTIVE MASS      1.5346
 FORCE CONSTANT      1.3463

 VIBRATION         39   39A           ATOM PAIR      ENERGY CONTRIBUTION    RADIAL
 FREQUENCY          3039.72         C  5 -- H 14         +96.0% ( 99.4%)    100.0%
 TRANSITION DIPOLE   0.2476         C  5 -- C  7          +1.4% ( 12.1%)     31.1%
 TRAVEL (Ang.)       0.1564         C  1 -- C  5          +1.3% ( 11.7%)     14.2%
 REDUCED MASS        0.9066         C  7 -- H 16          +0.9% (  9.6%)     95.2%
 EFFECTIVE MASS      1.5014
 FORCE CONSTANT      4.9356

 VIBRATION         40   40A           ATOM PAIR      ENERGY CONTRIBUTION    RADIAL
 FREQUENCY          3052.70         C  2 -- H 10         +28.0% ( 52.2%)     98.3%
 TRANSITION DIPOLE   0.1214         C  3 -- H 12         +27.7% ( 51.9%)     98.3%
 TRAVEL (Ang.)       0.3000         C  2 -- H  9         +21.5% ( 45.8%)     96.7%
 REDUCED MASS        0.2454         C  3 -- H 11         +21.4% ( 45.6%)     96.7%
 EFFECTIVE MASS      1.2751
 FORCE CONSTANT      1.3471

 VIBRATION         41   41A           ATOM PAIR      ENERGY CONTRIBUTION    RADIAL
 FREQUENCY          3053.66         C  3 -- H 12         +27.8% ( 52.0%)     98.2%
 TRANSITION DIPOLE   0.0569         C  2 -- H 10         +27.6% ( 51.8%)     98.2%
 TRAVEL (Ang.)       0.3015         C  3 -- H 11         +21.4% ( 45.6%)     96.6%
 REDUCED MASS        0.2429         C  2 -- H  9         +21.2% ( 45.4%)     96.6%
 EFFECTIVE MASS      1.2908
 FORCE CONSTANT      1.3348

 VIBRATION         42   42A           ATOM PAIR      ENERGY CONTRIBUTION    RADIAL
 FREQUENCY          3115.55         C  4 -- H 13         +48.8% ( 70.9%)    100.0%
 TRANSITION DIPOLE   0.3768         C  6 -- H 15         +48.7% ( 70.9%)    100.0%
 TRAVEL (Ang.)       0.2158         C  4 -- C  6          +1.1% ( 10.7%)      0.0%
 REDUCED MASS        0.4647         C  2 -- C  4          +0.7% (  8.6%)     27.4%
 EFFECTIVE MASS      1.4621
 FORCE CONSTANT      2.6578

 VIBRATION         43   43A           ATOM PAIR      ENERGY CONTRIBUTION    RADIAL
 FREQUENCY          3134.17         C  7 -- H 17         +89.4% ( 96.3%)     99.8%
 TRANSITION DIPOLE   0.2266         C  7 -- H 16          +7.5% ( 28.0%)     73.9%
 TRAVEL (Ang.)       0.1627         C  5 -- C  7          +1.3% ( 11.6%)     20.8%
 REDUCED MASS        0.8132         C  6 -- H 15          +0.8% (  9.2%)     99.9%
 EFFECTIVE MASS      1.5435
 FORCE CONSTANT      4.7067

 VIBRATION         44   44A           ATOM PAIR      ENERGY CONTRIBUTION    RADIAL
 FREQUENCY          3134.65         C  6 -- H 15         +46.9% ( 69.8%)     99.9%
 TRANSITION DIPOLE   0.3393         C  4 -- H 13         +46.9% ( 69.7%)     99.9%
 TRAVEL (Ang.)       0.2187         C  4 -- C  6          +2.4% ( 15.9%)    100.0%
 REDUCED MASS        0.4498         C  7 -- H 17          +1.5% ( 12.6%)     99.8%
 EFFECTIVE MASS      1.6494
 FORCE CONSTANT      2.6041

 VIBRATION         45   45A           ATOM PAIR      ENERGY CONTRIBUTION    RADIAL
 FREQUENCY          3146.85         C  7 -- H 16         +91.0% ( 96.0%)     99.6%
 TRANSITION DIPOLE   0.2532         C  7 -- H 17          +6.6% ( 25.9%)     46.9%
 TRAVEL (Ang.)       0.1631         C  5 -- C  7          +1.6% ( 12.7%)     74.9%
 REDUCED MASS        0.8051         C  5 -- H 14          +0.8% (  8.8%)     94.5%
 EFFECTIVE MASS      1.4623
 FORCE CONSTANT      4.6976

      SYMMETRY NUMBER FOR POINT-GROUP C1  =  1


          SYSTEM IS A GROUND STATE



 InChI=1S/C7H10/c1-2-7-5-3-4-6-7/h2-4,7H,1,5-6H2


          MOLECULE IS NOT LINEAR

          THERE ARE 45 GENUINE VIBRATIONS IN THIS SYSTEM
          THIS THERMODYNAMICS CALCULATION IS LIMITED TO
          MOLECULES WHICH HAVE NO INTERNAL ROTATIONS




                    CALCULATED THERMODYNAMIC PROPERTIES
                                          *
   TEMP. (K)   PARTITION FUNCTION   H.O.F.    ENTHALPY  HEAT CAPACITY ENTROPY
                                   KCAL/MOL   CAL/MOLE    CAL/K/MOL  CAL/K/MOL


 298.00  VIB.     0.4989D+02                  2536.2908    19.6978    16.2808
         ROT.     0.2035D+06                   888.2803     2.9808    27.2710
         INT.     0.1015D+08                  3424.5711    22.6786    43.5517
         TRA.     0.8833D+27                  1480.4672     4.9680    39.5363
         TOT.                       22.334    4905.0383    27.6466    83.0880

 200.00  VIB.     0.1300D+02                  1051.6005    10.9519    10.3552
         ROT.     0.1119D+06                   596.1613     2.9808    26.0823
         INT.     0.1454D+07                  1647.7617    13.9327    36.4375
         TRA.     0.4856D+27                   993.6021     4.9680    37.5551
         TOT.                       20.070    2641.3639    18.9007    73.9926

 210.00  VIB.     0.1484D+02                  1164.9856    11.7307    10.9083
         ROT.     0.1204D+06                   625.9693     2.9808    26.2277
         INT.     0.1787D+07                  1790.9549    14.7115    37.1360
         TRA.     0.5225D+27                  1043.2822     4.9680    37.7975
         TOT.                       20.263    2834.2372    19.6796    74.9335

 220.00  VIB.     0.1696D+02                  1286.3253    12.5425    11.4726
         ROT.     0.1291D+06                   655.7774     2.9808    26.3664
         INT.     0.2189D+07                  1942.1027    15.5234    37.8390
         TRA.     0.5603D+27                  1092.9623     4.9680    38.0286
         TOT.                       20.464    3035.0651    20.4914    75.8676

 230.00  VIB.     0.1940D+02                  1415.9396    13.3852    12.0486
         ROT.     0.1380D+06                   685.5855     2.9808    26.4989
         INT.     0.2676D+07                  2101.5250    16.3660    38.5475
         TRA.     0.5989D+27                  1142.6424     4.9680    38.2495
         TOT.                       20.673    3244.1675    21.3341    76.7970

 240.00  VIB.     0.2221D+02                  1554.1243    14.2562    12.6366
         ROT.     0.1471D+06                   715.3935     2.9808    26.6257
         INT.     0.3266D+07                  2269.5178    17.2370    39.2624
         TRA.     0.6384D+27                  1192.3226     4.9680    38.4609
         TOT.                       20.890    3461.8404    22.2050    77.7233

 250.00  VIB.     0.2545D+02                  1701.1469    15.1523    13.2367
         ROT.     0.1563D+06                   745.2016     2.9808    26.7474
         INT.     0.3979D+07                  2446.3485    18.1331    39.9841
         TRA.     0.6787D+27                  1242.0027     4.9680    38.6637
         TOT.                       21.117    3688.3512    23.1011    78.6478

 260.00  VIB.     0.2921D+02                  1857.2430    16.0703    13.8488
         ROT.     0.1658D+06                   775.0097     2.9808    26.8643
         INT.     0.4843D+07                  2632.2527    19.0511    40.7131
         TRA.     0.7198D+27                  1291.6828     4.9680    38.8586
         TOT.                       21.352    3923.9354    24.0191    79.5717

 270.00  VIB.     0.3356D+02                  2022.6144    17.0068    14.4728
         ROT.     0.1755D+06                   804.8177     2.9808    26.9768
         INT.     0.5889D+07                  2827.4321    19.9876    41.4496
         TRA.     0.7618D+27                  1341.3629     4.9680    39.0461
         TOT.                       21.597    4168.7950    24.9556    80.4957

 280.00  VIB.     0.3861D+02                  2197.4284    17.9582    15.1084
         ROT.     0.1853D+06                   834.6258     2.9808    27.0852
         INT.     0.7156D+07                  3032.0541    20.9390    42.1937
         TRA.     0.8045D+27                  1391.0430     4.9680    39.2267
         TOT.                       21.852    4423.0971    25.9070    81.4204

 290.00  VIB.     0.4450D+02                  2381.8175    18.9213    15.7554
         ROT.     0.1953D+06                   864.4339     2.9808    27.1898
         INT.     0.8691D+07                  3246.2514    21.9021    42.9452
         TRA.     0.8479D+27                  1440.7231     4.9680    39.4011
         TOT.                       22.115    4686.9745    26.8701    82.3463

 300.00  VIB.     0.5135D+02                  2575.8812    19.8926    16.4132
         ROT.     0.2055D+06                   894.2419     2.9808    27.2909
         INT.     0.1055D+08                  3470.1231    22.8734    43.7041
         TRA.     0.8922D+27                  1490.4032     4.9680    39.5695
         TOT.                       22.389    4960.5263    27.8414    83.2736

 310.00  VIB.     0.5935D+02                  2779.6862    20.8691    17.0814
         ROT.     0.2159D+06                   924.0500     2.9808    27.3886
         INT.     0.1281D+08                  3703.7362    23.8499    44.4700
         TRA.     0.9372D+27                  1540.0833     4.9680    39.7324
         TOT.                       22.672    5243.8195    28.8179    84.2024

 320.00  VIB.     0.6870D+02                  2993.2696    21.8478    17.7594
         ROT.     0.2264D+06                   953.8580     2.9808    27.4833
         INT.     0.1555D+08                  3947.1277    24.8286    45.2427
         TRA.     0.9829D+27                  1589.7634     4.9680    39.8901
         TOT.                       22.965    5536.8911    29.7966    85.1328

 330.00  VIB.     0.7965D+02                  3216.6402    22.8261    18.4467
         ROT.     0.2371D+06                   983.6661     2.9808    27.5750
         INT.     0.1889D+08                  4200.3064    25.8069    46.0216
         TRA.     0.1029D+28                  1639.4435     4.9680    40.0430
         TOT.                       23.268    5839.7499    30.7749    86.0647

 340.00  VIB.     0.9248D+02                  3449.7814    23.8015    19.1426
         ROT.     0.2480D+06                  1013.4742     2.9808    27.6640
         INT.     0.2293D+08                  4463.2555    26.7823    46.8066
         TRA.     0.1076D+28                  1689.1236     4.9680    40.1913
         TOT.                       23.581    6152.3791    31.7503    86.9979

 350.00  VIB.     0.1076D+03                  3692.6532    24.7719    19.8465
         ROT.     0.2590D+06                  1043.2822     2.9808    27.7504
         INT.     0.2785D+08                  4735.9354    27.7527    47.5969
         TRA.     0.1124D+28                  1738.8037     4.9680    40.3353
         TOT.                       23.903    6474.7391    32.7207    87.9323

 360.00  VIB.     0.1253D+03                  3945.1953    25.7353    20.5579
         ROT.     0.2702D+06                  1073.0903     2.9808    27.8344
         INT.     0.3384D+08                  5018.2856    28.7161    48.3923
         TRA.     0.1173D+28                  1788.4838     4.9680    40.4753
         TOT.                       24.235    6806.7694    33.6841    88.8675

 370.00  VIB.     0.1461D+03                  4207.3292    26.6900    21.2761
         ROT.     0.2815D+06                  1102.8984     2.9808    27.9160
         INT.     0.4113D+08                  5310.2276    29.6708    49.1921
         TRA.     0.1222D+28                  1838.1639     4.9680    40.6114
         TOT.                       24.577    7148.3915    34.6388    89.8035

 380.00  VIB.     0.1707D+03                  4478.9606    27.6345    22.0004
         ROT.     0.2930D+06                  1132.7064     2.9808    27.9955
         INT.     0.5000D+08                  5611.6670    30.6153    49.9959
         TRA.     0.1272D+28                  1887.8440     4.9680    40.7439
         TOT.                       24.928    7499.5110    35.5833    90.7398

 390.00  VIB.     0.1996D+03                  4759.9815    28.5677    22.7303
         ROT.     0.3046D+06                  1162.5145     2.9808    28.0729
         INT.     0.6082D+08                  5922.4960    31.5485    50.8033
         TRA.     0.1322D+28                  1937.5242     4.9680    40.8729
         TOT.                       25.289    7860.0201    36.5165    91.6762

 400.00  VIB.     0.2338D+03                  5050.2726    29.4884    23.4652
         ROT.     0.3164D+06                  1192.3226     2.9808    28.1484
         INT.     0.7399D+08                  6242.5952    32.4692    51.6136
         TRA.     0.1374D+28                  1987.2043     4.9680    40.9987
         TOT.                       25.658    8229.7994    37.4372    92.6124

   *: NOTE: HEATS OF FORMATION ARE RELATIVE TO THE
            ELEMENTS IN THEIR STANDARD STATE AT 298K
              (=  Standard Enthalpy of Formation).

            Hvib:  Zero-point energy is not included.
                   frequencies of less than zero cm-1 are not included.
            Hrot = (3/2)RT
            Htra = (3/2)RT + pV = (5/2)RT

            Heat capacity is Cp, not Cv

          For more information, see: HTTP://OpenMOPAC.net/Manual/thermochemistry.html


           FORCE CONSTANT IN CARTESIAN COORDINATES (Millidynes/A)

    ATOM   CHEMICAL       X               Y               Z
   NUMBER   SYMBOL  FORCE CONSTANT  FORCE CONSTANT  FORCE CONSTANT

      1       C        7.685570        8.362630        8.986759
      2       C        7.622457        9.339736        8.132472
      3       C        9.589879        7.371831        8.132330
      4       C       14.556815       10.513366        2.338436
      5       C        7.327426       10.841027        9.057778
      6       C       11.912586       13.159436        2.338213
      7       C        6.878194       10.545004        9.033297
      8       H        1.153003        1.485093        3.456495
      9       H        1.351485        1.392868        3.670078
     10       H        1.268002        1.717080        3.410562
     11       H        1.736442        1.006716        3.670761
     12       H        2.089424        0.895694        3.409831
     13       H        4.986037        1.076587        0.354917
     14       H        0.839296        1.189999        4.186262
     15       H        0.711550        5.350527        0.355195
     16       H        1.061054        1.594507        3.816844
     17       H        0.891537        1.300653        4.265369

 **********************
 *                    *
 * JOB ENDED NORMALLY *
 *                    *
 **********************



 TOTAL JOB TIME:             2.16 SECONDS

 == MOPAC DONE ==
