 *******************************************************************************
 **                                                                           **
 **                              MOPAC v23.1.2                                **
 **                                                                           **
 *******************************************************************************
 **          Digital Object Identifier (DOI): 10.5281/zenodo.6511958          **
 **    Visit the DOI location for information on how to cite this program.    **
 *******************************************************************************

                              PM3 CALCULATION RESULTS

 *******************************************************************************
 *  CALCULATION DONE: (MAX THREADS = 1)              Tue Jun  3 16:34:21 2025  *
 *  PM3        - The PM3 Hamiltonian to be used
 *  PRECISE    - TIGHTER CRITERIA TO BE USED
 *  BFGS       - USE THE BFGS GEOMETRY OPTIMIZER
 *  NOSYM      - POINT-GROUP SYMMETRY SET TO C1
 *  THREADS=1  - MULTI-THREADING NOT USED
 *  T=         - A TIME OF 172800.0 SECONDS REQUESTED
 *  DUMP=N     - RESTART FILE WRITTEN EVERY 7200.0 SECONDS REQUESTED
 *  GNORM      - EXIT WHEN GRADIENT NORM DROPS BELOW 0.000
 *******************************************************************************
pm3  precise nosym gnorm=0.0 bfgs THREADS=1
 InChI=1S/C4H6/c1-4-2-3-4/h2H,3H2,1H3

   ATOM   CHEMICAL          X               Y               Z
  NUMBER   SYMBOL      (ANGSTROMS)     (ANGSTROMS)     (ANGSTROMS)

     1       C         -1.23620000  *  -0.54490000  *  -0.05810000  *
     2       C          1.50840000  *  -0.03460000  *   0.06790000  *
     3       C          0.02400000  *   0.06070000  *   0.00130000  *
     4       C         -1.19040000  *   0.85390000  *  -0.05010000  *
     5       H         -1.56800000  *  -0.99270000  *   0.90110000  *
     6       H         -1.48010000  *  -0.98450000  *  -1.04700000  *
     7       H          1.86930000  *   0.46000000  *   0.99310000  *
     8       H          1.81130000  *  -1.10190000  *   0.07710000  *
     9       H          1.95100000  *   0.46760000  *  -0.81670000  *
    10       H         -1.68920000  *   1.81640000  *  -0.06860000  *



          CARTESIAN COORDINATES 

    NO.       ATOM           X           Y           Z

     1         C         -1.2362     -0.5449     -0.0581
     2         C          1.5084     -0.0346      0.0679
     3         C          0.0240      0.0607      0.0013
     4         C         -1.1904      0.8539     -0.0501
     5         H         -1.5680     -0.9927      0.9011
     6         H         -1.4801     -0.9845     -1.0470
     7         H          1.8693      0.4600      0.9931
     8         H          1.8113     -1.1019      0.0771
     9         H          1.9510      0.4676     -0.8167
    10         H         -1.6892      1.8164     -0.0686

  H: (PM3): J. J. P. STEWART, J. COMP. CHEM. 10, 209 (1989).
  C: (PM3): J. J. P. STEWART, J. COMP. CHEM. 10, 209 (1989).

           Empirical Formula: C4 H6  =    10 atoms



      MOLECULAR POINT GROUP   :   C1  


      RHF CALCULATION, NO. OF DOUBLY OCCUPIED LEVELS = 11


          Geometry optimization using BFGS

  GNORM HAS BEEN SET TOO LOW, RESET TO 0.01
 CYCLE:     1 TIME:   0.004 TIME LEFT:  2.00D  GRAD.:   203.219 HEAT:  65.95624
 CYCLE:     2 TIME:   0.004 TIME LEFT:  2.00D  GRAD.:   106.937 HEAT:  61.39129
 CYCLE:     3 TIME:   0.004 TIME LEFT:  2.00D  GRAD.:    53.183 HEAT:  59.40944
 CYCLE:     4 TIME:   0.000 TIME LEFT:  2.00D  GRAD.:    48.427 HEAT:  58.71017
 CYCLE:     5 TIME:   0.004 TIME LEFT:  2.00D  GRAD.:    19.828 HEAT:  57.97298
 CYCLE:     6 TIME:   0.004 TIME LEFT:  2.00D  GRAD.:    11.902 HEAT:  57.84642
 CYCLE:     7 TIME:   0.004 TIME LEFT:  2.00D  GRAD.:    12.376 HEAT:  57.75738
 CYCLE:     8 TIME:   0.004 TIME LEFT:  2.00D  GRAD.:    14.286 HEAT:  57.72600
 CYCLE:     9 TIME:   0.004 TIME LEFT:  2.00D  GRAD.:     9.883 HEAT:  57.66080
 CYCLE:    10 TIME:   0.000 TIME LEFT:  2.00D  GRAD.:     3.719 HEAT:  57.62904
 CYCLE:    11 TIME:   0.004 TIME LEFT:  2.00D  GRAD.:     2.578 HEAT:  57.61108
 CYCLE:    12 TIME:   0.004 TIME LEFT:  2.00D  GRAD.:     2.383 HEAT:  57.59612
 CYCLE:    13 TIME:   0.004 TIME LEFT:  2.00D  GRAD.:     1.823 HEAT:  57.58931
 CYCLE:    14 TIME:   0.000 TIME LEFT:  2.00D  GRAD.:     1.507 HEAT:  57.58326
 CYCLE:    15 TIME:   0.004 TIME LEFT:  2.00D  GRAD.:     1.592 HEAT:  57.57919
 CYCLE:    16 TIME:   0.004 TIME LEFT:  2.00D  GRAD.:     1.397 HEAT:  57.57591
 CYCLE:    17 TIME:   0.000 TIME LEFT:  2.00D  GRAD.:     0.982 HEAT:  57.57321
 CYCLE:    18 TIME:   0.004 TIME LEFT:  2.00D  GRAD.:     0.696 HEAT:  57.57125
 CYCLE:    19 TIME:   0.004 TIME LEFT:  2.00D  GRAD.:     0.481 HEAT:  57.57044
 CYCLE:    20 TIME:   0.004 TIME LEFT:  2.00D  GRAD.:     0.258 HEAT:  57.57024
 CYCLE:    21 TIME:   0.000 TIME LEFT:  2.00D  GRAD.:     0.122 HEAT:  57.57019
 CYCLE:    22 TIME:   0.004 TIME LEFT:  2.00D  GRAD.:     0.067 HEAT:  57.57016
 CYCLE:    23 TIME:   0.004 TIME LEFT:  2.00D  GRAD.:     0.058 HEAT:  57.57015
 CYCLE:    24 TIME:   0.004 TIME LEFT:  2.00D  GRAD.:     0.071 HEAT:  57.57014
 CYCLE:    25 TIME:   0.000 TIME LEFT:  2.00D  GRAD.:     0.045 HEAT:  57.57014
 CYCLE:    26 TIME:   0.004 TIME LEFT:  2.00D  GRAD.:     0.058 HEAT:  57.57013
 CYCLE:    27 TIME:   0.004 TIME LEFT:  2.00D  GRAD.:     0.027 HEAT:  57.57012
 CYCLE:    28 TIME:   0.004 TIME LEFT:  2.00D  GRAD.:     0.049 HEAT:  57.57012
 CYCLE:    29 TIME:   0.000 TIME LEFT:  2.00D  GRAD.:     0.035 HEAT:  57.57011
 CYCLE:    30 TIME:   0.004 TIME LEFT:  2.00D  GRAD.:     0.116 HEAT:  57.57010
 CYCLE:    31 TIME:   0.004 TIME LEFT:  2.00D  GRAD.:     0.092 HEAT:  57.57009
 CYCLE:    32 TIME:   0.004 TIME LEFT:  2.00D  GRAD.:     0.079 HEAT:  57.57008
 CYCLE:    33 TIME:   0.000 TIME LEFT:  2.00D  GRAD.:     0.065 HEAT:  57.57007
 CYCLE:    34 TIME:   0.004 TIME LEFT:  2.00D  GRAD.:     0.049 HEAT:  57.57005
 CYCLE:    35 TIME:   0.004 TIME LEFT:  2.00D  GRAD.:     0.041 HEAT:  57.57002
 CYCLE:    36 TIME:   0.004 TIME LEFT:  2.00D  GRAD.:     0.194 HEAT:  57.56999
 CYCLE:    37 TIME:   0.008 TIME LEFT:  2.00D  GRAD.:     0.281 HEAT:  57.56991
 CYCLE:    38 TIME:   0.000 TIME LEFT:  2.00D  GRAD.:     0.314 HEAT:  57.56983
 CYCLE:    39 TIME:   0.004 TIME LEFT:  2.00D  GRAD.:     0.280 HEAT:  57.56963
 CYCLE:    40 TIME:   0.004 TIME LEFT:  2.00D  GRAD.:     0.335 HEAT:  57.56951
 CYCLE:    41 TIME:   0.004 TIME LEFT:  2.00D  GRAD.:     0.333 HEAT:  57.56901
 CYCLE:    42 TIME:   0.004 TIME LEFT:  2.00D  GRAD.:     0.392 HEAT:  57.56859
 CYCLE:    43 TIME:   0.004 TIME LEFT:  2.00D  GRAD.:     0.664 HEAT:  57.56719
 CYCLE:    44 TIME:   0.004 TIME LEFT:  2.00D  GRAD.:     4.326 HEAT:  57.56468
 CYCLE:    45 TIME:   0.004 TIME LEFT:  2.00D  GRAD.:     2.182 HEAT:  57.56460
 CYCLE:    46 TIME:   0.004 TIME LEFT:  2.00D  GRAD.:     0.888 HEAT:  57.56253
 CYCLE:    47 TIME:   0.000 TIME LEFT:  2.00D  GRAD.:     0.519 HEAT:  57.56187
 CYCLE:    48 TIME:   0.004 TIME LEFT:  2.00D  GRAD.:     0.295 HEAT:  57.56146
 CYCLE:    49 TIME:   0.004 TIME LEFT:  2.00D  GRAD.:     0.234 HEAT:  57.56136
 CYCLE:    50 TIME:   0.004 TIME LEFT:  2.00D  GRAD.:     0.169 HEAT:  57.56132
 CYCLE:    51 TIME:   0.000 TIME LEFT:  2.00D  GRAD.:     0.177 HEAT:  57.56132
 CYCLE:    52 TIME:   0.004 TIME LEFT:  2.00D  GRAD.:     0.149 HEAT:  57.56130
 CYCLE:    53 TIME:   0.004 TIME LEFT:  2.00D  GRAD.:     0.152 HEAT:  57.56129
 CYCLE:    54 TIME:   0.004 TIME LEFT:  2.00D  GRAD.:     0.152 HEAT:  57.56129
 CYCLE:    55 TIME:   0.000 TIME LEFT:  2.00D  GRAD.:     0.152 HEAT:  57.56129
 CYCLE:    56 TIME:   0.004 TIME LEFT:  2.00D  GRAD.:     0.152 HEAT:  57.56128
 CYCLE:    57 TIME:   0.004 TIME LEFT:  2.00D  GRAD.:     0.152 HEAT:  57.56127
 CYCLE:    58 TIME:   0.000 TIME LEFT:  2.00D  GRAD.:     0.152 HEAT:  57.56125
 CYCLE:    59 TIME:   0.004 TIME LEFT:  2.00D  GRAD.:     0.152 HEAT:  57.56123
 CYCLE:    60 TIME:   0.000 TIME LEFT:  2.00D  GRAD.:     0.153 HEAT:  57.56119
 CYCLE:    61 TIME:   0.004 TIME LEFT:  2.00D  GRAD.:     0.154 HEAT:  57.56114
 CYCLE:    62 TIME:   0.004 TIME LEFT:  2.00D  GRAD.:     0.156 HEAT:  57.56106
 CYCLE:    63 TIME:   0.004 TIME LEFT:  2.00D  GRAD.:     0.164 HEAT:  57.56094
 CYCLE:    64 TIME:   0.004 TIME LEFT:  2.00D  GRAD.:     1.343 HEAT:  57.55658
 CYCLE:    65 TIME:   0.004 TIME LEFT:  2.00D  GRAD.:     1.372 HEAT:  57.55643
 CYCLE:    66 TIME:   0.004 TIME LEFT:  2.00D  GRAD.:     1.201 HEAT:  57.55568
 CYCLE:    67 TIME:   0.000 TIME LEFT:  2.00D  GRAD.:     1.295 HEAT:  57.55545
 CYCLE:    68 TIME:   0.004 TIME LEFT:  2.00D  GRAD.:     1.594 HEAT:  57.55503
 CYCLE:    69 TIME:   0.004 TIME LEFT:  2.00D  GRAD.:     1.675 HEAT:  57.55501
 CYCLE:    70 TIME:   0.004 TIME LEFT:  2.00D  GRAD.:     1.279 HEAT:  57.55495
 CYCLE:    71 TIME:   0.004 TIME LEFT:  2.00D  GRAD.:     1.888 HEAT:  57.55424
 CYCLE:    72 TIME:   0.004 TIME LEFT:  2.00D  GRAD.:     1.900 HEAT:  57.55359
 CYCLE:    73 TIME:   0.004 TIME LEFT:  2.00D  GRAD.:     2.387 HEAT:  57.54780
 CYCLE:    74 TIME:   0.004 TIME LEFT:  2.00D  GRAD.:     2.520 HEAT:  57.54685
 CYCLE:    75 TIME:   0.004 TIME LEFT:  2.00D  GRAD.:     3.021 HEAT:  57.54320
 CYCLE:    76 TIME:   0.004 TIME LEFT:  2.00D  GRAD.:    23.801 HEAT:  57.53818
 CYCLE:    77 TIME:   0.004 TIME LEFT:  2.00D  GRAD.:     3.373 HEAT:  57.53809
 CYCLE:    78 TIME:   0.004 TIME LEFT:  2.00D  GRAD.:     2.423 HEAT:  57.53386
 CYCLE:    79 TIME:   0.004 TIME LEFT:  2.00D  GRAD.:     1.142 HEAT:  57.53215
 CYCLE:    80 TIME:   0.004 TIME LEFT:  2.00D  GRAD.:     0.877 HEAT:  57.53176
 CYCLE:    81 TIME:   0.000 TIME LEFT:  2.00D  GRAD.:     0.853 HEAT:  57.53166
 CYCLE:    82 TIME:   0.004 TIME LEFT:  2.00D  GRAD.:     0.882 HEAT:  57.53165
 CYCLE:    83 TIME:   0.004 TIME LEFT:  2.00D  GRAD.:     0.860 HEAT:  57.53165
 CYCLE:    84 TIME:   0.004 TIME LEFT:  2.00D  GRAD.:     0.849 HEAT:  57.53165
 CYCLE:    85 TIME:   0.004 TIME LEFT:  2.00D  GRAD.:     0.848 HEAT:  57.53165
 CYCLE:    86 TIME:   0.004 TIME LEFT:  2.00D  GRAD.:     0.846 HEAT:  57.53165
 CYCLE:    87 TIME:   0.004 TIME LEFT:  2.00D  GRAD.:     0.854 HEAT:  57.53165
 CYCLE:    88 TIME:   0.000 TIME LEFT:  2.00D  GRAD.:     0.848 HEAT:  57.53165
 CYCLE:    89 TIME:   0.004 TIME LEFT:  2.00D  GRAD.:     0.834 HEAT:  57.53165
 CYCLE:    90 TIME:   0.004 TIME LEFT:  2.00D  GRAD.:     0.848 HEAT:  57.53164
 CYCLE:    91 TIME:   0.004 TIME LEFT:  2.00D  GRAD.:     0.849 HEAT:  57.53164
 CYCLE:    92 TIME:   0.004 TIME LEFT:  2.00D  GRAD.:     0.850 HEAT:  57.53164
 CYCLE:    93 TIME:   0.004 TIME LEFT:  2.00D  GRAD.:     0.850 HEAT:  57.53163
 CYCLE:    94 TIME:   0.000 TIME LEFT:  2.00D  GRAD.:     0.850 HEAT:  57.53163
 CYCLE:    95 TIME:   0.004 TIME LEFT:  2.00D  GRAD.:     0.848 HEAT:  57.53162
 CYCLE:    96 TIME:   0.004 TIME LEFT:  2.00D  GRAD.:     0.844 HEAT:  57.53160
 CYCLE:    97 TIME:   0.004 TIME LEFT:  2.00D  GRAD.:     0.846 HEAT:  57.53157
 CYCLE:    98 TIME:   0.004 TIME LEFT:  2.00D  GRAD.:     0.842 HEAT:  57.53156
 CYCLE:    99 TIME:   0.004 TIME LEFT:  2.00D  GRAD.:     0.842 HEAT:  57.53149
 CYCLE:   100 TIME:   0.008 TIME LEFT:  2.00D  GRAD.:     0.851 HEAT:  57.53145
 CYCLE:   101 TIME:   0.008 TIME LEFT:  2.00D  GRAD.:     0.847 HEAT:  57.53145
 CYCLE:   102 TIME:   0.000 TIME LEFT:  2.00D  GRAD.:     0.839 HEAT:  57.53139
 CYCLE:   103 TIME:   0.004 TIME LEFT:  2.00D  GRAD.:     0.839 HEAT:  57.53130
 CYCLE:   104 TIME:   0.008 TIME LEFT:  2.00D  GRAD.:     0.840 HEAT:  57.53127
 CYCLE:   105 TIME:   0.004 TIME LEFT:  2.00D  GRAD.:     0.845 HEAT:  57.53127
 CYCLE:   106 TIME:   0.004 TIME LEFT:  2.00D  GRAD.:     0.832 HEAT:  57.53126
 CYCLE:   107 TIME:   0.004 TIME LEFT:  2.00D  GRAD.:     0.845 HEAT:  57.53126
 CYCLE:   108 TIME:   0.004 TIME LEFT:  2.00D  GRAD.:     0.930 HEAT:  57.53120
 CYCLE:   109 TIME:   0.004 TIME LEFT:  2.00D  GRAD.:     0.934 HEAT:  57.53119
 CYCLE:   110 TIME:   0.004 TIME LEFT:  2.00D  GRAD.:     0.937 HEAT:  57.53117
 CYCLE:   111 TIME:   0.004 TIME LEFT:  2.00D  GRAD.:     0.943 HEAT:  57.53114
 CYCLE:   112 TIME:   0.004 TIME LEFT:  2.00D  GRAD.:     0.949 HEAT:  57.53110
 CYCLE:   113 TIME:   0.004 TIME LEFT:  2.00D  GRAD.:     0.949 HEAT:  57.53105
 CYCLE:   114 TIME:   0.004 TIME LEFT:  2.00D  GRAD.:     1.545 HEAT:  57.52921
 CYCLE:   115 TIME:   0.004 TIME LEFT:  2.00D  GRAD.:     1.549 HEAT:  57.52910
 CYCLE:   116 TIME:   0.004 TIME LEFT:  2.00D  GRAD.:     1.295 HEAT:  57.52843
 CYCLE:   117 TIME:   0.004 TIME LEFT:  2.00D  GRAD.:     1.297 HEAT:  57.52816
 CYCLE:   118 TIME:   0.004 TIME LEFT:  2.00D  GRAD.:     2.276 HEAT:  57.52577
 CYCLE:   119 TIME:   0.004 TIME LEFT:  2.00D  GRAD.:    58.713 HEAT:  57.52411
 CYCLE:   120 TIME:   0.004 TIME LEFT:  2.00D  GRAD.:     1.939 HEAT:  57.52356
 CYCLE:   121 TIME:   0.004 TIME LEFT:  2.00D  GRAD.:     1.926 HEAT:  57.52356
 CYCLE:   122 TIME:   0.004 TIME LEFT:  2.00D  GRAD.:     2.138 HEAT:  57.52333
 CYCLE:   123 TIME:   0.004 TIME LEFT:  2.00D  GRAD.:     1.685 HEAT:  57.52134
 CYCLE:   124 TIME:   0.004 TIME LEFT:  2.00D  GRAD.:     1.430 HEAT:  57.52021
 CYCLE:   125 TIME:   0.004 TIME LEFT:  2.00D  GRAD.:     1.465 HEAT:  57.52014
 CYCLE:   126 TIME:   0.004 TIME LEFT:  2.00D  GRAD.:     1.469 HEAT:  57.52013
 CYCLE:   127 TIME:   0.004 TIME LEFT:  2.00D  GRAD.:     1.487 HEAT:  57.52013
 CYCLE:   128 TIME:   0.004 TIME LEFT:  2.00D  GRAD.:     1.477 HEAT:  57.52013
 CYCLE:   129 TIME:   0.004 TIME LEFT:  2.00D  GRAD.:     1.485 HEAT:  57.52013
 CYCLE:   130 TIME:   0.004 TIME LEFT:  2.00D  GRAD.:     1.570 HEAT:  57.52011
 CYCLE:   131 TIME:   0.004 TIME LEFT:  2.00D  GRAD.:     1.568 HEAT:  57.52011
 CYCLE:   132 TIME:   0.004 TIME LEFT:  2.00D  GRAD.:     1.575 HEAT:  57.52011
 CYCLE:   133 TIME:   0.004 TIME LEFT:  2.00D  GRAD.:     1.632 HEAT:  57.52002
 CYCLE:   134 TIME:   0.004 TIME LEFT:  2.00D  GRAD.:     2.140 HEAT:  57.51926
 CYCLE:   135 TIME:   0.004 TIME LEFT:  2.00D  GRAD.:     2.140 HEAT:  57.51924
 CYCLE:   136 TIME:   0.000 TIME LEFT:  2.00D  GRAD.:     2.132 HEAT:  57.51919
 CYCLE:   137 TIME:   0.004 TIME LEFT:  2.00D  GRAD.:     2.127 HEAT:  57.51912
 CYCLE:   138 TIME:   0.004 TIME LEFT:  2.00D  GRAD.:     2.121 HEAT:  57.51903
 CYCLE:   139 TIME:   0.004 TIME LEFT:  2.00D  GRAD.:     2.115 HEAT:  57.51890
 CYCLE:   140 TIME:   0.004 TIME LEFT:  2.00D  GRAD.:     2.112 HEAT:  57.51875
 CYCLE:   141 TIME:   0.000 TIME LEFT:  2.00D  GRAD.:     2.119 HEAT:  57.51857
 CYCLE:   142 TIME:   0.004 TIME LEFT:  2.00D  GRAD.:     2.157 HEAT:  57.51843
 CYCLE:   143 TIME:   0.004 TIME LEFT:  2.00D  GRAD.:     2.271 HEAT:  57.51839
 CYCLE:   144 TIME:   0.004 TIME LEFT:  2.00D  GRAD.:     2.330 HEAT:  57.51835
 CYCLE:   145 TIME:   0.004 TIME LEFT:  2.00D  GRAD.:     1.801 HEAT:  57.51771
 CYCLE:   146 TIME:   0.004 TIME LEFT:  2.00D  GRAD.:     2.577 HEAT:  57.51701
 CYCLE:   147 TIME:   0.008 TIME LEFT:  2.00D  GRAD.:     1.328 HEAT:  57.50946
 CYCLE:   148 TIME:   0.004 TIME LEFT:  2.00D  GRAD.:     1.449 HEAT:  57.50514
 CYCLE:   149 TIME:   0.004 TIME LEFT:  2.00D  GRAD.:     1.510 HEAT:  57.50351
 CYCLE:   150 TIME:   0.008 TIME LEFT:  2.00D  GRAD.:     1.600 HEAT:  57.50104
 CYCLE:   151 TIME:   0.004 TIME LEFT:  2.00D  GRAD.:     1.782 HEAT:  57.49740
 CYCLE:   152 TIME:   0.004 TIME LEFT:  2.00D  GRAD.:     1.942 HEAT:  57.49466
 CYCLE:   153 TIME:   0.008 TIME LEFT:  2.00D  GRAD.:     3.758 HEAT:  57.48403
 CYCLE:   154 TIME:   0.004 TIME LEFT:  2.00D  GRAD.:     5.564 HEAT:  57.47957
 CYCLE:   155 TIME:   0.004 TIME LEFT:  2.00D  GRAD.:     2.490 HEAT:  57.46451
 CYCLE:   156 TIME:   0.000 TIME LEFT:  2.00D  GRAD.:     2.423 HEAT:  57.46109
 CYCLE:   157 TIME:   0.004 TIME LEFT:  2.00D  GRAD.:     2.623 HEAT:  57.45941
 CYCLE:   158 TIME:   0.008 TIME LEFT:  2.00D  GRAD.:     5.533 HEAT:  57.43787
 CYCLE:   159 TIME:   0.004 TIME LEFT:  2.00D  GRAD.:    10.585 HEAT:  57.43189
 CYCLE:   160 TIME:   0.004 TIME LEFT:  2.00D  GRAD.:     1.425 HEAT:  57.42718
 CYCLE:   161 TIME:   0.004 TIME LEFT:  2.00D  GRAD.:     0.875 HEAT:  57.42640
 CYCLE:   162 TIME:   0.004 TIME LEFT:  2.00D  GRAD.:     0.505 HEAT:  57.42636
 CYCLE:   163 TIME:   0.004 TIME LEFT:  2.00D  GRAD.:     0.554 HEAT:  57.42634
 CYCLE:   164 TIME:   0.004 TIME LEFT:  2.00D  GRAD.:     1.454 HEAT:  57.42343
 CYCLE:   165 TIME:   0.004 TIME LEFT:  2.00D  GRAD.:     1.498 HEAT:  57.41760
 CYCLE:   166 TIME:   0.004 TIME LEFT:  2.00D  GRAD.:     1.496 HEAT:  57.41734
 CYCLE:   167 TIME:   0.000 TIME LEFT:  2.00D  GRAD.:     1.488 HEAT:  57.41696
 CYCLE:   168 TIME:   0.004 TIME LEFT:  2.00D  GRAD.:     1.454 HEAT:  57.41618
 CYCLE:   169 TIME:   0.004 TIME LEFT:  2.00D  GRAD.:     1.384 HEAT:  57.41495
 CYCLE:   170 TIME:   0.000 TIME LEFT:  2.00D  GRAD.:     1.260 HEAT:  57.41305
 CYCLE:   171 TIME:   0.008 TIME LEFT:  2.00D  GRAD.:     2.081 HEAT:  57.40091
 CYCLE:   172 TIME:   0.004 TIME LEFT:  2.00D  GRAD.:     2.438 HEAT:  57.40081
 CYCLE:   173 TIME:   0.004 TIME LEFT:  2.00D  GRAD.:     1.339 HEAT:  57.39456
 CYCLE:   174 TIME:   0.004 TIME LEFT:  2.00D  GRAD.:     1.771 HEAT:  57.38405
 CYCLE:   175 TIME:   0.004 TIME LEFT:  2.00D  GRAD.:     1.792 HEAT:  57.38328
 CYCLE:   176 TIME:   0.004 TIME LEFT:  2.00D  GRAD.:     1.573 HEAT:  57.38166
 CYCLE:   177 TIME:   0.004 TIME LEFT:  2.00D  GRAD.:     1.660 HEAT:  57.36745
 CYCLE:   178 TIME:   0.004 TIME LEFT:  2.00D  GRAD.:    24.742 HEAT:  57.35895
 CYCLE:   179 TIME:   0.008 TIME LEFT:  2.00D  GRAD.:     2.986 HEAT:  57.35543
 CYCLE:   180 TIME:   0.004 TIME LEFT:  2.00D  GRAD.:     4.187 HEAT:  57.35337
 CYCLE:   181 TIME:   0.004 TIME LEFT:  2.00D  GRAD.:     4.319 HEAT:  57.35322
 CYCLE:   182 TIME:   0.004 TIME LEFT:  2.00D  GRAD.:     1.789 HEAT:  57.34579
 CYCLE:   183 TIME:   0.004 TIME LEFT:  2.00D  GRAD.:     1.112 HEAT:  57.34323
 CYCLE:   184 TIME:   0.004 TIME LEFT:  2.00D  GRAD.:     0.606 HEAT:  57.34261
 CYCLE:   185 TIME:   0.004 TIME LEFT:  2.00D  GRAD.:     0.320 HEAT:  57.34224
 CYCLE:   186 TIME:   0.000 TIME LEFT:  2.00D  GRAD.:     0.243 HEAT:  57.34216
 CYCLE:   187 TIME:   0.004 TIME LEFT:  2.00D  GRAD.:     0.272 HEAT:  57.34208
 CYCLE:   188 TIME:   0.004 TIME LEFT:  2.00D  GRAD.:     0.618 HEAT:  57.34161
 CYCLE:   189 TIME:   0.004 TIME LEFT:  2.00D  GRAD.:     2.186 HEAT:  57.33914
 CYCLE:   190 TIME:   0.004 TIME LEFT:  2.00D  GRAD.:     1.093 HEAT:  57.33591
 CYCLE:   191 TIME:   0.004 TIME LEFT:  2.00D  GRAD.:     1.067 HEAT:  57.33572
 CYCLE:   192 TIME:   0.004 TIME LEFT:  2.00D  GRAD.:     0.876 HEAT:  57.33390
 CYCLE:   193 TIME:   0.004 TIME LEFT:  2.00D  GRAD.:     1.694 HEAT:  57.33286
 CYCLE:   194 TIME:   0.004 TIME LEFT:  2.00D  GRAD.:     0.697 HEAT:  57.33166
 CYCLE:   195 TIME:   0.004 TIME LEFT:  2.00D  GRAD.:     0.446 HEAT:  57.33071
 CYCLE:   196 TIME:   0.004 TIME LEFT:  2.00D  GRAD.:     0.458 HEAT:  57.33035
 CYCLE:   197 TIME:   0.004 TIME LEFT:  2.00D  GRAD.:     0.408 HEAT:  57.33005
 CYCLE:   198 TIME:   0.004 TIME LEFT:  2.00D  GRAD.:     0.212 HEAT:  57.32994
 CYCLE:   199 TIME:   0.000 TIME LEFT:  2.00D  GRAD.:     0.096 HEAT:  57.32993
 CYCLE:   200 TIME:   0.004 TIME LEFT:  2.00D  GRAD.:     0.201 HEAT:  57.32993
 CYCLE:   201 TIME:   0.004 TIME LEFT:  2.00D  GRAD.:     0.028 HEAT:  57.32991
 CYCLE:   202 TIME:   0.004 TIME LEFT:  2.00D  GRAD.:     0.031 HEAT:  57.32991
 CYCLE:   203 TIME:   0.004 TIME LEFT:  2.00D  GRAD.:     0.037 HEAT:  57.32991
 CYCLE:   204 TIME:   0.004 TIME LEFT:  2.00D  GRAD.:     0.012 HEAT:  57.32991
 TEST ON GRADIENT SATISFIED
PETERS TEST SATISFIED

 -------------------------------------------------------------------------------
 pm3  precise nosym gnorm=0.0 bfgs THREADS=1
 InChI=1S/C4H6/c1-4-2-3-4/h2H,3H2,1H3



     PETERS TEST WAS SATISFIED IN BFGS OPTIMIZATION           
     SCF FIELD WAS ACHIEVED                                   


                              PM3 CALCULATION
                                                       MOPAC v23.1.2 MacOS
                                                       Tue Jun  3 16:34:21 2025




          FINAL HEAT OF FORMATION =         57.32991 KCAL/MOL =     239.86833 KJ/MOL


          COSMO AREA              =        103.45 SQUARE ANGSTROMS
          COSMO VOLUME            =         86.10 CUBIC ANGSTROMS

          GRADIENT NORM           =          0.00879          =       0.00278 PER ATOM
          IONIZATION POTENTIAL    =          9.533964 EV
          HOMO LUMO ENERGIES (EV) =         -9.534  0.888
          NO. OF FILLED LEVELS    =         11
          MOLECULAR WEIGHT        =         54.0914         POINT GROUP:  C1  

          MOLECULAR DIMENSIONS (Angstroms)

            Atom       Atom       Distance
            H     7    H     5     4.24518
            H    10    H     8     3.94647
            H     6    H     8     1.92454


          SCF CALCULATIONS        =        428

          WALL-CLOCK TIME         =      0.758 SECONDS
          COMPUTATION TIME        =      0.338 SECONDS




   ATOM   CHEMICAL          X               Y               Z
  NUMBER   SYMBOL      (ANGSTROMS)     (ANGSTROMS)     (ANGSTROMS)

     1       C         -1.25094550  *  -0.57504516  *  -0.02444271  *
     2       C          1.45765723  *   0.09433200  *   0.06461332  *
     3       C          0.01615596  *   0.18507072  *   0.11622476  *
     4       C         -1.09474441  *   0.86699526  *   0.29166067  *
     5       H         -1.56955544  *  -1.29209392  *   0.74296819  *
     6       H         -1.60792342  *  -0.90394064  *  -1.00881339  *
     7       H          1.92993643  *   1.06354103  *   0.26746044  *
     8       H          1.82324799  *  -0.62825847  *   0.80665397  *
     9       H          1.78523087  *  -0.24699625  *  -0.92664653  *
    10       H         -1.61799400  *   1.77891703  *   0.50518355  *

                             CARTESIAN COORDINATES

   1    C       -1.250945496    -0.575045157    -0.024442711
   2    C        1.457657233     0.094332000     0.064613325
   3    C        0.016155961     0.185070721     0.116224757
   4    C       -1.094744414     0.866995258     0.291660665
   5    H       -1.569555444    -1.292093922     0.742968192
   6    H       -1.607923417    -0.903940640    -1.008813392
   7    H        1.929936426     1.063541031     0.267460442
   8    H        1.823247985    -0.628258473     0.806653972
   9    H        1.785230873    -0.246996246    -0.926646535
  10    H       -1.617994002     1.778917035     0.505183554


           Empirical Formula: C4 H6  =    10 atoms



      MOLECULAR POINT GROUP   :   C1  


                  EIGENVALUES  
 -38.13570 -29.60284 -21.87027 -18.79184 -16.43754 -15.48718 -14.73190 -13.68422
 -12.49468 -11.40114  -9.53396   0.88782   2.70796   3.04081   3.43116   3.95298
   4.25550   4.38191   4.59419   4.69765   5.04777   5.78401


              NET ATOMIC CHARGES AND DIPOLE CONTRIBUTIONS

  ATOM NO.   TYPE          CHARGE      No. of ELECS.   s-Pop       p-Pop       
    1          C          -0.068522        4.0685     1.14437     2.92415
    2          C          -0.000855        4.0009     1.10035     2.90050
    3          C          -0.163004        4.1630     1.20851     2.95450
    4          C          -0.183406        4.1834     1.21300     2.97040
    5          H           0.053929        0.9461     0.94607
    6          H           0.053931        0.9461     0.94607
    7          H           0.045161        0.9548     0.95484
    8          H           0.049929        0.9501     0.95007
    9          H           0.049919        0.9501     0.95008
   10          H           0.162917        0.8371     0.83708
 DIPOLE           X         Y         Z       TOTAL
 POINT-CHG.     0.552     0.124     0.016     0.566
 HYBRID        -0.046     0.086     0.020     0.100
 SUM            0.506     0.211     0.036     0.550


          ATOMIC ORBITAL ELECTRON POPULATIONS

     Atom    s        px        py        pz   
    1  C   1.14437   0.98655   0.93049   1.00711
    2  C   1.10035   0.89003   1.00616   1.00431
    3  C   1.20851   0.94198   1.02524   0.98728
    4  C   1.21300   0.99338   0.97021   1.00681
    5  H   0.94607
    6  H   0.94607
    7  H   0.95484
    8  H   0.95007
    9  H   0.95008
   10  H   0.83708
 *******************************************************************************
 **                                                                           **
 **                              MOPAC v23.1.2                                **
 **                                                                           **
 *******************************************************************************
 **          Digital Object Identifier (DOI): 10.5281/zenodo.6511958          **
 **    Visit the DOI location for information on how to cite this program.    **
 *******************************************************************************

                              PM3 CALCULATION RESULTS

 *******************************************************************************
 *  CALCULATION DONE: (MAX THREADS = 1)              Tue Jun  3 16:34:21 2025  *
 *  PM3        - The PM3 Hamiltonian to be used
 *  OLDGEO     - PREVIOUS GEOMETRY TO BE USED
 *  PRECISE    - TIGHTER CRITERIA TO BE USED
 *  NOSYM      - POINT-GROUP SYMMETRY SET TO C1
 *  THREADS=1  - MULTI-THREADING NOT USED
 *  T=         - A TIME OF 172800.0 SECONDS REQUESTED
 *  DUMP=N     - RESTART FILE WRITTEN EVERY 7200.0 SECONDS REQUESTED
 *  THERMO     - THERMODYNAMIC QUANTITIES TO BE CALCULATED
 *******************************************************************************
oldgeo thermo nosym precise THREADS=1  pm3
 InChI=1S/C4H6/c1-4-2-3-4/h2H,3H2,1H3

   ATOM   CHEMICAL          X               Y               Z
  NUMBER   SYMBOL      (ANGSTROMS)     (ANGSTROMS)     (ANGSTROMS)

     1       C         -1.25094550  *  -0.57504516  *  -0.02444271  *
     2       C          1.45765723  *   0.09433200  *   0.06461332  *
     3       C          0.01615596  *   0.18507072  *   0.11622476  *
     4       C         -1.09474441  *   0.86699526  *   0.29166067  *
     5       H         -1.56955544  *  -1.29209392  *   0.74296819  *
     6       H         -1.60792342  *  -0.90394064  *  -1.00881339  *
     7       H          1.92993643  *   1.06354103  *   0.26746044  *
     8       H          1.82324799  *  -0.62825847  *   0.80665397  *
     9       H          1.78523087  *  -0.24699625  *  -0.92664653  *
    10       H         -1.61799400  *   1.77891703  *   0.50518355  *



          CARTESIAN COORDINATES 

    NO.       ATOM           X           Y           Z

     1         C         -1.2509     -0.5750     -0.0244
     2         C          1.4577      0.0943      0.0646
     3         C          0.0162      0.1851      0.1162
     4         C         -1.0947      0.8670      0.2917
     5         H         -1.5696     -1.2921      0.7430
     6         H         -1.6079     -0.9039     -1.0088
     7         H          1.9299      1.0635      0.2675
     8         H          1.8232     -0.6283      0.8067
     9         H          1.7852     -0.2470     -0.9266
    10         H         -1.6180      1.7789      0.5052

  H: (PM3): J. J. P. STEWART, J. COMP. CHEM. 10, 209 (1989).
  C: (PM3): J. J. P. STEWART, J. COMP. CHEM. 10, 209 (1989).

           Empirical Formula: C4 H6  =    10 atoms



      MOLECULAR POINT GROUP   :   C1  


      RHF CALCULATION, NO. OF DOUBLY OCCUPIED LEVELS = 11



          HEAT OF FORMATION =      57.329906 KCALS/MOLE


          CARTESIAN COORDINATE DERIVATIVES

   NUMBER  ATOM         X            Y            Z

     1       C      0.000661    -0.000256    -0.000088
     2       C     -0.001586     0.000495     0.000845
     3       C     -0.001061    -0.001374    -0.003417
     4       C      0.001093    -0.002580     0.001800
     5       H      0.000060     0.000310    -0.000102
     6       H     -0.000125     0.000424    -0.000041
     7       H      0.001331     0.002280    -0.000229
     8       H      0.000804    -0.000841     0.002716
     9       H     -0.000191    -0.001513    -0.001608
    10       H     -0.000988     0.003054     0.000125



          GRADIENT NORM =   0.00781

          MOLECULAR WEIGHT =   54.09



          ROTATIONAL CONSTANTS IN CM(-1)

          A =    0.70206492   B =    0.21538111   C =    0.17586046



           PRINCIPAL MOMENTS OF INERTIA IN UNITS OF 10**(-40)*GRAM-CM**2

          A =       39.8720   B =      129.9685   C =      159.1759


          ORIENTATION OF MOLECULE IN FORCE CALCULATION

    NO.       ATOM         X         Y         Z

     1          C      -1.2108   -0.4304   -0.0000
     2          C       1.5807   -0.4304   -0.0000
     3          C       0.2054    0.0140   -0.0000
     4          C      -0.7034    0.9647    0.0001
     5          H      -1.6675   -0.8673    0.8973
     6          H      -1.6675   -0.8672   -0.8974
     7          H       2.2778    0.4167   -0.0015
     8          H       1.7858   -1.0429    0.8883
     9          H       1.7850   -1.0454   -0.8868
    10          H      -0.9856    1.9998    0.0002


    FIRST DERIVATIVES WILL BE USED IN THE CALCULATION OF SECOND DERIVATIVES

          ESTIMATED TIME TO COMPLETE CALCULATION =        0.47 SECONDS

    FOR POINT-GROUP C1   THERE ARE   1 UNIQUE SYMMETRY FUNCTIONS.

 STEP:   1 TIME =     0.01 SECS, INTEGRAL =      0.01 TIME LEFT: 172799.99
 STEP:   2 TIME =     0.00 SECS, INTEGRAL =      0.01 TIME LEFT: 172799.99
 STEP:   3 TIME =     0.01 SECS, INTEGRAL =      0.02 TIME LEFT: 172799.98
 STEP:   4 TIME =     0.00 SECS, INTEGRAL =      0.02 TIME LEFT: 172799.98
 STEP:   5 TIME =     0.01 SECS, INTEGRAL =      0.03 TIME LEFT: 172799.97
 STEP:   6 TIME =     0.00 SECS, INTEGRAL =      0.04 TIME LEFT: 172799.96
 STEP:   7 TIME =     0.00 SECS, INTEGRAL =      0.04 TIME LEFT: 172799.96
 STEP:   8 TIME =     0.00 SECS, INTEGRAL =      0.04 TIME LEFT: 172799.96
 STEP:   9 TIME =     0.01 SECS, INTEGRAL =      0.05 TIME LEFT: 172799.95
 STEP:  10 TIME =     0.00 SECS, INTEGRAL =      0.05 TIME LEFT: 172799.95
 STEP:  11 TIME =     0.00 SECS, INTEGRAL =      0.06 TIME LEFT: 172799.94
 STEP:  12 TIME =     0.00 SECS, INTEGRAL =      0.06 TIME LEFT: 172799.94
 STEP:  13 TIME =     0.00 SECS, INTEGRAL =      0.07 TIME LEFT: 172799.93
 STEP:  14 TIME =     0.00 SECS, INTEGRAL =      0.07 TIME LEFT: 172799.93
 STEP:  15 TIME =     0.00 SECS, INTEGRAL =      0.07 TIME LEFT: 172799.93
 STEP:  16 TIME =     0.00 SECS, INTEGRAL =      0.08 TIME LEFT: 172799.92
 STEP:  17 TIME =     0.01 SECS, INTEGRAL =      0.09 TIME LEFT: 172799.91
 STEP:  18 TIME =     0.00 SECS, INTEGRAL =      0.09 TIME LEFT: 172799.91
 STEP:  19 TIME =     0.01 SECS, INTEGRAL =      0.10 TIME LEFT: 172799.90
 STEP:  20 TIME =     0.00 SECS, INTEGRAL =      0.10 TIME LEFT: 172799.90
 STEP:  21 TIME =     0.01 SECS, INTEGRAL =      0.11 TIME LEFT: 172799.89
 STEP:  22 TIME =     0.00 SECS, INTEGRAL =      0.11 TIME LEFT: 172799.89
 STEP:  23 TIME =     0.00 SECS, INTEGRAL =      0.12 TIME LEFT: 172799.88
 STEP:  24 TIME =     0.00 SECS, INTEGRAL =      0.12 TIME LEFT: 172799.88
 STEP:  25 TIME =     0.01 SECS, INTEGRAL =      0.13 TIME LEFT: 172799.87
 STEP:  26 TIME =     0.00 SECS, INTEGRAL =      0.13 TIME LEFT: 172799.87
 STEP:  27 TIME =     0.00 SECS, INTEGRAL =      0.14 TIME LEFT: 172799.86
 STEP:  28 TIME =     0.00 SECS, INTEGRAL =      0.14 TIME LEFT: 172799.86
 STEP:  29 TIME =     0.00 SECS, INTEGRAL =      0.14 TIME LEFT: 172799.86
 STEP:  30 TIME =     0.00 SECS, INTEGRAL =      0.15 TIME LEFT: 172799.85

(To convert to Hartree/Bohr^2, multiply by (10^(-21) x N x a0^2)/(4.184 x 627.51) =  0.0642)


           FORCE MATRIX IN MILLIDYNES/ANGSTROM


                  C  1       C  2       C  3       C  4       H  5       H  6
 ------------------------------------------------------------------------------
     C    1  15.171532
     C    2   0.313582  15.073390
     C    3   5.483608   6.293997  21.469900
     C    4   5.551053   0.508704  12.143788  20.414015
     H    5   4.691955   0.025734   0.445803   0.448240   5.325528
     H    6   4.691942   0.025728   0.445821   0.448243   0.496423   5.325523
     H    7   0.026859   4.754410   0.467282   0.006741   0.002739   0.002727
     H    8   0.011084   4.699764   0.450228   0.035670   0.004818   0.001615
     H    9   0.011054   4.699985   0.450295   0.035681   0.001611   0.004815
     H   10   0.290797   0.029809   0.397233   5.563135   0.019890   0.019891


                  H  7       H  8       H  9       H 10
 ------------------------------------------------------
     H    7   5.433618
     H    8   0.549953   5.390777
     H    9   0.549905   0.564879   5.390945
     H   10   0.002588   0.002455   0.002445   5.909660


          HEAT OF FORMATION =      57.329906 KCALS/MOLE

          ZERO POINT ENERGY      53.331 KCAL/MOL


           NORMAL COORDINATE ANALYSIS (Total motion = 1 Angstrom)


   Root No.       1         2         3         4         5         6         7         8

                 1 A       2 A       3 A       4 A       5 A       6 A       7 A       8 A   

                  88.6     341.7     353.8     803.0     808.6     877.1     938.7     986.5
  
           1    0.0000    0.0546   -0.0000   -0.0474    0.0000    0.0000   -0.0222   -0.0000
           2   -0.0000   -0.0202    0.0000    0.0300   -0.0000   -0.0000   -0.0168   -0.0000
           3    0.0268   -0.0000   -0.0202   -0.0000   -0.0051   -0.0092   -0.0000   -0.0256
           4   -0.0000   -0.0228    0.0000    0.0736   -0.0000   -0.0000    0.0131   -0.0000
           5   -0.0000   -0.0428    0.0000   -0.0147   -0.0000   -0.0000    0.0487   -0.0000
           6    0.0014   -0.0000   -0.0291    0.0000    0.0069    0.0286    0.0000    0.0384
           7    0.0000    0.0185   -0.0000    0.0268   -0.0000   -0.0000    0.0042   -0.0000
           8    0.0000    0.0784   -0.0000    0.0172   -0.0000   -0.0000    0.0016    0.0000
           9   -0.0010    0.0000    0.1141   -0.0000    0.0032    0.0145   -0.0000   -0.0448
          10   -0.0000   -0.0445    0.0000   -0.0420    0.0000    0.0000   -0.0008   -0.0000
          11    0.0000    0.0183    0.0000   -0.0286    0.0000    0.0000   -0.0209    0.0000
          12   -0.0291    0.0000   -0.0198   -0.0000   -0.0405   -0.0370   -0.0000    0.0457
          13    0.0080    0.0929   -0.1116   -0.1016   -0.0930    0.1907   -0.0327    0.0063
          14    0.0330   -0.0588    0.0337    0.0819    0.1791   -0.1282   -0.0123    0.1412
          15    0.0470    0.0005   -0.0619   -0.0021    0.0376    0.0279   -0.0026    0.0515
          16   -0.0080    0.0929    0.1116   -0.1016    0.0932   -0.1906   -0.0327   -0.0063
          17   -0.0330   -0.0588   -0.0336    0.0817   -0.1792    0.1282   -0.0123   -0.1413
          18    0.0470   -0.0005   -0.0619    0.0021    0.0376    0.0279    0.0026    0.0515
          19    0.0001    0.0858   -0.0002    0.1483   -0.0002   -0.0003    0.2345   -0.0003
          20    0.0003   -0.1343    0.0001   -0.0740    0.0001    0.0001   -0.1379    0.0001
          21    0.2512   -0.0001   -0.0946   -0.0000   -0.0206   -0.0446   -0.0000   -0.0484
          22   -0.0657   -0.1045    0.1248    0.0635    0.0498    0.1398   -0.1624    0.1664
          23   -0.2103   -0.0724   -0.0368   -0.0327   -0.0162   -0.0452   -0.0134   -0.0553
          24   -0.1289   -0.0005   -0.0851   -0.0073   -0.0171   -0.0373   -0.0008   -0.0409
          25    0.0655   -0.1049   -0.1245    0.0632   -0.0497   -0.1395   -0.1631   -0.1660
          26    0.2099   -0.0723    0.0368   -0.0326    0.0162    0.0451   -0.0132    0.0552
          27   -0.1296    0.0005   -0.0851    0.0072   -0.0171   -0.0373    0.0008   -0.0410
          28   -0.0000   -0.1307    0.0000   -0.2042    0.0001    0.0000    0.2240    0.0000
          29    0.0000   -0.0049    0.0000   -0.0714    0.0000    0.0000    0.0396    0.0000
          30   -0.0642   -0.0000   -0.1475    0.0002    0.4029    0.1004    0.0000   -0.1364


   Root No.       9        10        11        12        13        14        15        16

                 9 A      10 A      11 A      12 A      13 A      14 A      15 A      16 A   

                1017.3    1018.2    1116.6    1229.7    1313.7    1380.1    1380.5    1394.0
  
           1   -0.0247    0.0001    0.0487    0.0225   -0.0673   -0.0001    0.0096    0.0285
           2    0.0034   -0.0000   -0.0384   -0.0628   -0.0577   -0.0000   -0.0000    0.0074
           3    0.0003    0.0608   -0.0000   -0.0000   -0.0000    0.0003    0.0000    0.0000
           4    0.0303   -0.0002   -0.0177    0.0104    0.0065   -0.0003    0.0127    0.0783
           5   -0.0345    0.0002   -0.0117    0.0066   -0.0177    0.0004   -0.0466   -0.0111
           6    0.0001    0.0280    0.0000   -0.0000    0.0000   -0.0445   -0.0004   -0.0001
           7   -0.0060    0.0000    0.0227   -0.0616    0.0370    0.0002   -0.0130   -0.0256
           8    0.0305   -0.0002    0.0316   -0.0148    0.0722    0.0002   -0.0130   -0.0320
           9   -0.0002   -0.0476    0.0000    0.0000    0.0000   -0.0009   -0.0000   -0.0000
          10   -0.0548    0.0003   -0.0280    0.0138    0.0674    0.0002   -0.0115   -0.0304
          11    0.0080   -0.0000   -0.0247    0.0778    0.0176   -0.0002    0.0127    0.0373
          12   -0.0001   -0.0144   -0.0000    0.0000   -0.0000   -0.0004   -0.0000    0.0000
          13    0.0518   -0.1930   -0.1787   -0.0989   -0.1504   -0.0010    0.0021   -0.0593
          14   -0.0923   -0.1462    0.2068    0.0181   -0.1484   -0.0000    0.0082   -0.0442
          15   -0.0061   -0.1222    0.0032   -0.0203   -0.0815   -0.0002    0.0006   -0.0633
          16    0.0537    0.1924   -0.1787   -0.0989   -0.1504    0.0010    0.0021   -0.0593
          17   -0.0908    0.1472    0.2068    0.0181   -0.1484   -0.0001    0.0082   -0.0442
          18    0.0049   -0.1223   -0.0032    0.0203    0.0815   -0.0003   -0.0006    0.0633
          19   -0.0263   -0.0001   -0.1037    0.1716   -0.1052   -0.0005    0.0839   -0.1318
          20    0.0181   -0.0000    0.0577   -0.1156    0.0714    0.0012   -0.0775    0.1359
          21   -0.0001   -0.0349   -0.0000    0.0001   -0.0001    0.4335    0.0045    0.0003
          22    0.1472    0.1160    0.0037    0.1303   -0.0375    0.1928   -0.0277   -0.1740
          23   -0.0146   -0.0396    0.0103   -0.0323    0.0322    0.1613    0.3035   -0.0575
          24   -0.0104   -0.0287    0.0077   -0.0428    0.0360    0.0516    0.2277    0.0136
          25    0.1465   -0.1173    0.0038    0.1303   -0.0374   -0.1917   -0.0319   -0.1745
          26   -0.0143    0.0397    0.0102   -0.0322    0.0321   -0.1673    0.2995   -0.0578
          27    0.0101   -0.0288   -0.0077    0.0427   -0.0360    0.0570   -0.2274   -0.0132
          28    0.2847   -0.0015    0.1468   -0.0559   -0.0382    0.0000   -0.0022   -0.0077
          29    0.1043   -0.0005    0.0216    0.0639   -0.0104   -0.0002    0.0173    0.0498
          30    0.0001    0.0188   -0.0000    0.0000   -0.0000    0.0008    0.0000    0.0000


   Root No.      17        18        19        20        21        22        23        24

                17 A      18 A      19 A      20 A      21 A      22 A      23 A      24 A   

                1428.7    2087.2    3053.7    3064.0    3076.0    3099.8    3158.8    3289.3
  
           1    0.0506   -0.0543   -0.0000   -0.0000   -0.0000   -0.0313    0.0000    0.0038
           2    0.0593   -0.0456    0.0000   -0.0000   -0.0003   -0.0299   -0.0001    0.0041
           3    0.0000   -0.0000   -0.0609    0.0001    0.0000   -0.0000   -0.0000    0.0000
           4   -0.0386   -0.0648   -0.0000    0.0000   -0.0154    0.0000   -0.0243    0.0009
           5    0.0106    0.0220   -0.0000    0.0000   -0.0488    0.0006    0.0055    0.0001
           6    0.0000    0.0000   -0.0002   -0.0580   -0.0000    0.0000    0.0000   -0.0000
           7    0.0139    0.2301   -0.0000   -0.0000    0.0004    0.0017    0.0001   -0.0122
           8   -0.0170   -0.1335    0.0000    0.0000   -0.0003   -0.0015    0.0000    0.0084
           9   -0.0000   -0.0000   -0.0008   -0.0001   -0.0000   -0.0000   -0.0000    0.0000
          10   -0.0152   -0.1011   -0.0000    0.0000   -0.0003   -0.0012    0.0001    0.0269
          11   -0.0225    0.1385    0.0000   -0.0000    0.0000    0.0009    0.0002   -0.0831
          12   -0.0000    0.0000   -0.0008   -0.0002   -0.0000    0.0000    0.0000   -0.0000
          13   -0.1596   -0.0157   -0.2026    0.0001    0.0013    0.1850    0.0001   -0.0010
          14   -0.1586   -0.0131   -0.1936    0.0005    0.0012    0.1767    0.0002   -0.0002
          15   -0.1973    0.0489    0.3736   -0.0008   -0.0025   -0.3920   -0.0005    0.0036
          16   -0.1595   -0.0157    0.2026   -0.0001    0.0013    0.1850    0.0001   -0.0010
          17   -0.1587   -0.0131    0.1935   -0.0005    0.0011    0.1767    0.0002   -0.0002
          18    0.1972   -0.0489    0.3736   -0.0008    0.0025    0.3920    0.0005   -0.0036
          19    0.0600   -0.0076    0.0000   -0.0005    0.2784   -0.0025    0.2051    0.0005
          20   -0.0610   -0.0241    0.0000   -0.0007    0.3443   -0.0035    0.2791    0.0004
          21   -0.0000    0.0000   -0.0002   -0.0285   -0.0006    0.0000   -0.0005   -0.0000
          22    0.0608   -0.0054    0.0002    0.0772   -0.0487    0.0001    0.0406    0.0006
          23    0.0167    0.0140   -0.0005   -0.2655    0.1189   -0.0007   -0.1715   -0.0020
          24   -0.0123   -0.0122    0.0006    0.3626   -0.2117    0.0013    0.2579    0.0028
          25    0.0609   -0.0054   -0.0002   -0.0767   -0.0487    0.0001    0.0404    0.0006
          26    0.0168    0.0141    0.0005    0.2659    0.1203   -0.0007   -0.1723   -0.0021
          27    0.0122    0.0122    0.0006    0.3610    0.2125   -0.0013   -0.2576   -0.0028
          28    0.0093   -0.0686   -0.0000    0.0000   -0.0007   -0.0013    0.0005   -0.2314
          29   -0.0180    0.2435    0.0000   -0.0000    0.0021    0.0088   -0.0023    0.8450
          30   -0.0000    0.0000   -0.0014    0.0004    0.0000    0.0000    0.0000    0.0001


           MASS-WEIGHTED COORDINATE ANALYSIS (NORMAL COORDINATES)


   Root No.       1         2         3         4         5         6         7         8

                 1 A       2 A       3 A       4 A       5 A       6 A       7 A       8 A   

                  88.6     341.7     353.8     803.0     808.6     877.1     938.7     986.5
  
           1    0.0000    0.3612   -0.0001   -0.3171    0.0002    0.0001   -0.1607   -0.0000
           2   -0.0000   -0.1338    0.0000    0.2008   -0.0001   -0.0000   -0.1220   -0.0000
           3    0.1959   -0.0000   -0.1298   -0.0000   -0.0338   -0.0722   -0.0000   -0.1951
           4   -0.0000   -0.1510    0.0000    0.4929   -0.0002   -0.0001    0.0950   -0.0000
           5   -0.0000   -0.2832    0.0000   -0.0981   -0.0000   -0.0000    0.3533   -0.0001
           6    0.0101   -0.0000   -0.1871    0.0001    0.0456    0.2236    0.0000    0.2928
           7    0.0000    0.1222   -0.0000    0.1794   -0.0001   -0.0001    0.0306   -0.0001
           8    0.0001    0.5185   -0.0001    0.1149   -0.0000   -0.0000    0.0115    0.0001
           9   -0.0073    0.0001    0.7332   -0.0000    0.0213    0.1135   -0.0000   -0.3414
          10   -0.0000   -0.2944    0.0000   -0.2809    0.0001    0.0000   -0.0059   -0.0000
          11    0.0000    0.1213    0.0000   -0.1911    0.0001    0.0001   -0.1518    0.0000
          12   -0.2124    0.0000   -0.1272   -0.0002   -0.2675   -0.2893   -0.0000    0.3484
          13    0.0170    0.1780   -0.2078   -0.1970   -0.1778    0.4323   -0.0687    0.0139
          14    0.0698   -0.1126    0.0626    0.1587    0.3423   -0.2906   -0.0258    0.3119
          15    0.0995    0.0009   -0.1153   -0.0040    0.0719    0.0633   -0.0055    0.1138
          16   -0.0169    0.1780    0.2077   -0.1970    0.1781   -0.4322   -0.0688   -0.0138
          17   -0.0698   -0.1126   -0.0626    0.1585   -0.3425    0.2905   -0.0259   -0.3120
          18    0.0994   -0.0009   -0.1153    0.0041    0.0719    0.0633    0.0055    0.1137
          19    0.0003    0.1643   -0.0004    0.2875   -0.0004   -0.0006    0.4926   -0.0006
          20    0.0007   -0.2572    0.0001   -0.1434    0.0001    0.0002   -0.2898    0.0002
          21    0.5321   -0.0001   -0.1760   -0.0000   -0.0394   -0.1011   -0.0001   -0.1069
          22   -0.1391   -0.2002    0.2323    0.1231    0.0951    0.3169   -0.3412    0.3673
          23   -0.4455   -0.1386   -0.0685   -0.0635   -0.0309   -0.1024   -0.0282   -0.1220
          24   -0.2730   -0.0010   -0.1584   -0.0141   -0.0327   -0.0845   -0.0017   -0.0904
          25    0.1388   -0.2009   -0.2318    0.1226   -0.0949   -0.3163   -0.3427   -0.3665
          26    0.4447   -0.1385    0.0684   -0.0633    0.0309    0.1022   -0.0277    0.1219
          27   -0.2744    0.0010   -0.1584    0.0140   -0.0327   -0.0845    0.0017   -0.0904
          28   -0.0000   -0.2504    0.0000   -0.3959    0.0002    0.0001    0.4705    0.0001
          29    0.0000   -0.0093    0.0000   -0.1384    0.0000    0.0000    0.0832    0.0001
          30   -0.1359   -0.0000   -0.2745    0.0004    0.7700    0.2276    0.0001   -0.3011


   Root No.       9        10        11        12        13        14        15        16

                 9 A      10 A      11 A      12 A      13 A      14 A      15 A      16 A   

                1017.3    1018.2    1116.6    1229.7    1313.7    1380.1    1380.5    1394.0
  
           1   -0.1740    0.0009    0.3226    0.1445   -0.3863   -0.0008    0.0570    0.1941
           2    0.0243   -0.0002   -0.2542   -0.4041   -0.3311   -0.0000   -0.0001    0.0502
           3    0.0021    0.4086   -0.0000   -0.0000   -0.0000    0.0017    0.0000    0.0000
           4    0.2136   -0.0011   -0.1175    0.0666    0.0374   -0.0015    0.0757    0.5329
           5   -0.2431    0.0012   -0.0772    0.0422   -0.1014    0.0026   -0.2770   -0.0757
           6    0.0009    0.1880    0.0000   -0.0001    0.0000   -0.2615   -0.0023   -0.0004
           7   -0.0423    0.0002    0.1504   -0.3964    0.2122    0.0010   -0.0776   -0.1741
           8    0.2153   -0.0011    0.2096   -0.0954    0.4142    0.0010   -0.0773   -0.2177
           9   -0.0016   -0.3202    0.0000    0.0000    0.0000   -0.0053   -0.0001   -0.0000
          10   -0.3864    0.0020   -0.1851    0.0888    0.3867    0.0009   -0.0683   -0.2065
          11    0.0565   -0.0003   -0.1635    0.5005    0.1009   -0.0011    0.0754    0.2534
          12   -0.0005   -0.0969   -0.0000    0.0000   -0.0000   -0.0022   -0.0000    0.0000
          13    0.1058   -0.3759   -0.3427   -0.1844   -0.2501   -0.0017    0.0036   -0.1169
          14   -0.1885   -0.2847    0.3968    0.0338   -0.2467   -0.0000    0.0141   -0.0870
          15   -0.0125   -0.2381    0.0062   -0.0379   -0.1354   -0.0004    0.0010   -0.1247
          16    0.1096    0.3748   -0.3427   -0.1844   -0.2501    0.0017    0.0037   -0.1168
          17   -0.1855    0.2867    0.3968    0.0338   -0.2467   -0.0002    0.0141   -0.0871
          18    0.0100   -0.2382   -0.0061    0.0379    0.1354   -0.0005   -0.0010    0.1247
          19   -0.0538   -0.0001   -0.1989    0.3199   -0.1748   -0.0009    0.1445   -0.2598
          20    0.0370   -0.0001    0.1108   -0.2156    0.1188    0.0021   -0.1335    0.2678
          21   -0.0002   -0.0679   -0.0000    0.0002   -0.0001    0.7376    0.0077    0.0005
          22    0.3007    0.2259    0.0070    0.2430   -0.0624    0.3281   -0.0478   -0.3429
          23   -0.0298   -0.0771    0.0198   -0.0603    0.0535    0.2745    0.5227   -0.1133
          24   -0.0211   -0.0559    0.0147   -0.0797    0.0598    0.0878    0.3922    0.0268
          25    0.2992   -0.2285    0.0074    0.2430   -0.0621   -0.3262   -0.0549   -0.3438
          26   -0.0292    0.0773    0.0197   -0.0600    0.0533   -0.2847    0.5159   -0.1139
          27    0.0206   -0.0562   -0.0147    0.0797   -0.0599    0.0970   -0.3917   -0.0260
          28    0.5816   -0.0029    0.2816   -0.1042   -0.0635    0.0001   -0.0037   -0.0152
          29    0.2130   -0.0011    0.0414    0.1191   -0.0173   -0.0004    0.0297    0.0981
          30    0.0002    0.0366   -0.0000    0.0000   -0.0000    0.0014    0.0000    0.0000


   Root No.      17        18        19        20        21        22        23        24

                17 A      18 A      19 A      20 A      21 A      22 A      23 A      24 A   

                1428.7    2087.2    3053.7    3064.0    3076.0    3099.8    3158.8    3289.3
  
           1    0.3186   -0.1597   -0.0000   -0.0000   -0.0002   -0.1592    0.0002    0.0142
           2    0.3730   -0.1341    0.0000   -0.0000   -0.0015   -0.1520   -0.0007    0.0152
           3    0.0000   -0.0000   -0.3032    0.0005    0.0000   -0.0000   -0.0000    0.0000
           4   -0.2428   -0.1903   -0.0000    0.0000   -0.0896    0.0002   -0.1477    0.0034
           5    0.0667    0.0648   -0.0000    0.0001   -0.2843    0.0029    0.0337    0.0004
           6    0.0001    0.0000   -0.0010   -0.2967   -0.0001    0.0000    0.0001   -0.0000
           7    0.0877    0.6761   -0.0000   -0.0000    0.0021    0.0086    0.0004   -0.0455
           8   -0.1067   -0.3921    0.0000    0.0000   -0.0019   -0.0077    0.0001    0.0311
           9   -0.0000   -0.0000   -0.0039   -0.0003   -0.0000   -0.0000   -0.0000    0.0000
          10   -0.0958   -0.2970   -0.0000    0.0000   -0.0018   -0.0060    0.0009    0.1002
          11   -0.1415    0.4069    0.0000   -0.0000    0.0001    0.0044    0.0010   -0.3092
          12   -0.0000    0.0000   -0.0040   -0.0012   -0.0000    0.0000    0.0000   -0.0000
          13   -0.2907   -0.0134   -0.2923    0.0002    0.0021    0.2725    0.0003   -0.0010
          14   -0.2891   -0.0112   -0.2793    0.0007    0.0019    0.2604    0.0004   -0.0002
          15   -0.3594    0.0416    0.5390   -0.0012   -0.0043   -0.5775   -0.0009    0.0038
          16   -0.2907   -0.0134    0.2924   -0.0002    0.0021    0.2725    0.0003   -0.0010
          17   -0.2891   -0.0112    0.2792   -0.0007    0.0019    0.2603    0.0004   -0.0002
          18    0.3594   -0.0416    0.5390   -0.0012    0.0043    0.5775    0.0009   -0.0038
          19    0.1092   -0.0064    0.0000   -0.0008    0.4702   -0.0036    0.3611    0.0006
          20   -0.1112   -0.0205    0.0000   -0.0010    0.5815   -0.0052    0.4913    0.0005
          21   -0.0000    0.0000   -0.0003   -0.0422   -0.0011    0.0000   -0.0008   -0.0000
          22    0.1109   -0.0046    0.0004    0.1144   -0.0822    0.0002    0.0714    0.0006
          23    0.0304    0.0119   -0.0007   -0.3932    0.2008   -0.0011   -0.3020   -0.0022
          24   -0.0224   -0.0104    0.0009    0.5371   -0.3576    0.0020    0.4541    0.0031
          25    0.1110   -0.0046   -0.0004   -0.1136   -0.0823    0.0002    0.0710    0.0006
          26    0.0306    0.0120    0.0008    0.3939    0.2032   -0.0011   -0.3034   -0.0022
          27    0.0222    0.0104    0.0009    0.5347    0.3589   -0.0020   -0.4535   -0.0030
          28    0.0170   -0.0584   -0.0000    0.0000   -0.0012   -0.0019    0.0010   -0.2493
          29   -0.0328    0.2072    0.0000   -0.0000    0.0035    0.0129   -0.0040    0.9103
          30   -0.0000    0.0000   -0.0021    0.0005    0.0000    0.0000    0.0000    0.0001


          DESCRIPTION OF VIBRATIONS


 VIBRATION          1    1A           ATOM PAIR      ENERGY CONTRIBUTION    RADIAL
 FREQUENCY            88.58         C  2 -- H  8         +28.3% (634.1%)      0.0%
 TRANSITION DIPOLE   0.0350         C  2 -- H  9         +28.3% (634.1%)      0.0%
 TRAVEL (Ang.)       0.0000         C  2 -- H  7         +27.2% (622.2%)      0.0%
 REDUCED MASS        0.2960         C  1 -- C  4          +5.2% (272.1%)      0.0%
 EFFECTIVE MASS     46.0229
 FORCE CONSTANT      0.0014

 VIBRATION          2    2A           ATOM PAIR      ENERGY CONTRIBUTION    RADIAL
 FREQUENCY           341.73         C  2 -- C  3         +21.3% (193.7%)      0.0%
 TRANSITION DIPOLE   0.0822         C  1 -- C  4         +15.4% (164.9%)      0.0%
 TRAVEL (Ang.)       0.3620         C  1 -- C  3         +14.6% (160.6%)      0.2%
 REDUCED MASS        1.5061         C  3 -- C  4          +9.6% (130.1%)      0.0%
 EFFECTIVE MASS     26.1391
 FORCE CONSTANT      0.1036

 VIBRATION          3    3A           ATOM PAIR      ENERGY CONTRIBUTION    RADIAL
 FREQUENCY           353.79         C  2 -- C  3         +23.0% (138.8%)      0.0%
 TRANSITION DIPOLE   0.3992         C  1 -- C  3         +18.4% (124.1%)      0.0%
 TRAVEL (Ang.)       0.2326         C  3 -- C  4         +17.8% (122.2%)      0.0%
 REDUCED MASS        3.5215         C  2 -- H  8          +9.9% ( 91.0%)     18.5%
 EFFECTIVE MASS     18.5769
 FORCE CONSTANT      0.2597

 VIBRATION          4    4A           ATOM PAIR      ENERGY CONTRIBUTION    RADIAL
 FREQUENCY           803.00         C  2 -- H  7         +15.9% ( 73.4%)     61.9%
 TRANSITION DIPOLE   0.0786         C  2 -- H  9         +14.8% ( 70.9%)      7.2%
 TRAVEL (Ang.)       0.2602         C  2 -- H  8         +14.8% ( 70.9%)      7.2%
 REDUCED MASS        1.2406         C  2 -- C  3         +13.3% ( 67.3%)     92.1%
 EFFECTIVE MASS      9.3468
 FORCE CONSTANT      0.4713

 VIBRATION          5    5A           ATOM PAIR      ENERGY CONTRIBUTION    RADIAL
 FREQUENCY           808.58         C  4 -- H 10         +56.4% ( 82.7%)      0.0%
 TRANSITION DIPOLE   0.4584         C  1 -- H  6         +17.2% ( 45.7%)      0.4%
 TRAVEL (Ang.)       0.4239         C  1 -- H  5         +17.2% ( 45.7%)      0.4%
 REDUCED MASS        0.4641         C  3 -- C  4          +2.4% ( 16.9%)      0.0%
 EFFECTIVE MASS      1.5660
 FORCE CONSTANT      0.1788

 VIBRATION          6    6A           ATOM PAIR      ENERGY CONTRIBUTION    RADIAL
 FREQUENCY           877.07         C  1 -- H  5         +21.5% ( 55.7%)      0.8%
 TRANSITION DIPOLE   0.1223         C  1 -- H  6         +21.5% ( 55.7%)      0.8%
 TRAVEL (Ang.)       0.5063         C  2 -- H  8         +15.7% ( 47.5%)      8.6%
 REDUCED MASS        0.3000         C  2 -- H  9         +15.6% ( 47.5%)      8.6%
 EFFECTIVE MASS      2.3867
 FORCE CONSTANT      0.1360

 VIBRATION          7    7A           ATOM PAIR      ENERGY CONTRIBUTION    RADIAL
 FREQUENCY           938.67         C  2 -- H  7         +27.3% ( 75.2%)     10.4%
 TRANSITION DIPOLE   0.1198         C  2 -- H  9         +16.0% ( 57.5%)      5.1%
 TRAVEL (Ang.)       0.4089         C  2 -- H  8         +15.9% ( 57.4%)      5.0%
 REDUCED MASS        0.4296         C  4 -- H 10         +13.3% ( 52.5%)      3.6%
 EFFECTIVE MASS      3.6854
 FORCE CONSTANT      0.2230

 VIBRATION          8    8A           ATOM PAIR      ENERGY CONTRIBUTION    RADIAL
 FREQUENCY           986.50         C  2 -- H  8         +16.6% ( 50.4%)     10.1%
 TRANSITION DIPOLE   0.3755         C  2 -- H  9         +16.5% ( 50.4%)     10.1%
 TRAVEL (Ang.)       0.3595         C  1 -- H  6         +11.2% ( 41.4%)      7.8%
 REDUCED MASS        0.5289         C  1 -- H  5         +11.2% ( 41.4%)      7.8%
 EFFECTIVE MASS      4.4456         C  2 -- C  3         +10.8% ( 40.7%)      0.0%
 FORCE CONSTANT      0.3033

 VIBRATION          9    9A           ATOM PAIR      ENERGY CONTRIBUTION    RADIAL
 FREQUENCY          1017.28         C  4 -- H 10         +31.1% ( 78.5%)      1.1%
 TRANSITION DIPOLE   0.2156         C  2 -- C  3         +13.5% ( 51.7%)     53.6%
 TRAVEL (Ang.)       0.3270         C  1 -- C  4         +11.4% ( 47.5%)      3.9%
 REDUCED MASS        0.6198         C  2 -- H  8          +8.8% ( 41.7%)     27.1%
 EFFECTIVE MASS      4.7043
 FORCE CONSTANT      0.3779

 VIBRATION         10   10A           ATOM PAIR      ENERGY CONTRIBUTION    RADIAL
 FREQUENCY          1018.17         C  1 -- H  6         +29.5% ( 73.7%)     10.5%
 TRANSITION DIPOLE   0.3569         C  1 -- H  5         +29.5% ( 73.7%)     10.4%
 TRAVEL (Ang.)       0.3212         C  1 -- C  3         +12.1% ( 47.2%)      0.0%
 REDUCED MASS        0.6417         C  1 -- C  4          +9.8% ( 42.5%)      0.0%
 EFFECTIVE MASS      4.2571
 FORCE CONSTANT      0.3920

 VIBRATION         11   11A           ATOM PAIR      ENERGY CONTRIBUTION    RADIAL
 FREQUENCY          1116.58         C  1 -- H  6         +27.8% ( 60.9%)      0.1%
 TRANSITION DIPOLE   0.1547         C  1 -- H  5         +27.8% ( 60.9%)      0.1%
 TRAVEL (Ang.)       0.3157         C  4 -- H 10          +9.3% ( 35.2%)      2.2%
 REDUCED MASS        0.6060         C  1 -- C  4          +7.9% ( 32.5%)      2.9%
 EFFECTIVE MASS      3.5065
 FORCE CONSTANT      0.4452

 VIBRATION         12   12A           ATOM PAIR      ENERGY CONTRIBUTION    RADIAL
 FREQUENCY          1229.69         C  1 -- C  4         +26.2% ( 78.7%)     84.1%
 TRANSITION DIPOLE   0.1689         C  3 -- C  4         +18.3% ( 65.8%)      1.5%
 TRAVEL (Ang.)       0.1865         C  1 -- C  3         +13.1% ( 55.7%)     46.3%
 REDUCED MASS        1.5766         C  4 -- H 10         +11.5% ( 52.1%)     55.1%
 EFFECTIVE MASS      8.3618         C  2 -- C  3         +10.6% ( 50.0%)     68.0%
 FORCE CONSTANT      1.4046

 VIBRATION         13   13A           ATOM PAIR      ENERGY CONTRIBUTION    RADIAL
 FREQUENCY          1313.71         C  1 -- C  3         +24.5% ( 70.3%)     69.0%
 TRANSITION DIPOLE   0.0759         C  1 -- C  4         +21.0% ( 65.1%)     57.3%
 TRAVEL (Ang.)       0.1728         C  1 -- H  6         +14.8% ( 54.7%)     91.8%
 REDUCED MASS        1.7194         C  1 -- H  5         +14.8% ( 54.7%)     91.8%
 EFFECTIVE MASS      8.4488         C  3 -- C  4         +10.9% ( 46.9%)     93.7%
 FORCE CONSTANT      1.7483

 VIBRATION         14   14A           ATOM PAIR      ENERGY CONTRIBUTION    RADIAL
 FREQUENCY          1380.10         C  2 -- H  7         +54.8% ( 64.2%)      0.0%
 TRANSITION DIPOLE   0.0656         C  2 -- H  9         +20.2% ( 39.0%)     11.3%
 TRAVEL (Ang.)       0.3370         C  2 -- H  8         +19.6% ( 38.4%)     12.2%
 REDUCED MASS        0.4302         C  2 -- C  3          +5.3% ( 20.0%)      0.0%
 EFFECTIVE MASS      1.5888
 FORCE CONSTANT      0.4827

 VIBRATION         15   15A           ATOM PAIR      ENERGY CONTRIBUTION    RADIAL
 FREQUENCY          1380.49         C  2 -- H  8         +39.6% ( 57.8%)      2.8%
 TRANSITION DIPOLE   0.0963         C  2 -- H  9         +39.0% ( 57.3%)      3.0%
 TRAVEL (Ang.)       0.3287         C  2 -- C  3          +7.4% ( 24.9%)     67.8%
 REDUCED MASS        0.4520         C  2 -- H  7          +6.6% ( 23.6%)     93.9%
 EFFECTIVE MASS      2.0413
 FORCE CONSTANT      0.5076

 VIBRATION         16   16A           ATOM PAIR      ENERGY CONTRIBUTION    RADIAL
 FREQUENCY          1394.00         C  2 -- H  9         +16.8% ( 57.3%)      1.9%
 TRANSITION DIPOLE   0.0954         C  2 -- H  8         +16.8% ( 57.3%)      1.9%
 TRAVEL (Ang.)       0.1933         C  2 -- H  7         +16.2% ( 56.3%)      7.6%
 REDUCED MASS        1.2940         C  2 -- C  3         +15.0% ( 54.2%)     76.1%
 EFFECTIVE MASS      6.6081         C  3 -- C  4         +10.1% ( 44.4%)     59.1%
 FORCE CONSTANT      1.4816

 VIBRATION         17   17A           ATOM PAIR      ENERGY CONTRIBUTION    RADIAL
 FREQUENCY          1428.73         C  1 -- H  5         +25.6% ( 65.0%)      5.3%
 TRANSITION DIPOLE   0.2020         C  1 -- H  6         +25.6% ( 65.0%)      5.3%
 TRAVEL (Ang.)       0.2244         C  1 -- C  4         +17.1% ( 53.2%)     89.5%
 REDUCED MASS        0.9376         C  1 -- C  3         +12.7% ( 45.8%)     46.7%
 EFFECTIVE MASS      4.8327
 FORCE CONSTANT      1.1276

 VIBRATION         18   18A           ATOM PAIR      ENERGY CONTRIBUTION    RADIAL
 FREQUENCY          2087.20         C  3 -- C  4         +39.0% ( 92.9%)     98.6%
 TRANSITION DIPOLE   0.3014         C  2 -- C  3         +21.7% ( 69.3%)     97.0%
 TRAVEL (Ang.)       0.0781         C  1 -- C  3         +21.0% ( 68.2%)     67.8%
 REDUCED MASS        5.3008         C  1 -- C  4          +8.8% ( 44.2%)     68.4%
 EFFECTIVE MASS     11.8354
 FORCE CONSTANT     13.6057

 VIBRATION         19   19A           ATOM PAIR      ENERGY CONTRIBUTION    RADIAL
 FREQUENCY          3053.74         C  1 -- H  6         +49.0% ( 72.2%)     97.3%
 TRANSITION DIPOLE   0.0424         C  1 -- H  5         +49.0% ( 72.2%)     97.3%
 TRAVEL (Ang.)       0.2067         C  1 -- C  4          +1.0% ( 10.3%)      0.0%
 REDUCED MASS        0.5170         C  1 -- C  3          +1.0% ( 10.3%)      0.0%
 EFFECTIVE MASS      1.5265
 FORCE CONSTANT      2.8408

 VIBRATION         20   20A           ATOM PAIR      ENERGY CONTRIBUTION    RADIAL
 FREQUENCY          3064.04         C  2 -- H  8         +49.2% ( 72.3%)     97.0%
 TRANSITION DIPOLE   0.0605         C  2 -- H  9         +48.9% ( 72.2%)     97.0%
 TRAVEL (Ang.)       0.2076         C  2 -- C  3          +1.0% ( 10.3%)      0.0%
 REDUCED MASS        0.5106         C  2 -- H  7          +0.9% ( 10.0%)      0.0%
 EFFECTIVE MASS      1.5068
 FORCE CONSTANT      2.8243

 VIBRATION         21   21A           ATOM PAIR      ENERGY CONTRIBUTION    RADIAL
 FREQUENCY          3075.98         C  2 -- H  7         +60.6% ( 80.2%)     98.7%
 TRANSITION DIPOLE   0.0646         C  2 -- H  9         +19.3% ( 45.3%)     86.0%
 TRAVEL (Ang.)       0.2154         C  2 -- H  8         +19.1% ( 45.1%)     85.8%
 REDUCED MASS        0.4724         C  2 -- C  3          +1.0% ( 10.4%)      0.0%
 EFFECTIVE MASS      1.5134
 FORCE CONSTANT      2.6337

 VIBRATION         22   22A           ATOM PAIR      ENERGY CONTRIBUTION    RADIAL
 FREQUENCY          3099.79         C  1 -- H  5         +49.1% ( 69.6%)     96.5%
 TRANSITION DIPOLE   0.0038         C  1 -- H  6         +49.1% ( 69.6%)     96.5%
 TRAVEL (Ang.)       0.2120         C  1 -- C  3          +0.9% (  9.6%)     84.4%
 REDUCED MASS        0.4841         C  1 -- C  4          +0.9% (  9.5%)     82.9%
 EFFECTIVE MASS      1.3046
 FORCE CONSTANT      2.7406

 VIBRATION         23   23A           ATOM PAIR      ENERGY CONTRIBUTION    RADIAL
 FREQUENCY          3158.79         C  2 -- H  7         +38.4% ( 59.8%)     97.8%
 TRANSITION DIPOLE   0.0969         C  2 -- H  9         +30.7% ( 53.4%)     96.6%
 TRAVEL (Ang.)       0.2542         C  2 -- H  8         +30.6% ( 53.4%)     96.6%
 REDUCED MASS        0.3303         C  2 -- C  3          +0.3% (  5.7%)     99.2%
 EFFECTIVE MASS      1.1408
 FORCE CONSTANT      1.9415

 VIBRATION         24   24A           ATOM PAIR      ENERGY CONTRIBUTION    RADIAL
 FREQUENCY          3289.31         C  4 -- H 10         +94.1% ( 99.7%)    100.0%
 TRANSITION DIPOLE   0.7019         C  3 -- C  4          +3.1% ( 18.1%)     87.7%
 TRAVEL (Ang.)       0.1482         C  1 -- C  4          +2.6% ( 16.6%)     67.4%
 REDUCED MASS        0.9340
 EFFECTIVE MASS      1.7510
 FORCE CONSTANT      5.9537

      SYMMETRY NUMBER FOR POINT-GROUP C1  =  1


          SYSTEM IS A GROUND STATE



 InChI=1S/C4H6/c1-4-2-3-4/h2H,3H2,1H3


          MOLECULE IS NOT LINEAR

          THERE ARE 24 GENUINE VIBRATIONS IN THIS SYSTEM
          THIS THERMODYNAMICS CALCULATION IS LIMITED TO
          MOLECULES WHICH HAVE NO INTERNAL ROTATIONS




                    CALCULATED THERMODYNAMIC PROPERTIES
                                          *
   TEMP. (K)   PARTITION FUNCTION   H.O.F.    ENTHALPY  HEAT CAPACITY ENTROPY
                                   KCAL/MOL   CAL/MOLE    CAL/K/MOL  CAL/K/MOL


 298.00  VIB.     0.4819D+01                  1210.0172     9.5156     7.1856
         ROT.     0.3240D+05                   888.2803     2.9808    23.6197
         INT.     0.1561D+06                  2098.2975    12.4964    30.8053
         TRA.     0.3846D+27                  1480.4672     4.9680    37.8841
         TOT.                       57.330    3578.7647    17.4644    68.6893

 200.00  VIB.     0.2548D+01                   492.2094     5.3357     4.3201
         ROT.     0.1781D+05                   596.1613     2.9808    22.4310
         INT.     0.4540D+05                  1088.3707     8.3165    26.7511
         TRA.     0.2115D+27                   993.6021     4.9680    35.9029
         TOT.                       55.833    2081.9728    13.2845    62.6540

 210.00  VIB.     0.2712D+01                   547.3672     5.6988     4.5891
         ROT.     0.1917D+05                   625.9693     2.9808    22.5764
         INT.     0.5198D+05                  1173.3365     8.6796    27.1656
         TRA.     0.2275D+27                  1043.2822     4.9680    36.1453
         TOT.                       55.968    2216.6187    13.6476    63.3109

 220.00  VIB.     0.2888D+01                   606.2433     6.0793     4.8629
         ROT.     0.2055D+05                   655.7774     2.9808    22.7151
         INT.     0.5934D+05                  1262.0207     9.0601    27.5780
         TRA.     0.2440D+27                  1092.9623     4.9680    36.3764
         TOT.                       56.106    2354.9831    14.0281    63.9545

 230.00  VIB.     0.3076D+01                   669.0090     6.4765     5.1419
         ROT.     0.2197D+05                   685.5855     2.9808    22.8476
         INT.     0.6758D+05                  1354.5945     9.4574    27.9895
         TRA.     0.2608D+27                  1142.6424     4.9680    36.5973
         TOT.                       56.248    2497.2369    14.4254    64.5868

 240.00  VIB.     0.3280D+01                   735.8265     6.8895     5.4262
         ROT.     0.2342D+05                   715.3935     2.9808    22.9745
         INT.     0.7680D+05                  1451.2200     9.8703    28.4007
         TRA.     0.2780D+27                  1192.3226     4.9680    36.8087
         TOT.                       56.395    2643.5426    14.8383    65.2094

 250.00  VIB.     0.3499D+01                   806.8460     7.3167     5.7160
         ROT.     0.2490D+05                   745.2016     2.9808    23.0962
         INT.     0.8710D+05                  1552.0476    10.2975    28.8122
         TRA.     0.2955D+27                  1242.0027     4.9680    37.0115
         TOT.                       56.545    2794.0502    15.2655    65.8237

 260.00  VIB.     0.3735D+01                   882.2031     7.7567     6.0115
         ROT.     0.2640D+05                   775.0097     2.9808    23.2131
         INT.     0.9861D+05                  1657.2127    10.7375    29.2246
         TRA.     0.3134D+27                  1291.6828     4.9680    37.2064
         TOT.                       56.700    2948.8955    15.7055    66.4310

 270.00  VIB.     0.3990D+01                   962.0174     8.2079     6.3127
         ROT.     0.2794D+05                   804.8177     2.9808    23.3256
         INT.     0.1115D+06                  1766.8351    11.1887    29.6383
         TRA.     0.3317D+27                  1341.3629     4.9680    37.3939
         TOT.                       56.859    3108.1980    16.1567    67.0321

 280.00  VIB.     0.4265D+01                  1046.3915     8.6684     6.6195
         ROT.     0.2951D+05                   834.6258     2.9808    23.4340
         INT.     0.1259D+06                  1881.0172    11.6492    30.0535
         TRA.     0.3503D+27                  1391.0430     4.9680    37.5745
         TOT.                       57.023    3272.0602    16.6172    67.6280

 290.00  VIB.     0.4563D+01                  1135.4107     9.1366     6.9318
         ROT.     0.3110D+05                   864.4339     2.9808    23.5386
         INT.     0.1419D+06                  1999.8446    12.1174    30.4704
         TRA.     0.3692D+27                  1440.7231     4.9680    37.7489
         TOT.                       57.192    3440.5677    17.0854    68.2193

 300.00  VIB.     0.4886D+01                  1229.1436     9.6108     7.2496
         ROT.     0.3273D+05                   894.2419     2.9808    23.6396
         INT.     0.1599D+06                  2123.3855    12.5916    30.8892
         TRA.     0.3885D+27                  1490.4032     4.9680    37.9173
         TOT.                       57.365    3613.7887    17.5596    68.8065

 310.00  VIB.     0.5236D+01                  1327.6418    10.0894     7.5725
         ROT.     0.3438D+05                   924.0500     2.9808    23.7374
         INT.     0.1800D+06                  2251.6918    13.0702    31.3099
         TRA.     0.4081D+27                  1540.0833     4.9680    38.0802
         TOT.                       57.543    3791.7751    18.0382    69.3901

 320.00  VIB.     0.5615D+01                  1430.9417    10.5709     7.9004
         ROT.     0.3605D+05                   953.8580     2.9808    23.8320
         INT.     0.2024D+06                  2384.7997    13.5517    31.7324
         TRA.     0.4280D+27                  1589.7634     4.9680    38.2379
         TOT.                       57.726    3974.5631    18.5197    69.9703

 330.00  VIB.     0.6026D+01                  1539.0648    11.0539     8.2331
         ROT.     0.3776D+05                   983.6661     2.9808    23.9237
         INT.     0.2275D+06                  2522.7309    14.0347    32.1568
         TRA.     0.4482D+27                  1639.4435     4.9680    38.3908
         TOT.                       57.913    4162.1745    19.0027    70.5476

 340.00  VIB.     0.6473D+01                  1652.0193    11.5370     8.5703
         ROT.     0.3948D+05                  1013.4742     2.9808    24.0127
         INT.     0.2556D+06                  2665.4935    14.5178    32.5830
         TRA.     0.4687D+27                  1689.1236     4.9680    38.5391
         TOT.                       58.106    4354.6171    19.4858    71.1221

 350.00  VIB.     0.6958D+01                  1769.8009    12.0191     8.9116
         ROT.     0.4124D+05                  1043.2822     2.9808    24.0991
         INT.     0.2870D+06                  2813.0831    14.9999    33.0108
         TRA.     0.4895D+27                  1738.8037     4.9680    38.6831
         TOT.                       58.303    4551.8869    19.9679    71.6939

 360.00  VIB.     0.7486D+01                  1892.3943    12.4992     9.2570
         ROT.     0.4302D+05                  1073.0903     2.9808    24.1831
         INT.     0.3220D+06                  2965.4846    15.4800    33.4401
         TRA.     0.5107D+27                  1788.4838     4.9680    38.8231
         TOT.                       58.505    4753.9684    20.4480    72.2631

 370.00  VIB.     0.8060D+01                  2019.7744    12.9763     9.6060
         ROT.     0.4482D+05                  1102.8984     2.9808    24.2648
         INT.     0.3613D+06                  3122.6727    15.9571    33.8707
         TRA.     0.5321D+27                  1838.1639     4.9680    38.9592
         TOT.                       58.712    4960.8367    20.9251    72.8299

 380.00  VIB.     0.8684D+01                  2151.9073    13.4496     9.9583
         ROT.     0.4665D+05                  1132.7064     2.9808    24.3442
         INT.     0.4052D+06                  3284.6137    16.4304    34.3025
         TRA.     0.5538D+27                  1887.8440     4.9680    39.0917
         TOT.                       58.924    5172.4578    21.3984    73.3942

 390.00  VIB.     0.9364D+01                  2288.7517    13.9185    10.3137
         ROT.     0.4851D+05                  1162.5145     2.9808    24.4217
         INT.     0.4542D+06                  3451.2662    16.8993    34.7354
         TRA.     0.5758D+27                  1937.5242     4.9680    39.2207
         TOT.                       59.140    5388.7903    21.8673    73.9561

 400.00  VIB.     0.1010D+02                  2430.2597    14.3822    10.6720
         ROT.     0.5038D+05                  1192.3226     2.9808    24.4971
         INT.     0.5091D+06                  3622.5822    17.3631    35.1691
         TRA.     0.5981D+27                  1987.2043     4.9680    39.3465
         TOT.                       59.361    5609.7865    22.3311    74.5156

   *: NOTE: HEATS OF FORMATION ARE RELATIVE TO THE
            ELEMENTS IN THEIR STANDARD STATE AT 298K
              (=  Standard Enthalpy of Formation).

            Hvib:  Zero-point energy is not included.
                   frequencies of less than zero cm-1 are not included.
            Hrot = (3/2)RT
            Htra = (3/2)RT + pV = (5/2)RT

            Heat capacity is Cp, not Cv

          For more information, see: HTTP://OpenMOPAC.net/Manual/thermochemistry.html


           FORCE CONSTANT IN CARTESIAN COORDINATES (Millidynes/A)

    ATOM   CHEMICAL       X               Y               Z
   NUMBER   SYMBOL  FORCE CONSTANT  FORCE CONSTANT  FORCE CONSTANT

      1       C        8.466031        8.137909        7.605804
      2       C        9.733628        8.318358        7.935046
      3       C       17.476588        8.917996        2.103516
      4       C        8.009834       17.061648        1.703979
      5       H        1.411692        1.332723        3.758376
      6       H        1.411824        1.332267        3.758687
      7       H        2.445744        3.572021        0.643764
      8       H        0.761180        2.068951        3.755637
      9       H        0.760219        2.080929        3.744878
     10       H        0.869433        5.503237        0.312639

 **********************
 *                    *
 * JOB ENDED NORMALLY *
 *                    *
 **********************



 TOTAL JOB TIME:             1.72 SECONDS

 == MOPAC DONE ==
