 *******************************************************************************
 **                                                                           **
 **                              MOPAC v23.1.2                                **
 **                                                                           **
 *******************************************************************************
 **          Digital Object Identifier (DOI): 10.5281/zenodo.6511958          **
 **    Visit the DOI location for information on how to cite this program.    **
 *******************************************************************************

                              PM3 CALCULATION RESULTS

 *******************************************************************************
 *  CALCULATION DONE: (MAX THREADS = 1)              Tue Jun  3 16:33:58 2025  *
 *  PM3        - The PM3 Hamiltonian to be used
 *  PRECISE    - TIGHTER CRITERIA TO BE USED
 *  NOSYM      - POINT-GROUP SYMMETRY SET TO C1
 *  THREADS=1  - MULTI-THREADING NOT USED
 *  T=         - A TIME OF 172800.0 SECONDS REQUESTED
 *  DUMP=N     - RESTART FILE WRITTEN EVERY 7200.0 SECONDS REQUESTED
 *******************************************************************************
pm3  precise nosym THREADS=1
 InChI=1S/C10H10/c1-8-6-9-4-2-3-5-10(9)7-8/h2-4,7H,1,5-6H2

   ATOM   CHEMICAL          X               Y               Z
  NUMBER   SYMBOL      (ANGSTROMS)     (ANGSTROMS)     (ANGSTROMS)

     1       C          1.36770000  *   1.13990000  *  -0.08240000  *
     2       C         -1.58440000  *  -1.32330000  *   0.09560000  *
     3       C         -0.07600000  *   0.77530000  *  -0.01860000  *
     4       C         -0.23730000  *  -0.66450000  *   0.02720000  *
     5       C          1.98080000  *  -0.22910000  *  -0.06750000  *
     6       C         -2.70300000  *  -0.29850000  *   0.10900000  *
     7       C          0.94170000  *  -1.26040000  *  -0.00030000  *
     8       C         -1.12220000  *   1.59750000  *  -0.00220000  *
     9       C         -2.48690000  *   1.03010000  *   0.06430000  *
    10       C          3.28700000  *  -0.47500000  *  -0.10940000  *
    11       H          1.60210000  *   1.67340000  *  -1.02830000  *
    12       H          1.67080000  *   1.72420000  *   0.81260000  *
    13       H         -1.64590000  *  -1.93720000  *   1.01880000  *
    14       H         -1.71310000  *  -1.98690000  *  -0.78540000  *
    15       H         -3.72280000  *  -0.65890000  *   0.15690000  *
    16       H          1.10060000  *  -2.33110000  *   0.02330000  *
    17       H         -0.98000000  *   2.67000000  *  -0.03710000  *
    18       H         -3.33230000  *   1.70600000  *   0.07710000  *
    19       H          3.99660000  *   0.34090000  *  -0.15840000  *
    20       H          3.65670000  *  -1.49240000  *  -0.09510000  *



          CARTESIAN COORDINATES 

    NO.       ATOM           X           Y           Z

     1         C          1.3677      1.1399     -0.0824
     2         C         -1.5844     -1.3233      0.0956
     3         C         -0.0760      0.7753     -0.0186
     4         C         -0.2373     -0.6645      0.0272
     5         C          1.9808     -0.2291     -0.0675
     6         C         -2.7030     -0.2985      0.1090
     7         C          0.9417     -1.2604     -0.0003
     8         C         -1.1222      1.5975     -0.0022
     9         C         -2.4869      1.0301      0.0643
    10         C          3.2870     -0.4750     -0.1094
    11         H          1.6021      1.6734     -1.0283
    12         H          1.6708      1.7242      0.8126
    13         H         -1.6459     -1.9372      1.0188
    14         H         -1.7131     -1.9869     -0.7854
    15         H         -3.7228     -0.6589      0.1569
    16         H          1.1006     -2.3311      0.0233
    17         H         -0.9800      2.6700     -0.0371
    18         H         -3.3323      1.7060      0.0771
    19         H          3.9966      0.3409     -0.1584
    20         H          3.6567     -1.4924     -0.0951

  H: (PM3): J. J. P. STEWART, J. COMP. CHEM. 10, 209 (1989).
  C: (PM3): J. J. P. STEWART, J. COMP. CHEM. 10, 209 (1989).

           Empirical Formula: C10 H10  =    20 atoms



      MOLECULAR POINT GROUP   :   C1  


      RHF CALCULATION, NO. OF DOUBLY OCCUPIED LEVELS = 25


          Geometry optimization using EF

          DIAGONAL MATRIX USED AS START HESSIAN

 CYCLE:     1 TIME:   0.008 TIME LEFT:  2.00D  GRAD.:   109.553 HEAT:  58.61209
 CYCLE:     2 TIME:   0.012 TIME LEFT:  2.00D  GRAD.:   116.153 HEAT:  57.43422
 CYCLE:     3 TIME:   0.004 TIME LEFT:  2.00D  GRAD.:    86.964 HEAT:  56.20489
 CYCLE:     4 TIME:   0.012 TIME LEFT:  2.00D  GRAD.:    37.123 HEAT:  54.84800
 CYCLE:     5 TIME:   0.008 TIME LEFT:  2.00D  GRAD.:    30.912 HEAT:  54.57803
 CYCLE:     6 TIME:   0.008 TIME LEFT:  2.00D  GRAD.:    34.054 HEAT:  54.44122
 CYCLE:     7 TIME:   0.008 TIME LEFT:  2.00D  GRAD.:    25.473 HEAT:  54.15357
 CYCLE:     8 TIME:   0.008 TIME LEFT:  2.00D  GRAD.:    24.373 HEAT:  54.05784
 CYCLE:     9 TIME:   0.008 TIME LEFT:  2.00D  GRAD.:    13.132 HEAT:  53.88256
 CYCLE:    10 TIME:   0.008 TIME LEFT:  2.00D  GRAD.:    19.730 HEAT:  53.76656
 CYCLE:    11 TIME:   0.004 TIME LEFT:  2.00D  GRAD.:    24.915 HEAT:  53.75582
 CYCLE:    12 TIME:   0.012 TIME LEFT:  2.00D  GRAD.:     7.998 HEAT:  53.63814
 CYCLE:    13 TIME:   0.008 TIME LEFT:  2.00D  GRAD.:     7.338 HEAT:  53.62350
 CYCLE:    14 TIME:   0.008 TIME LEFT:  2.00D  GRAD.:     6.270 HEAT:  53.60935
 CYCLE:    15 TIME:   0.004 TIME LEFT:  2.00D  GRAD.:     8.747 HEAT:  53.60773
 CYCLE:    16 TIME:   0.008 TIME LEFT:  2.00D  GRAD.:     5.547 HEAT:  53.59647
 CYCLE:    17 TIME:   0.012 TIME LEFT:  2.00D  GRAD.:     3.817 HEAT:  53.59055
 CYCLE:    18 TIME:   0.008 TIME LEFT:  2.00D  GRAD.:     3.909 HEAT:  53.59006
 CYCLE:    19 TIME:   0.008 TIME LEFT:  2.00D  GRAD.:     4.975 HEAT:  53.59048
 CYCLE:    20 TIME:   0.004 TIME LEFT:  2.00D  GRAD.:     2.806 HEAT:  53.58667
 CYCLE:    21 TIME:   0.008 TIME LEFT:  2.00D  GRAD.:     3.067 HEAT:  53.58678
 CYCLE:    22 TIME:   0.008 TIME LEFT:  2.00D  GRAD.:     1.601 HEAT:  53.58488
 CYCLE:    23 TIME:   0.004 TIME LEFT:  2.00D  GRAD.:     1.703 HEAT:  53.58444
 CYCLE:    24 TIME:   0.008 TIME LEFT:  2.00D  GRAD.:     0.664 HEAT:  53.58378
 CYCLE:    25 TIME:   0.008 TIME LEFT:  2.00D  GRAD.:     0.877 HEAT:  53.58374
 CYCLE:    26 TIME:   0.008 TIME LEFT:  2.00D  GRAD.:     0.274 HEAT:  53.58348
 CYCLE:    27 TIME:   0.004 TIME LEFT:  2.00D  GRAD.:     0.308 HEAT:  53.58338
 CYCLE:    28 TIME:   0.008 TIME LEFT:  2.00D  GRAD.:     0.500 HEAT:  53.58331
 CYCLE:    29 TIME:   0.008 TIME LEFT:  2.00D  GRAD.:     0.224 HEAT:  53.58324
 CYCLE:    30 TIME:   0.008 TIME LEFT:  2.00D  GRAD.:     0.145 HEAT:  53.58321
 CYCLE:    31 TIME:   0.008 TIME LEFT:  2.00D  GRAD.:     0.183 HEAT:  53.58319
 CYCLE:    32 TIME:   0.004 TIME LEFT:  2.00D  GRAD.:     0.110 HEAT:  53.58316
 CYCLE:    33 TIME:   0.008 TIME LEFT:  2.00D  GRAD.:     0.118 HEAT:  53.58315
 CYCLE:    34 TIME:   0.008 TIME LEFT:  2.00D  GRAD.:     0.101 HEAT:  53.58313
 CYCLE:    35 TIME:   0.004 TIME LEFT:  2.00D  GRAD.:     0.094 HEAT:  53.58311
 CYCLE:    36 TIME:   0.008 TIME LEFT:  2.00D  GRAD.:     0.166 HEAT:  53.58310
 CYCLE:    37 TIME:   0.008 TIME LEFT:  2.00D  GRAD.:     0.114 HEAT:  53.58309
 CYCLE:    38 TIME:   0.008 TIME LEFT:  2.00D  GRAD.:     0.076 HEAT:  53.58308
 CYCLE:    39 TIME:   0.004 TIME LEFT:  2.00D  GRAD.:     0.037 HEAT:  53.58308

     GRADIENT =  0.03682 IS LESS THAN CUTOFF =  0.05000



 -------------------------------------------------------------------------------
 pm3  precise nosym THREADS=1
 InChI=1S/C10H10/c1-8-6-9-4-2-3-5-10(9)7-8/h2-4,7H,1,5-6H2



     GEOMETRY OPTIMISED USING EIGENVECTOR FOLLOWING (EF).     
     SCF FIELD WAS ACHIEVED                                   


                              PM3 CALCULATION
                                                       MOPAC v23.1.2 MacOS
                                                       Tue Jun  3 16:33:59 2025




          FINAL HEAT OF FORMATION =         53.58308 KCAL/MOL =     224.19160 KJ/MOL


          COSMO AREA              =        174.31 SQUARE ANGSTROMS
          COSMO VOLUME            =        173.32 CUBIC ANGSTROMS

          GRADIENT NORM           =          0.03682          =       0.00823 PER ATOM
          IONIZATION POTENTIAL    =          8.223113 EV
          HOMO LUMO ENERGIES (EV) =         -8.223 -0.431
          NO. OF FILLED LEVELS    =         25
          MOLECULAR WEIGHT        =        130.1890         POINT GROUP:  C1  

          MOLECULAR DIMENSIONS (Angstroms)

            Atom       Atom       Distance
            H    19    H    15     7.84596
            H    17    H    16     5.28353
            H    11    H    12     1.77560


          SCF CALCULATIONS        =         47

          WALL-CLOCK TIME         =      0.305 SECONDS
          COMPUTATION TIME        =      0.188 SECONDS




   ATOM   CHEMICAL          X               Y               Z
  NUMBER   SYMBOL      (ANGSTROMS)     (ANGSTROMS)     (ANGSTROMS)

     1       C          1.35545083  *   1.10660231  *  -0.08068132  *
     2       C         -1.59722376  *  -1.28906134  *   0.09549406  *
     3       C         -0.10837969  *   0.78509573  *  -0.01735930  *
     4       C         -0.25262255  *  -0.67503952  *   0.02820995  *
     5       C          2.01777409  *  -0.25095670  *  -0.06835303  *
     6       C         -2.69892762  *  -0.28766065  *   0.10827517  *
     7       C          0.96203594  *  -1.26951928  *  -0.00092961  *
     8       C         -1.16734341  *   1.60945919  *  -0.00082054  *
     9       C         -2.49872648  *   1.03853562  *   0.06413837  *
    10       C          3.32696434  *  -0.48210814  *  -0.11111086  *
    11       H          1.60895186  *   1.67507021  *  -0.99435975  *
    12       H          1.67507771  *   1.72337400  *   0.77935528  *
    13       H         -1.67342547  *  -1.92344085  *   1.00285159  *
    14       H         -1.73919966  *  -1.97346672  *  -0.76645876  *
    15       H         -3.71374265  *  -0.69808494  *   0.15703359  *
    16       H          1.17513233  *  -2.33763127  *   0.02039823  *
    17       H         -1.06046260  *   2.69751183  *  -0.03474093  *
    18       H         -3.34292318  *   1.73599069  *   0.07591641  *
    19       H          4.05981562  *   0.31686101  *  -0.16038133  *
    20       H          3.74150934  *  -1.48521803  *  -0.09922873  *

                             CARTESIAN COORDINATES

   1    C        1.355450828     1.106602308    -0.080681321
   2    C       -1.597223763    -1.289061342     0.095494056
   3    C       -0.108379692     0.785095735    -0.017359297
   4    C       -0.252622552    -0.675039517     0.028209949
   5    C        2.017774089    -0.250956698    -0.068353027
   6    C       -2.698927619    -0.287660651     0.108275172
   7    C        0.962035942    -1.269519278    -0.000929609
   8    C       -1.167343411     1.609459187    -0.000820536
   9    C       -2.498726483     1.038535623     0.064138366
  10    C        3.326964337    -0.482108142    -0.111110860
  11    H        1.608951860     1.675070212    -0.994359752
  12    H        1.675077706     1.723374001     0.779355278
  13    H       -1.673425474    -1.923440853     1.002851592
  14    H       -1.739199658    -1.973466725    -0.766458762
  15    H       -3.713742647    -0.698084940     0.157033591
  16    H        1.175132330    -2.337631268     0.020398229
  17    H       -1.060462597     2.697511826    -0.034740925
  18    H       -3.342923184     1.735990688     0.075916410
  19    H        4.059815617     0.316861006    -0.160381331
  20    H        3.741509338    -1.485218032    -0.099228728


           Empirical Formula: C10 H10  =    20 atoms



      MOLECULAR POINT GROUP   :   C1  


                  EIGENVALUES  
 -41.24541 -35.74139 -31.25066 -29.70146 -26.14898 -24.80442 -20.94690 -19.95343
 -18.81051 -17.45954 -16.16365 -16.06921 -15.46862 -14.82287 -14.62033 -14.47706
 -14.02232 -13.82839 -12.65836 -12.33715 -11.97026 -11.50016 -11.17779 -10.05555
  -8.22311  -0.43068   0.73241   1.78762   2.38126   3.05751   3.12129   3.26218
   3.51261   3.58895   3.69349   3.85998   3.94632   4.08216   4.24615   4.36874
   4.42382   4.50513   4.72601   4.93512   5.27367   5.52417   5.62980   6.11632
   6.13053   6.31981


              NET ATOMIC CHARGES AND DIPOLE CONTRIBUTIONS

  ATOM NO.   TYPE          CHARGE      No. of ELECS.   s-Pop       p-Pop       
    1          C          -0.011440        4.0114     1.13635     2.87509
    2          C          -0.001228        4.0012     1.12521     2.87602
    3          C          -0.081930        4.0819     1.19223     2.88970
    4          C          -0.074698        4.0747     1.19012     2.88457
    5          C          -0.084458        4.0845     1.19243     2.89203
    6          C          -0.137937        4.1379     1.19651     2.94143
    7          C          -0.113964        4.1140     1.18612     2.92785
    8          C          -0.094092        4.0941     1.17277     2.92132
    9          C          -0.106010        4.1060     1.17770     2.92831
   10          C          -0.158757        4.1588     1.17625     2.98251
   11          H           0.068511        0.9315     0.93149
   12          H           0.068513        0.9315     0.93149
   13          H           0.067084        0.9329     0.93292
   14          H           0.067077        0.9329     0.93292
   15          H           0.098321        0.9017     0.90168
   16          H           0.117913        0.8821     0.88209
   17          H           0.106700        0.8933     0.89330
   18          H           0.100771        0.8992     0.89923
   19          H           0.083985        0.9160     0.91602
   20          H           0.085638        0.9144     0.91436
 DIPOLE           X         Y         Z       TOTAL
 POINT-CHG.    -0.318    -0.072     0.014     0.326
 HYBRID         0.006    -0.023     0.000     0.023
 SUM           -0.312    -0.095     0.015     0.326


          ATOMIC ORBITAL ELECTRON POPULATIONS

     Atom    s        px        py        pz   
    1  C   1.13635   0.91524   0.94714   1.01271
    2  C   1.12521   0.90723   0.96123   1.00756
    3  C   1.19223   0.95254   0.94027   0.99689
    4  C   1.19012   0.95110   0.94248   0.99099
    5  C   1.19243   0.94849   0.94599   0.99755
    6  C   1.19651   0.98054   0.95495   1.00594
    7  C   1.18612   0.92924   0.97096   1.02765
    8  C   1.17277   0.92910   0.97684   1.01538
    9  C   1.17770   0.96058   0.95452   1.01321
   10  C   1.17625   0.94619   1.01119   1.02512
   11  H   0.93149
   12  H   0.93149
   13  H   0.93292
   14  H   0.93292
   15  H   0.90168
   16  H   0.88209
   17  H   0.89330
   18  H   0.89923
   19  H   0.91602
   20  H   0.91436
 *******************************************************************************
 **                                                                           **
 **                              MOPAC v23.1.2                                **
 **                                                                           **
 *******************************************************************************
 **          Digital Object Identifier (DOI): 10.5281/zenodo.6511958          **
 **    Visit the DOI location for information on how to cite this program.    **
 *******************************************************************************

                              PM3 CALCULATION RESULTS

 *******************************************************************************
 *  CALCULATION DONE: (MAX THREADS = 1)              Tue Jun  3 16:33:59 2025  *
 *  PM3        - The PM3 Hamiltonian to be used
 *  OLDGEO     - PREVIOUS GEOMETRY TO BE USED
 *  PRECISE    - TIGHTER CRITERIA TO BE USED
 *  NOSYM      - POINT-GROUP SYMMETRY SET TO C1
 *  THREADS=1  - MULTI-THREADING NOT USED
 *  T=         - A TIME OF 172800.0 SECONDS REQUESTED
 *  DUMP=N     - RESTART FILE WRITTEN EVERY 7200.0 SECONDS REQUESTED
 *  THERMO     - THERMODYNAMIC QUANTITIES TO BE CALCULATED
 *******************************************************************************
oldgeo thermo nosym precise THREADS=1  pm3
 InChI=1S/C10H10/c1-8-6-9-4-2-3-5-10(9)7-8/h2-4,7H,1,5-6H2

   ATOM   CHEMICAL          X               Y               Z
  NUMBER   SYMBOL      (ANGSTROMS)     (ANGSTROMS)     (ANGSTROMS)

     1       C          1.35545083  *   1.10660231  *  -0.08068132  *
     2       C         -1.59722376  *  -1.28906134  *   0.09549406  *
     3       C         -0.10837969  *   0.78509573  *  -0.01735930  *
     4       C         -0.25262255  *  -0.67503952  *   0.02820995  *
     5       C          2.01777409  *  -0.25095670  *  -0.06835303  *
     6       C         -2.69892762  *  -0.28766065  *   0.10827517  *
     7       C          0.96203594  *  -1.26951928  *  -0.00092961  *
     8       C         -1.16734341  *   1.60945919  *  -0.00082054  *
     9       C         -2.49872648  *   1.03853562  *   0.06413837  *
    10       C          3.32696434  *  -0.48210814  *  -0.11111086  *
    11       H          1.60895186  *   1.67507021  *  -0.99435975  *
    12       H          1.67507771  *   1.72337400  *   0.77935528  *
    13       H         -1.67342547  *  -1.92344085  *   1.00285159  *
    14       H         -1.73919966  *  -1.97346672  *  -0.76645876  *
    15       H         -3.71374265  *  -0.69808494  *   0.15703359  *
    16       H          1.17513233  *  -2.33763127  *   0.02039823  *
    17       H         -1.06046260  *   2.69751183  *  -0.03474093  *
    18       H         -3.34292318  *   1.73599069  *   0.07591641  *
    19       H          4.05981562  *   0.31686101  *  -0.16038133  *
    20       H          3.74150934  *  -1.48521803  *  -0.09922873  *



          CARTESIAN COORDINATES 

    NO.       ATOM           X           Y           Z

     1         C          1.3555      1.1066     -0.0807
     2         C         -1.5972     -1.2891      0.0955
     3         C         -0.1084      0.7851     -0.0174
     4         C         -0.2526     -0.6750      0.0282
     5         C          2.0178     -0.2510     -0.0684
     6         C         -2.6989     -0.2877      0.1083
     7         C          0.9620     -1.2695     -0.0009
     8         C         -1.1673      1.6095     -0.0008
     9         C         -2.4987      1.0385      0.0641
    10         C          3.3270     -0.4821     -0.1111
    11         H          1.6090      1.6751     -0.9944
    12         H          1.6751      1.7234      0.7794
    13         H         -1.6734     -1.9234      1.0029
    14         H         -1.7392     -1.9735     -0.7665
    15         H         -3.7137     -0.6981      0.1570
    16         H          1.1751     -2.3376      0.0204
    17         H         -1.0605      2.6975     -0.0347
    18         H         -3.3429      1.7360      0.0759
    19         H          4.0598      0.3169     -0.1604
    20         H          3.7415     -1.4852     -0.0992

  H: (PM3): J. J. P. STEWART, J. COMP. CHEM. 10, 209 (1989).
  C: (PM3): J. J. P. STEWART, J. COMP. CHEM. 10, 209 (1989).

           Empirical Formula: C10 H10  =    20 atoms



      MOLECULAR POINT GROUP   :   C1  


      RHF CALCULATION, NO. OF DOUBLY OCCUPIED LEVELS = 25



          HEAT OF FORMATION =      53.583078 KCALS/MOLE


          CARTESIAN COORDINATE DERIVATIVES

   NUMBER  ATOM         X            Y            Z

     1       C     -0.001098     0.001783     0.000586
     2       C     -0.002793     0.003128    -0.000139
     3       C      0.000975     0.001549     0.001266
     4       C     -0.001214    -0.002259    -0.001903
     5       C     -0.004609    -0.003154    -0.003008
     6       C     -0.000260    -0.000561    -0.002575
     7       C     -0.000586    -0.003020     0.002289
     8       C      0.001013    -0.006601    -0.000793
     9       C      0.003389     0.000440     0.001818
    10       C     -0.001666    -0.001481     0.004889
    11       H     -0.004915     0.005612    -0.001137
    12       H     -0.006085     0.002168     0.000687
    13       H     -0.002223     0.010849    -0.001329
    14       H     -0.000653     0.003844     0.000167
    15       H      0.002753    -0.009437     0.001634
    16       H     -0.009356    -0.014220     0.000596
    17       H      0.001283    -0.006531    -0.001497
    18       H      0.002109     0.008145     0.001103
    19       H      0.009131     0.000193    -0.002629
    20       H      0.014802     0.009552    -0.000028



          GRADIENT NORM =   0.03655

          MOLECULAR WEIGHT =  130.19



          ROTATIONAL CONSTANTS IN CM(-1)

          A =    0.11541657   B =    0.03349119   C =    0.02621452



           PRINCIPAL MOMENTS OF INERTIA IN UNITS OF 10**(-40)*GRAM-CM**2

          A =      242.5367   B =      835.8245   C =     1067.8337


          ORIENTATION OF MOLECULE IN FORCE CALCULATION

    NO.       ATOM         X         Y         Z

     1          C      -1.7794   -0.0484   -0.0004
     2          C       2.0270   -0.0484   -0.0004
     3          C      -0.4386    0.6243   -0.0004
     4          C       0.5944   -0.4187   -0.0001
     5          C      -1.4382   -1.5199    0.0003
     6          C       2.2519    1.4234    0.0000
     7          C       0.0250   -1.6457    0.0004
     8          C      -0.1352    1.9316   -0.0004
     9          C       1.2599    2.3271   -0.0000
    10          C      -2.3102   -2.5242    0.0008
    11          H      -2.3761    0.2317    0.8872
    12          H      -2.3757    0.2309   -0.8884
    13          H       2.5274   -0.4913   -0.8863
    14          H       2.5280   -0.4921    0.8849
    15          H       3.2997    1.7441    0.0004
    16          H       0.5329   -2.6094    0.0008
    17          H      -0.9045    2.7092   -0.0006
    18          H       1.4764    3.4006    0.0002
    19          H      -3.3838   -2.3655    0.0007
    20          H      -1.9999   -3.5644    0.0014


    FIRST DERIVATIVES WILL BE USED IN THE CALCULATION OF SECOND DERIVATIVES

          ESTIMATED TIME TO COMPLETE CALCULATION =        1.88 SECONDS

    FOR POINT-GROUP C1   THERE ARE   1 UNIQUE SYMMETRY FUNCTIONS.

 STEP:   1 TIME =     0.02 SECS, INTEGRAL =      0.02 TIME LEFT: 172799.97
 STEP:   2 TIME =     0.02 SECS, INTEGRAL =      0.04 TIME LEFT: 172799.95
 STEP:   3 TIME =     0.02 SECS, INTEGRAL =      0.06 TIME LEFT: 172799.93
 STEP:   4 TIME =     0.02 SECS, INTEGRAL =      0.08 TIME LEFT: 172799.91
 STEP:   5 TIME =     0.02 SECS, INTEGRAL =      0.09 TIME LEFT: 172799.90
 STEP:   6 TIME =     0.02 SECS, INTEGRAL =      0.11 TIME LEFT: 172799.88
 STEP:   7 TIME =     0.02 SECS, INTEGRAL =      0.13 TIME LEFT: 172799.86
 STEP:   8 TIME =     0.02 SECS, INTEGRAL =      0.15 TIME LEFT: 172799.84
 STEP:   9 TIME =     0.02 SECS, INTEGRAL =      0.17 TIME LEFT: 172799.82
 STEP:  10 TIME =     0.02 SECS, INTEGRAL =      0.19 TIME LEFT: 172799.80
 STEP:  11 TIME =     0.02 SECS, INTEGRAL =      0.21 TIME LEFT: 172799.79
 STEP:  12 TIME =     0.02 SECS, INTEGRAL =      0.23 TIME LEFT: 172799.77
 STEP:  13 TIME =     0.02 SECS, INTEGRAL =      0.25 TIME LEFT: 172799.75
 STEP:  14 TIME =     0.02 SECS, INTEGRAL =      0.27 TIME LEFT: 172799.73
 STEP:  15 TIME =     0.02 SECS, INTEGRAL =      0.29 TIME LEFT: 172799.71
 STEP:  16 TIME =     0.02 SECS, INTEGRAL =      0.30 TIME LEFT: 172799.69
 STEP:  17 TIME =     0.02 SECS, INTEGRAL =      0.32 TIME LEFT: 172799.67
 STEP:  18 TIME =     0.02 SECS, INTEGRAL =      0.35 TIME LEFT: 172799.64
 STEP:  19 TIME =     0.02 SECS, INTEGRAL =      0.37 TIME LEFT: 172799.62
 STEP:  20 TIME =     0.02 SECS, INTEGRAL =      0.39 TIME LEFT: 172799.61
 STEP:  21 TIME =     0.02 SECS, INTEGRAL =      0.41 TIME LEFT: 172799.59
 STEP:  22 TIME =     0.02 SECS, INTEGRAL =      0.43 TIME LEFT: 172799.57
 STEP:  23 TIME =     0.02 SECS, INTEGRAL =      0.45 TIME LEFT: 172799.55
 STEP:  24 TIME =     0.02 SECS, INTEGRAL =      0.47 TIME LEFT: 172799.52
 STEP:  25 TIME =     0.02 SECS, INTEGRAL =      0.49 TIME LEFT: 172799.50
 STEP:  26 TIME =     0.02 SECS, INTEGRAL =      0.50 TIME LEFT: 172799.49
 STEP:  27 TIME =     0.02 SECS, INTEGRAL =      0.52 TIME LEFT: 172799.47
 STEP:  28 TIME =     0.02 SECS, INTEGRAL =      0.54 TIME LEFT: 172799.45
 STEP:  29 TIME =     0.02 SECS, INTEGRAL =      0.56 TIME LEFT: 172799.43
 STEP:  30 TIME =     0.02 SECS, INTEGRAL =      0.59 TIME LEFT: 172799.41
 STEP:  31 TIME =     0.02 SECS, INTEGRAL =      0.61 TIME LEFT: 172799.39
 STEP:  32 TIME =     0.02 SECS, INTEGRAL =      0.63 TIME LEFT: 172799.36
 STEP:  33 TIME =     0.02 SECS, INTEGRAL =      0.65 TIME LEFT: 172799.34
 STEP:  34 TIME =     0.02 SECS, INTEGRAL =      0.67 TIME LEFT: 172799.32
 STEP:  35 TIME =     0.02 SECS, INTEGRAL =      0.69 TIME LEFT: 172799.30
 STEP:  36 TIME =     0.02 SECS, INTEGRAL =      0.71 TIME LEFT: 172799.29
 STEP:  37 TIME =     0.02 SECS, INTEGRAL =      0.73 TIME LEFT: 172799.27
 STEP:  38 TIME =     0.02 SECS, INTEGRAL =      0.75 TIME LEFT: 172799.25
 STEP:  39 TIME =     0.02 SECS, INTEGRAL =      0.76 TIME LEFT: 172799.23
 STEP:  40 TIME =     0.02 SECS, INTEGRAL =      0.78 TIME LEFT: 172799.21
 STEP:  41 TIME =     0.02 SECS, INTEGRAL =      0.80 TIME LEFT: 172799.19
 STEP:  42 TIME =     0.02 SECS, INTEGRAL =      0.82 TIME LEFT: 172799.17
 STEP:  43 TIME =     0.02 SECS, INTEGRAL =      0.84 TIME LEFT: 172799.16
 STEP:  44 TIME =     0.02 SECS, INTEGRAL =      0.86 TIME LEFT: 172799.14
 STEP:  45 TIME =     0.02 SECS, INTEGRAL =      0.88 TIME LEFT: 172799.12
 STEP:  46 TIME =     0.02 SECS, INTEGRAL =      0.89 TIME LEFT: 172799.10
 STEP:  47 TIME =     0.02 SECS, INTEGRAL =      0.91 TIME LEFT: 172799.08
 STEP:  48 TIME =     0.02 SECS, INTEGRAL =      0.93 TIME LEFT: 172799.06
 STEP:  49 TIME =     0.02 SECS, INTEGRAL =      0.95 TIME LEFT: 172799.04
 STEP:  50 TIME =     0.02 SECS, INTEGRAL =      0.97 TIME LEFT: 172799.02
 STEP:  51 TIME =     0.02 SECS, INTEGRAL =      0.99 TIME LEFT: 172799.00
 STEP:  52 TIME =     0.02 SECS, INTEGRAL =      1.01 TIME LEFT: 172798.98
 STEP:  53 TIME =     0.02 SECS, INTEGRAL =      1.02 TIME LEFT: 172798.97
 STEP:  54 TIME =     0.02 SECS, INTEGRAL =      1.04 TIME LEFT: 172798.95
 STEP:  55 TIME =     0.02 SECS, INTEGRAL =      1.06 TIME LEFT: 172798.93
 STEP:  56 TIME =     0.02 SECS, INTEGRAL =      1.08 TIME LEFT: 172798.91
 STEP:  57 TIME =     0.02 SECS, INTEGRAL =      1.10 TIME LEFT: 172798.89
 STEP:  58 TIME =     0.02 SECS, INTEGRAL =      1.12 TIME LEFT: 172798.87
 STEP:  59 TIME =     0.02 SECS, INTEGRAL =      1.14 TIME LEFT: 172798.85
 STEP:  60 TIME =     0.02 SECS, INTEGRAL =      1.16 TIME LEFT: 172798.83

(To convert to Hartree/Bohr^2, multiply by (10^(-21) x N x a0^2)/(4.184 x 627.51) =  0.0642)


           FORCE MATRIX IN MILLIDYNES/ANGSTROM


                  C  1       C  2       C  3       C  4       C  5       C  6
 ------------------------------------------------------------------------------
     C    1  14.835129
     C    2   0.045434  15.086451
     C    3   4.502646   0.579410  19.331782
     C    4   0.908139   5.180898   4.979170  19.130433
     C    5   4.219730   0.123999   0.955348   1.478600  19.268431
     C    6   0.015779   4.870891   0.231815   0.759940   0.018843  17.833289
     C    7   0.879416   0.636008   1.459595   9.524715   5.036877   0.060256
     C    8   0.610822   0.135675   9.859985   1.039727   0.093304   1.165911
     C    9   0.133534   0.832338   1.264590   0.177627   0.026096  10.064506
     C   10   0.678442   0.015865   0.078326   0.126401  10.681197   0.005994
     H   11   4.514252   0.003984   0.434083   0.029801   0.434983   0.001733
     H   12   4.514162   0.003979   0.434082   0.029781   0.434970   0.001733
     H   13   0.003959   4.371410   0.027679   0.420866   0.014786   0.420392
     H   14   0.003965   4.371649   0.027714   0.420911   0.014765   0.420466
     H   15   0.009765   0.421417   0.007852   0.051038   0.003575   4.827117
     H   16   0.039745   0.050331   0.107078   0.453942   0.430413   0.002150
     H   17   0.063907   0.004842   0.457336   0.115073   0.006681   0.047831
     H   18   0.008233   0.123204   0.050427   0.002740   0.002400   0.442115
     H   19   0.085945   0.009192   0.006296   0.008094   0.477223   0.000706
     H   20   0.122921   0.005074   0.008411   0.007861   0.476114   0.000705


                  C  7       C  8       C  9       C 10       H 11       H 12
 ------------------------------------------------------------------------------
     C    7  18.266556
     C    8   0.171138  18.256880
     C    9   0.073435   5.557122  18.191651
     C   10   0.943475   0.019769   0.008295  17.959052
     H   11   0.028265   0.018330   0.014706   0.018640   5.107942
     H   12   0.028253   0.018340   0.014715   0.018644   0.551230   5.107847
     H   13   0.025252   0.014714   0.040809   0.001992   0.000373   0.000182
     H   14   0.025239   0.014706   0.040834   0.001990   0.000181   0.000374
     H   15   0.008110   0.121067   0.442488   0.001062   0.001184   0.001185
     H   16   5.029959   0.009460   0.007005   0.013596   0.003342   0.003341
     H   17   0.009831   4.888311   0.435921   0.001724   0.008140   0.008142
     H   18   0.001264   0.433340   4.847651   0.000907   0.000826   0.000827
     H   19   0.125881   0.001375   0.001287   5.116050   0.010572   0.010575
     H   20   0.089908   0.002278   0.002211   5.111308   0.012519   0.012525


                  H 13       H 14       H 15       H 16       H 17       H 18
 ------------------------------------------------------------------------------
     H   13   4.957598
     H   14   0.566265   4.957870
     H   15   0.028271   0.028304   5.201296
     H   16   0.007278   0.007273   0.001103   5.426775
     H   17   0.001001   0.001000   0.007096   0.007835   5.256105
     H   18   0.016195   0.016187   0.067184   0.000337   0.030093   5.209669
     H   19   0.001199   0.001197   0.000402   0.002260   0.000562   0.000189
     H   20   0.000585   0.000584   0.000436   0.009361   0.000876   0.000271


                  H 19       H 20
 ------------------------------
     H   19   5.491401
     H   20   0.406621   5.487716


          HEAT OF FORMATION =      53.583078 KCALS/MOLE

          ZERO POINT ENERGY     104.852 KCAL/MOL


           NORMAL COORDINATE ANALYSIS (Total motion = 1 Angstrom)


   Root No.       1         2         3         4         5         6         7         8

                 1 A       2 A       3 A       4 A       5 A       6 A       7 A       8 A   

                  74.7     151.3     187.9     277.0     323.6     424.8     462.4     482.9
  
           1    0.0000    0.0000    0.0000   -0.0262    0.0000   -0.0000   -0.0079   -0.0079
           2   -0.0000   -0.0000   -0.0000    0.0141   -0.0000    0.0000   -0.0374   -0.0301
           3   -0.0533   -0.0013   -0.0507   -0.0000   -0.0153    0.0048    0.0000    0.0000
           4   -0.0000   -0.0000    0.0000   -0.0179   -0.0000    0.0000   -0.0135   -0.0206
           5    0.0000    0.0000   -0.0000   -0.0178    0.0000   -0.0000   -0.0060    0.0534
           6   -0.0328   -0.0577    0.0075    0.0000   -0.0148    0.0018    0.0000    0.0000
           7    0.0000   -0.0000    0.0000   -0.0242   -0.0000    0.0000   -0.0359   -0.0015
           8   -0.0000    0.0000   -0.0000    0.0274    0.0000   -0.0000    0.0249   -0.0014
           9   -0.0305   -0.0079    0.0175   -0.0000    0.0690   -0.0024    0.0000   -0.0001
          10    0.0000   -0.0000    0.0000   -0.0258   -0.0000    0.0000   -0.0194   -0.0179
          11   -0.0000    0.0000   -0.0000    0.0257    0.0000    0.0000    0.0400   -0.0057
          12   -0.0264    0.0169    0.0149   -0.0000    0.0662    0.0297   -0.0000   -0.0000
          13    0.0000    0.0000   -0.0000   -0.0146   -0.0000   -0.0000    0.0373   -0.0368
          14    0.0000    0.0000   -0.0000    0.0133   -0.0000    0.0000   -0.0321   -0.0470
          15    0.0006    0.0262   -0.0071   -0.0000   -0.0212   -0.0095    0.0000   -0.0001
          16   -0.0000    0.0000    0.0000    0.0139    0.0000    0.0000    0.0137    0.0498
          17   -0.0000   -0.0000    0.0000   -0.0265    0.0000    0.0000   -0.0182    0.0503
          18    0.0318   -0.0009   -0.0594   -0.0000    0.0081   -0.0510   -0.0000   -0.0000
          19    0.0000    0.0000   -0.0000   -0.0172   -0.0000   -0.0000    0.0346   -0.0275
          20    0.0000    0.0000    0.0000    0.0261   -0.0000   -0.0000    0.0163   -0.0104
          21   -0.0097    0.0821    0.0220    0.0000   -0.0228   -0.0049   -0.0000    0.0000
          22   -0.0000    0.0000   -0.0000    0.0122    0.0000    0.0000   -0.0034    0.0583
          23   -0.0000    0.0000    0.0000    0.0204    0.0000   -0.0000    0.0202   -0.0075
          24    0.0038   -0.0076    0.0653    0.0000   -0.0170   -0.0432   -0.0000    0.0000
          25   -0.0000    0.0000   -0.0000    0.0256    0.0000   -0.0000    0.0141    0.0515
          26   -0.0000   -0.0000    0.0000   -0.0137    0.0000   -0.0000   -0.0176    0.0479
          27    0.0462    0.0178    0.0027    0.0000   -0.0201    0.0676    0.0000    0.0000
          28    0.0000   -0.0000   -0.0000    0.0592    0.0000    0.0000   -0.0154   -0.0450
          29    0.0000   -0.0000    0.0000   -0.0510   -0.0000    0.0000    0.0139   -0.0502
          30    0.0653   -0.0485   -0.0008    0.0000    0.0063    0.0029   -0.0000    0.0000
          31   -0.0317   -0.0024   -0.0663   -0.0277   -0.0690    0.0270   -0.0233   -0.0070
          32    0.0278    0.0148    0.0172    0.0095   -0.0113   -0.0118   -0.0712   -0.0316
          33   -0.0836   -0.0076   -0.1015    0.0000   -0.0592    0.0276    0.0002    0.0004
          34    0.0317    0.0024    0.0663   -0.0277    0.0691   -0.0271   -0.0232   -0.0073
          35   -0.0279   -0.0148   -0.0173    0.0095    0.0113    0.0118   -0.0712   -0.0314
          36   -0.0836   -0.0076   -0.1014   -0.0001   -0.0592    0.0276   -0.0002   -0.0001
          37   -0.0166   -0.0686    0.0090   -0.0314   -0.0796    0.0066   -0.0295   -0.0221
          38    0.0435    0.0518   -0.0498   -0.0337    0.0429   -0.0697   -0.0250    0.0559
          39   -0.0641   -0.1231    0.0380    0.0001   -0.0827    0.0420    0.0001   -0.0014
          40    0.0166    0.0685   -0.0090   -0.0316    0.0795   -0.0066   -0.0297   -0.0220
          41   -0.0434   -0.0517    0.0497   -0.0336   -0.0429    0.0697   -0.0249    0.0558
          42   -0.0642   -0.1232    0.0381   -0.0000   -0.0828    0.0421   -0.0000    0.0014
          43   -0.0000    0.0000    0.0000    0.0195    0.0000    0.0000    0.0170    0.0608
          44   -0.0000   -0.0000    0.0000   -0.0454   -0.0000    0.0000   -0.0294    0.0145
          45    0.0654    0.0199   -0.1487   -0.0000    0.0292   -0.1147    0.0000   -0.0001
          46    0.0000    0.0000   -0.0000   -0.0090   -0.0000   -0.0000    0.0902   -0.0174
          47    0.0000    0.0001    0.0000    0.0301   -0.0001   -0.0000    0.0460   -0.0054
          48    0.0010    0.1400    0.0381    0.0000   -0.1052   -0.0380   -0.0000    0.0002
          49   -0.0000    0.0000   -0.0000    0.0374    0.0000    0.0000    0.0275    0.0653
          50   -0.0000    0.0000    0.0000    0.0453    0.0000   -0.0000    0.0508    0.0007
          51    0.0065   -0.0182    0.1128    0.0000   -0.0977   -0.1611   -0.0000    0.0001
          52   -0.0000    0.0000    0.0000    0.0473    0.0000   -0.0001    0.0331    0.0225
          53   -0.0000   -0.0000    0.0000   -0.0179    0.0000   -0.0000   -0.0211    0.0538
          54    0.0929    0.0563   -0.0201   -0.0000   -0.0386    0.2052    0.0000   -0.0000
          55    0.0000    0.0000   -0.0000    0.0452    0.0000    0.0000   -0.0022   -0.0459
          56    0.0000   -0.0001    0.0000   -0.1533   -0.0000   -0.0000    0.1136   -0.0503
          57    0.0800   -0.1243   -0.0284    0.0001    0.0280    0.0132   -0.0001    0.0001
          58    0.0000   -0.0000   -0.0000    0.1578    0.0000    0.0000   -0.1109   -0.0552
          59    0.0001   -0.0000    0.0000   -0.0229   -0.0000    0.0000   -0.0128   -0.0539
          60    0.1081   -0.0404    0.0325    0.0000    0.0120    0.0058    0.0000    0.0002


   Root No.       9        10        11        12        13        14        15        16

                 9 A      10 A      11 A      12 A      13 A      14 A      15 A      16 A   

                 488.8     573.0     609.5     636.4     652.8     748.7     835.1     843.2
  
           1    0.0000   -0.0618    0.0000    0.0000    0.0344   -0.0000   -0.0610   -0.0002
           2   -0.0000   -0.0027   -0.0000   -0.0000   -0.0133   -0.0000   -0.0144   -0.0000
           3    0.0023   -0.0000    0.0057    0.0067   -0.0000   -0.0023   -0.0002    0.0261
           4    0.0000    0.0588    0.0000    0.0001    0.0615   -0.0000    0.0444    0.0001
           5    0.0000    0.0229   -0.0000   -0.0000   -0.0258    0.0000   -0.0401   -0.0001
           6   -0.0036   -0.0000   -0.0123   -0.0160    0.0000   -0.0169   -0.0002    0.0345
           7    0.0000   -0.0391    0.0000    0.0000    0.0251   -0.0000   -0.0149   -0.0000
           8    0.0000   -0.0347    0.0000    0.0000    0.0278   -0.0000   -0.0047   -0.0000
           9    0.0194    0.0000    0.0393    0.0475   -0.0001   -0.0106   -0.0000   -0.0006
          10   -0.0000    0.0288    0.0000    0.0000    0.0302   -0.0000    0.0208    0.0001
          11   -0.0000    0.0258   -0.0000    0.0000    0.0254    0.0000   -0.0055   -0.0000
          12   -0.0266    0.0000   -0.0321   -0.0391    0.0001    0.0306    0.0001   -0.0071
          13   -0.0000   -0.0169   -0.0000   -0.0000   -0.0376    0.0000    0.0034    0.0000
          14    0.0000    0.0191   -0.0000   -0.0000   -0.0340    0.0000    0.0045    0.0000
          15    0.0869    0.0000   -0.0023   -0.0326    0.0000   -0.0018    0.0000   -0.0032
          16    0.0000    0.0620   -0.0000   -0.0000   -0.0108    0.0000   -0.0547   -0.0002
          17    0.0000    0.0213    0.0000   -0.0000   -0.0110    0.0000   -0.0113   -0.0000
          18    0.0003    0.0000    0.0023   -0.0008   -0.0000   -0.0220    0.0000   -0.0078
          19   -0.0000   -0.0032   -0.0000   -0.0000   -0.0240    0.0000    0.0020    0.0000
          20   -0.0000    0.0416    0.0000    0.0000    0.0438   -0.0000    0.0083    0.0000
          21   -0.0205   -0.0000   -0.0005    0.0206   -0.0000    0.0042    0.0002   -0.0266
          22    0.0000   -0.0111   -0.0000   -0.0000   -0.0296    0.0000    0.0361    0.0001
          23    0.0000   -0.0527    0.0000    0.0000    0.0448   -0.0000   -0.0056   -0.0000
          24   -0.0134    0.0000   -0.0060   -0.0092    0.0000   -0.0013    0.0002   -0.0240
          25    0.0000   -0.0073   -0.0000   -0.0000   -0.0147    0.0000    0.0186    0.0001
          26    0.0000   -0.0571    0.0000    0.0000   -0.0083    0.0000    0.0729    0.0002
          27    0.0050   -0.0000   -0.0027   -0.0032   -0.0000   -0.0319    0.0001   -0.0074
          28   -0.0000   -0.0057   -0.0000   -0.0000   -0.0437    0.0000    0.0079    0.0000
          29   -0.0001    0.0102   -0.0000   -0.0000   -0.0468    0.0000    0.0032    0.0000
          30   -0.0177   -0.0000    0.0015    0.0018    0.0000    0.0001    0.0000   -0.0006
          31   -0.0992   -0.0674   -0.0152   -0.0564    0.0460    0.0061   -0.0920   -0.0748
          32    0.0894   -0.0035   -0.0365   -0.0321    0.0021    0.0014   -0.0567    0.0196
          33   -0.0961   -0.0025    0.0075   -0.0224    0.0020    0.0015   -0.0063   -0.0328
          34    0.0992   -0.0674    0.0152    0.0565    0.0457   -0.0062   -0.0930    0.0743
          35   -0.0895   -0.0035    0.0366    0.0321    0.0020   -0.0014   -0.0564   -0.0200
          36   -0.0960    0.0025    0.0075   -0.0224   -0.0019    0.0015    0.0067   -0.0327
          37    0.0453    0.0590    0.0560    0.0622    0.0741    0.0171    0.0811   -0.0752
          38   -0.0209    0.0212   -0.0216   -0.0283   -0.0204   -0.0766   -0.0190    0.0505
          39    0.0338    0.0013    0.0318    0.0351    0.0038    0.0335    0.0078   -0.0360
          40   -0.0452    0.0590   -0.0559   -0.0620    0.0744   -0.0171    0.0802    0.0757
          41    0.0210    0.0211    0.0215    0.0282   -0.0205    0.0765   -0.0183   -0.0506
          42    0.0338   -0.0014    0.0318    0.0352   -0.0040    0.0335   -0.0074   -0.0361
          43    0.0000    0.0447   -0.0000   -0.0000   -0.0243   -0.0001   -0.0505   -0.0001
          44    0.0000    0.0768    0.0000    0.0000    0.0349   -0.0001   -0.0231   -0.0000
          45    0.0173    0.0000    0.0443    0.0618   -0.0001    0.2597    0.0003   -0.0480
          46   -0.0000   -0.0182   -0.0000   -0.0000   -0.0062   -0.0000   -0.0204   -0.0001
          47   -0.0000    0.0340    0.0000    0.0001    0.0528   -0.0000   -0.0039    0.0000
          48   -0.1035   -0.0001   -0.0182    0.1566   -0.0003   -0.0710   -0.0009    0.1397
          49    0.0000    0.0043    0.0000   -0.0000   -0.0270   -0.0000    0.0259    0.0001
          50   -0.0000   -0.0376    0.0000    0.0000    0.0471   -0.0000   -0.0155   -0.0000
          51   -0.0471   -0.0000   -0.0484   -0.0532    0.0002    0.1611   -0.0008    0.1217
          52    0.0000   -0.0647    0.0000    0.0000    0.0203   -0.0001    0.0526    0.0001
          53    0.0000   -0.0450    0.0000   -0.0000   -0.0148   -0.0000    0.0673    0.0002
          54    0.0311   -0.0000    0.0205    0.0436   -0.0001    0.1945   -0.0008    0.1181
          55   -0.0000   -0.0078   -0.0000   -0.0001   -0.0477    0.0000    0.0133    0.0001
          56   -0.0001   -0.0022   -0.0002   -0.0000   -0.0650    0.0000    0.0443    0.0001
          57   -0.0298   -0.0000   -0.2701    0.1363   -0.0000    0.0059    0.0002   -0.0328
          58   -0.0000    0.0065   -0.0000   -0.0000   -0.0457    0.0000   -0.0277   -0.0001
          59   -0.0001    0.0141    0.0001   -0.0001   -0.0488    0.0000   -0.0062   -0.0000
          60   -0.1260   -0.0000    0.2775   -0.0800    0.0000   -0.0026   -0.0003    0.0388


   Root No.      17        18        19        20        21        22        23        24

                17 A      18 A      19 A      20 A      21 A      22 A      23 A      24 A   

                 894.7     897.7     923.8     930.0     954.9     979.9     998.9    1011.7
  
           1    0.0165   -0.0000    0.0178    0.0000    0.0000   -0.0289   -0.0000    0.0000
           2    0.0089   -0.0000   -0.0419   -0.0000   -0.0000    0.0494    0.0000   -0.0000
           3    0.0001    0.0201    0.0001   -0.0277   -0.0355   -0.0000    0.0052   -0.0257
           4   -0.0243    0.0000   -0.0040   -0.0000   -0.0000    0.0088    0.0000    0.0000
           5   -0.0045    0.0000   -0.0022   -0.0000    0.0000    0.0021   -0.0000   -0.0000
           6   -0.0000   -0.0151   -0.0000    0.0321   -0.0158    0.0000    0.0226    0.0148
           7    0.0151   -0.0000   -0.0020    0.0000   -0.0000   -0.0121   -0.0000   -0.0000
           8   -0.0298    0.0001   -0.0047   -0.0000    0.0000    0.0026    0.0000    0.0000
           9   -0.0000   -0.0027   -0.0000    0.0197    0.0261   -0.0000   -0.0046    0.0271
          10    0.0026   -0.0000    0.0023    0.0000    0.0000   -0.0030   -0.0000   -0.0000
          11    0.0379   -0.0001    0.0116    0.0000    0.0000   -0.0047   -0.0000   -0.0000
          12    0.0000   -0.0008    0.0000   -0.0327    0.0111    0.0000   -0.0186   -0.0136
          13   -0.0050    0.0000   -0.0030   -0.0000   -0.0000   -0.0013    0.0000    0.0000
          14   -0.0055    0.0000    0.0097    0.0000    0.0000   -0.0202   -0.0000    0.0000
          15   -0.0001   -0.0195   -0.0000    0.0067    0.0182    0.0000   -0.0075    0.0264
          16   -0.0253    0.0000   -0.0074   -0.0000   -0.0000   -0.0087    0.0000    0.0000
          17   -0.0115    0.0000   -0.0039   -0.0000   -0.0000   -0.0055    0.0000    0.0000
          18    0.0001    0.0202   -0.0000   -0.0023    0.0157   -0.0000   -0.0338   -0.0218
          19    0.0019   -0.0000    0.0111    0.0000    0.0000    0.0566    0.0000    0.0000
          20    0.0548   -0.0001    0.0087    0.0000   -0.0000   -0.0331    0.0000   -0.0000
          21    0.0001    0.0350   -0.0000    0.0307   -0.0202    0.0000    0.0136   -0.0035
          22    0.0285   -0.0000    0.0059    0.0000    0.0000    0.0032    0.0000    0.0000
          23   -0.0516    0.0001   -0.0082   -0.0000    0.0000    0.0035   -0.0000    0.0000
          24   -0.0001   -0.0380   -0.0000    0.0053   -0.0296    0.0000   -0.0092   -0.0231
          25   -0.0029    0.0000    0.0035    0.0000    0.0000   -0.0005   -0.0000   -0.0000
          26    0.0123   -0.0000    0.0086    0.0000   -0.0000   -0.0022    0.0000    0.0000
          27    0.0000    0.0131    0.0000   -0.0283    0.0053   -0.0000    0.0304    0.0243
          28   -0.0020    0.0000   -0.0401   -0.0000   -0.0000   -0.0347   -0.0000   -0.0000
          29   -0.0121    0.0000    0.0480    0.0000    0.0000   -0.0129    0.0000   -0.0000
          30   -0.0000   -0.0067   -0.0000    0.0033    0.0231    0.0000    0.0238   -0.0389
          31    0.0458   -0.0689    0.0041    0.0496    0.0671   -0.0147   -0.0512    0.0704
          32    0.0594   -0.0165   -0.0909   -0.0617   -0.0667    0.1252   -0.0791    0.0046
          33    0.0029   -0.0229    0.0057    0.0274    0.0336   -0.0123   -0.0047    0.0222
          34    0.0463    0.0687    0.0042   -0.0496   -0.0671   -0.0147    0.0512   -0.0704
          35    0.0594    0.0162   -0.0910    0.0617    0.0668    0.1252    0.0791   -0.0046
          36   -0.0032   -0.0229   -0.0057    0.0274    0.0335    0.0122   -0.0048    0.0222
          37   -0.0553    0.0475   -0.0115   -0.0159    0.0274    0.0324   -0.0641   -0.0399
          38   -0.0335   -0.0023   -0.0103    0.0962   -0.0239    0.0249    0.0041    0.0048
          39   -0.0030    0.0137   -0.0004   -0.0273    0.0127    0.0014   -0.0168   -0.0108
          40   -0.0556   -0.0473   -0.0115    0.0158   -0.0274    0.0324    0.0640    0.0398
          41   -0.0334    0.0024   -0.0101   -0.0962    0.0239    0.0249   -0.0042   -0.0049
          42    0.0031    0.0137    0.0004   -0.0274    0.0127   -0.0014   -0.0168   -0.0108
          43   -0.0159    0.0001   -0.0024   -0.0000    0.0000   -0.0132   -0.0000   -0.0000
          44   -0.0476    0.0001   -0.0210   -0.0000    0.0000    0.0097    0.0000    0.0000
          45   -0.0003   -0.1151    0.0001   -0.0591   -0.0658    0.0000    0.1313    0.0767
          46    0.0931   -0.0002    0.0422    0.0001    0.0000    0.2056    0.0000    0.0000
          47    0.1058   -0.0003    0.0257    0.0000    0.0000    0.0435   -0.0000    0.0000
          48   -0.0004   -0.1627    0.0002   -0.1363    0.0869    0.0000   -0.0577    0.0125
          49   -0.0329    0.0000   -0.0013   -0.0000   -0.0000    0.0287   -0.0000   -0.0000
          50   -0.1155    0.0002   -0.0160   -0.0001    0.0000    0.0293   -0.0000   -0.0000
          51    0.0005    0.1768    0.0000   -0.0209    0.1370   -0.0000    0.0142    0.0817
          52   -0.0439    0.0001    0.0043   -0.0000    0.0000    0.0227   -0.0000   -0.0000
          53    0.0195   -0.0000    0.0084   -0.0000    0.0000   -0.0069    0.0000    0.0000
          54   -0.0002   -0.0376   -0.0001    0.1690   -0.0133    0.0000   -0.1174   -0.0834
          55    0.0020   -0.0000   -0.0764   -0.0001   -0.0000   -0.0521   -0.0000   -0.0000
          56    0.0228   -0.0000   -0.2271   -0.0001   -0.0001   -0.1239   -0.0001    0.0001
          57    0.0001    0.0515    0.0001    0.0117   -0.0978    0.0001   -0.0883    0.1550
          58   -0.0430    0.0001    0.2373    0.0001    0.0000    0.0147    0.0000    0.0000
          59   -0.0239    0.0001    0.1273    0.0001   -0.0001   -0.0018   -0.0000    0.0001
          60    0.0001    0.0376   -0.0000   -0.0441   -0.1209    0.0000   -0.1002    0.1405


   Root No.      25        26        27        28        29        30        31        32

                25 A      26 A      27 A      28 A      29 A      30 A      31 A      32 A   

                1027.5    1049.2    1060.8    1082.5    1153.9    1158.2    1178.7    1199.4
  
           1    0.0045    0.0000    0.0000    0.0197   -0.0011    0.0089   -0.0145    0.0021
           2   -0.0072   -0.0000   -0.0000   -0.0008    0.0019    0.0051    0.0112   -0.0249
           3    0.0000   -0.0039   -0.0005    0.0000   -0.0000   -0.0000   -0.0000    0.0000
           4   -0.0138   -0.0000    0.0000    0.0049   -0.0023    0.0006   -0.0099    0.0087
           5    0.0460    0.0000   -0.0000   -0.0141    0.0004   -0.0129    0.0134   -0.0046
           6    0.0000   -0.0053   -0.0047   -0.0000   -0.0000   -0.0000    0.0000   -0.0000
           7    0.0014   -0.0000   -0.0000   -0.0170    0.0149    0.0031    0.0427   -0.0144
           8   -0.0054   -0.0000   -0.0000    0.0066   -0.0014    0.0112   -0.0082   -0.0176
           9    0.0000   -0.0128   -0.0236   -0.0000    0.0000   -0.0000    0.0000   -0.0000
          10    0.0110    0.0000   -0.0000   -0.0157   -0.0138   -0.0222    0.0323   -0.0030
          11    0.0013   -0.0000    0.0000    0.0033   -0.0059   -0.0108   -0.0171   -0.0116
          12    0.0000   -0.0105    0.0267    0.0000    0.0000    0.0000    0.0000    0.0000
          13   -0.0031   -0.0000    0.0000    0.0029   -0.0052   -0.0063   -0.0122   -0.0086
          14    0.0031    0.0000    0.0000   -0.0014    0.0053    0.0061    0.0111    0.0049
          15   -0.0000    0.0209    0.0258    0.0000   -0.0000   -0.0000   -0.0000   -0.0000
          16   -0.0400   -0.0000    0.0000   -0.0209   -0.0010    0.0095   -0.0032    0.0060
          17   -0.0370   -0.0000    0.0000    0.0062    0.0013   -0.0039    0.0046    0.0178
          18   -0.0001    0.0275   -0.0141   -0.0000    0.0000    0.0000   -0.0000    0.0000
          19   -0.0048   -0.0000   -0.0000   -0.0089   -0.0158   -0.0250   -0.0004   -0.0227
          20    0.0143    0.0000   -0.0000   -0.0017   -0.0045   -0.0082    0.0064   -0.0022
          21   -0.0000   -0.0028   -0.0164   -0.0000    0.0000    0.0000   -0.0000    0.0000
          22    0.0148    0.0000   -0.0000    0.0444    0.0089    0.0037   -0.0054   -0.0240
          23   -0.0078   -0.0000   -0.0000   -0.0165    0.0014    0.0049    0.0092   -0.0077
          24   -0.0000    0.0098    0.0068    0.0000    0.0000    0.0000   -0.0000   -0.0000
          25    0.0007   -0.0000    0.0000   -0.0193    0.0015    0.0043   -0.0125   -0.0016
          26   -0.0297   -0.0000    0.0000   -0.0156   -0.0097   -0.0024   -0.0090    0.0161
          27    0.0000   -0.0131    0.0016   -0.0000   -0.0000    0.0000   -0.0000    0.0000
          28    0.0020   -0.0000    0.0000    0.0031    0.0063    0.0092   -0.0001    0.0106
          29   -0.0006   -0.0000   -0.0000    0.0025    0.0017    0.0022   -0.0062    0.0073
          30   -0.0000   -0.0130   -0.0145   -0.0000   -0.0000   -0.0000    0.0000   -0.0000
          31    0.0062   -0.0532   -0.0730    0.0345   -0.0246   -0.0132   -0.0878    0.0642
          32   -0.0116   -0.1359   -0.1608    0.0011   -0.0482   -0.0598   -0.0912    0.0660
          33    0.0022    0.0035    0.0014    0.0080   -0.0001    0.0048   -0.0148    0.0116
          34    0.0062    0.0532    0.0730    0.0345   -0.0246   -0.0132   -0.0878    0.0642
          35   -0.0116    0.1359    0.1608    0.0011   -0.0482   -0.0598   -0.0912    0.0660
          36   -0.0022    0.0034    0.0012   -0.0079    0.0002   -0.0048    0.0148   -0.0116
          37    0.0785   -0.1185    0.1174    0.0097   -0.0202    0.0916   -0.0841    0.0105
          38    0.1819   -0.1468    0.1130   -0.0168   -0.0094    0.0761   -0.0396   -0.0279
          39   -0.0147    0.0019    0.0049    0.0045   -0.0029    0.0055   -0.0133    0.0108
          40    0.0783    0.1185   -0.1173    0.0095   -0.0203    0.0917   -0.0842    0.0105
          41    0.1815    0.1470   -0.1131   -0.0170   -0.0094    0.0762   -0.0396   -0.0279
          42    0.0148    0.0020    0.0049   -0.0046    0.0029   -0.0055    0.0133   -0.0108
          43   -0.0285   -0.0000    0.0000   -0.0857   -0.0826    0.0232    0.0159    0.0331
          44   -0.0725    0.0000   -0.0000    0.2049    0.2640   -0.0450   -0.0607   -0.0651
          45    0.0002   -0.0536    0.0216    0.0000    0.0000    0.0000   -0.0000   -0.0000
          46   -0.0330   -0.0000   -0.0000   -0.0058    0.1098    0.1588    0.0976    0.1106
          47    0.0003    0.0000   -0.0000    0.0001    0.0625    0.0899    0.0587    0.0692
          48    0.0000   -0.0024    0.0458    0.0000   -0.0000   -0.0000   -0.0000   -0.0000
          49    0.0816    0.0001   -0.0001    0.2359   -0.0707   -0.0519    0.0908    0.0820
          50    0.0562    0.0001   -0.0001    0.1723   -0.0797   -0.0496    0.1052    0.0986
          51    0.0001   -0.0357   -0.0210    0.0001   -0.0000   -0.0000    0.0000    0.0000
          52    0.1389    0.0001   -0.0001   -0.1679    0.2060   -0.1466   -0.0266    0.1138
          53   -0.0605   -0.0001    0.0000    0.0156   -0.0514    0.0279   -0.0066   -0.0058
          54   -0.0001    0.0299   -0.0007   -0.0000    0.0000   -0.0000   -0.0000    0.0000
          55    0.0037   -0.0000   -0.0000    0.0046    0.0109    0.0161   -0.0010    0.0227
          56    0.0119    0.0000    0.0000    0.0088    0.0292    0.0422   -0.0024    0.0727
          57   -0.0000    0.0507    0.0514   -0.0000   -0.0000   -0.0000    0.0000   -0.0000
          58   -0.0062   -0.0000    0.0000    0.0103    0.0077    0.0130   -0.0320    0.0493
          59   -0.0027    0.0000    0.0000    0.0050    0.0034    0.0050   -0.0158    0.0219
          60    0.0000    0.0385    0.0455    0.0000    0.0000   -0.0000    0.0000   -0.0000


   Root No.      33        34        35        36        37        38        39        40

                33 A      34 A      35 A      36 A      37 A      38 A      39 A      40 A   

                1278.7    1322.3    1345.0    1356.7    1377.4    1396.2    1430.9    1513.2
  
           1    0.0337    0.0114    0.0008   -0.0261    0.0199   -0.0603    0.0169    0.0225
           2    0.0424    0.0287   -0.0155   -0.0232   -0.0191    0.0300    0.0335    0.0009
           3   -0.0000   -0.0000    0.0000    0.0000    0.0000   -0.0000   -0.0000    0.0000
           4    0.0119    0.0101   -0.0337    0.0041    0.0465    0.0072   -0.0001   -0.0772
           5    0.0024    0.0185    0.0036    0.0490    0.0267   -0.0055    0.0543   -0.0410
           6    0.0000    0.0000    0.0000    0.0000   -0.0000   -0.0000    0.0000    0.0000
           7   -0.0308   -0.0010    0.0265    0.0017   -0.0185    0.0295   -0.0383   -0.1041
           8   -0.0025    0.0063   -0.0053    0.0143    0.0188    0.0049   -0.0167    0.0550
           9    0.0000    0.0000    0.0000   -0.0000   -0.0000    0.0000   -0.0000   -0.0000
          10   -0.0153   -0.0065   -0.0092    0.0060   -0.0097   -0.0052    0.0331    0.1297
          11    0.0070    0.0075    0.0036   -0.0039   -0.0061   -0.0095   -0.0260   -0.0915
          12   -0.0000   -0.0000   -0.0000   -0.0000    0.0000    0.0000    0.0000    0.0000
          13   -0.0018    0.0030    0.0203   -0.0270    0.0132    0.0710    0.0353    0.0033
          14    0.0123   -0.0315   -0.0067    0.0237   -0.0008   -0.0545   -0.0288   -0.0020
          15   -0.0000    0.0000    0.0000   -0.0000    0.0000    0.0000    0.0000   -0.0000
          16   -0.0020   -0.0083    0.0054   -0.0158   -0.0165   -0.0005   -0.0061    0.0059
          17    0.0167    0.0055    0.0103   -0.0158   -0.0002    0.0194   -0.0584    0.0456
          18    0.0000   -0.0000    0.0000   -0.0000   -0.0000    0.0000   -0.0000    0.0000
          19    0.0033   -0.0034   -0.0123    0.0136   -0.0320   -0.0526   -0.0420   -0.0016
          20   -0.0080   -0.0034    0.0099   -0.0164   -0.0152    0.0132    0.0111    0.0434
          21    0.0000    0.0000   -0.0000    0.0000    0.0000   -0.0000   -0.0000   -0.0000
          22   -0.0018    0.0149    0.0015    0.0235    0.0285    0.0197   -0.0507    0.0527
          23   -0.0252   -0.0046    0.0014    0.0176    0.0045    0.0087   -0.0064    0.0204
          24   -0.0000    0.0000    0.0000    0.0000    0.0000    0.0000   -0.0000    0.0000
          25   -0.0124   -0.0149   -0.0092   -0.0012   -0.0145   -0.0264    0.0672   -0.0307
          26    0.0054   -0.0090   -0.0055   -0.0158   -0.0130   -0.0136    0.0233   -0.0222
          27   -0.0000   -0.0000   -0.0000   -0.0000   -0.0000   -0.0000    0.0000   -0.0000
          28    0.0030   -0.0183    0.0050    0.0050    0.0117   -0.0017   -0.0007   -0.0086
          29   -0.0041   -0.0158    0.0122   -0.0029    0.0138    0.0212    0.0079   -0.0080
          30    0.0000    0.0000   -0.0000    0.0000   -0.0000   -0.0000   -0.0000    0.0000
          31    0.0142   -0.0572   -0.0834    0.1031   -0.0658    0.1199   -0.0082    0.0123
          32   -0.1176   -0.0182    0.0593   -0.0129    0.0647   -0.0290   -0.0103    0.0212
          33    0.0330   -0.0277   -0.0710    0.0740   -0.0739    0.1209   -0.0029   -0.0096
          34    0.0142   -0.0572   -0.0834    0.1031   -0.0658    0.1200   -0.0082    0.0122
          35   -0.1176   -0.0182    0.0593   -0.0130    0.0647   -0.0292   -0.0103    0.0212
          36   -0.0329    0.0277    0.0709   -0.0739    0.0738   -0.1208    0.0029    0.0096
          37    0.0400    0.0194    0.1329    0.0340   -0.0797   -0.0139   -0.0077    0.0173
          38   -0.0489   -0.0585   -0.0690   -0.1127   -0.0211    0.0080   -0.0612    0.0061
          39    0.0355    0.0374    0.1123    0.0837   -0.0411   -0.0159    0.0454    0.0252
          40    0.0400    0.0194    0.1328    0.0339   -0.0797   -0.0139   -0.0077    0.0172
          41   -0.0489   -0.0584   -0.0688   -0.1127   -0.0211    0.0080   -0.0612    0.0061
          42   -0.0356   -0.0375   -0.1125   -0.0839    0.0411    0.0159   -0.0455   -0.0252
          43    0.0256    0.0099    0.0077   -0.0176    0.0043    0.0214   -0.0567    0.0178
          44   -0.0705   -0.0559    0.0028   -0.0173   -0.0711   -0.0517    0.1031    0.0021
          45   -0.0000   -0.0000    0.0000   -0.0000   -0.0000   -0.0000    0.0000    0.0000
          46   -0.0013   -0.0297   -0.0184    0.0377    0.0403   -0.0192    0.0195    0.0353
          47   -0.0106   -0.0187    0.0083   -0.0054    0.0226    0.0323    0.0453    0.0663
          48    0.0000    0.0000   -0.0000   -0.0000   -0.0000   -0.0000   -0.0000   -0.0000
          49    0.0293   -0.0015    0.0164   -0.0408   -0.0278    0.0013   -0.0101   -0.0683
          50    0.0035   -0.0228    0.0154   -0.0463   -0.0530   -0.0108    0.0395   -0.0994
          51    0.0000    0.0000    0.0000   -0.0000   -0.0000    0.0000    0.0000   -0.0000
          52    0.0990    0.0243    0.0211   -0.0497   -0.0020    0.0270   -0.0930    0.0425
          53   -0.0173   -0.0184   -0.0123   -0.0081   -0.0177   -0.0263    0.0591   -0.0401
          54    0.0000    0.0000    0.0000   -0.0000   -0.0000    0.0000   -0.0000    0.0000
          55   -0.0127    0.0182   -0.0105    0.0079   -0.0017   -0.0172   -0.0064   -0.0064
          56   -0.0860    0.1866   -0.0825    0.0217   -0.0707   -0.0918   -0.0375    0.0103
          57    0.0000   -0.0001    0.0000   -0.0000    0.0000    0.0000    0.0000   -0.0000
          58   -0.1035    0.2113   -0.0565   -0.0197   -0.0621    0.0046    0.0056    0.0151
          59   -0.0394    0.0581   -0.0083   -0.0093   -0.0097    0.0206    0.0085   -0.0013
          60    0.0000   -0.0000    0.0000    0.0000    0.0000   -0.0000   -0.0000    0.0000


   Root No.      41        42        43        44        45        46        47        48

                41 A      42 A      43 A      44 A      45 A      46 A      47 A      48 A   

                1826.9    1846.2    1889.0    1918.2    2927.0    2977.4    3006.7    3047.9
  
           1   -0.0038   -0.0085   -0.0186    0.0106   -0.0000    0.0000   -0.0001   -0.0353
           2   -0.0053   -0.0024   -0.0276   -0.0096    0.0000   -0.0000    0.0000    0.0164
           3    0.0000    0.0000    0.0000    0.0000    0.0000   -0.0613    0.0000   -0.0000
           4    0.0261   -0.0359    0.0020    0.0104   -0.0000    0.0000   -0.0305   -0.0001
           5   -0.0083   -0.0349    0.0120   -0.0012    0.0000    0.0000    0.0268    0.0000
           6   -0.0000    0.0000    0.0000   -0.0000   -0.0610   -0.0001   -0.0000   -0.0000
           7    0.0250    0.0020    0.0378   -0.0257    0.0000   -0.0000    0.0004   -0.0006
           8    0.0465    0.0178    0.1465   -0.1116   -0.0000   -0.0000    0.0001   -0.0003
           9   -0.0000   -0.0000   -0.0000    0.0000   -0.0002   -0.0002   -0.0000   -0.0000
          10   -0.0681    0.1047   -0.0014   -0.0347    0.0000   -0.0000   -0.0006    0.0006
          11   -0.0878    0.1481   -0.0240   -0.0163    0.0000   -0.0000   -0.0004    0.0000
          12    0.0000   -0.0001    0.0000    0.0000   -0.0001   -0.0002    0.0000    0.0000
          13   -0.0057    0.0225    0.0731    0.1178    0.0000    0.0000   -0.0001   -0.0002
          14   -0.0071    0.0249    0.0787    0.1285   -0.0000    0.0000   -0.0000    0.0007
          15    0.0000   -0.0000   -0.0000   -0.0001   -0.0001   -0.0001    0.0000   -0.0000
          16   -0.0983   -0.0631    0.0276   -0.0131    0.0000   -0.0000    0.0042   -0.0033
          17    0.1183    0.0775   -0.0388    0.0188   -0.0000   -0.0000    0.0020   -0.0010
          18   -0.0000    0.0000   -0.0000    0.0000   -0.0001    0.0000    0.0000   -0.0000
          19    0.0472   -0.0767   -0.0109   -0.0120   -0.0000   -0.0000    0.0002    0.0000
          20    0.0726   -0.1266   -0.0034    0.0205   -0.0000   -0.0000    0.0001    0.0002
          21   -0.0000    0.0000    0.0000   -0.0000   -0.0001   -0.0002   -0.0000   -0.0000
          22   -0.0433   -0.0202   -0.0407    0.0282    0.0000    0.0000   -0.0002    0.0007
          23   -0.0361   -0.0233   -0.1188    0.0843    0.0000    0.0000   -0.0001   -0.0005
          24   -0.0000   -0.0000   -0.0000    0.0000    0.0001   -0.0001    0.0000    0.0000
          25    0.1368    0.0844   -0.0263    0.0116   -0.0000   -0.0000    0.0003    0.0006
          26   -0.0821   -0.0520    0.0334   -0.0174    0.0000    0.0000   -0.0001    0.0028
          27    0.0000    0.0000   -0.0000   -0.0000   -0.0003   -0.0001    0.0000    0.0000
          28    0.0002   -0.0111   -0.0552   -0.0844   -0.0000   -0.0000    0.0000   -0.0000
          29    0.0028   -0.0167   -0.0629   -0.0963    0.0000   -0.0000   -0.0000   -0.0001
          30   -0.0000    0.0000    0.0000    0.0000    0.0000   -0.0001   -0.0000    0.0000
          31    0.0003    0.0002    0.0079    0.0074    0.0002   -0.2579    0.0004    0.2105
          32    0.0036    0.0047    0.0217    0.0026   -0.0001    0.1213   -0.0002   -0.0990
          33   -0.0020    0.0049    0.0014   -0.0033   -0.0003    0.3705   -0.0007   -0.3569
          34    0.0003    0.0002    0.0079    0.0074   -0.0002    0.2579    0.0004    0.2103
          35    0.0036    0.0047    0.0217    0.0026    0.0001   -0.1210   -0.0002   -0.0987
          36    0.0020   -0.0049   -0.0015    0.0033   -0.0003    0.3709    0.0007    0.3570
          37   -0.0085    0.0069   -0.0032    0.0017   -0.2141   -0.0002    0.1814    0.0005
          38   -0.0318    0.0083    0.0009   -0.0031    0.1911    0.0001   -0.1615   -0.0007
          39   -0.0008    0.0023    0.0019   -0.0033    0.3692    0.0003   -0.3746   -0.0013
          40   -0.0086    0.0069   -0.0032    0.0017    0.2141    0.0002    0.1819    0.0005
          41   -0.0319    0.0083    0.0009   -0.0031   -0.1912   -0.0001   -0.1620   -0.0007
          42    0.0008   -0.0023   -0.0018    0.0033    0.3685    0.0003    0.3747    0.0013
          43   -0.0657   -0.0479    0.0168   -0.0065   -0.0000    0.0000   -0.0490    0.0392
          44   -0.0611   -0.0313    0.0237   -0.0141   -0.0000    0.0000   -0.0119    0.0124
          45   -0.0000   -0.0000    0.0000   -0.0000   -0.0016    0.0001   -0.0000    0.0000
          46   -0.0518    0.0869    0.0126   -0.0040    0.0000   -0.0000   -0.0015    0.0041
          47    0.0372   -0.0729    0.0089    0.0386   -0.0000    0.0000    0.0021   -0.0071
          48   -0.0000    0.0000   -0.0000   -0.0000    0.0002   -0.0001   -0.0000    0.0000
          49   -0.0127   -0.0087    0.0833   -0.0556    0.0000   -0.0000   -0.0001   -0.0076
          50   -0.0141   -0.0204   -0.0267    0.0252   -0.0000    0.0000    0.0002    0.0074
          51    0.0000   -0.0000    0.0000   -0.0000    0.0000    0.0004   -0.0000   -0.0000
          52   -0.0440   -0.0246    0.0427   -0.0268    0.0000   -0.0000   -0.0001   -0.0071
          53   -0.0684   -0.0449    0.0252   -0.0119    0.0000   -0.0000   -0.0034   -0.0338
          54   -0.0000   -0.0000    0.0000   -0.0000   -0.0007    0.0000   -0.0000   -0.0000
          55   -0.0011   -0.0087   -0.0548   -0.0859   -0.0000   -0.0000    0.0005   -0.0013
          56   -0.0020    0.0102    0.0311    0.0437    0.0000    0.0000   -0.0001    0.0007
          57    0.0000   -0.0000   -0.0000   -0.0000    0.0001    0.0005    0.0000   -0.0000
          58   -0.0004    0.0097    0.0396    0.0571    0.0000    0.0000   -0.0002    0.0002
          59    0.0034   -0.0142   -0.0483   -0.0767   -0.0000   -0.0000    0.0005   -0.0004
          60   -0.0000    0.0000    0.0000    0.0000   -0.0000   -0.0009   -0.0000    0.0000


   Root No.      49        50        51        52        53        54

                49 A      50 A      51 A      52 A      53 A      54 A   

                3048.6    3065.8    3078.5    3129.1    3142.4    3147.7
  
           1    0.0030   -0.0001    0.0001   -0.0014    0.0000   -0.0003
           2   -0.0014    0.0001   -0.0004    0.0008    0.0001   -0.0004
           3    0.0000   -0.0000    0.0000   -0.0000   -0.0000    0.0000
           4   -0.0016   -0.0016   -0.0007   -0.0001    0.0001    0.0000
           5    0.0012    0.0014    0.0006   -0.0005   -0.0000   -0.0000
           6   -0.0000   -0.0000   -0.0000   -0.0000   -0.0000    0.0000
           7   -0.0001   -0.0001    0.0014   -0.0001   -0.0000    0.0000
           8    0.0000   -0.0013    0.0038    0.0017   -0.0001   -0.0000
           9   -0.0000    0.0000   -0.0000   -0.0000    0.0000    0.0000
          10    0.0002    0.0002    0.0001    0.0034   -0.0003   -0.0000
          11    0.0004    0.0001    0.0007    0.0052   -0.0004   -0.0001
          12   -0.0000    0.0000   -0.0000   -0.0000    0.0000    0.0000
          13    0.0000    0.0000   -0.0001   -0.0011    0.0042    0.0002
          14   -0.0001    0.0000   -0.0000   -0.0004    0.0048    0.0011
          15    0.0000   -0.0000   -0.0000    0.0000   -0.0000   -0.0000
          16   -0.0329   -0.0283   -0.0123   -0.0001    0.0001    0.0000
          17   -0.0098   -0.0050   -0.0015    0.0000    0.0000    0.0000
          18   -0.0000   -0.0000   -0.0000    0.0000    0.0000   -0.0000
          19   -0.0000    0.0000   -0.0001    0.0316   -0.0009    0.0004
          20   -0.0001   -0.0000   -0.0001   -0.0681    0.0025    0.0005
          21    0.0000    0.0000    0.0000    0.0000   -0.0000   -0.0000
          22    0.0031   -0.0125    0.0317   -0.0001   -0.0001   -0.0000
          23   -0.0035    0.0147   -0.0351   -0.0005    0.0001    0.0000
          24    0.0000   -0.0000    0.0000    0.0000    0.0000    0.0000
          25    0.0065   -0.0027   -0.0030    0.0001    0.0000    0.0000
          26    0.0286   -0.0307   -0.0209    0.0000    0.0001    0.0000
          27    0.0000   -0.0000   -0.0000    0.0000    0.0000    0.0000
          28   -0.0000   -0.0000   -0.0001   -0.0012   -0.0233   -0.0535
          29   -0.0000   -0.0000   -0.0001   -0.0021   -0.0402    0.0374
          30   -0.0000   -0.0000    0.0000    0.0000    0.0000   -0.0000
          31   -0.0176    0.0006   -0.0019    0.0036    0.0004    0.0001
          32    0.0083   -0.0002    0.0007   -0.0015   -0.0001   -0.0005
          33    0.0298   -0.0009    0.0029   -0.0062   -0.0005   -0.0005
          34   -0.0176    0.0006   -0.0019    0.0036    0.0004    0.0001
          35    0.0083   -0.0002    0.0007   -0.0015   -0.0001   -0.0005
          36   -0.0298    0.0009   -0.0029    0.0062    0.0005    0.0005
          37    0.0081    0.0073    0.0030   -0.0011   -0.0001   -0.0000
          38   -0.0099   -0.0084   -0.0034    0.0008    0.0002    0.0000
          39   -0.0188   -0.0164   -0.0067    0.0019    0.0004    0.0000
          40    0.0081    0.0073    0.0030   -0.0011   -0.0001   -0.0000
          41   -0.0100   -0.0084   -0.0034    0.0008    0.0002    0.0000
          42    0.0188    0.0164    0.0067   -0.0019   -0.0004   -0.0000
          43    0.3866    0.3026    0.1203    0.0001   -0.0007   -0.0001
          44    0.1230    0.0924    0.0364    0.0000   -0.0002   -0.0000
          45    0.0001    0.0001    0.0000    0.0000   -0.0000   -0.0000
          46   -0.0002   -0.0002    0.0004   -0.3916    0.0130    0.0014
          47    0.0003    0.0004   -0.0007    0.7378   -0.0255   -0.0011
          48   -0.0000   -0.0000    0.0000   -0.0003    0.0000    0.0000
          49   -0.0359    0.1555   -0.3751   -0.0005    0.0013    0.0002
          50    0.0390   -0.1593    0.3758    0.0005   -0.0013   -0.0002
          51   -0.0000    0.0000   -0.0001   -0.0000    0.0000   -0.0000
          52   -0.0716    0.0640    0.0481   -0.0001   -0.0001   -0.0000
          53   -0.3419    0.3299    0.2241   -0.0004   -0.0007   -0.0001
          54   -0.0001    0.0001    0.0001   -0.0000   -0.0000   -0.0000
          55    0.0003    0.0001    0.0014    0.0250    0.3859    0.5261
          56   -0.0001   -0.0000   -0.0002   -0.0042   -0.0704   -0.0730
          57    0.0000   -0.0000    0.0000    0.0000    0.0000    0.0001
          58   -0.0001   -0.0000   -0.0004   -0.0079   -0.1585    0.1052
          59    0.0002    0.0001    0.0013    0.0282    0.4922   -0.3831
          60   -0.0000   -0.0000   -0.0000   -0.0000   -0.0002    0.0002


           MASS-WEIGHTED COORDINATE ANALYSIS (NORMAL COORDINATES)


   Root No.       1         2         3         4         5         6         7         8

                 1 A       2 A       3 A       4 A       5 A       6 A       7 A       8 A   

                  74.7     151.3     187.9     277.0     323.6     424.8     462.4     482.9
  
           1    0.0000    0.0000    0.0001   -0.1878    0.0000   -0.0000   -0.0626   -0.0460
           2   -0.0001   -0.0000   -0.0002    0.1010   -0.0001    0.0001   -0.2958   -0.1749
           3   -0.3950   -0.0092   -0.3789   -0.0002   -0.1166    0.0355    0.0001    0.0000
           4   -0.0000   -0.0001    0.0000   -0.1279   -0.0002    0.0000   -0.1066   -0.1198
           5    0.0000    0.0000   -0.0000   -0.1276    0.0001   -0.0000   -0.0477    0.3103
           6   -0.2428   -0.3972    0.0563    0.0002   -0.1126    0.0133    0.0000    0.0001
           7    0.0000   -0.0000    0.0000   -0.1734   -0.0001    0.0000   -0.2833   -0.0087
           8   -0.0001    0.0000   -0.0000    0.1959    0.0002   -0.0000    0.1965   -0.0081
           9   -0.2261   -0.0545    0.1311   -0.0001    0.5244   -0.0179    0.0000   -0.0005
          10    0.0000   -0.0000    0.0000   -0.1845   -0.0001    0.0000   -0.1535   -0.1042
          11   -0.0000    0.0001   -0.0000    0.1838    0.0001    0.0000    0.3160   -0.0333
          12   -0.1958    0.1167    0.1114   -0.0001    0.5032    0.2191   -0.0002   -0.0000
          13    0.0000    0.0000   -0.0000   -0.1046   -0.0001   -0.0000    0.2946   -0.2134
          14    0.0000    0.0001   -0.0000    0.0949   -0.0001    0.0000   -0.2540   -0.2729
          15    0.0043    0.1808   -0.0533   -0.0001   -0.1612   -0.0697    0.0002   -0.0004
          16   -0.0001    0.0000    0.0001    0.0993    0.0001    0.0000    0.1082    0.2893
          17   -0.0001   -0.0001    0.0001   -0.1899    0.0000    0.0001   -0.1434    0.2923
          18    0.2355   -0.0063   -0.4441   -0.0000    0.0619   -0.3758   -0.0000   -0.0000
          19    0.0000    0.0000   -0.0000   -0.1232   -0.0001   -0.0000    0.2737   -0.1597
          20    0.0000    0.0002    0.0000    0.1866   -0.0002   -0.0000    0.1284   -0.0601
          21   -0.0720    0.5655    0.1640    0.0000   -0.1734   -0.0358   -0.0001    0.0001
          22   -0.0000    0.0001   -0.0001    0.0875    0.0002    0.0000   -0.0271    0.3384
          23   -0.0000    0.0000    0.0000    0.1461    0.0001   -0.0000    0.1597   -0.0433
          24    0.0284   -0.0526    0.4876    0.0001   -0.1295   -0.3186   -0.0001    0.0001
          25   -0.0001    0.0000   -0.0000    0.1833    0.0002   -0.0002    0.1116    0.2990
          26   -0.0001   -0.0001    0.0000   -0.0979    0.0001   -0.0001   -0.1392    0.2779
          27    0.3428    0.1228    0.0203    0.0000   -0.1531    0.4979    0.0001    0.0001
          28    0.0000   -0.0000   -0.0001    0.4233    0.0000    0.0001   -0.1213   -0.2614
          29    0.0003   -0.0002    0.0001   -0.3652   -0.0001    0.0000    0.1096   -0.2917
          30    0.4844   -0.3341   -0.0060    0.0002    0.0479    0.0214   -0.0001    0.0003
          31   -0.0680   -0.0048   -0.1434   -0.0574   -0.1521    0.0577   -0.0533   -0.0118
          32    0.0598    0.0296    0.0373    0.0196   -0.0250   -0.0251   -0.1630   -0.0531
          33   -0.1796   -0.0151   -0.2197    0.0001   -0.1305    0.0588    0.0005    0.0007
          34    0.0681    0.0048    0.1435   -0.0574    0.1522   -0.0578   -0.0531   -0.0123
          35   -0.0600   -0.0296   -0.0374    0.0196    0.0249    0.0252   -0.1630   -0.0529
          36   -0.1795   -0.0151   -0.2196   -0.0003   -0.1304    0.0588   -0.0005   -0.0002
          37   -0.0357   -0.1369    0.0196   -0.0652   -0.1753    0.0141   -0.0676   -0.0371
          38    0.0933    0.1033   -0.1077   -0.0698    0.0946   -0.1488   -0.0572    0.0939
          39   -0.1377   -0.2457    0.0823    0.0003   -0.1822    0.0896    0.0003   -0.0024
          40    0.0357    0.1367   -0.0195   -0.0654    0.1750   -0.0141   -0.0679   -0.0369
          41   -0.0932   -0.1032    0.1076   -0.0697   -0.0945    0.1487   -0.0571    0.0938
          42   -0.1378   -0.2459    0.0824   -0.0000   -0.1824    0.0897   -0.0001    0.0023
          43   -0.0000    0.0000    0.0001    0.0405    0.0000    0.0000    0.0389    0.1022
          44   -0.0000   -0.0001    0.0001   -0.0940   -0.0001    0.0001   -0.0674    0.0244
          45    0.1404    0.0397   -0.3219   -0.0000    0.0644   -0.2447    0.0000   -0.0002
          46    0.0000    0.0000   -0.0000   -0.0187   -0.0000   -0.0000    0.2065   -0.0292
          47    0.0000    0.0001    0.0000    0.0623   -0.0001   -0.0000    0.1052   -0.0091
          48    0.0022    0.2795    0.0825    0.0001   -0.2317   -0.0812   -0.0001    0.0003
          49   -0.0000    0.0000   -0.0001    0.0775    0.0001    0.0001    0.0630    0.1098
          50   -0.0000    0.0000    0.0000    0.0939    0.0000   -0.0000    0.1162    0.0011
          51    0.0139   -0.0363    0.2441    0.0001   -0.2152   -0.3439   -0.0001    0.0001
          52   -0.0001    0.0000    0.0000    0.0981    0.0001   -0.0001    0.0758    0.0378
          53   -0.0000   -0.0000    0.0000   -0.0371    0.0000   -0.0001   -0.0484    0.0906
          54    0.1995    0.1124   -0.0435   -0.0000   -0.0849    0.4379    0.0001   -0.0000
          55    0.0000    0.0000   -0.0000    0.0937    0.0000    0.0000   -0.0049   -0.0771
          56    0.0001   -0.0001    0.0000   -0.3177   -0.0001   -0.0000    0.2601   -0.0845
          57    0.1719   -0.2481   -0.0614    0.0001    0.0618    0.0282   -0.0002    0.0001
          58    0.0000   -0.0000   -0.0001    0.3270    0.0000    0.0001   -0.2538   -0.0928
          59    0.0001   -0.0000    0.0001   -0.0475   -0.0000    0.0000   -0.0293   -0.0907
          60    0.2322   -0.0806    0.0703    0.0000    0.0263    0.0125    0.0000    0.0003


   Root No.       9        10        11        12        13        14        15        16

                 9 A      10 A      11 A      12 A      13 A      14 A      15 A      16 A   

                 488.8     573.0     609.5     636.4     652.8     748.7     835.1     843.2
  
           1    0.0001   -0.3698    0.0001    0.0002    0.2208   -0.0001   -0.4034   -0.0019
           2   -0.0001   -0.0164   -0.0000   -0.0001   -0.0852   -0.0000   -0.0951   -0.0004
           3    0.0175   -0.0000    0.0437    0.0599   -0.0001   -0.0181   -0.0012    0.2537
           4    0.0000    0.3514    0.0002    0.0006    0.3946   -0.0001    0.2937    0.0014
           5    0.0002    0.1372   -0.0001   -0.0002   -0.1657    0.0001   -0.2651   -0.0013
           6   -0.0274   -0.0000   -0.0946   -0.1441    0.0001   -0.1357   -0.0015    0.3354
           7    0.0001   -0.2338    0.0001    0.0002    0.1609   -0.0000   -0.0983   -0.0005
           8    0.0000   -0.2075    0.0001    0.0002    0.1781   -0.0001   -0.0309   -0.0000
           9    0.1474    0.0002    0.3028    0.4282   -0.0008   -0.0847   -0.0000   -0.0058
          10   -0.0000    0.1723    0.0001    0.0003    0.1939   -0.0000    0.1373    0.0006
          11   -0.0001    0.1543   -0.0000    0.0001    0.1630    0.0000   -0.0367   -0.0003
          12   -0.2017    0.0001   -0.2468   -0.3518    0.0007    0.2454    0.0005   -0.0688
          13   -0.0003   -0.1014   -0.0002   -0.0004   -0.2415    0.0000    0.0225    0.0001
          14    0.0001    0.1145   -0.0001   -0.0004   -0.2183    0.0000    0.0295    0.0001
          15    0.6597    0.0000   -0.0176   -0.2940    0.0003   -0.0147    0.0001   -0.0311
          16    0.0001    0.3708   -0.0001   -0.0001   -0.0695    0.0001   -0.3614   -0.0016
          17    0.0003    0.1272    0.0000   -0.0000   -0.0705    0.0001   -0.0744   -0.0003
          18    0.0026    0.0001    0.0175   -0.0076   -0.0000   -0.1768    0.0003   -0.0761
          19   -0.0002   -0.0192   -0.0001   -0.0002   -0.1537    0.0000    0.0133    0.0000
          20   -0.0001    0.2488    0.0001    0.0004    0.2811   -0.0001    0.0551    0.0001
          21   -0.1559   -0.0001   -0.0036    0.1854   -0.0003    0.0340    0.0011   -0.2586
          22    0.0003   -0.0666   -0.0000   -0.0002   -0.1901    0.0001    0.2384    0.0010
          23    0.0000   -0.3154    0.0001    0.0003    0.2871   -0.0001   -0.0371   -0.0000
          24   -0.1020    0.0000   -0.0464   -0.0827    0.0001   -0.0102    0.0011   -0.2335
          25    0.0002   -0.0439   -0.0000   -0.0001   -0.0941    0.0001    0.1228    0.0005
          26    0.0003   -0.3413    0.0001    0.0000   -0.0532    0.0001    0.4823    0.0021
          27    0.0381   -0.0001   -0.0207   -0.0292   -0.0000   -0.2559    0.0004   -0.0722
          28   -0.0003   -0.0339   -0.0002   -0.0004   -0.2803    0.0000    0.0521    0.0003
          29   -0.0004    0.0608   -0.0002   -0.0004   -0.3000    0.0000    0.0209    0.0001
          30   -0.1345   -0.0000    0.0113    0.0163    0.0001    0.0010    0.0000   -0.0061
          31   -0.2182   -0.1169   -0.0339   -0.1472    0.0855    0.0142   -0.1761   -0.2108
          32    0.1967   -0.0061   -0.0815   -0.0836    0.0039    0.0032   -0.1085    0.0552
          33   -0.2114   -0.0043    0.0167   -0.0585    0.0038    0.0034   -0.0121   -0.0924
          34    0.2184   -0.1168    0.0339    0.1475    0.0850   -0.0143   -0.1781    0.2092
          35   -0.1969   -0.0061    0.0816    0.0837    0.0037   -0.0032   -0.1081   -0.0564
[...]
 REDUCED MASS        0.6529         C  1 -- C  5          +7.2% ( 35.6%)     95.7%
 EFFECTIVE MASS      6.4315
 FORCE CONSTANT      0.7080

 VIBRATION         37   37A           ATOM PAIR      ENERGY CONTRIBUTION    RADIAL
 FREQUENCY          1377.36         C  2 -- H 14         +10.8% ( 46.0%)      1.3%
 TRANSITION DIPOLE   0.0893         C  2 -- H 13         +10.8% ( 46.0%)      1.3%
 TRAVEL (Ang.)       0.2392         C  2 -- C  4         +10.1% ( 44.4%)     92.5%
 REDUCED MASS        0.8555         C  2 -- C  6          +9.6% ( 43.4%)     27.9%
 EFFECTIVE MASS      7.2006
 FORCE CONSTANT      0.9562

 VIBRATION         38   38A           ATOM PAIR      ENERGY CONTRIBUTION    RADIAL
 FREQUENCY          1396.18         C  1 -- C  5         +19.9% ( 64.5%)     51.5%
 TRANSITION DIPOLE   0.1403         C  5 -- C  7         +19.5% ( 63.8%)     83.7%
 TRAVEL (Ang.)       0.1620         C  5 -- C 10         +10.7% ( 47.3%)      0.8%
 REDUCED MASS        1.8398         C  1 -- H 12          +9.3% ( 44.0%)      9.2%
 EFFECTIVE MASS      9.3164
 FORCE CONSTANT      2.1130

 VIBRATION         39   39A           ATOM PAIR      ENERGY CONTRIBUTION    RADIAL
 FREQUENCY          1430.94         C  8 -- C  9         +14.0% ( 56.6%)     99.9%
 TRANSITION DIPOLE   0.2665         C  2 -- C  6         +10.7% ( 49.3%)     99.0%
 TRAVEL (Ang.)       0.2009         C  6 -- C  9          +9.4% ( 46.2%)      0.0%
 REDUCED MASS        1.1677         C  9 -- H 18          +7.6% ( 41.7%)      6.8%
 EFFECTIVE MASS     10.5447
 FORCE CONSTANT      1.4088

 VIBRATION         40   40A           ATOM PAIR      ENERGY CONTRIBUTION    RADIAL
 FREQUENCY          1513.20         C  3 -- C  4         +26.3% ( 77.7%)     94.8%
 TRANSITION DIPOLE   0.1471         C  2 -- C  4         +19.3% ( 66.6%)     77.7%
 TRAVEL (Ang.)       0.1180         C  4 -- C  7         +14.7% ( 58.2%)     12.7%
 REDUCED MASS        3.2017         C  3 -- C  8          +7.8% ( 42.3%)      0.0%
 EFFECTIVE MASS     11.5910
 FORCE CONSTANT      4.3194

 VIBRATION         41   41A           ATOM PAIR      ENERGY CONTRIBUTION    RADIAL
 FREQUENCY          1826.87         C  6 -- C  9         +28.8% ( 80.3%)     99.9%
 TRANSITION DIPOLE   0.5784         C  4 -- C  7         +11.6% ( 50.9%)     96.5%
 TRAVEL (Ang.)       0.1136         C  8 -- C  9         +11.1% ( 49.9%)     74.8%
 REDUCED MASS        2.8618         C  9 -- H 18          +8.9% ( 44.7%)      3.8%
 EFFECTIVE MASS     11.9006
 FORCE CONSTANT      5.6273

 VIBRATION         42   42A           ATOM PAIR      ENERGY CONTRIBUTION    RADIAL
 FREQUENCY          1846.17         C  4 -- C  7         +30.2% ( 81.9%)     97.8%
 TRANSITION DIPOLE   0.3187         C  2 -- C  4         +13.9% ( 55.5%)     62.2%
 TRAVEL (Ang.)       0.1071         C  3 -- C  4         +11.8% ( 51.2%)      1.5%
 REDUCED MASS        3.1816         C  6 -- C  9         +10.9% ( 49.2%)    100.0%
 EFFECTIVE MASS     11.9434
 FORCE CONSTANT      6.3890

 VIBRATION         43   43A           ATOM PAIR      ENERGY CONTRIBUTION    RADIAL
 FREQUENCY          1888.98         C  3 -- C  8         +26.8% ( 77.3%)     99.6%
 TRANSITION DIPOLE   0.6304         C  5 -- C 10         +13.5% ( 54.8%)    100.0%
 TRAVEL (Ang.)       0.1140         C  1 -- C  3         +11.5% ( 50.7%)     49.2%
 REDUCED MASS        2.7487         C  3 -- C  4         +11.1% ( 49.8%)     28.6%
 EFFECTIVE MASS     11.8731
 FORCE CONSTANT      5.7787

 VIBRATION         44   44A           ATOM PAIR      ENERGY CONTRIBUTION    RADIAL
 FREQUENCY          1918.19         C  5 -- C 10         +30.0% ( 80.7%)    100.0%
 TRANSITION DIPOLE   0.2684         C  5 -- C  7         +12.9% ( 53.0%)     50.6%
 TRAVEL (Ang.)       0.1047         C  3 -- C  8         +12.9% ( 52.8%)     99.8%
 REDUCED MASS        3.2047         C  1 -- C  5         +12.7% ( 52.6%)     39.8%
 EFFECTIVE MASS     11.9148
 FORCE CONSTANT      6.9475

 VIBRATION         45   45A           ATOM PAIR      ENERGY CONTRIBUTION    RADIAL
 FREQUENCY          2926.95         C  2 -- H 13         +49.0% ( 72.6%)     96.5%
 TRANSITION DIPOLE   0.0766         C  2 -- H 14         +48.9% ( 72.5%)     96.5%
 TRAVEL (Ang.)       0.2110         C  2 -- C  4          +1.1% ( 10.8%)      0.0%
 REDUCED MASS        0.5175         C  2 -- C  6          +1.1% ( 10.8%)      0.0%
 EFFECTIVE MASS      1.5343
 FORCE CONSTANT      2.6121

 VIBRATION         46   46A           ATOM PAIR      ENERGY CONTRIBUTION    RADIAL
 FREQUENCY          2977.39         C  1 -- H 12         +48.9% ( 72.5%)     96.7%
 TRANSITION DIPOLE   0.0911         C  1 -- H 11         +48.9% ( 72.5%)     96.7%
 TRAVEL (Ang.)       0.2090         C  1 -- C  5          +1.1% ( 10.8%)      0.0%
 REDUCED MASS        0.5183         C  1 -- C  3          +1.1% ( 10.8%)      0.0%
 EFFECTIVE MASS      1.5380
 FORCE CONSTANT      2.7069

 VIBRATION         47   47A           ATOM PAIR      ENERGY CONTRIBUTION    RADIAL
 FREQUENCY          3006.74         C  2 -- H 14         +49.0% ( 69.0%)     97.8%
 TRANSITION DIPOLE   0.1385         C  2 -- H 13         +48.9% ( 68.9%)     97.8%
 TRAVEL (Ang.)       0.2167         C  6 -- H 15          +0.7% (  8.3%)    100.0%
 REDUCED MASS        0.4777         C  2 -- C  6          +0.7% (  8.1%)     20.4%
 EFFECTIVE MASS      1.2801
 FORCE CONSTANT      2.5447

 VIBRATION         48   48A           ATOM PAIR      ENERGY CONTRIBUTION    RADIAL
 FREQUENCY          3047.86         C  1 -- H 11         +48.9% ( 69.1%)     97.4%
 TRANSITION DIPOLE   0.1749         C  1 -- H 12         +48.8% ( 69.0%)     97.4%
 TRAVEL (Ang.)       0.2156         C  1 -- C  3          +0.7% (  8.3%)     37.3%
 REDUCED MASS        0.4759         C  1 -- C  5          +0.7% (  8.3%)     36.5%
 EFFECTIVE MASS      1.2856
 FORCE CONSTANT      2.6050

 VIBRATION         49   49A           ATOM PAIR      ENERGY CONTRIBUTION    RADIAL
 FREQUENCY          3048.59         C  6 -- H 15         +54.8% ( 75.1%)    100.0%
 TRANSITION DIPOLE   0.2628         C  9 -- H 18         +40.7% ( 64.7%)    100.0%
 TRAVEL (Ang.)       0.2204         C  6 -- C  9          +1.1% ( 10.7%)      0.3%
 REDUCED MASS        0.4552         C  8 -- H 17          +1.0% (  9.9%)     99.8%
 EFFECTIVE MASS      1.4642
 FORCE CONSTANT      2.4926

 VIBRATION         50   50A           ATOM PAIR      ENERGY CONTRIBUTION    RADIAL
 FREQUENCY          3065.78         C  9 -- H 18         +41.5% ( 65.4%)     99.9%
 TRANSITION DIPOLE   0.2961         C  6 -- H 15         +36.6% ( 61.5%)     99.9%
 TRAVEL (Ang.)       0.2545         C  8 -- H 17         +18.2% ( 43.3%)     99.9%
 REDUCED MASS        0.3396         C  6 -- C  9          +1.6% ( 12.8%)     99.8%
 EFFECTIVE MASS      1.5627
 FORCE CONSTANT      1.8804

 VIBRATION         51   51A           ATOM PAIR      ENERGY CONTRIBUTION    RADIAL
 FREQUENCY          3078.45         C  8 -- H 17         +77.8% ( 89.5%)    100.0%
 TRANSITION DIPOLE   0.4684         C  9 -- H 18         +14.4% ( 38.5%)    100.0%
 TRAVEL (Ang.)       0.1875         C  6 -- H 15          +4.4% ( 21.2%)     99.8%
 REDUCED MASS        0.6229         C  8 -- C  9          +1.5% ( 12.3%)     62.1%
 EFFECTIVE MASS      1.5577
 FORCE CONSTANT      3.4780

 VIBRATION         52   52A           ATOM PAIR      ENERGY CONTRIBUTION    RADIAL
 FREQUENCY          3129.11         C  7 -- H 16         +96.3% ( 99.8%)    100.0%
 TRANSITION DIPOLE   0.4280         C  4 -- C  7          +1.8% ( 13.7%)     48.4%
 TRAVEL (Ang.)       0.1526         C  5 -- C  7          +1.7% ( 13.2%)     26.2%
 REDUCED MASS        0.9258         C 10 -- H 20          +0.1% (  3.4%)     96.7%
 EFFECTIVE MASS      1.5601
 FORCE CONSTANT      5.3411

 VIBRATION         53   53A           ATOM PAIR      ENERGY CONTRIBUTION    RADIAL
 FREQUENCY          3142.40         C 10 -- H 20         +62.7% ( 79.2%)     97.2%
 TRANSITION DIPOLE   0.4119         C 10 -- H 19         +35.5% ( 59.6%)     91.7%
 TRAVEL (Ang.)       0.2038         C  5 -- C 10          +1.5% ( 12.3%)     97.3%
 REDUCED MASS        0.5166         C  7 -- H 16          +0.2% (  4.5%)     99.8%
 EFFECTIVE MASS      1.3893
 FORCE CONSTANT      3.0058

 VIBRATION         54   54A           ATOM PAIR      ENERGY CONTRIBUTION    RADIAL
 FREQUENCY          3147.66         C 10 -- H 19         +62.3% ( 80.9%)     98.3%
 TRANSITION DIPOLE   0.2044         C 10 -- H 20         +36.4% ( 61.8%)     95.0%
 TRAVEL (Ang.)       0.1946         C  5 -- C 10          +1.3% ( 11.7%)      1.5%
 REDUCED MASS        0.5659
 EFFECTIVE MASS      1.6023
 FORCE CONSTANT      3.3033

      SYMMETRY NUMBER FOR POINT-GROUP C1  =  1


          SYSTEM IS A GROUND STATE



 InChI=1S/C10H10/c1-8-6-9-4-2-3-5-10(9)7-8/h2-4,7H,1,5-6H2


          MOLECULE IS NOT LINEAR

          THERE ARE 54 GENUINE VIBRATIONS IN THIS SYSTEM
          THIS THERMODYNAMICS CALCULATION IS LIMITED TO
          MOLECULES WHICH HAVE NO INTERNAL ROTATIONS




                    CALCULATED THERMODYNAMIC PROPERTIES
                                          *
   TEMP. (K)   PARTITION FUNCTION   H.O.F.    ENTHALPY  HEAT CAPACITY ENTROPY
                                   KCAL/MOL   CAL/MOLE    CAL/K/MOL  CAL/K/MOL


 298.00  VIB.     0.4327D+02                  3333.6783    26.9636    18.6737
         ROT.     0.5249D+06                   888.2803     2.9808    29.1540
         INT.     0.2271D+08                  4221.9586    29.9444    47.8277
         TRA.     0.1436D+28                  1480.4672     4.9680    40.5022
         TOT.                       53.583    5702.4257    34.9124    88.3299

 200.00  VIB.     0.7794D+01                  1270.0670    15.3387    10.4307
         ROT.     0.2886D+06                   596.1613     2.9808    27.9654
         INT.     0.2249D+07                  1866.2283    18.3195    38.3960
         TRA.     0.7896D+27                   993.6021     4.9680    38.5210
         TOT.                       50.740    2859.8304    23.2875    76.9170

 210.00  VIB.     0.9159D+01                  1429.0132    16.4548    11.2059
         ROT.     0.3105D+06                   625.9693     2.9808    28.1108
         INT.     0.2844D+07                  2054.9825    19.4356    39.3167
         TRA.     0.8496D+27                  1043.2822     4.9680    38.7634
         TOT.                       50.979    3098.2647    24.4036    78.0801

 220.00  VIB.     0.1080D+02                  1599.2435    17.5951    11.9976
         ROT.     0.3329D+06                   655.7774     2.9808    28.2495
         INT.     0.3595D+07                  2255.0209    20.5759    40.2471
         TRA.     0.9110D+27                  1092.9623     4.9680    38.9945
         TOT.                       51.229    3347.9832    25.5439    79.2416

 230.00  VIB.     0.1277D+02                  1780.9852    18.7566    12.8053
         ROT.     0.3559D+06                   685.5855     2.9808    28.3820
         INT.     0.4545D+07                  2466.5707    21.7374    41.1873
         TRA.     0.9738D+27                  1142.6424     4.9680    39.2154
         TOT.                       51.490    3609.2132    26.7054    80.4027

 240.00  VIB.     0.1515D+02                  1974.4350    19.9361    13.6285
         ROT.     0.3793D+06                   715.3935     2.9808    28.5088
         INT.     0.5748D+07                  2689.8285    22.9169    42.1373
         TRA.     0.1038D+28                  1192.3226     4.9680    39.4268
         TOT.                       51.763    3882.1511    27.8849    81.5641

 250.00  VIB.     0.1803D+02                  2179.7565    21.1304    14.4665
         ROT.     0.4033D+06                   745.2016     2.9808    28.6305
         INT.     0.7273D+07                  2924.9581    24.1112    43.0970
         TRA.     0.1103D+28                  1242.0027     4.9680    39.6296
         TOT.                       52.048    4166.9608    29.0792    82.7266

 260.00  VIB.     0.2152D+02                  2397.0803    22.3360    15.3187
         ROT.     0.4277D+06                   775.0097     2.9808    28.7474
         INT.     0.9207D+07                  3172.0900    25.3168    44.0661
         TRA.     0.1170D+28                  1291.6828     4.9680    39.8245
         TOT.                       52.344    4463.7727    30.2848    83.8905

 270.00  VIB.     0.2577D+02                  2626.5031    23.5496    16.1844
         ROT.     0.4526D+06                   804.8177     2.9808    28.8599
         INT.     0.1166D+08                  3431.3209    26.5304    45.0443
         TRA.     0.1239D+28                  1341.3629     4.9680    40.0120
         TOT.                       52.653    4772.6837    31.4985    85.0562

 280.00  VIB.     0.3093D+02                  2868.0890    24.7681    17.0628
         ROT.     0.4780D+06                   834.6258     2.9808    28.9683
         INT.     0.1479D+08                  3702.7148    27.7489    46.0311
         TRA.     0.1308D+28                  1391.0430     4.9680    40.1926
         TOT.                       52.974    5093.7578    32.7169    86.2238

 290.00  VIB.     0.3723D+02                  3121.8701    25.9882    17.9533
         ROT.     0.5039D+06                   864.4339     2.9808    29.0729
         INT.     0.1876D+08                  3986.3040    28.9690    47.0262
         TRA.     0.1379D+28                  1440.7231     4.9680    40.3670
         TOT.                       53.308    5427.0271    33.9370    87.3931

 300.00  VIB.     0.4494D+02                  3387.8490    27.2071    18.8548
         ROT.     0.5301D+06                   894.2419     2.9808    29.1740
         INT.     0.2383D+08                  4282.0909    30.1879    48.0288
         TRA.     0.1451D+28                  1490.4032     4.9680    40.5354
         TOT.                       53.653    5772.4941    35.1560    88.5642

 310.00  VIB.     0.5438D+02                  3666.0000    28.4222    19.7668
         ROT.     0.5569D+06                   924.0500     2.9808    29.2717
         INT.     0.3028D+08                  4590.0499    31.4030    49.0385
         TRA.     0.1524D+28                  1540.0833     4.9680    40.6983
         TOT.                       54.011    6130.1332    36.3710    89.7368

 320.00  VIB.     0.6597D+02                  3956.2717    29.6309    20.6883
         ROT.     0.5840D+06                   953.8580     2.9808    29.3663
         INT.     0.3853D+08                  4910.1298    32.6117    50.0546
         TRA.     0.1598D+28                  1589.7634     4.9680    40.8560
         TOT.                       54.381    6499.8932    37.5797    90.9106

 330.00  VIB.     0.8023D+02                  4258.5897    30.8311    21.6185
         ROT.     0.6116D+06                   983.6661     2.9808    29.4581
         INT.     0.4907D+08                  5242.2558    33.8119    51.0765
         TRA.     0.1674D+28                  1639.4435     4.9680    41.0089
         TOT.                       54.762    6881.6993    38.7799    92.0854

 340.00  VIB.     0.9779D+02                  4572.8582    32.0207    22.5566
         ROT.     0.6396D+06                  1013.4742     2.9808    29.5471
         INT.     0.6255D+08                  5586.3324    35.0015    52.1036
         TRA.     0.1750D+28                  1689.1236     4.9680    41.1572
         TOT.                       55.156    7275.4560    39.9695    93.2608

 350.00  VIB.     0.1195D+03                  4898.9631    33.1981    23.5018
         ROT.     0.6681D+06                  1043.2822     2.9808    29.6335
         INT.     0.7981D+08                  5942.2454    36.1789    53.1352
         TRA.     0.1828D+28                  1738.8037     4.9680    41.3012
         TOT.                       55.562    7681.0491    41.1469    94.4364

 360.00  VIB.     0.1462D+03                  5236.7741    34.3617    24.4533
         ROT.     0.6969D+06                  1073.0903     2.9808    29.7174
         INT.     0.1019D+09                  6309.8644    37.3425    54.1708
         TRA.     0.1907D+28                  1788.4838     4.9680    41.4412
         TOT.                       55.979    8098.3482    42.3105    95.6119

 370.00  VIB.     0.1794D+03                  5586.1466    35.5102    25.4105
         ROT.     0.7261D+06                  1102.8984     2.9808    29.7991
         INT.     0.1303D+09                  6689.0450    38.4910    55.2096
         TRA.     0.1987D+28                  1838.1639     4.9680    41.5773
         TOT.                       56.408    8527.2089    43.4590    96.7869

 380.00  VIB.     0.2205D+03                  5946.9246    36.6426    26.3726
         ROT.     0.7558D+06                  1132.7064     2.9808    29.8786
         INT.     0.1666D+09                  7079.6310    39.6234    56.2512
         TRA.     0.2068D+28                  1887.8440     4.9680    41.7098
         TOT.                       56.848    8967.4750    44.5914    97.9609

 390.00  VIB.     0.2715D+03                  6318.9417    37.7579    27.3388
         ROT.     0.7858D+06                  1162.5145     2.9808    29.9560
         INT.     0.2134D+09                  7481.4562    40.7387    57.2949
         TRA.     0.2150D+28                  1937.5242     4.9680    41.8388
         TOT.                       57.300    9418.9803    45.7067    99.1337

 400.00  VIB.     0.3350D+03                  6702.0237    38.8555    28.3087
         ROT.     0.8162D+06                  1192.3226     2.9808    30.0315
         INT.     0.2734D+09                  7894.3463    41.8363    58.3402
         TRA.     0.2233D+28                  1987.2043     4.9680    41.9646
         TOT.                       57.762    9881.5506    46.8043   100.3048

   *: NOTE: HEATS OF FORMATION ARE RELATIVE TO THE
            ELEMENTS IN THEIR STANDARD STATE AT 298K
              (=  Standard Enthalpy of Formation).

            Hvib:  Zero-point energy is not included.
                   frequencies of less than zero cm-1 are not included.
            Hrot = (3/2)RT
            Htra = (3/2)RT + pV = (5/2)RT

            Heat capacity is Cp, not Cv

          For more information, see: HTTP://OpenMOPAC.net/Manual/thermochemistry.html


           FORCE CONSTANT IN CARTESIAN COORDINATES (Millidynes/A)

    ATOM   CHEMICAL       X               Y               Z
   NUMBER   SYMBOL  FORCE CONSTANT  FORCE CONSTANT  FORCE CONSTANT

      1       C        9.509472        8.131128        7.928613
      2       C        9.317378        9.086537        7.620223
      3       C        9.734455       16.299854        2.522155
      4       C       12.809404       13.454773        2.549782
      5       C       12.606524       13.040879        2.550566
      6       C       12.780797       11.629826        2.378948
      7       C       10.226260       14.962893        2.143025
      8       C       10.620394       14.660851        2.180362
      9       C       12.635357       12.543995        2.211487
     10       C       11.835027       12.651235        1.907004
     11       H        1.846208        0.914383        3.550678
     12       H        1.844484        0.912737        3.553885
     13       H        1.435376        1.269075        3.437366
     14       H        1.437635        1.271439        3.433243
     15       H        4.745111        1.158209        0.341400
     16       H        1.725239        4.343047        0.335616
     17       H        2.950020        2.976154        0.339452
     18       H        0.936684        4.967570        0.343111
     19       H        5.333061        0.775914        0.324421
     20       H        1.072613        5.038185        0.327748

 **********************
 *                    *
 * JOB ENDED NORMALLY *
 *                    *
 **********************



 TOTAL JOB TIME:             1.91 SECONDS

 == MOPAC DONE ==
