 *******************************************************************************
 **                                                                           **
 **                              MOPAC v23.1.2                                **
 **                                                                           **
 *******************************************************************************
 **          Digital Object Identifier (DOI): 10.5281/zenodo.6511958          **
 **    Visit the DOI location for information on how to cite this program.    **
 *******************************************************************************

                              PM3 CALCULATION RESULTS

 *******************************************************************************
 *  CALCULATION DONE: (MAX THREADS = 1)              Tue Jun  3 16:43:58 2025  *
 *  PM3        - The PM3 Hamiltonian to be used
 *  PRECISE    - TIGHTER CRITERIA TO BE USED
 *  NOSYM      - POINT-GROUP SYMMETRY SET TO C1
 *  THREADS=1  - MULTI-THREADING NOT USED
 *  T=         - A TIME OF 172800.0 SECONDS REQUESTED
 *  DUMP=N     - RESTART FILE WRITTEN EVERY 7200.0 SECONDS REQUESTED
 *******************************************************************************
pm3  precise nosym THREADS=1
 InChI=1S/C12H20/c1-3-5-7-11-9-10-12(11)8-6-4-2/h5-8,11-12H,3-4,9-10H2,1-2H3

   ATOM   CHEMICAL          X               Y               Z
  NUMBER   SYMBOL      (ANGSTROMS)     (ANGSTROMS)     (ANGSTROMS)

     1       C          0.82220000  *   1.23450000  *   0.84420000  *
     2       C         -0.34240000  *   1.67110000  *  -0.05350000  *
     3       C          1.06160000  *   2.69420000  *   1.23460000  *
     4       C         -0.10020000  *   3.12690000  *   0.34940000  *
     5       C          3.03710000  *  -1.26920000  *  -1.11260000  *
     6       C         -3.35810000  *  -0.67470000  *   0.58370000  *
     7       C          2.73660000  *  -2.71780000  *  -1.48360000  *
     8       C         -3.53720000  *  -2.13010000  *   0.16430000  *
     9       C          1.96360000  *   0.61710000  *   0.07250000  *
    10       C         -1.67530000  *   1.12820000  *   0.40250000  *
    11       C          1.90000000  *  -0.65430000  *  -0.34410000  *
    12       C         -2.03020000  *  -0.13420000  *   0.12960000  *
    13       H          0.51920000  *   0.61930000  *   1.72230000  *
    14       H         -0.16720000  *   1.51210000  *  -1.14230000  *
    15       H          2.03090000  *   3.11830000  *   0.89150000  *
    16       H          0.85850000  *   2.87960000  *   2.31210000  *
    17       H         -0.92240000  *   3.59410000  *   0.93500000  *
    18       H          0.23630000  *   3.74970000  *  -0.50830000  *
    19       H          3.21140000  *  -0.68590000  *  -2.04270000  *
    20       H          3.96040000  *  -1.23700000  *  -0.49450000  *
    21       H         -4.17560000  *  -0.06600000  *   0.14010000  *
    22       H         -3.42470000  *  -0.60620000  *   1.69120000  *
    23       H          1.82730000  *  -2.77170000  *  -2.11990000  *
    24       H          2.58050000  *  -3.32580000  *  -0.56680000  *
    25       H          3.59240000  *  -3.14180000  *  -2.04980000  *
    26       H         -4.52400000  *  -2.49940000  *   0.51470000  *
    27       H         -2.74100000  *  -2.76130000  *   0.61410000  *
    28       H         -3.49640000  *  -2.21990000  *  -0.94240000  *
    29       H          1.01730000  *  -1.24790000  *  -0.12090000  *
    30       H          2.85560000  *   1.20190000  *  -0.13740000  *
    31       H         -1.35100000  *  -0.77300000  *  -0.42900000  *
    32       H         -2.36490000  *   1.76920000  *   0.94600000  *



          CARTESIAN COORDINATES 

    NO.       ATOM           X           Y           Z

     1         C          0.8222      1.2345      0.8442
     2         C         -0.3424      1.6711     -0.0535
     3         C          1.0616      2.6942      1.2346
     4         C         -0.1002      3.1269      0.3494
     5         C          3.0371     -1.2692     -1.1126
     6         C         -3.3581     -0.6747      0.5837
     7         C          2.7366     -2.7178     -1.4836
     8         C         -3.5372     -2.1301      0.1643
     9         C          1.9636      0.6171      0.0725
    10         C         -1.6753      1.1282      0.4025
    11         C          1.9000     -0.6543     -0.3441
    12         C         -2.0302     -0.1342      0.1296
    13         H          0.5192      0.6193      1.7223
    14         H         -0.1672      1.5121     -1.1423
    15         H          2.0309      3.1183      0.8915
    16         H          0.8585      2.8796      2.3121
    17         H         -0.9224      3.5941      0.9350
    18         H          0.2363      3.7497     -0.5083
    19         H          3.2114     -0.6859     -2.0427
    20         H          3.9604     -1.2370     -0.4945
    21         H         -4.1756     -0.0660      0.1401
    22         H         -3.4247     -0.6062      1.6912
    23         H          1.8273     -2.7717     -2.1199
    24         H          2.5805     -3.3258     -0.5668
    25         H          3.5924     -3.1418     -2.0498
    26         H         -4.5240     -2.4994      0.5147
    27         H         -2.7410     -2.7613      0.6141
    28         H         -3.4964     -2.2199     -0.9424
    29         H          1.0173     -1.2479     -0.1209
    30         H          2.8556      1.2019     -0.1374
    31         H         -1.3510     -0.7730     -0.4290
    32         H         -2.3649      1.7692      0.9460

  H: (PM3): J. J. P. STEWART, J. COMP. CHEM. 10, 209 (1989).
  C: (PM3): J. J. P. STEWART, J. COMP. CHEM. 10, 209 (1989).

           Empirical Formula: C12 H20  =    32 atoms



      MOLECULAR POINT GROUP   :   C1  


      RHF CALCULATION, NO. OF DOUBLY OCCUPIED LEVELS = 34


          Geometry optimization using EF

          DIAGONAL MATRIX USED AS START HESSIAN

 CYCLE:     1 TIME:   0.012 TIME LEFT:  2.00D  GRAD.:    97.021 HEAT:  9.892900
 CYCLE:     2 TIME:   0.020 TIME LEFT:  2.00D  GRAD.:   114.806 HEAT:  8.828836
 CYCLE:     3 TIME:   0.016 TIME LEFT:  2.00D  GRAD.:    65.296 HEAT:  6.540889
 CYCLE:     4 TIME:   0.020 TIME LEFT:  2.00D  GRAD.:    35.645 HEAT:  5.756742
 CYCLE:     5 TIME:   0.012 TIME LEFT:  2.00D  GRAD.:    28.108 HEAT:  5.260076
 CYCLE:     6 TIME:   0.012 TIME LEFT:  2.00D  GRAD.:    34.970 HEAT:  4.906866
 CYCLE:     7 TIME:   0.008 TIME LEFT:  2.00D  GRAD.:    28.996 HEAT:  4.564768
 CYCLE:     8 TIME:   0.020 TIME LEFT:  2.00D  GRAD.:    25.455 HEAT:  4.428756
 CYCLE:     9 TIME:   0.016 TIME LEFT:  2.00D  GRAD.:    19.562 HEAT:  4.353851
 CYCLE:    10 TIME:   0.012 TIME LEFT:  2.00D  GRAD.:    12.263 HEAT:  4.312148
 CYCLE:    11 TIME:   0.012 TIME LEFT:  2.00D  GRAD.:    12.018 HEAT:  4.299227
 CYCLE:    12 TIME:   0.012 TIME LEFT:  2.00D  GRAD.:    11.313 HEAT:  4.285976
 CYCLE:    13 TIME:   0.008 TIME LEFT:  2.00D  GRAD.:    10.278 HEAT:  4.280300
 CYCLE:    14 TIME:   0.020 TIME LEFT:  2.00D  GRAD.:     4.054 HEAT:  4.252296
 CYCLE:    15 TIME:   0.016 TIME LEFT:  2.00D  GRAD.:     2.698 HEAT:  4.248390
 CYCLE:    16 TIME:   0.012 TIME LEFT:  2.00D  GRAD.:     7.201 HEAT:  4.257154
 CYCLE:    17 TIME:   0.012 TIME LEFT:  2.00D  GRAD.:     3.316 HEAT:  4.245775
 CYCLE:    18 TIME:   0.016 TIME LEFT:  2.00D  GRAD.:     3.962 HEAT:  4.246526
 CYCLE:    19 TIME:   0.012 TIME LEFT:  2.00D  GRAD.:     2.505 HEAT:  4.242535
 CYCLE:    20 TIME:   0.020 TIME LEFT:  2.00D  GRAD.:     3.545 HEAT:  4.243353
 CYCLE:    21 TIME:   0.008 TIME LEFT:  2.00D  GRAD.:     1.412 HEAT:  4.239719
 CYCLE:    22 TIME:   0.012 TIME LEFT:  2.00D  GRAD.:     3.769 HEAT:  4.242237
 CYCLE:    23 TIME:   0.012 TIME LEFT:  2.00D  GRAD.:     1.802 HEAT:  4.237834
 CYCLE:    24 TIME:   0.012 TIME LEFT:  2.00D  GRAD.:     5.177 HEAT:  4.243453
 CYCLE:    25 TIME:   0.012 TIME LEFT:  2.00D  GRAD.:     3.448 HEAT:  4.237910
 CYCLE:    26 TIME:   0.016 TIME LEFT:  2.00D  GRAD.:     4.311 HEAT:  4.239010
 CYCLE:    27 TIME:   0.012 TIME LEFT:  2.00D  GRAD.:     2.251 HEAT:  4.233736
 CYCLE:    28 TIME:   0.020 TIME LEFT:  2.00D  GRAD.:     4.417 HEAT:  4.236502
 CYCLE:    29 TIME:   0.008 TIME LEFT:  2.00D  GRAD.:     1.669 HEAT:  4.230610
 CYCLE:    30 TIME:   0.012 TIME LEFT:  2.00D  GRAD.:     3.768 HEAT:  4.231422
 CYCLE:    31 TIME:   0.012 TIME LEFT:  2.00D  GRAD.:     1.459 HEAT:  4.225937
 CYCLE:    32 TIME:   0.012 TIME LEFT:  2.00D  GRAD.:     2.322 HEAT:  4.221883
 CYCLE:    33 TIME:   0.012 TIME LEFT:  2.00D  GRAD.:     3.360 HEAT:  4.213688
 CYCLE:    34 TIME:   0.012 TIME LEFT:  2.00D  GRAD.:     4.510 HEAT:  4.205351
 CYCLE:    35 TIME:   0.012 TIME LEFT:  2.00D  GRAD.:     2.638 HEAT:  4.198291
 CYCLE:    36 TIME:   0.012 TIME LEFT:  2.00D  GRAD.:     2.054 HEAT:  4.195906
 CYCLE:    37 TIME:   0.012 TIME LEFT:  2.00D  GRAD.:     1.209 HEAT:  4.193615
 CYCLE:    38 TIME:   0.008 TIME LEFT:  2.00D  GRAD.:     1.356 HEAT:  4.191940
 CYCLE:    39 TIME:   0.016 TIME LEFT:  2.00D  GRAD.:     1.385 HEAT:  4.189287
 CYCLE:    40 TIME:   0.008 TIME LEFT:  2.00D  GRAD.:     1.684 HEAT:  4.188064
 CYCLE:    41 TIME:   0.012 TIME LEFT:  2.00D  GRAD.:     1.092 HEAT:  4.186239
 CYCLE:    42 TIME:   0.012 TIME LEFT:  2.00D  GRAD.:     1.436 HEAT:  4.184544
 CYCLE:    43 TIME:   0.012 TIME LEFT:  2.00D  GRAD.:     1.200 HEAT:  4.182451
 CYCLE:    44 TIME:   0.008 TIME LEFT:  2.00D  GRAD.:     0.879 HEAT:  4.181081
 CYCLE:    45 TIME:   0.012 TIME LEFT:  2.00D  GRAD.:     0.819 HEAT:  4.180127
 CYCLE:    46 TIME:   0.012 TIME LEFT:  2.00D  GRAD.:     0.881 HEAT:  4.178947
 CYCLE:    47 TIME:   0.012 TIME LEFT:  2.00D  GRAD.:     0.726 HEAT:  4.177989
 CYCLE:    48 TIME:   0.012 TIME LEFT:  2.00D  GRAD.:     0.710 HEAT:  4.177402
 CYCLE:    49 TIME:   0.012 TIME LEFT:  2.00D  GRAD.:     0.712 HEAT:  4.176653
 CYCLE:    50 TIME:   0.012 TIME LEFT:  2.00D  GRAD.:     0.829 HEAT:  4.175279
 CYCLE:    51 TIME:   0.012 TIME LEFT:  2.00D  GRAD.:     0.906 HEAT:  4.174222
 CYCLE:    52 TIME:   0.008 TIME LEFT:  2.00D  GRAD.:     0.927 HEAT:  4.172712
 CYCLE:    53 TIME:   0.012 TIME LEFT:  2.00D  GRAD.:     1.121 HEAT:  4.170459
 CYCLE:    54 TIME:   0.012 TIME LEFT:  2.00D  GRAD.:     1.223 HEAT:  4.168224
 CYCLE:    55 TIME:   0.012 TIME LEFT:  2.00D  GRAD.:     1.173 HEAT:  4.165712
 CYCLE:    56 TIME:   0.012 TIME LEFT:  2.00D  GRAD.:     1.387 HEAT:  4.162333
 CYCLE:    57 TIME:   0.012 TIME LEFT:  2.00D  GRAD.:     1.661 HEAT:  4.158209
 CYCLE:    58 TIME:   0.012 TIME LEFT:  2.00D  GRAD.:     1.985 HEAT:  4.151323
 CYCLE:    59 TIME:   0.012 TIME LEFT:  2.00D  GRAD.:     2.432 HEAT:  4.142581
 CYCLE:    60 TIME:   0.012 TIME LEFT:  2.00D  GRAD.:     2.637 HEAT:  4.127686
 CYCLE:    61 TIME:   0.016 TIME LEFT:  2.00D  GRAD.:     3.540 HEAT:  4.092637
 CYCLE:    62 TIME:   0.016 TIME LEFT:  2.00D  GRAD.:     5.918 HEAT:  4.026758
 CYCLE:    63 TIME:   0.051 TIME LEFT:  2.00D  GRAD.:     6.852 HEAT:  4.011626
 CYCLE:    64 TIME:   0.012 TIME LEFT:  2.00D  GRAD.:     3.845 HEAT:  3.985146
 CYCLE:    65 TIME:   0.016 TIME LEFT:  2.00D  GRAD.:     2.829 HEAT:  3.959718
 CYCLE:    66 TIME:   0.008 TIME LEFT:  2.00D  GRAD.:     2.704 HEAT:  3.945665
 CYCLE:    67 TIME:   0.012 TIME LEFT:  2.00D  GRAD.:     2.339 HEAT:  3.938761
 CYCLE:    68 TIME:   0.012 TIME LEFT:  2.00D  GRAD.:     2.201 HEAT:  3.928905
 CYCLE:    69 TIME:   0.012 TIME LEFT:  2.00D  GRAD.:     2.743 HEAT:  3.914297
 CYCLE:    70 TIME:   0.008 TIME LEFT:  2.00D  GRAD.:     2.947 HEAT:  3.902221
 CYCLE:    71 TIME:   0.012 TIME LEFT:  2.00D  GRAD.:     2.959 HEAT:  3.888737
 CYCLE:    72 TIME:   0.012 TIME LEFT:  2.00D  GRAD.:     3.302 HEAT:  3.870579
 CYCLE:    73 TIME:   0.012 TIME LEFT:  2.00D  GRAD.:     3.322 HEAT:  3.852683
 CYCLE:    74 TIME:   0.016 TIME LEFT:  2.00D  GRAD.:     2.626 HEAT:  3.837545
 CYCLE:    75 TIME:   0.012 TIME LEFT:  2.00D  GRAD.:     2.152 HEAT:  3.828893
 CYCLE:    76 TIME:   0.008 TIME LEFT:  2.00D  GRAD.:     1.886 HEAT:  3.824422
 CYCLE:    77 TIME:   0.012 TIME LEFT:  2.00D  GRAD.:     1.745 HEAT:  3.820355
 CYCLE:    78 TIME:   0.012 TIME LEFT:  2.00D  GRAD.:     1.451 HEAT:  3.817639
 CYCLE:    79 TIME:   0.016 TIME LEFT:  2.00D  GRAD.:     2.937 HEAT:  3.689414
 CYCLE:    80 TIME:   0.066 TIME LEFT:  2.00D  GRAD.:     3.524 HEAT:  3.686081
 CYCLE:    81 TIME:   0.012 TIME LEFT:  2.00D  GRAD.:     1.920 HEAT:  3.680015
 CYCLE:    82 TIME:   0.016 TIME LEFT:  2.00D  GRAD.:     2.413 HEAT:  3.542283
 CYCLE:    83 TIME:   0.016 TIME LEFT:  2.00D  GRAD.:    25.121 HEAT:  3.471890
 CYCLE:    84 TIME:   0.012 TIME LEFT:  2.00D  GRAD.:    14.307 HEAT:  3.319422
 CYCLE:    85 TIME:   0.016 TIME LEFT:  2.00D  GRAD.:    11.043 HEAT:  3.313723
 CYCLE:    86 TIME:   0.012 TIME LEFT:  2.00D  GRAD.:    15.545 HEAT:  3.166081
 CYCLE:    87 TIME:   0.012 TIME LEFT:  2.00D  GRAD.:     8.263 HEAT:  3.132610
 CYCLE:    88 TIME:   0.020 TIME LEFT:  2.00D  GRAD.:     9.282 HEAT:  3.096020
 CYCLE:    89 TIME:   0.012 TIME LEFT:  2.00D  GRAD.:     5.036 HEAT:  3.003338
 CYCLE:    90 TIME:   0.012 TIME LEFT:  2.00D  GRAD.:     3.916 HEAT:  2.986026
 CYCLE:    91 TIME:   0.012 TIME LEFT:  2.00D  GRAD.:     4.315 HEAT:  2.961525
 CYCLE:    92 TIME:   0.012 TIME LEFT:  2.00D  GRAD.:     2.623 HEAT:  2.942284
 CYCLE:    93 TIME:   0.012 TIME LEFT:  2.00D  GRAD.:     2.396 HEAT:  2.929591
 CYCLE:    94 TIME:   0.012 TIME LEFT:  2.00D  GRAD.:     2.661 HEAT:  2.912732
 CYCLE:    95 TIME:   0.012 TIME LEFT:  2.00D  GRAD.:     2.156 HEAT:  2.902502
 CYCLE:    96 TIME:   0.012 TIME LEFT:  2.00D  GRAD.:     2.165 HEAT:  2.891489
 CYCLE:    97 TIME:   0.012 TIME LEFT:  2.00D  GRAD.:     2.571 HEAT:  2.883041
 CYCLE:    98 TIME:   0.008 TIME LEFT:  2.00D  GRAD.:     2.645 HEAT:  2.873173
 CYCLE:    99 TIME:   0.012 TIME LEFT:  2.00D  GRAD.:     2.052 HEAT:  2.860329
 CYCLE:   100 TIME:   0.012 TIME LEFT:  2.00D  GRAD.:     2.016 HEAT:  2.848257
 CYCLE:   101 TIME:   0.012 TIME LEFT:  2.00D  GRAD.:     2.528 HEAT:  2.835394
 CYCLE:   102 TIME:   0.012 TIME LEFT:  2.00D  GRAD.:     2.443 HEAT:  2.826790
 CYCLE:   103 TIME:   0.012 TIME LEFT:  2.00D  GRAD.:     1.778 HEAT:  2.816587
 CYCLE:   104 TIME:   0.012 TIME LEFT:  2.00D  GRAD.:     1.789 HEAT:  2.807629
 CYCLE:   105 TIME:   0.008 TIME LEFT:  2.00D  GRAD.:     2.272 HEAT:  2.796792
 CYCLE:   106 TIME:   0.012 TIME LEFT:  2.00D  GRAD.:     2.432 HEAT:  2.784380
 CYCLE:   107 TIME:   0.008 TIME LEFT:  2.00D  GRAD.:     2.536 HEAT:  2.768563
 CYCLE:   108 TIME:   0.012 TIME LEFT:  2.00D  GRAD.:     2.401 HEAT:  2.753541
 CYCLE:   109 TIME:   0.012 TIME LEFT:  2.00D  GRAD.:     2.375 HEAT:  2.739937
 CYCLE:   110 TIME:   0.008 TIME LEFT:  2.00D  GRAD.:     2.303 HEAT:  2.730686
 CYCLE:   111 TIME:   0.012 TIME LEFT:  2.00D  GRAD.:     1.950 HEAT:  2.722104
 CYCLE:   112 TIME:   0.008 TIME LEFT:  2.00D  GRAD.:     2.050 HEAT:  2.717345
 CYCLE:   113 TIME:   0.016 TIME LEFT:  2.00D  GRAD.:     1.345 HEAT:  2.712247
 CYCLE:   114 TIME:   0.008 TIME LEFT:  2.00D  GRAD.:     1.010 HEAT:  2.709422
 CYCLE:   115 TIME:   0.012 TIME LEFT:  2.00D  GRAD.:     0.678 HEAT:  2.707649
 CYCLE:   116 TIME:   0.008 TIME LEFT:  2.00D  GRAD.:     0.629 HEAT:  2.706859
 CYCLE:   117 TIME:   0.012 TIME LEFT:  2.00D  GRAD.:     0.681 HEAT:  2.706005
 CYCLE:   118 TIME:   0.008 TIME LEFT:  2.00D  GRAD.:     0.701 HEAT:  2.705117
 CYCLE:   119 TIME:   0.012 TIME LEFT:  2.00D  GRAD.:     0.733 HEAT:  2.704099
 CYCLE:   120 TIME:   0.008 TIME LEFT:  2.00D  GRAD.:     0.778 HEAT:  2.702787
 CYCLE:   121 TIME:   0.012 TIME LEFT:  2.00D  GRAD.:     0.825 HEAT:  2.701413
 CYCLE:   122 TIME:   0.012 TIME LEFT:  2.00D  GRAD.:     0.912 HEAT:  2.699626
 CYCLE:   123 TIME:   0.008 TIME LEFT:  2.00D  GRAD.:     1.002 HEAT:  2.697392
 CYCLE:   124 TIME:   0.012 TIME LEFT:  2.00D  GRAD.:     1.136 HEAT:  2.694776
 CYCLE:   125 TIME:   0.008 TIME LEFT:  2.00D  GRAD.:     1.187 HEAT:  2.691848
 CYCLE:   126 TIME:   0.012 TIME LEFT:  2.00D  GRAD.:     1.221 HEAT:  2.688486
 CYCLE:   127 TIME:   0.008 TIME LEFT:  2.00D  GRAD.:     1.258 HEAT:  2.684799
 CYCLE:   128 TIME:   0.012 TIME LEFT:  2.00D  GRAD.:     1.294 HEAT:  2.680382
 CYCLE:   129 TIME:   0.012 TIME LEFT:  2.00D  GRAD.:     1.331 HEAT:  2.676505
 CYCLE:   130 TIME:   0.008 TIME LEFT:  2.00D  GRAD.:     1.223 HEAT:  2.673000
 CYCLE:   131 TIME:   0.012 TIME LEFT:  2.00D  GRAD.:     1.361 HEAT:  2.670233
 CYCLE:   132 TIME:   0.012 TIME LEFT:  2.00D  GRAD.:     1.203 HEAT:  2.667098
 CYCLE:   133 TIME:   0.008 TIME LEFT:  2.00D  GRAD.:     1.232 HEAT:  2.663212
 CYCLE:   134 TIME:   0.012 TIME LEFT:  2.00D  GRAD.:     1.219 HEAT:  2.659548
 CYCLE:   135 TIME:   0.012 TIME LEFT:  2.00D  GRAD.:     1.207 HEAT:  2.656241
 CYCLE:   136 TIME:   0.008 TIME LEFT:  2.00D  GRAD.:     1.387 HEAT:  2.652311
 CYCLE:   137 TIME:   0.012 TIME LEFT:  2.00D  GRAD.:     1.573 HEAT:  2.647886
 CYCLE:   138 TIME:   0.008 TIME LEFT:  2.00D  GRAD.:     1.822 HEAT:  2.641615
 CYCLE:   139 TIME:   0.012 TIME LEFT:  2.00D  GRAD.:     2.080 HEAT:  2.632813
 CYCLE:   140 TIME:   0.008 TIME LEFT:  2.00D  GRAD.:     3.786 HEAT:  2.625492
 CYCLE:   141 TIME:   0.012 TIME LEFT:  2.00D  GRAD.:     2.752 HEAT:  2.610909
 CYCLE:   142 TIME:   0.012 TIME LEFT:  2.00D  GRAD.:     2.279 HEAT:  2.598632
 CYCLE:   143 TIME:   0.008 TIME LEFT:  2.00D  GRAD.:     3.556 HEAT:  2.583275
 CYCLE:   144 TIME:   0.012 TIME LEFT:  2.00D  GRAD.:     2.370 HEAT:  2.577259
 CYCLE:   145 TIME:   0.012 TIME LEFT:  2.00D  GRAD.:     1.733 HEAT:  2.569068
 CYCLE:   146 TIME:   0.008 TIME LEFT:  2.00D  GRAD.:     3.294 HEAT:  2.557751
 CYCLE:   147 TIME:   0.012 TIME LEFT:  2.00D  GRAD.:     1.645 HEAT:  2.551785
 CYCLE:   148 TIME:   0.008 TIME LEFT:  2.00D  GRAD.:     1.168 HEAT:  2.547173
 CYCLE:   149 TIME:   0.012 TIME LEFT:  2.00D  GRAD.:     1.416 HEAT:  2.542373
 CYCLE:   150 TIME:   0.008 TIME LEFT:  2.00D  GRAD.:     1.693 HEAT:  2.539238
 CYCLE:   151 TIME:   0.012 TIME LEFT:  2.00D  GRAD.:     2.001 HEAT:  2.533649
 CYCLE:   152 TIME:   0.012 TIME LEFT:  2.00D  GRAD.:     2.165 HEAT:  2.524111
 CYCLE:   153 TIME:   0.012 TIME LEFT:  2.00D  GRAD.:     2.564 HEAT:  2.518498
 CYCLE:   154 TIME:   0.012 TIME LEFT:  2.00D  GRAD.:     3.036 HEAT:  2.510270
 CYCLE:   155 TIME:   0.012 TIME LEFT:  2.00D  GRAD.:     2.990 HEAT:  2.501768
 CYCLE:   156 TIME:   0.008 TIME LEFT:  2.00D  GRAD.:     1.591 HEAT:  2.496455
 CYCLE:   157 TIME:   0.012 TIME LEFT:  2.00D  GRAD.:     1.004 HEAT:  2.491691
 CYCLE:   158 TIME:   0.012 TIME LEFT:  2.00D  GRAD.:     1.187 HEAT:  2.488548
 CYCLE:   159 TIME:   0.012 TIME LEFT:  2.00D  GRAD.:     1.048 HEAT:  2.486805
 CYCLE:   160 TIME:   0.012 TIME LEFT:  2.00D  GRAD.:     0.671 HEAT:  2.485239
 CYCLE:   161 TIME:   0.012 TIME LEFT:  2.00D  GRAD.:     0.409 HEAT:  2.484438
 CYCLE:   162 TIME:   0.012 TIME LEFT:  2.00D  GRAD.:     0.750 HEAT:  2.484225
 CYCLE:   163 TIME:   0.012 TIME LEFT:  2.00D  GRAD.:     0.519 HEAT:  2.483927
 CYCLE:   164 TIME:   0.012 TIME LEFT:  2.00D  GRAD.:     0.267 HEAT:  2.483695
 CYCLE:   165 TIME:   0.012 TIME LEFT:  2.00D  GRAD.:     0.349 HEAT:  2.483524
 CYCLE:   166 TIME:   0.012 TIME LEFT:  2.00D  GRAD.:     0.463 HEAT:  2.483254
 CYCLE:   167 TIME:   0.008 TIME LEFT:  2.00D  GRAD.:     0.437 HEAT:  2.482956
 CYCLE:   168 TIME:   0.016 TIME LEFT:  2.00D  GRAD.:     0.495 HEAT:  2.482623
 CYCLE:   169 TIME:   0.008 TIME LEFT:  2.00D  GRAD.:     0.343 HEAT:  2.482370
 CYCLE:   170 TIME:   0.012 TIME LEFT:  2.00D  GRAD.:     0.382 HEAT:  2.481985
 CYCLE:   171 TIME:   0.012 TIME LEFT:  2.00D  GRAD.:     0.469 HEAT:  2.481716
 CYCLE:   172 TIME:   0.012 TIME LEFT:  2.00D  GRAD.:     0.489 HEAT:  2.481368
 CYCLE:   173 TIME:   0.012 TIME LEFT:  2.00D  GRAD.:     0.565 HEAT:  2.480946
 CYCLE:   174 TIME:   0.012 TIME LEFT:  2.00D  GRAD.:     0.365 HEAT:  2.480686
 CYCLE:   175 TIME:   0.012 TIME LEFT:  2.00D  GRAD.:     0.237 HEAT:  2.480460
 CYCLE:   176 TIME:   0.012 TIME LEFT:  2.00D  GRAD.:     0.268 HEAT:  2.480327
 CYCLE:   177 TIME:   0.012 TIME LEFT:  2.00D  GRAD.:     0.258 HEAT:  2.480175
 CYCLE:   178 TIME:   0.012 TIME LEFT:  2.00D  GRAD.:     0.258 HEAT:  2.480061
 CYCLE:   179 TIME:   0.012 TIME LEFT:  2.00D  GRAD.:     0.213 HEAT:  2.479984
 CYCLE:   180 TIME:   0.008 TIME LEFT:  2.00D  GRAD.:     0.209 HEAT:  2.479923
 CYCLE:   181 TIME:   0.012 TIME LEFT:  2.00D  GRAD.:     0.128 HEAT:  2.479893
 CYCLE:   182 TIME:   0.012 TIME LEFT:  2.00D  GRAD.:     0.246 HEAT:  2.479834
 CYCLE:   183 TIME:   0.012 TIME LEFT:  2.00D  GRAD.:     0.128 HEAT:  2.479787
 CYCLE:   184 TIME:   0.012 TIME LEFT:  2.00D  GRAD.:     0.089 HEAT:  2.479753
 CYCLE:   185 TIME:   0.008 TIME LEFT:  2.00D  GRAD.:     0.102 HEAT:  2.479734
 CYCLE:   186 TIME:   0.012 TIME LEFT:  2.00D  GRAD.:     0.084 HEAT:  2.479709
 CYCLE:   187 TIME:   0.012 TIME LEFT:  2.00D  GRAD.:     0.095 HEAT:  2.479693
 CYCLE:   188 TIME:   0.012 TIME LEFT:  2.00D  GRAD.:     0.064 HEAT:  2.479685
 CYCLE:   189 TIME:   0.008 TIME LEFT:  2.00D  GRAD.:     0.084 HEAT:  2.479683
 CYCLE:   190 TIME:   0.012 TIME LEFT:  2.00D  GRAD.:     0.042 HEAT:  2.479670

     GRADIENT =  0.04196 IS LESS THAN CUTOFF =  0.05000



 -------------------------------------------------------------------------------
 pm3  precise nosym THREADS=1
 InChI=1S/C12H20/c1-3-5-7-11-9-10-12(11)8-6-4-2/h5-8,11-12H,3-4,9-10H2,1-2H3



     GEOMETRY OPTIMISED USING EIGENVECTOR FOLLOWING (EF).     
     SCF FIELD WAS ACHIEVED                                   


                              PM3 CALCULATION
                                                       MOPAC v23.1.2 MacOS
                                                       Tue Jun  3 16:44:01 2025




          FINAL HEAT OF FORMATION =          2.47967 KCAL/MOL =      10.37494 KJ/MOL


          COSMO AREA              =        243.02 SQUARE ANGSTROMS
          COSMO VOLUME            =        248.39 CUBIC ANGSTROMS

          GRADIENT NORM           =          0.04196          =       0.00742 PER ATOM
          IONIZATION POTENTIAL    =          9.613563 EV
          HOMO LUMO ENERGIES (EV) =         -9.614  0.981
          NO. OF FILLED LEVELS    =         34
          MOLECULAR WEIGHT        =        164.2900         POINT GROUP:  C1  

          MOLECULAR DIMENSIONS (Angstroms)

            Atom       Atom       Distance
            H    26    H    15     8.62654
            H    25    H    17     8.50542
            H    19    H    22     3.25876


          SCF CALCULATIONS        =        214

          WALL-CLOCK TIME         =      2.316 SECONDS
          COMPUTATION TIME        =      1.748 SECONDS




   ATOM   CHEMICAL          X               Y               Z
  NUMBER   SYMBOL      (ANGSTROMS)     (ANGSTROMS)     (ANGSTROMS)

     1       C          0.87358164  *   1.29311869  *   0.82747121  *
     2       C         -0.37518620  *   1.71974008  *  -0.00701299  *
     3       C          1.13660670  *   2.77827913  *   1.16921440  *
     4       C         -0.15823416  *   3.18398780  *   0.44076084  *
     5       C          2.71916506  *  -1.31409848  *  -1.32562006  *
     6       C         -3.07670779  *  -0.92566326  *   0.72967574  *
     7       C          2.72824861  *  -2.78213977  *  -0.95678974  *
     8       C         -3.51763956  *  -1.91134198  *  -0.33115101  *
     9       C          1.93273872  *   0.58406856  *   0.06980569  *
    10       C         -1.65302862  *   1.08140142  *   0.39096471  *
    11       C          1.68872555  *  -0.56983198  *  -0.55489448  *
    12       C         -1.81530577  *  -0.24235631  *   0.34016133  *
    13       H          0.60568470  *   0.68810357  *   1.72109071  *
    14       H         -0.22858394  *   1.57911506  *  -1.10022643  *
    15       H          2.05791751  *   3.19460361  *   0.73268531  *
    16       H          1.15622054  *   3.00464558  *   2.24541573  *
    17       H         -0.94643042  *   3.58621031  *   1.09626577  *
    18       H         -0.02424583  *   3.90034345  *  -0.38308715  *
    19       H          2.50161999  *  -1.19236558  *  -2.40600923  *
    20       H          3.72628032  *  -0.87737405  *  -1.17142809  *
    21       H         -3.88447591  *  -0.19243003  *   0.92626997  *
    22       H         -2.90649640  *  -1.44959408  *   1.69188622  *
    23       H          1.75158850  *  -3.25176414  *  -1.13436238  *
    24       H          2.97291900  *  -2.93046035  *   0.10290346  *
    25       H          3.47089108  *  -3.33463456  *  -1.54634618  *
    26       H         -4.42869321  *  -2.44150993  *  -0.02585140  *
    27       H         -2.74673701  *  -2.66821241  *  -0.52809269  *
    28       H         -3.73240375  *  -1.40978764  *  -1.28357739  *
    29       H          0.67882250  *  -1.01604199  *  -0.52139217  *
    30       H          2.92682607  *   1.04795967  *   0.05767478  *
    31       H         -0.98700880  *  -0.89010684  *   0.00183973  *
    32       H         -2.45926731  *   1.74964261  *   0.71805930  *

                             CARTESIAN COORDINATES

   1    C        0.873581638     1.293118695     0.827471213
   2    C       -0.375186203     1.719740083    -0.007012988
   3    C        1.136606702     2.778279135     1.169214397
   4    C       -0.158234157     3.183987797     0.440760835
   5    C        2.719165062    -1.314098484    -1.325620056
   6    C       -3.076707785    -0.925663256     0.729675741
   7    C        2.728248607    -2.782139770    -0.956789740
   8    C       -3.517639556    -1.911341983    -0.331151007
   9    C        1.932738720     0.584068556     0.069805687
  10    C       -1.653028620     1.081401419     0.390964707
  11    C        1.688725549    -0.569831978    -0.554894477
  12    C       -1.815305767    -0.242356314     0.340161335
  13    H        0.605684698     0.688103567     1.721090708
  14    H       -0.228583940     1.579115059    -1.100226428
  15    H        2.057917514     3.194603609     0.732685308
  16    H        1.156220537     3.004645581     2.245415734
  17    H       -0.946430423     3.586210306     1.096265766
  18    H       -0.024245829     3.900343447    -0.383087155
  19    H        2.501619994    -1.192365581    -2.406009226
  20    H        3.726280319    -0.877374052    -1.171428090
  21    H       -3.884475914    -0.192430026     0.926269970
  22    H       -2.906496397    -1.449594077     1.691886222
  23    H        1.751588499    -3.251764137    -1.134362382
  24    H        2.972918997    -2.930460347     0.102903461
  25    H        3.470891083    -3.334634559    -1.546346183
  26    H       -4.428693209    -2.441509926    -0.025851396
  27    H       -2.746737011    -2.668212406    -0.528092686
  28    H       -3.732403751    -1.409787638    -1.283577391
  29    H        0.678822504    -1.016041991    -0.521392171
  30    H        2.926826073     1.047959672     0.057674782
  31    H       -0.987008797    -0.890106844     0.001839729
  32    H       -2.459267311     1.749642613     0.718059298


           Empirical Formula: C12 H20  =    32 atoms



      MOLECULAR POINT GROUP   :   C1  


                  EIGENVALUES  
 -41.39010 -36.69987 -36.16282 -30.45955 -30.01262 -25.28535 -24.69406 -22.17785
 -21.43681 -20.25354 -19.16429 -18.48402 -16.86651 -16.85838 -16.03853 -15.64578
 -15.37575 -15.06223 -14.37092 -13.99513 -13.83240 -13.58330 -13.54838 -12.99528
 -12.55562 -12.51677 -12.12509 -12.05027 -11.91386 -11.87385 -11.71418 -11.35624
  -9.77525  -9.61356   0.98123   1.17509   3.17908   3.21101   3.40432   3.42301
   3.66270   3.69177   3.79269   3.87420   3.88038   3.95064   3.99720   4.01096
   4.03811   4.17953   4.19597   4.32181   4.32396   4.42102   4.49562   4.52599
   4.70876   4.72619   4.77889   4.82228   4.86565   4.86906   5.18812   5.38931
   5.75188   5.87577   5.95981   5.96159


              NET ATOMIC CHARGES AND DIPOLE CONTRIBUTIONS

  ATOM NO.   TYPE          CHARGE      No. of ELECS.   s-Pop       p-Pop       
    1          C          -0.059148        4.0591     1.18080     2.87835
    2          C          -0.059325        4.0593     1.18084     2.87849
    3          C          -0.104920        4.1049     1.17336     2.93156
    4          C          -0.104884        4.1049     1.17336     2.93153
    5          C          -0.058013        4.0580     1.14474     2.91327
    6          C          -0.058030        4.0580     1.14475     2.91328
    7          C          -0.106113        4.1061     1.13773     2.96838
    8          C          -0.105989        4.1060     1.13769     2.96830
    9          C          -0.137772        4.1378     1.19488     2.94289
   10          C          -0.137526        4.1375     1.19493     2.94260
   11          C          -0.164446        4.1644     1.20042     2.96403
   12          C          -0.164390        4.1644     1.20040     2.96399
   13          H           0.083742        0.9163     0.91626
   14          H           0.083753        0.9162     0.91625
   15          H           0.058797        0.9412     0.94120
   16          H           0.055364        0.9446     0.94464
   17          H           0.058791        0.9412     0.94121
   18          H           0.055380        0.9446     0.94462
   19          H           0.052799        0.9472     0.94720
   20          H           0.050983        0.9490     0.94902
   21          H           0.050901        0.9491     0.94910
   22          H           0.052693        0.9473     0.94731
   23          H           0.037395        0.9626     0.96261
   24          H           0.040088        0.9599     0.95991
   25          H           0.036825        0.9632     0.96317
   26          H           0.036785        0.9632     0.96321
   27          H           0.037450        0.9626     0.96255
   28          H           0.040048        0.9600     0.95995
   29          H           0.109082        0.8909     0.89092
   30          H           0.105355        0.8946     0.89465
   31          H           0.108913        0.8911     0.89109
   32          H           0.105413        0.8946     0.89459
 DIPOLE           X         Y         Z       TOTAL
 POINT-CHG.    -0.012    -0.076    -0.021     0.080
 HYBRID        -0.001    -0.008    -0.003     0.008
 SUM           -0.013    -0.084    -0.024     0.088


          ATOMIC ORBITAL ELECTRON POPULATIONS

     Atom    s        px        py        pz   
    1  C   1.18080   0.94336   0.95292   0.98207
    2  C   1.18084   0.92938   0.95331   0.99580
    3  C   1.17336   0.97570   0.95526   1.00060
    4  C   1.17336   0.97760   0.95391   1.00002
    5  C   1.14474   0.97415   0.95231   0.98681
    6  C   1.14475   0.95347   0.98251   0.97729
    7  C   1.13773   1.00800   0.95211   1.00827
    8  C   1.13769   1.00160   0.98258   0.98413
    9  C   1.19488   0.98593   0.96778   0.98918
   10  C   1.19493   0.97656   0.95988   1.00616
   11  C   1.20042   0.99597   0.97067   0.99739
   12  C   1.20040   0.98600   0.96400   1.01399
   13  H   0.91626
   14  H   0.91625
   15  H   0.94120
   16  H   0.94464
   17  H   0.94121
   18  H   0.94462
   19  H   0.94720
   20  H   0.94902
   21  H   0.94910
   22  H   0.94731
   23  H   0.96261
   24  H   0.95991
   25  H   0.96317
   26  H   0.96321
   27  H   0.96255
   28  H   0.95995
   29  H   0.89092
   30  H   0.89465
   31  H   0.89109
   32  H   0.89459
 *******************************************************************************
 **                                                                           **
 **                              MOPAC v23.1.2                                **
 **                                                                           **
 *******************************************************************************
 **          Digital Object Identifier (DOI): 10.5281/zenodo.6511958          **
 **    Visit the DOI location for information on how to cite this program.    **
 *******************************************************************************

                              PM3 CALCULATION RESULTS

 *******************************************************************************
 *  CALCULATION DONE: (MAX THREADS = 1)              Tue Jun  3 16:44:01 2025  *
 *  PM3        - The PM3 Hamiltonian to be used
 *  OLDGEO     - PREVIOUS GEOMETRY TO BE USED
 *  PRECISE    - TIGHTER CRITERIA TO BE USED
 *  NOSYM      - POINT-GROUP SYMMETRY SET TO C1
 *  THREADS=1  - MULTI-THREADING NOT USED
 *  T=         - A TIME OF 172800.0 SECONDS REQUESTED
 *  DUMP=N     - RESTART FILE WRITTEN EVERY 7200.0 SECONDS REQUESTED
 *  THERMO     - THERMODYNAMIC QUANTITIES TO BE CALCULATED
 *******************************************************************************
oldgeo thermo nosym precise THREADS=1  pm3
 InChI=1S/C12H20/c1-3-5-7-11-9-10-12(11)8-6-4-2/h5-8,11-12H,3-4,9-10H2,1-2H3

   ATOM   CHEMICAL          X               Y               Z
  NUMBER   SYMBOL      (ANGSTROMS)     (ANGSTROMS)     (ANGSTROMS)

     1       C          0.87358164  *   1.29311869  *   0.82747121  *
     2       C         -0.37518620  *   1.71974008  *  -0.00701299  *
     3       C          1.13660670  *   2.77827913  *   1.16921440  *
     4       C         -0.15823416  *   3.18398780  *   0.44076084  *
     5       C          2.71916506  *  -1.31409848  *  -1.32562006  *
     6       C         -3.07670779  *  -0.92566326  *   0.72967574  *
     7       C          2.72824861  *  -2.78213977  *  -0.95678974  *
     8       C         -3.51763956  *  -1.91134198  *  -0.33115101  *
     9       C          1.93273872  *   0.58406856  *   0.06980569  *
    10       C         -1.65302862  *   1.08140142  *   0.39096471  *
    11       C          1.68872555  *  -0.56983198  *  -0.55489448  *
    12       C         -1.81530577  *  -0.24235631  *   0.34016133  *
    13       H          0.60568470  *   0.68810357  *   1.72109071  *
    14       H         -0.22858394  *   1.57911506  *  -1.10022643  *
    15       H          2.05791751  *   3.19460361  *   0.73268531  *
    16       H          1.15622054  *   3.00464558  *   2.24541573  *
    17       H         -0.94643042  *   3.58621031  *   1.09626577  *
    18       H         -0.02424583  *   3.90034345  *  -0.38308715  *
    19       H          2.50161999  *  -1.19236558  *  -2.40600923  *
    20       H          3.72628032  *  -0.87737405  *  -1.17142809  *
    21       H         -3.88447591  *  -0.19243003  *   0.92626997  *
    22       H         -2.90649640  *  -1.44959408  *   1.69188622  *
    23       H          1.75158850  *  -3.25176414  *  -1.13436238  *
    24       H          2.97291900  *  -2.93046035  *   0.10290346  *
    25       H          3.47089108  *  -3.33463456  *  -1.54634618  *
    26       H         -4.42869321  *  -2.44150993  *  -0.02585140  *
    27       H         -2.74673701  *  -2.66821241  *  -0.52809269  *
    28       H         -3.73240375  *  -1.40978764  *  -1.28357739  *
    29       H          0.67882250  *  -1.01604199  *  -0.52139217  *
    30       H          2.92682607  *   1.04795967  *   0.05767478  *
    31       H         -0.98700880  *  -0.89010684  *   0.00183973  *
    32       H         -2.45926731  *   1.74964261  *   0.71805930  *



          CARTESIAN COORDINATES 

    NO.       ATOM           X           Y           Z

     1         C          0.8736      1.2931      0.8275
     2         C         -0.3752      1.7197     -0.0070
     3         C          1.1366      2.7783      1.1692
     4         C         -0.1582      3.1840      0.4408
     5         C          2.7192     -1.3141     -1.3256
     6         C         -3.0767     -0.9257      0.7297
     7         C          2.7282     -2.7821     -0.9568
     8         C         -3.5176     -1.9113     -0.3312
     9         C          1.9327      0.5841      0.0698
    10         C         -1.6530      1.0814      0.3910
    11         C          1.6887     -0.5698     -0.5549
    12         C         -1.8153     -0.2424      0.3402
    13         H          0.6057      0.6881      1.7211
    14         H         -0.2286      1.5791     -1.1002
    15         H          2.0579      3.1946      0.7327
    16         H          1.1562      3.0046      2.2454
    17         H         -0.9464      3.5862      1.0963
    18         H         -0.0242      3.9003     -0.3831
    19         H          2.5016     -1.1924     -2.4060
    20         H          3.7263     -0.8774     -1.1714
    21         H         -3.8845     -0.1924      0.9263
    22         H         -2.9065     -1.4496      1.6919
    23         H          1.7516     -3.2518     -1.1344
    24         H          2.9729     -2.9305      0.1029
    25         H          3.4709     -3.3346     -1.5463
    26         H         -4.4287     -2.4415     -0.0259
    27         H         -2.7467     -2.6682     -0.5281
    28         H         -3.7324     -1.4098     -1.2836
    29         H          0.6788     -1.0160     -0.5214
    30         H          2.9268      1.0480      0.0577
    31         H         -0.9870     -0.8901      0.0018
    32         H         -2.4593      1.7496      0.7181

  H: (PM3): J. J. P. STEWART, J. COMP. CHEM. 10, 209 (1989).
  C: (PM3): J. J. P. STEWART, J. COMP. CHEM. 10, 209 (1989).

           Empirical Formula: C12 H20  =    32 atoms



      MOLECULAR POINT GROUP   :   C1  


      RHF CALCULATION, NO. OF DOUBLY OCCUPIED LEVELS = 34



          HEAT OF FORMATION =       2.479669 KCALS/MOLE


          CARTESIAN COORDINATE DERIVATIVES

   NUMBER  ATOM         X            Y            Z

     1       C     -0.000537    -0.000560     0.002172
     2       C     -0.000109    -0.000615     0.001571
     3       C      0.001781    -0.000973    -0.000878
     4       C      0.000170    -0.001754    -0.001214
     5       C     -0.001340    -0.000171    -0.002326
     6       C     -0.000703    -0.003545    -0.000315
     7       C      0.006662    -0.004699    -0.000105
     8       C      0.001650     0.001407     0.002828
     9       C     -0.001919     0.000770     0.002414
    10       C      0.001754    -0.000951     0.001696
    11       C     -0.002705    -0.001418    -0.000799
    12       C      0.000067     0.001159    -0.000855
    13       H     -0.001324     0.002426     0.001454
    14       H      0.002287    -0.001069    -0.000489
    15       H      0.002992     0.002903     0.000170
    16       H     -0.005934    -0.003797     0.000751
    17       H      0.010216    -0.004089    -0.006213
    18       H     -0.004432    -0.001391     0.005897
    19       H      0.002658     0.001978     0.003189
    20       H     -0.005859    -0.001114     0.000750
    21       H     -0.001199     0.002039    -0.000900
    22       H      0.003071    -0.005789    -0.004999
    23       H     -0.003238    -0.001132     0.004795
    24       H      0.008973    -0.000027    -0.009926
    25       H     -0.004648    -0.000028     0.003855
    26       H     -0.013995     0.000395     0.008678
    27       H      0.005381     0.004373     0.006862
    28       H      0.006685     0.006762    -0.016616
    29       H     -0.006174     0.000047    -0.000781
    30       H      0.000381     0.003987     0.001050
    31       H     -0.007023     0.002194    -0.002468
    32       H      0.006412     0.002682     0.000752



          GRADIENT NORM =   0.04155

          MOLECULAR WEIGHT =  164.29



          ROTATIONAL CONSTANTS IN CM(-1)

          A =    0.02616801   B =    0.02079849   C =    0.01226679



           PRINCIPAL MOMENTS OF INERTIA IN UNITS OF 10**(-40)*GRAM-CM**2

          A =     1069.7319   B =     1345.9028   C =     2281.9942


          ORIENTATION OF MOLECULE IN FORCE CALCULATION

    NO.       ATOM         X         Y         Z

     1          C      -0.7864    1.3764   -0.0539
     2          C       0.7749    1.3764   -0.0539
     3          C      -0.7737    2.9229   -0.0539
     4          C       0.7621    2.9186   -0.1685
     5          C      -1.8242   -1.2808    2.5349
     6          C       1.8190   -1.4694   -2.4308
     7          C      -2.4297   -2.6026    2.1137
     8          C       2.4693   -2.7308   -1.9043
     9          C      -1.4224    0.7135    1.1100
    10          C       1.4098    0.6288   -1.1659
    11          C      -1.2086   -0.5760    1.3799
    12          C       1.2050   -0.6797   -1.3313
    13          H      -1.2151    0.9509   -0.9874
    14          H       1.2035    1.0212    0.9087
    15          H      -1.1635    3.3862    0.8660
    16          H      -1.3027    3.3858   -0.8998
    17          H       1.1521    3.3125   -1.1201
    18          H       1.2910    3.4429    0.6410
    19          H      -1.0395   -1.4461    3.3006
    20          H      -2.5928   -0.6496    3.0246
    21          H       2.5603   -0.8653   -2.9914
    22          H       1.0255   -1.7245   -3.1619
    23          H      -1.6820   -3.2651    1.6577
    24          H      -3.2323   -2.4626    1.3781
    25          H      -2.8596   -3.1336    2.9725
    26          H       2.8900   -3.3310   -2.7211
    27          H       1.7512   -3.3642   -1.3666
    28          H       3.2872   -2.5029   -1.2086
    29          H      -0.5407   -1.1744    0.7349
    30          H      -2.0842    1.3308    1.7300
    31          H       0.5464   -1.2302   -0.6361
    32          H       2.0624    1.2003   -1.8375


    FIRST DERIVATIVES WILL BE USED IN THE CALCULATION OF SECOND DERIVATIVES

          ESTIMATED TIME TO COMPLETE CALCULATION =        4.50 SECONDS

    FOR POINT-GROUP C1   THERE ARE   1 UNIQUE SYMMETRY FUNCTIONS.

 STEP:   1 TIME =     0.04 SECS, INTEGRAL =      0.04 TIME LEFT: 172799.95
 STEP:   2 TIME =     0.04 SECS, INTEGRAL =      0.07 TIME LEFT: 172799.91
 STEP:   3 TIME =     0.04 SECS, INTEGRAL =      0.11 TIME LEFT: 172799.88
 STEP:   4 TIME =     0.04 SECS, INTEGRAL =      0.14 TIME LEFT: 172799.84
 STEP:   5 TIME =     0.04 SECS, INTEGRAL =      0.18 TIME LEFT: 172799.81
 STEP:   6 TIME =     0.04 SECS, INTEGRAL =      0.22 TIME LEFT: 172799.77
 STEP:   7 TIME =     0.04 SECS, INTEGRAL =      0.25 TIME LEFT: 172799.73
 STEP:   8 TIME =     0.04 SECS, INTEGRAL =      0.29 TIME LEFT: 172799.70
 STEP:   9 TIME =     0.05 SECS, INTEGRAL =      0.34 TIME LEFT: 172799.65
 STEP:  10 TIME =     0.05 SECS, INTEGRAL =      0.38 TIME LEFT: 172799.61
 STEP:  11 TIME =     0.05 SECS, INTEGRAL =      0.43 TIME LEFT: 172799.56
 STEP:  12 TIME =     0.06 SECS, INTEGRAL =      0.49 TIME LEFT: 172799.50
 STEP:  13 TIME =     0.06 SECS, INTEGRAL =      0.55 TIME LEFT: 172799.44
 STEP:  14 TIME =     0.05 SECS, INTEGRAL =      0.60 TIME LEFT: 172799.39
 STEP:  15 TIME =     0.05 SECS, INTEGRAL =      0.65 TIME LEFT: 172799.34
 STEP:  16 TIME =     0.05 SECS, INTEGRAL =      0.70 TIME LEFT: 172799.29
 STEP:  17 TIME =     0.05 SECS, INTEGRAL =      0.75 TIME LEFT: 172799.24
 STEP:  18 TIME =     0.04 SECS, INTEGRAL =      0.78 TIME LEFT: 172799.21
 STEP:  19 TIME =     0.04 SECS, INTEGRAL =      0.82 TIME LEFT: 172799.17
 STEP:  20 TIME =     0.04 SECS, INTEGRAL =      0.86 TIME LEFT: 172799.13
 STEP:  21 TIME =     0.04 SECS, INTEGRAL =      0.89 TIME LEFT: 172799.09
 STEP:  22 TIME =     0.04 SECS, INTEGRAL =      0.93 TIME LEFT: 172799.06
 STEP:  23 TIME =     0.04 SECS, INTEGRAL =      0.96 TIME LEFT: 172799.02
 STEP:  24 TIME =     0.04 SECS, INTEGRAL =      1.00 TIME LEFT: 172798.98
 STEP:  25 TIME =     0.04 SECS, INTEGRAL =      1.04 TIME LEFT: 172798.95
 STEP:  26 TIME =     0.04 SECS, INTEGRAL =      1.08 TIME LEFT: 172798.91
 STEP:  27 TIME =     0.04 SECS, INTEGRAL =      1.12 TIME LEFT: 172798.87
 STEP:  28 TIME =     0.04 SECS, INTEGRAL =      1.16 TIME LEFT: 172798.83
 STEP:  29 TIME =     0.04 SECS, INTEGRAL =      1.19 TIME LEFT: 172798.80
 STEP:  30 TIME =     0.04 SECS, INTEGRAL =      1.23 TIME LEFT: 172798.76
 STEP:  31 TIME =     0.04 SECS, INTEGRAL =      1.27 TIME LEFT: 172798.72
 STEP:  32 TIME =     0.04 SECS, INTEGRAL =      1.31 TIME LEFT: 172798.68
 STEP:  33 TIME =     0.04 SECS, INTEGRAL =      1.35 TIME LEFT: 172798.64
 STEP:  34 TIME =     0.04 SECS, INTEGRAL =      1.39 TIME LEFT: 172798.60
 STEP:  35 TIME =     0.04 SECS, INTEGRAL =      1.42 TIME LEFT: 172798.57
 STEP:  36 TIME =     0.04 SECS, INTEGRAL =      1.46 TIME LEFT: 172798.53
 STEP:  37 TIME =     0.04 SECS, INTEGRAL =      1.50 TIME LEFT: 172798.49
 STEP:  38 TIME =     0.04 SECS, INTEGRAL =      1.53 TIME LEFT: 172798.46
 STEP:  39 TIME =     0.04 SECS, INTEGRAL =      1.57 TIME LEFT: 172798.42
 STEP:  40 TIME =     0.04 SECS, INTEGRAL =      1.60 TIME LEFT: 172798.39
 STEP:  41 TIME =     0.04 SECS, INTEGRAL =      1.64 TIME LEFT: 172798.35
 STEP:  42 TIME =     0.04 SECS, INTEGRAL =      1.68 TIME LEFT: 172798.31
 STEP:  43 TIME =     0.04 SECS, INTEGRAL =      1.71 TIME LEFT: 172798.27
 STEP:  44 TIME =     0.04 SECS, INTEGRAL =      1.75 TIME LEFT: 172798.23
 STEP:  45 TIME =     0.04 SECS, INTEGRAL =      1.79 TIME LEFT: 172798.20
 STEP:  46 TIME =     0.04 SECS, INTEGRAL =      1.83 TIME LEFT: 172798.16
 STEP:  47 TIME =     0.04 SECS, INTEGRAL =      1.87 TIME LEFT: 172798.12
 STEP:  48 TIME =     0.04 SECS, INTEGRAL =      1.91 TIME LEFT: 172798.08
 STEP:  49 TIME =     0.04 SECS, INTEGRAL =      1.95 TIME LEFT: 172798.04
 STEP:  50 TIME =     0.04 SECS, INTEGRAL =      1.98 TIME LEFT: 172798.01
 STEP:  51 TIME =     0.04 SECS, INTEGRAL =      2.02 TIME LEFT: 172797.97
 STEP:  52 TIME =     0.04 SECS, INTEGRAL =      2.05 TIME LEFT: 172797.94
 STEP:  53 TIME =     0.04 SECS, INTEGRAL =      2.09 TIME LEFT: 172797.90
 STEP:  54 TIME =     0.04 SECS, INTEGRAL =      2.12 TIME LEFT: 172797.87
 STEP:  55 TIME =     0.04 SECS, INTEGRAL =      2.16 TIME LEFT: 172797.83
 STEP:  56 TIME =     0.04 SECS, INTEGRAL =      2.20 TIME LEFT: 172797.79
 STEP:  57 TIME =     0.04 SECS, INTEGRAL =      2.24 TIME LEFT: 172797.75
 STEP:  58 TIME =     0.04 SECS, INTEGRAL =      2.28 TIME LEFT: 172797.71
 STEP:  59 TIME =     0.04 SECS, INTEGRAL =      2.32 TIME LEFT: 172797.67
 STEP:  60 TIME =     0.04 SECS, INTEGRAL =      2.36 TIME LEFT: 172797.63
 STEP:  61 TIME =     0.04 SECS, INTEGRAL =      2.40 TIME LEFT: 172797.59
 STEP:  62 TIME =     0.04 SECS, INTEGRAL =      2.44 TIME LEFT: 172797.55
 STEP:  63 TIME =     0.04 SECS, INTEGRAL =      2.47 TIME LEFT: 172797.52
 STEP:  64 TIME =     0.04 SECS, INTEGRAL =      2.51 TIME LEFT: 172797.48
 STEP:  65 TIME =     0.04 SECS, INTEGRAL =      2.55 TIME LEFT: 172797.44
 STEP:  66 TIME =     0.04 SECS, INTEGRAL =      2.59 TIME LEFT: 172797.40
 STEP:  67 TIME =     0.04 SECS, INTEGRAL =      2.62 TIME LEFT: 172797.36
 STEP:  68 TIME =     0.04 SECS, INTEGRAL =      2.66 TIME LEFT: 172797.32
 STEP:  69 TIME =     0.04 SECS, INTEGRAL =      2.70 TIME LEFT: 172797.29
 STEP:  70 TIME =     0.04 SECS, INTEGRAL =      2.74 TIME LEFT: 172797.25
 STEP:  71 TIME =     0.04 SECS, INTEGRAL =      2.78 TIME LEFT: 172797.21
 STEP:  72 TIME =     0.04 SECS, INTEGRAL =      2.82 TIME LEFT: 172797.17
 STEP:  73 TIME =     0.04 SECS, INTEGRAL =      2.86 TIME LEFT: 172797.13
 STEP:  74 TIME =     0.04 SECS, INTEGRAL =      2.89 TIME LEFT: 172797.10
 STEP:  75 TIME =     0.04 SECS, INTEGRAL =      2.93 TIME LEFT: 172797.06
 STEP:  76 TIME =     0.04 SECS, INTEGRAL =      2.96 TIME LEFT: 172797.03
 STEP:  77 TIME =     0.04 SECS, INTEGRAL =      3.00 TIME LEFT: 172796.99
 STEP:  78 TIME =     0.04 SECS, INTEGRAL =      3.04 TIME LEFT: 172796.95
 STEP:  79 TIME =     0.04 SECS, INTEGRAL =      3.07 TIME LEFT: 172796.91
 STEP:  80 TIME =     0.04 SECS, INTEGRAL =      3.11 TIME LEFT: 172796.88
 STEP:  81 TIME =     0.04 SECS, INTEGRAL =      3.15 TIME LEFT: 172796.84
 STEP:  82 TIME =     0.04 SECS, INTEGRAL =      3.18 TIME LEFT: 172796.80
 STEP:  83 TIME =     0.04 SECS, INTEGRAL =      3.22 TIME LEFT: 172796.77
 STEP:  84 TIME =     0.04 SECS, INTEGRAL =      3.25 TIME LEFT: 172796.73
 STEP:  85 TIME =     0.04 SECS, INTEGRAL =      3.29 TIME LEFT: 172796.70
 STEP:  86 TIME =     0.04 SECS, INTEGRAL =      3.33 TIME LEFT: 172796.66
 STEP:  87 TIME =     0.04 SECS, INTEGRAL =      3.37 TIME LEFT: 172796.62
 STEP:  88 TIME =     0.04 SECS, INTEGRAL =      3.41 TIME LEFT: 172796.58
 STEP:  89 TIME =     0.04 SECS, INTEGRAL =      3.45 TIME LEFT: 172796.54
 STEP:  90 TIME =     0.04 SECS, INTEGRAL =      3.49 TIME LEFT: 172796.50
 STEP:  91 TIME =     0.04 SECS, INTEGRAL =      3.53 TIME LEFT: 172796.46
 STEP:  92 TIME =     0.04 SECS, INTEGRAL =      3.56 TIME LEFT: 172796.43
 STEP:  93 TIME =     0.04 SECS, INTEGRAL =      3.60 TIME LEFT: 172796.39
 STEP:  94 TIME =     0.04 SECS, INTEGRAL =      3.64 TIME LEFT: 172796.35
 STEP:  95 TIME =     0.04 SECS, INTEGRAL =      3.68 TIME LEFT: 172796.31
 STEP:  96 TIME =     0.04 SECS, INTEGRAL =      3.71 TIME LEFT: 172796.27

(To convert to Hartree/Bohr^2, multiply by (10^(-21) x N x a0^2)/(4.184 x 627.51) =  0.0642)


           FORCE MATRIX IN MILLIDYNES/ANGSTROM


                  C  1       C  2       C  3       C  4       C  5       C  6
 ------------------------------------------------------------------------------
     C    1  14.766634
     C    2   2.990471  14.767792
     C    3   3.513457   1.817648  14.442019
     C    4   1.817732   3.514421   3.735504  14.442151
     C    5   0.139269   0.012093   0.007569   0.002113  14.706094
     C    6   0.012295   0.139382   0.002127   0.007487   0.002201  14.706575
     C    7   0.018922   0.001823   0.000875   0.000147   4.412154   0.000319
     C    8   0.001855   0.019218   0.000150   0.000876   0.000325   4.410352
     C    9   5.070681   0.556452   0.545329   0.041191   0.815470   0.003148
     C   10   0.557081   5.069182   0.041190   0.545193   0.003121   0.814853
     C   11   0.861221   0.046439   0.050754   0.006214   5.004548   0.003627
     C   12   0.046143   0.861827   0.006195   0.050829   0.003608   5.005290
     H   13   4.374798   0.443202   0.430021   0.024974   0.013612   0.001213
     H   14   0.443208   4.374711   0.024981   0.429906   0.001218   0.013540
     H   15   0.455154   0.028480   4.664577   0.446278   0.000905   0.000191
     H   16   0.441189   0.032665   4.709028   0.443494   0.000998   0.000316
     H   17   0.028476   0.455166   0.446195   4.664437   0.000191   0.000897
     H   18   0.032667   0.441315   0.443494   4.708918   0.000313   0.000996
     H   19   0.018045   0.001648   0.000945   0.000498   4.419368   0.000298
     H   20   0.003083   0.000450   0.000629   0.000136   4.440636   0.000486
     H   21   0.000445   0.002900   0.000135   0.000626   0.000489   4.441006
     H   22   0.001679   0.018015   0.000500   0.000940   0.000299   4.420649
     H   23   0.000702   0.000131   0.000053   0.000058   0.465133   0.000242
     H   24   0.000773   0.000132   0.000074   0.000081   0.461646   0.000149
     H   25   0.003256   0.000268   0.000258   0.000068   0.449732   0.000114
     H   26   0.000270   0.003286   0.000069   0.000258   0.000113   0.449900
     H   27   0.000131   0.000709   0.000059   0.000053   0.000239   0.465107
     H   28   0.000135   0.000773   0.000082   0.000070   0.000145   0.461472
     H   29   0.088655   0.013429   0.001935   0.001566   0.429187   0.004956
     H   30   0.438418   0.028593   0.029643   0.002133   0.084922   0.000639
     H   31   0.013168   0.087676   0.001526   0.001877   0.004889   0.428770
     H   32   0.028344   0.438525   0.002127   0.029788   0.000630   0.084927


                  C  7       C  8       C  9       C 10       C 11       C 12
 ------------------------------------------------------------------------------
     C    7  14.353395
     C    8   0.000250  14.352585
     C    9   0.042209   0.000521  18.203581
     C   10   0.000512   0.041598   0.030402  18.202640
     C   11   0.718326   0.000601  10.629194   0.005312  18.093992
     C   12   0.000599   0.718656   0.005259  10.630223   0.026430  18.092514
     H   13   0.002177   0.000245   0.397080   0.025049   0.030525   0.008817
     H   14   0.000246   0.002192   0.024932   0.397556   0.008954   0.030838
     H   15   0.000234   0.000063   0.024067   0.002090   0.003322   0.000714
     H   16   0.000327   0.000080   0.032773   0.003521   0.005549   0.000788
     H   17   0.000061   0.000238   0.002077   0.024215   0.000723   0.003327
     H   18   0.000080   0.000332   0.003515   0.032775   0.000789   0.005555
     H   19   0.445974   0.000113   0.030583   0.000802   0.408827   0.000367
     H   20   0.435156   0.000079   0.047873   0.000569   0.459876   0.000488
     H   21   0.000076   0.435163   0.000578   0.047931   0.000491   0.460332
     H   22   0.000109   0.446075   0.000799   0.031067   0.000383   0.409204
     H   23   4.724276   0.000100   0.002050   0.000311   0.027377   0.000319
     H   24   4.746316   0.000042   0.002438   0.000217   0.015801   0.000278
     H   25   4.750867   0.000092   0.007096   0.000197   0.052253   0.000124
     H   26   0.000090   4.751249   0.000194   0.006968   0.000122   0.052219
     H   27   0.000101   4.724508   0.000308   0.002052   0.000313   0.027752
     H   28   0.000042   4.746592   0.000214   0.002434   0.000273   0.015469
     H   29   0.025325   0.000902   0.472059   0.005698   4.530808   0.064012
     H   30   0.008751   0.000214   4.779630   0.003289   0.471836   0.000905
     H   31   0.000901   0.024319   0.005627   0.472019   0.063810   4.531097
     H   32   0.000210   0.008988   0.003262   4.779570   0.000907   0.471727


                  H 13       H 14       H 15       H 16       H 17       H 18
 ------------------------------------------------------------------------------
     H   13   4.855001
     H   14   0.031907   4.855166
     H   15   0.033094   0.002426   5.292554
     H   16   0.027664   0.001114   0.556494   5.329200
     H   17   0.002424   0.033065   0.034425   0.023051   5.292206
     H   18   0.001115   0.027678   0.023098   0.031653   0.555914   5.328993
     H   19   0.001645   0.000370   0.000192   0.000217   0.000067   0.000078
     H   20   0.000382   0.000241   0.000210   0.000081   0.000071   0.000071
     H   21   0.000238   0.000380   0.000071   0.000072   0.000210   0.000079
     H   22   0.000365   0.001642   0.000068   0.000078   0.000186   0.000214
     H   23   0.000152   0.000088   0.000078   0.000057   0.000022   0.000033
     H   24   0.000162   0.000116   0.000066   0.000058   0.000024   0.000034
     H   25   0.000486   0.000115   0.000089   0.000088   0.000024   0.000032
     H   26   0.000116   0.000487   0.000025   0.000032   0.000089   0.000089
     H   27   0.000088   0.000149   0.000022   0.000033   0.000078   0.000057
     H   28   0.000117   0.000158   0.000024   0.000033   0.000066   0.000057
     H   29   0.010319   0.003259   0.000776   0.000616   0.000437   0.000447
     H   30   0.018954   0.003187   0.029306   0.001883   0.000625   0.000851
     H   31   0.002968   0.010201   0.000431   0.000434   0.000773   0.000607
     H   32   0.003185   0.019202   0.000629   0.000852   0.029345   0.001882


                  H 19       H 20       H 21       H 22       H 23       H 24
 ------------------------------------------------------------------------------
     H   19   5.016471
     H   20   0.566843   5.050926
     H   21   0.000054   0.000115   5.051379
     H   22   0.000064   0.000054   0.566805   5.017740
     H   23   0.023756   0.048185   0.000064   0.000059   5.469188
     H   24   0.049407   0.024385   0.000041   0.000037   0.579461   5.484898
     H   25   0.028488   0.030008   0.000035   0.000052   0.573790   0.574151
     H   26   0.000052   0.000034   0.029663   0.028786   0.000036   0.000018
     H   27   0.000058   0.000063   0.048154   0.023391   0.000115   0.000031
     H   28   0.000036   0.000040   0.024763   0.049413   0.000031   0.000014
     H   29   0.015853   0.038012   0.000977   0.000624   0.019563   0.002716
     H   30   0.010326   0.029636   0.000126   0.000203   0.000592   0.000511
     H   31   0.000614   0.000956   0.038144   0.016781   0.000510   0.000359
     H   32   0.000201   0.000123   0.029674   0.010192   0.000062   0.000063


                  H 25       H 26       H 27       H 28       H 29       H 30
 ------------------------------------------------------------------------------
     H   25   5.487975
     H   26   0.000029   5.488426
     H   27   0.000036   0.573740   5.469357
     H   28   0.000018   0.574387   0.579283   5.485059
     H   29   0.002179   0.000298   0.000494   0.000350   5.088602
     H   30   0.001700   0.000067   0.000062   0.000063   0.107618   5.155820
     H   31   0.000302   0.002129   0.019299   0.002643   0.194462   0.001048
     H   32   0.000067   0.001737   0.000599   0.000512   0.001055   0.000779


                  H 31       H 32
 ------------------------------
     H   31   5.088305
     H   32   0.106348   5.155800


          HEAT OF FORMATION =       2.479669 KCALS/MOLE

          ZERO POINT ENERGY     180.290 KCAL/MOL


           NORMAL COORDINATE ANALYSIS (Total motion = 1 Angstrom)


   Root No.       1         2         3         4         5         6         7         8

                 1 A       2 A       3 A       4 A       5 A       6 A       7 A       8 A   

                  25.8      27.6      72.6      78.7     106.6     111.1     137.6     148.1
  
           1   -0.0030   -0.0022   -0.0135   -0.0004   -0.0109    0.0016   -0.0010    0.0076
           2    0.0107    0.0028    0.0047    0.0130    0.0095    0.0045    0.0020   -0.0053
           3   -0.0044    0.0038   -0.0063    0.0128   -0.0060    0.0081   -0.0080   -0.0092
           4   -0.0030   -0.0023   -0.0135   -0.0006   -0.0108    0.0019   -0.0002    0.0077
           5   -0.0056   -0.0104   -0.0061    0.0113   -0.0079    0.0079    0.0019    0.0053
           6    0.0028   -0.0046   -0.0050   -0.0141   -0.0079   -0.0051    0.0084   -0.0093
           7    0.0133    0.0109   -0.0027    0.0018    0.0073   -0.0017   -0.0011   -0.0012
           8    0.0106    0.0028    0.0048    0.0131    0.0097    0.0046    0.0018   -0.0047
           9    0.0062    0.0116    0.0139    0.0209    0.0174    0.0047   -0.0153    0.0157
          10    0.0137    0.0102   -0.0026   -0.0014    0.0070   -0.0031    0.0013   -0.0013
          11   -0.0047   -0.0097   -0.0047    0.0109   -0.0064    0.0076    0.0022    0.0064
          12    0.0130    0.0031    0.0148   -0.0209    0.0151   -0.0127    0.0145    0.0144
          13   -0.0256   -0.0054    0.0138    0.0074    0.0137   -0.0184    0.0174   -0.0041
          14    0.0144    0.0030    0.0048   -0.0166    0.0015    0.0012   -0.0052    0.0021
          15   -0.0094    0.0030    0.0060   -0.0124   -0.0049   -0.0041   -0.0078   -0.0028
          16   -0.0120   -0.0232    0.0123   -0.0064    0.0205    0.0109   -0.0165   -0.0048
          17   -0.0068   -0.0148   -0.0040   -0.0160   -0.0003    0.0016   -0.0047   -0.0027
          18    0.0006   -0.0084    0.0052    0.0137   -0.0032    0.0072    0.0086   -0.0017
          19    0.0531   -0.0185   -0.0001    0.0096    0.0004   -0.0095    0.0087   -0.0115
          20   -0.0251    0.0103    0.0181   -0.0112   -0.0013   -0.0096   -0.0026   -0.0009
          21    0.0019   -0.0012   -0.0160   -0.0338    0.0246    0.0176   -0.0039    0.0189
          22   -0.0021    0.0574   -0.0001   -0.0089    0.0045    0.0090   -0.0074   -0.0114
          23   -0.0023    0.0298   -0.0176   -0.0089   -0.0021   -0.0146   -0.0027    0.0017
          24   -0.0009   -0.0009   -0.0123    0.0347    0.0131   -0.0306    0.0023    0.0181
          25   -0.0172   -0.0023   -0.0212    0.0133   -0.0069    0.0116   -0.0042    0.0048
          26    0.0101    0.0028   -0.0032    0.0055    0.0026    0.0055    0.0037   -0.0191
          27   -0.0126    0.0037   -0.0153    0.0163   -0.0074    0.0140   -0.0082   -0.0193
          28   -0.0069   -0.0160   -0.0192   -0.0145   -0.0114   -0.0094    0.0034    0.0054
          29   -0.0055   -0.0108    0.0009    0.0037   -0.0010    0.0050    0.0027    0.0176
          30    0.0004   -0.0122   -0.0131   -0.0171   -0.0125   -0.0097    0.0094   -0.0195
          31   -0.0112   -0.0033    0.0254    0.0047   -0.0176   -0.0247   -0.0057    0.0080
          32    0.0132    0.0026    0.0112    0.0001   -0.0028   -0.0061    0.0020   -0.0164
          33   -0.0024    0.0039    0.0161   -0.0033   -0.0241   -0.0124   -0.0149   -0.0088
          34   -0.0061   -0.0106    0.0213   -0.0049   -0.0042    0.0343    0.0049    0.0084
          35   -0.0060   -0.0129   -0.0090   -0.0002   -0.0018   -0.0066    0.0017    0.0158
          36    0.0034   -0.0026    0.0138    0.0030   -0.0158    0.0267    0.0151   -0.0087
          37   -0.0032   -0.0111   -0.0169   -0.0153   -0.0194   -0.0043    0.0075    0.0109
          38    0.0214    0.0111    0.0190    0.0204    0.0268    0.0027   -0.0028    0.0059
          39   -0.0091    0.0041   -0.0111    0.0162   -0.0095    0.0117   -0.0096   -0.0157
          40   -0.0113   -0.0002   -0.0181    0.0137   -0.0164    0.0109   -0.0092    0.0105
          41   -0.0164   -0.0186   -0.0204    0.0174   -0.0250    0.0140   -0.0023   -0.0056
          42    0.0026   -0.0086   -0.0080   -0.0182   -0.0114   -0.0071    0.0108   -0.0145
          43    0.0140    0.0199    0.0001    0.0285    0.0143    0.0082   -0.0204   -0.0028
          44    0.0082    0.0013   -0.0051    0.0079    0.0004    0.0059    0.0071   -0.0221
          45    0.0077    0.0161    0.0201    0.0349    0.0252    0.0083   -0.0262    0.0240
          46    0.0219    0.0101    0.0010   -0.0213    0.0114   -0.0127    0.0161   -0.0050
          47    0.0220    0.0116    0.0199    0.0194    0.0290    0.0019   -0.0035    0.0064
          48    0.0070    0.0169    0.0199    0.0388    0.0254    0.0101   -0.0291    0.0242
          49    0.0221    0.0083    0.0007   -0.0276    0.0103   -0.0154    0.0208   -0.0041
          50   -0.0024   -0.0082    0.0052    0.0051    0.0033    0.0039    0.0071    0.0236
          51    0.0174    0.0030    0.0202   -0.0341    0.0204   -0.0194    0.0246    0.0205
          52    0.0156    0.0191    0.0006    0.0221    0.0145    0.0052   -0.0155   -0.0040
          53   -0.0157   -0.0183   -0.0190    0.0147   -0.0248    0.0132   -0.0019   -0.0032
          54    0.0190    0.0029    0.0220   -0.0388    0.0222   -0.0218    0.0282    0.0226
          55   -0.0489   -0.0042    0.0087    0.0080    0.0376   -0.0156    0.0358   -0.0106
          56    0.0713   -0.0075   -0.0146   -0.0274    0.0062    0.0174   -0.0112    0.0102
          57    0.0269   -0.0005    0.0069   -0.0154   -0.0281   -0.0033   -0.0278    0.0057
          58   -0.0747    0.0018    0.0190    0.0068    0.0291   -0.0222    0.0292   -0.0037
          59   -0.0081    0.0074    0.0070   -0.0251    0.0046    0.0018   -0.0088    0.0149
          60   -0.0573    0.0086    0.0115   -0.0025    0.0154   -0.0107    0.0149   -0.0181
          61   -0.0193   -0.0750    0.0174   -0.0054    0.0366    0.0062   -0.0285   -0.0053
          62   -0.0054    0.0032   -0.0050   -0.0254   -0.0007    0.0039   -0.0092   -0.0171
          63   -0.0075   -0.0575    0.0108    0.0052    0.0177    0.0033   -0.0117   -0.0173
          64   -0.0171   -0.0434    0.0080   -0.0063    0.0398   -0.0053   -0.0335   -0.0126
          65   -0.0124   -0.0712    0.0129   -0.0263    0.0021    0.0217   -0.0086   -0.0098
          66    0.0082    0.0333    0.0037    0.0172   -0.0249    0.0175    0.0282    0.0093
          67    0.1031   -0.0260   -0.0066    0.0109   -0.0185   -0.0053   -0.0130   -0.0041
          68   -0.0039    0.0061    0.0176   -0.0028    0.0024   -0.0124    0.0216   -0.0331
          69    0.0529   -0.0073   -0.0259   -0.0441   -0.0117    0.0287   -0.0747    0.0781
          70    0.0783   -0.0201    0.0024    0.0097   -0.0363   -0.0106   -0.0445    0.0247
          71   -0.0829    0.0209    0.0390   -0.0007   -0.0057   -0.0274    0.0062   -0.0124
          72   -0.0365    0.0026   -0.0148   -0.0319    0.0638    0.0154    0.0559   -0.0228
          73    0.0406   -0.0198   -0.0070    0.0101    0.0451   -0.0059    0.0764   -0.0615
          74   -0.0206    0.0098    0.0088   -0.0257   -0.0033    0.0020   -0.0338    0.0404
          75   -0.0015   -0.0021   -0.0252   -0.0425    0.0457    0.0266    0.0107    0.0196
          76   -0.0068    0.0470   -0.0059   -0.0079    0.0428   -0.0220   -0.0721   -0.0718
          77   -0.0033    0.0246   -0.0102   -0.0222    0.0075   -0.0070   -0.0340   -0.0459
          78   -0.0026   -0.0024   -0.0208    0.0450    0.0258   -0.0522   -0.0080    0.0220
          79    0.0052    0.1103   -0.0062   -0.0107   -0.0155    0.0160    0.0153   -0.0000
          80   -0.0035    0.0136   -0.0184    0.0003   -0.0106   -0.0141    0.0262    0.0448
          81    0.0075    0.0507   -0.0214    0.0432   -0.0237   -0.0205    0.0667    0.0844
          82    0.0030    0.0789    0.0021   -0.0101   -0.0267    0.0318    0.0422    0.0321
          83    0.0033    0.0871   -0.0355    0.0010   -0.0043   -0.0367    0.0008    0.0094
          84   -0.0088   -0.0450   -0.0091    0.0329    0.0506   -0.0502   -0.0572   -0.0355
          85    0.0058   -0.0031    0.0715   -0.0064   -0.0414   -0.0574   -0.0150    0.0157
          86    0.0158    0.0020    0.0267    0.0028   -0.0064   -0.0173    0.0023   -0.0222
          87    0.0127    0.0046    0.0494   -0.0165   -0.0456   -0.0363   -0.0241    0.0056
          88   -0.0341   -0.0023   -0.0694    0.0266    0.0142    0.0487    0.0041   -0.0079
          89    0.0074    0.0031   -0.0203    0.0034    0.0048    0.0168    0.0052   -0.0244
          90   -0.0279    0.0034   -0.0496    0.0325    0.0128    0.0426   -0.0013   -0.0268
          91   -0.0012    0.0049    0.0605    0.0064   -0.0100    0.0805    0.0131    0.0158
          92   -0.0058   -0.0140   -0.0198    0.0033   -0.0047   -0.0170    0.0022    0.0229
          93    0.0081    0.0111    0.0422    0.0157   -0.0235    0.0625    0.0227    0.0049
          94   -0.0116   -0.0316   -0.0602   -0.0282   -0.0100   -0.0585   -0.0036   -0.0068
          95   -0.0054   -0.0097    0.0132    0.0005    0.0029    0.0144    0.0033    0.0217
          96   -0.0041   -0.0264   -0.0423   -0.0332   -0.0078   -0.0496    0.0034   -0.0271


   Root No.       9        10        11        12        13        14        15        16

                 9 A      10 A      11 A      12 A      13 A      14 A      15 A      16 A   

                 174.2     182.8     191.8     305.9     332.4     366.6     410.2     445.5
  
           1   -0.0009    0.0121   -0.0009    0.0054    0.0034    0.0010   -0.0259    0.0174
           2   -0.0028   -0.0059    0.0072    0.0042    0.0102   -0.0189    0.0129   -0.0016
           3   -0.0011   -0.0029   -0.0076    0.0101   -0.0034   -0.0086    0.0011    0.0322
           4   -0.0011    0.0121   -0.0003    0.0052   -0.0045    0.0001   -0.0258    0.0175
           5   -0.0035    0.0062    0.0072   -0.0028    0.0101   -0.0176   -0.0139    0.0039
           6    0.0012   -0.0026    0.0071    0.0105    0.0023    0.0099    0.0024    0.0320
           7   -0.0022    0.0011    0.0005    0.0239   -0.0025    0.0008   -0.0002   -0.0126
           8   -0.0034   -0.0057    0.0076    0.0064    0.0115   -0.0220    0.0151   -0.0093
           9   -0.0237   -0.0000    0.0095   -0.0218   -0.0087    0.0107   -0.0071    0.0037
          10    0.0018    0.0014   -0.0008    0.0239    0.0005   -0.0008   -0.0003   -0.0126
          11   -0.0024    0.0064    0.0063   -0.0072    0.0122   -0.0221   -0.0170    0.0095
          12    0.0248    0.0033   -0.0099   -0.0208    0.0090   -0.0088   -0.0064    0.0029
          13    0.0099   -0.0146    0.0226    0.0037   -0.0054    0.0017   -0.0035    0.0057
          14   -0.0034    0.0019   -0.0042   -0.0210    0.0098    0.0218   -0.0006    0.0114
          15   -0.0005   -0.0012   -0.0094    0.0012   -0.0196    0.0028   -0.0185   -0.0265
          16   -0.0072   -0.0183   -0.0206    0.0036    0.0055   -0.0020   -0.0042    0.0053
          17   -0.0033   -0.0035   -0.0035    0.0216    0.0100    0.0216   -0.0006   -0.0138
          18    0.0010    0.0010    0.0100    0.0004    0.0174   -0.0040   -0.0184   -0.0257
          19    0.0028   -0.0041    0.0005   -0.0102   -0.0044    0.0140   -0.0087    0.0011
          20    0.0018   -0.0049    0.0016   -0.0191    0.0027    0.0237   -0.0066    0.0078
          21   -0.0071    0.0053    0.0058    0.0110    0.0045   -0.0125    0.0076    0.0036
          22   -0.0026   -0.0046   -0.0002   -0.0102    0.0046   -0.0142   -0.0092    0.0013
          23    0.0011    0.0053    0.0007    0.0195    0.0013    0.0241    0.0078   -0.0075
          24    0.0065    0.0051   -0.0063    0.0091   -0.0048    0.0104    0.0073    0.0042
          25    0.0119    0.0045   -0.0080   -0.0202    0.0371    0.0082    0.0128   -0.0179
          26    0.0081   -0.0102   -0.0071   -0.0053   -0.0169   -0.0044    0.0011    0.0085
          27    0.0127   -0.0099   -0.0203   -0.0057   -0.0054   -0.0032    0.0156    0.0083
          28   -0.0127    0.0025    0.0079   -0.0220   -0.0355   -0.0085    0.0137   -0.0176
          29    0.0064    0.0104   -0.0064    0.0040   -0.0174   -0.0040    0.0008   -0.0076
          30   -0.0128   -0.0114    0.0217   -0.0056    0.0081    0.0029    0.0153    0.0088
          31   -0.0031    0.0067    0.0004   -0.0032    0.0405   -0.0051    0.0298    0.0068
          32    0.0021   -0.0070   -0.0061   -0.0018   -0.0187   -0.0061   -0.0017    0.0082
          33   -0.0035    0.0039   -0.0219    0.0070   -0.0130   -0.0137   -0.0022   -0.0199
          34    0.0031    0.0077   -0.0013   -0.0045   -0.0391    0.0050    0.0306    0.0073
          35    0.0019    0.0072   -0.0050    0.0015   -0.0184   -0.0051    0.0023   -0.0095
          36    0.0024    0.0068    0.0214    0.0080    0.0138    0.0146   -0.0022   -0.0194
          37   -0.0031    0.0182    0.0085    0.0118   -0.0009    0.0067   -0.0500    0.0427
          38   -0.0179   -0.0066    0.0192    0.0019    0.0114   -0.0184    0.0189   -0.0217
          39    0.0069   -0.0057   -0.0174    0.0072   -0.0023   -0.0110    0.0104    0.0282
          40    0.0002    0.0178   -0.0104    0.0117   -0.0013   -0.0047   -0.0502    0.0427
          41   -0.0201    0.0047    0.0197   -0.0005    0.0114   -0.0167   -0.0194    0.0237
          42   -0.0056   -0.0060    0.0163    0.0074    0.0017    0.0119    0.0122    0.0265
          43   -0.0355   -0.0045    0.0151    0.0271   -0.0177    0.0186    0.0070   -0.0227
          44    0.0132   -0.0103   -0.0044    0.0308    0.0166   -0.0388    0.0304    0.0039
          45   -0.0464   -0.0000    0.0219   -0.0334   -0.0182    0.0273   -0.0122   -0.0072
          46    0.0270   -0.0006   -0.0114    0.0308    0.0095   -0.0145    0.0119   -0.0229
          47   -0.0199   -0.0082    0.0199   -0.0087    0.0035   -0.0057    0.0189   -0.0388
          48   -0.0513   -0.0003    0.0239   -0.0346   -0.0207    0.0298   -0.0128   -0.0064
          49    0.0354    0.0010   -0.0151    0.0280    0.0155   -0.0189    0.0059   -0.0229
          50    0.0159    0.0135   -0.0067   -0.0320    0.0190   -0.0394   -0.0335   -0.0046
          51    0.0464    0.0062   -0.0213   -0.0301    0.0185   -0.0239   -0.0112   -0.0070
          52   -0.0268   -0.0048    0.0114    0.0302   -0.0116    0.0139    0.0127   -0.0228
          53   -0.0179    0.0068    0.0172    0.0065    0.0043   -0.0070   -0.0204    0.0383
          54    0.0539    0.0072   -0.0252   -0.0340    0.0222   -0.0288   -0.0130   -0.0095
          55    0.0166   -0.0271    0.0406    0.0153   -0.0381   -0.0018   -0.0278    0.0081
          56   -0.0114    0.0125   -0.0115   -0.0317    0.0282    0.0321    0.0092    0.0242
          57   -0.0092    0.0141   -0.0293   -0.0125    0.0177    0.0080    0.0084   -0.0260
          58    0.0164   -0.0250    0.0404    0.0139   -0.0220   -0.0026   -0.0163    0.0060
          59   -0.0046    0.0045    0.0020   -0.0231    0.0287    0.0247    0.0103    0.0181
          60    0.0112   -0.0207    0.0107    0.0196   -0.0684   -0.0077   -0.0509   -0.0331
          61   -0.0119   -0.0320   -0.0374    0.0147    0.0218    0.0027   -0.0177    0.0052
          62   -0.0059   -0.0081    0.0010    0.0265    0.0329    0.0260   -0.0148   -0.0215
          63   -0.0079   -0.0221   -0.0075    0.0202    0.0622    0.0070   -0.0499   -0.0328
          64   -0.0121   -0.0335   -0.0361    0.0157    0.0362    0.0016   -0.0284    0.0073
          65   -0.0090   -0.0144   -0.0085    0.0322    0.0248    0.0319   -0.0083   -0.0267
          66    0.0085    0.0214    0.0284   -0.0159   -0.0208   -0.0110    0.0105   -0.0230
          67    0.0130   -0.0142   -0.0002   -0.0171   -0.0097    0.0223   -0.0163   -0.0051
          68   -0.0241    0.0254   -0.0358   -0.0336    0.0013    0.0385   -0.0173   -0.0046
          69    0.0473   -0.0556    0.0593    0.0212   -0.0019   -0.0212    0.0116    0.0121
          70    0.0467   -0.0533    0.0368   -0.0068   -0.0203    0.0164   -0.0197   -0.0066
          71    0.0057   -0.0105    0.0034   -0.0185   -0.0116    0.0295   -0.0218   -0.0077
          72   -0.0544    0.0580   -0.0336    0.0076    0.0191   -0.0143    0.0170    0.0092
          73   -0.0567    0.0632   -0.0533   -0.0192    0.0158    0.0158    0.0026    0.0089
          74    0.0287   -0.0362    0.0423   -0.0037    0.0110    0.0055    0.0125    0.0305
          75   -0.0204    0.0197    0.0041    0.0164    0.0199   -0.0236    0.0256    0.0218
          76    0.0388    0.0741    0.0451   -0.0198   -0.0152   -0.0159    0.0031    0.0103
          77    0.0207    0.0472    0.0385    0.0050    0.0074    0.0075   -0.0095   -0.0282
          78    0.0134    0.0150   -0.0107    0.0151   -0.0198    0.0225    0.0269    0.0243
          79   -0.0105   -0.0166    0.0011   -0.0170    0.0102   -0.0226   -0.0172   -0.0052
          80   -0.0200   -0.0389   -0.0372    0.0346    0.0003    0.0392    0.0190    0.0056
          81   -0.0290   -0.0631   -0.0494    0.0182    0.0013    0.0177    0.0105    0.0115
          82   -0.0326   -0.0608   -0.0303   -0.0060    0.0198   -0.0162   -0.0206   -0.0069
          83    0.0067    0.0160    0.0047    0.0174   -0.0131    0.0292    0.0236    0.0083
          84    0.0400    0.0677    0.0277    0.0050   -0.0180    0.0114    0.0157    0.0088
          85   -0.0265    0.0231   -0.0029    0.0262    0.0388   -0.0360    0.0376    0.0311
          86   -0.0021   -0.0089   -0.0078    0.0121   -0.0344   -0.0229    0.0059    0.0305
          87   -0.0238    0.0231   -0.0216    0.0242    0.0042   -0.0297   -0.0001   -0.0150
          88    0.0398   -0.0126   -0.0129   -0.0542    0.0376    0.0400    0.0170   -0.0504
          89    0.0171   -0.0129   -0.0140   -0.0149   -0.0305    0.0069   -0.0123   -0.0087
          90    0.0331   -0.0251   -0.0185   -0.0330    0.0095    0.0196    0.0334   -0.0101
          91    0.0245    0.0294   -0.0006    0.0255   -0.0388    0.0364    0.0392    0.0318
          92   -0.0008    0.0102   -0.0068   -0.0116   -0.0354   -0.0202   -0.0047   -0.0308
          93    0.0206    0.0299    0.0187    0.0255   -0.0034    0.0320    0.0015   -0.0126
          94   -0.0391   -0.0205    0.0155   -0.0569   -0.0337   -0.0415    0.0172   -0.0507
          95    0.0138    0.0126   -0.0137    0.0107   -0.0320    0.0049    0.0161    0.0082
          96   -0.0318   -0.0314    0.0227   -0.0344   -0.0034   -0.0217    0.0317   -0.0106


   Root No.      17        18        19        20        21        22        23        24

                17 A      18 A      19 A      20 A      21 A      22 A      23 A      24 A   

                 497.2     506.1     590.6     755.9     802.6     815.4     844.1     887.5
  
           1    0.0092    0.0003   -0.0040    0.0176    0.0075    0.0071    0.0080    0.0210
           2   -0.0041    0.0154    0.0026    0.0262   -0.0017    0.0042    0.0110   -0.0026
           3   -0.0208   -0.0009    0.0400    0.0095    0.0038    0.0008    0.0087    0.0052
           4    0.0093   -0.0010    0.0040    0.0173   -0.0088    0.0059    0.0080   -0.0211
           5    0.0031    0.0151   -0.0005   -0.0255   -0.0010   -0.0043   -0.0103   -0.0029
           6   -0.0213    0.0004   -0.0398    0.0114   -0.0041    0.0004    0.0095   -0.0049
           7   -0.0092   -0.0005    0.0000   -0.0268   -0.0001   -0.0047   -0.0119   -0.0016
           8   -0.0076    0.0232   -0.0001    0.0305   -0.0024    0.0051    0.0169   -0.0014
           9    0.0089   -0.0056    0.0007    0.0061    0.0016    0.0025   -0.0249    0.0046
          10   -0.0092    0.0006   -0.0000   -0.0268    0.0011   -0.0047   -0.0118    0.0017
          11    0.0090    0.0230   -0.0002   -0.0301   -0.0013   -0.0052   -0.0187   -0.0016
          12    0.0085    0.0036   -0.0007    0.0083   -0.0021    0.0025   -0.0234   -0.0045
          13    0.0003   -0.0056    0.0032   -0.0065   -0.0169    0.0138    0.0005    0.0051
          14   -0.0119   -0.0017    0.0096    0.0013    0.0099   -0.0086   -0.0012   -0.0034
          15   -0.0121    0.0331   -0.0072    0.0041   -0.0060    0.0063    0.0031    0.0016
          16    0.0001    0.0050   -0.0033   -0.0060    0.0145    0.0159    0.0004   -0.0050
          17    0.0106   -0.0048    0.0100   -0.0009    0.0093    0.0110    0.0014   -0.0037
          18   -0.0141   -0.0329    0.0064    0.0044    0.0038    0.0060    0.0029   -0.0012
          19   -0.0094    0.0052    0.0061   -0.0012   -0.0017    0.0016    0.0001    0.0050
          20   -0.0178    0.0050    0.0136   -0.0027    0.0039   -0.0047   -0.0008   -0.0031
          21    0.0061   -0.0053   -0.0013    0.0002   -0.0014    0.0014    0.0012    0.0022
          22   -0.0098   -0.0052   -0.0062   -0.0012    0.0014    0.0018    0.0001   -0.0049
          23    0.0181    0.0049    0.0133    0.0026    0.0033    0.0055    0.0008   -0.0033
          24    0.0048    0.0049    0.0003    0.0000    0.0008    0.0011    0.0011   -0.0018
          25    0.0087    0.0045   -0.0256    0.0198    0.0165   -0.0051    0.0031    0.0266
          26    0.0269   -0.0217   -0.0127    0.0017   -0.0015    0.0034    0.0003    0.0072
          27   -0.0006   -0.0140    0.0178   -0.0168   -0.0002   -0.0069    0.0011   -0.0008
          28    0.0091   -0.0042    0.0256    0.0192   -0.0154   -0.0072    0.0031   -0.0269
          29   -0.0272   -0.0196   -0.0137   -0.0028   -0.0010   -0.0043   -0.0002    0.0070
          30    0.0017    0.0157   -0.0169   -0.0166    0.0019   -0.0062    0.0010    0.0003
          31    0.0017   -0.0159   -0.0021   -0.0052   -0.0046    0.0007   -0.0011   -0.0141
          32    0.0286   -0.0222   -0.0151    0.0018   -0.0020    0.0042   -0.0028    0.0017
          33    0.0130    0.0062   -0.0176    0.0005   -0.0010    0.0014   -0.0028   -0.0040
          34    0.0030    0.0168    0.0022   -0.0050    0.0042    0.0011   -0.0011    0.0140
          35   -0.0280   -0.0216   -0.0135   -0.0017   -0.0011   -0.0042    0.0025    0.0021
          36    0.0152   -0.0050    0.0186    0.0008    0.0007    0.0018   -0.0029    0.0037
          37    0.0071    0.0044   -0.0366    0.0287   -0.0049    0.0231    0.0360    0.0100
          38   -0.0081    0.0301    0.0017    0.0548   -0.0054    0.0112   -0.0026   -0.0136
          39   -0.0173   -0.0095    0.0542   -0.0093    0.0106   -0.0102    0.0023    0.0138
          40    0.0071   -0.0056    0.0366    0.0286    0.0003    0.0236    0.0360   -0.0100
          41    0.0076    0.0300   -0.0024   -0.0556   -0.0033   -0.0123    0.0025   -0.0144
          42   -0.0179    0.0080   -0.0539   -0.0053   -0.0083   -0.0108    0.0019   -0.0127
          43   -0.0110   -0.0115   -0.0142   -0.0607   -0.0010   -0.0169    0.1397   -0.0052
          44   -0.0379    0.0321    0.0461    0.0763    0.0018    0.0149   -0.0259    0.0093
[...]
 REDUCED MASS        0.3915         C  5 -- H 20          +6.2% ( 25.9%)     96.1%
 EFFECTIVE MASS      1.5434
 FORCE CONSTANT      2.0004

 VIBRATION         75   75A           ATOM PAIR      ENERGY CONTRIBUTION    RADIAL
 FREQUENCY          2982.88         C 12 -- H 31         +48.1% ( 70.9%)    100.0%
 TRANSITION DIPOLE   0.3387         C 11 -- H 29         +47.8% ( 70.7%)    100.0%
 TRAVEL (Ang.)       0.2235         C 10 -- C 12          +0.7% (  8.7%)     38.4%
 REDUCED MASS        0.4527         C  9 -- C 11          +0.7% (  8.7%)     38.4%
 EFFECTIVE MASS      1.5099
 FORCE CONSTANT      2.3733

 VIBRATION         76   76A           ATOM PAIR      ENERGY CONTRIBUTION    RADIAL
 FREQUENCY          3023.87         C  5 -- H 20         +36.5% ( 59.6%)     98.1%
 TRANSITION DIPOLE   0.0490         C  5 -- H 19         +31.7% ( 55.5%)     97.3%
 TRAVEL (Ang.)       0.2882         C  6 -- H 21         +13.9% ( 36.8%)     98.0%
 REDUCED MASS        0.2685         C  6 -- H 22         +12.4% ( 34.8%)     97.4%
 EFFECTIVE MASS      1.2866
 FORCE CONSTANT      1.4462

 VIBRATION         77   77A           ATOM PAIR      ENERGY CONTRIBUTION    RADIAL
 FREQUENCY          3024.35         C  6 -- H 21         +37.8% ( 60.6%)     98.1%
 TRANSITION DIPOLE   0.0657         C  6 -- H 22         +32.0% ( 55.7%)     97.2%
 TRAVEL (Ang.)       0.2810         C  5 -- H 20         +15.2% ( 38.4%)     98.2%
 REDUCED MASS        0.2824         C  5 -- H 19         +12.5% ( 34.9%)     97.1%
 EFFECTIVE MASS      1.2772
 FORCE CONSTANT      1.5217

 VIBRATION         78   78A           ATOM PAIR      ENERGY CONTRIBUTION    RADIAL
 FREQUENCY          3027.79         C  4 -- H 17         +27.9% ( 55.2%)     97.5%
 TRANSITION DIPOLE   0.0397         C  3 -- H 15         +27.6% ( 54.9%)     97.5%
 TRAVEL (Ang.)       0.2915         C  4 -- H 18         +20.3% ( 47.1%)     95.6%
 REDUCED MASS        0.2620         C  3 -- H 16         +20.1% ( 46.9%)     95.6%
 EFFECTIVE MASS      1.5535
 FORCE CONSTANT      1.4152

 VIBRATION         79   79A           ATOM PAIR      ENERGY CONTRIBUTION    RADIAL
 FREQUENCY          3034.48         C 11 -- H 29         +47.1% ( 68.7%)     99.9%
 TRANSITION DIPOLE   0.2682         C 12 -- H 31         +46.7% ( 68.4%)     99.9%
 TRAVEL (Ang.)       0.2280         C  5 -- H 20          +1.3% ( 11.4%)     99.3%
 REDUCED MASS        0.4276         C  6 -- H 21          +1.3% ( 11.2%)     99.3%
 EFFECTIVE MASS      1.4292
 FORCE CONSTANT      2.3198

 VIBRATION         80   80A           ATOM PAIR      ENERGY CONTRIBUTION    RADIAL
 FREQUENCY          3040.78         C 10 -- H 32         +37.8% ( 62.7%)    100.0%
 TRANSITION DIPOLE   0.2198         C  9 -- H 30         +36.4% ( 61.5%)    100.0%
 TRAVEL (Ang.)       0.2759         C  3 -- H 15          +7.0% ( 27.1%)     98.1%
 REDUCED MASS        0.2913         C  4 -- H 17          +6.9% ( 26.9%)     98.1%
 EFFECTIVE MASS      1.5252
 FORCE CONSTANT      1.5871

 VIBRATION         81   81A           ATOM PAIR      ENERGY CONTRIBUTION    RADIAL
 FREQUENCY          3041.40         C  9 -- H 30         +48.7% ( 70.8%)    100.0%
 TRANSITION DIPOLE   0.2974         C 10 -- H 32         +47.1% ( 69.6%)    100.0%
 TRAVEL (Ang.)       0.2211         C  9 -- C 11          +0.8% (  9.2%)     40.3%
 REDUCED MASS        0.4535         C 10 -- C 12          +0.8% (  9.0%)     40.3%
 EFFECTIVE MASS      1.5259
 FORCE CONSTANT      2.4713

 VIBRATION         82   82A           ATOM PAIR      ENERGY CONTRIBUTION    RADIAL
 FREQUENCY          3042.74         C  3 -- H 15         +22.1% ( 48.6%)     97.7%
 TRANSITION DIPOLE   0.0868         C  4 -- H 17         +22.0% ( 48.4%)     97.7%
 TRAVEL (Ang.)       0.3486         C  3 -- H 16         +15.9% ( 41.2%)     95.9%
 REDUCED MASS        0.1824         C  4 -- H 18         +15.8% ( 41.0%)     95.9%
 EFFECTIVE MASS      1.5242         C 10 -- H 32         +10.5% ( 33.5%)    100.0%
 FORCE CONSTANT      0.9950         C  9 -- H 30         +10.3% ( 33.2%)    100.0%

 VIBRATION         83   83A           ATOM PAIR      ENERGY CONTRIBUTION    RADIAL
 FREQUENCY          3081.10         C  7 -- H 23         +62.6% ( 81.6%)     98.7%
 TRANSITION DIPOLE   0.0098         C  7 -- H 24         +27.3% ( 53.9%)     92.0%
 TRAVEL (Ang.)       0.2098         C  7 -- H 25          +6.3% ( 25.9%)     62.6%
 REDUCED MASS        0.4971         C  8 -- H 27          +1.6% ( 13.2%)     98.7%
 EFFECTIVE MASS      1.5011
 FORCE CONSTANT      2.7805

 VIBRATION         84   84A           ATOM PAIR      ENERGY CONTRIBUTION    RADIAL
 FREQUENCY          3081.20         C  8 -- H 27         +62.5% ( 81.6%)     98.7%
 TRANSITION DIPOLE   0.0127         C  8 -- H 28         +27.5% ( 54.1%)     92.1%
 TRAVEL (Ang.)       0.2098         C  8 -- H 26          +6.1% ( 25.6%)     61.9%
 REDUCED MASS        0.4972         C  7 -- H 23          +1.6% ( 13.2%)     98.7%
 EFFECTIVE MASS      1.5011
 FORCE CONSTANT      2.7811

 VIBRATION         85   85A           ATOM PAIR      ENERGY CONTRIBUTION    RADIAL
 FREQUENCY          3086.14         C  7 -- H 25         +58.2% ( 78.7%)     98.3%
 TRANSITION DIPOLE   0.0127         C  7 -- H 24         +36.7% ( 62.5%)     94.6%
 TRAVEL (Ang.)       0.2085         C  7 -- H 23          +3.7% ( 19.9%)     44.2%
 REDUCED MASS        0.5028         C  5 -- C  7          +1.0% ( 10.3%)      0.1%
 EFFECTIVE MASS      1.5042
 FORCE CONSTANT      2.8214

 VIBRATION         86   86A           ATOM PAIR      ENERGY CONTRIBUTION    RADIAL
 FREQUENCY          3086.21         C  8 -- H 26         +58.2% ( 78.7%)     98.3%
 TRANSITION DIPOLE   0.0128         C  8 -- H 28         +36.5% ( 62.4%)     94.6%
 TRAVEL (Ang.)       0.2085         C  8 -- H 27          +3.8% ( 20.2%)     45.2%
 REDUCED MASS        0.5024         C  6 -- C  8          +1.0% ( 10.3%)      0.1%
 EFFECTIVE MASS      1.5042
 FORCE CONSTANT      2.8194

 VIBRATION         87   87A           ATOM PAIR      ENERGY CONTRIBUTION    RADIAL
 FREQUENCY          3102.71         C  4 -- H 18         +31.6% ( 55.8%)     98.2%
 TRANSITION DIPOLE   0.0637         C  3 -- H 16         +27.1% ( 51.6%)     98.2%
 TRAVEL (Ang.)       0.2938         C  4 -- H 17         +21.2% ( 45.6%)     95.6%
 REDUCED MASS        0.2517         C  3 -- H 15         +18.0% ( 42.1%)     95.6%
 EFFECTIVE MASS      1.2826
 FORCE CONSTANT      1.4278

 VIBRATION         88   88A           ATOM PAIR      ENERGY CONTRIBUTION    RADIAL
 FREQUENCY          3104.22         C  3 -- H 16         +30.8% ( 55.1%)     98.1%
 TRANSITION DIPOLE   0.0827         C  4 -- H 18         +26.3% ( 50.9%)     98.1%
 TRAVEL (Ang.)       0.2952         C  3 -- H 15         +21.9% ( 46.4%)     95.9%
 REDUCED MASS        0.2492         C  4 -- H 17         +18.7% ( 42.9%)     95.9%
 EFFECTIVE MASS      1.2898
 FORCE CONSTANT      1.4151

 VIBRATION         89   89A           ATOM PAIR      ENERGY CONTRIBUTION    RADIAL
 FREQUENCY          3183.06         C  7 -- H 24         +34.2% ( 56.2%)     97.3%
 TRANSITION DIPOLE   0.0200         C  7 -- H 25         +34.1% ( 56.2%)     97.3%
 TRAVEL (Ang.)       0.2569         C  7 -- H 23         +30.4% ( 53.1%)     96.7%
 REDUCED MASS        0.3210         C  8 -- H 26          +0.4% (  5.8%)     97.3%
 EFFECTIVE MASS      1.1361
 FORCE CONSTANT      1.9163

 VIBRATION         90   90A           ATOM PAIR      ENERGY CONTRIBUTION    RADIAL
 FREQUENCY          3183.13         C  8 -- H 26         +34.2% ( 56.2%)     97.3%
 TRANSITION DIPOLE   0.0208         C  8 -- H 28         +34.1% ( 56.2%)     97.3%
 TRAVEL (Ang.)       0.2569         C  8 -- H 27         +30.4% ( 53.0%)     96.7%
 REDUCED MASS        0.3210         C  7 -- H 24          +0.4% (  5.8%)     97.3%
 EFFECTIVE MASS      1.1360
 FORCE CONSTANT      1.9165

      SYMMETRY NUMBER FOR POINT-GROUP C1  =  1


          SYSTEM IS A GROUND STATE



 InChI=1S/C12H20/c1-3-5-7-11-9-10-12(11)8-6-4-2/h5-8,11-12H,3-4,9-10H2,1-2H3


          MOLECULE IS NOT LINEAR

          THERE ARE 90 GENUINE VIBRATIONS IN THIS SYSTEM
          THIS THERMODYNAMICS CALCULATION IS LIMITED TO
          MOLECULES WHICH HAVE NO INTERNAL ROTATIONS




                    CALCULATED THERMODYNAMIC PROPERTIES
                                          *
   TEMP. (K)   PARTITION FUNCTION   H.O.F.    ENTHALPY  HEAT CAPACITY ENTROPY
                                   KCAL/MOL   CAL/MOLE    CAL/K/MOL  CAL/K/MOL


 298.00  VIB.     0.3834D+06                  7179.6502    45.7681    49.6422
         ROT.     0.2045D+07                   888.2803     2.9808    31.8565
         INT.     0.7840D+12                  8067.9305    48.7489    81.4986
         TRA.     0.2036D+28                  1480.4672     4.9680    41.1956
         TOT.                        2.480    9548.3977    53.7169   122.6943

 200.00  VIB.     0.6360D+04                  3460.8817    30.7940    34.7079
         ROT.     0.1124D+07                   596.1613     2.9808    30.6678
         INT.     0.7150D+10                  4057.0429    33.7748    65.3757
         TRA.     0.1119D+28                   993.6021     4.9680    39.2145
         TOT.                       -2.018    5050.6451    38.7428   104.5902

 210.00  VIB.     0.9807D+04                  3775.4160    32.1212    36.2422
         ROT.     0.1210D+07                   625.9693     2.9808    30.8132
         INT.     0.1186D+11                  4401.3853    35.1020    67.0555
         TRA.     0.1204D+28                  1043.2822     4.9680    39.4569
         TOT.                       -1.624    5444.6676    40.0700   106.5124

 220.00  VIB.     0.1506D+05                  4103.4733    33.4988    37.7681
         ROT.     0.1297D+07                   655.7774     2.9808    30.9519
         INT.     0.1953D+11                  4759.2507    36.4796    68.7200
         TRA.     0.1291D+28                  1092.9623     4.9680    39.6880
         TOT.                       -1.217    5852.2130    41.4476   108.4080

 230.00  VIB.     0.2302D+05                  4445.5613    34.9272    39.2885
         ROT.     0.1386D+07                   685.5855     2.9808    31.0844
         INT.     0.3192D+11                  5131.1467    37.9080    70.3729
         TRA.     0.1380D+28                  1142.6424     4.9680    39.9088
         TOT.                       -0.795    6273.7892    42.8760   110.2818

 240.00  VIB.     0.3508D+05                  4802.1829    36.4052    40.8061
         ROT.     0.1478D+07                   715.3935     2.9808    31.2112
         INT.     0.5185D+11                  5517.5764    39.3860    72.0173
         TRA.     0.1471D+28                  1192.3226     4.9680    40.1203
         TOT.                       -0.359    6709.8990    44.3540   112.1376

 250.00  VIB.     0.5329D+05                  5173.8211    37.9300    42.3230
         ROT.     0.1571D+07                   745.2016     2.9808    31.3329
         INT.     0.8373D+11                  5919.0227    40.9108    73.6559
         TRA.     0.1564D+28                  1242.0027     4.9680    40.3231
         TOT.                        0.092    7161.0254    45.8788   113.9790

 260.00  VIB.     0.8072D+05                  5560.9275    39.4981    43.8410
         ROT.     0.1666D+07                   775.0097     2.9808    31.4498
         INT.     0.1345D+12                  6335.9371    42.4789    75.2909
         TRA.     0.1659D+28                  1291.6828     4.9680    40.5179
         TOT.                        0.559    7627.6199    47.4469   115.8088

 270.00  VIB.     0.1220D+06                  5963.9128    41.1050    45.3617
         ROT.     0.1763D+07                   804.8177     2.9808    31.5623
         INT.     0.2151D+12                  6768.7305    44.0858    76.9240
         TRA.     0.1756D+28                  1341.3629     4.9680    40.7054
         TOT.                        1.041    8110.0934    49.0538   117.6295

 280.00  VIB.     0.1839D+06                  6383.1411    42.7459    46.8862
         ROT.     0.1862D+07                   834.6258     2.9808    31.6707
         INT.     0.3425D+12                  7217.7669    45.7267    78.5569
         TRA.     0.1854D+28                  1391.0430     4.9680    40.8861
         TOT.                        1.540    8608.8099    50.6947   119.4430

 290.00  VIB.     0.2768D+06                  6818.9256    44.4154    48.4152
         ROT.     0.1963D+07                   864.4339     2.9808    31.7753
         INT.     0.5433D+12                  7683.3594    47.3962    80.1906
         TRA.     0.1954D+28                  1440.7231     4.9680    41.0604
         TOT.                        2.055    9124.0825    52.3642   121.2510

 300.00  VIB.     0.4159D+06                  7271.5264    46.1082    49.9494
         ROT.     0.2065D+07                   894.2419     2.9808    31.8764
         INT.     0.8591D+12                  8165.7683    49.0890    81.8258
         TRA.     0.2056D+28                  1490.4032     4.9680    41.2289
         TOT.                        2.587    9656.1715    54.0571   123.0547

 310.00  VIB.     0.6242D+06                  7741.1506    47.8192    51.4892
         ROT.     0.2170D+07                   924.0500     2.9808    31.9741
         INT.     0.1354D+13                  8665.2005    50.8000    83.4633
         TRA.     0.2160D+28                  1540.0833     4.9680    41.3918
         TOT.                        3.137   10205.2838    55.7680   124.8551

 320.00  VIB.     0.9357D+06                  8227.9527    49.5430    53.0346
         ROT.     0.2275D+07                   953.8580     2.9808    32.0688
         INT.     0.2129D+13                  9181.8107    52.5238    85.1033
         TRA.     0.2265D+28                  1589.7634     4.9680    41.5495
         TOT.                        3.703   10771.5741    57.4918   126.6528

 330.00  VIB.     0.1401D+07                  8732.0370    51.2748    54.5856
         ROT.     0.2383D+07                   983.6661     2.9808    32.1605
         INT.     0.3339D+13                  9715.7031    54.2556    86.7461
         TRA.     0.2372D+28                  1639.4435     4.9680    41.7024
         TOT.                        4.286   11355.1467    59.2236   128.4485

 340.00  VIB.     0.2097D+07                  9253.4603    53.0100    56.1421
         ROT.     0.2492D+07                  1013.4742     2.9808    32.2495
         INT.     0.5226D+13                 10266.9344    55.9908    88.3915
         TRA.     0.2481D+28                  1689.1236     4.9680    41.8507
         TOT.                        4.887   11956.0581    60.9588   130.2422

 350.00  VIB.     0.3137D+07                  9792.2347    54.7444    57.7037
         ROT.     0.2603D+07                  1043.2822     2.9808    32.3359
         INT.     0.8164D+13                 10835.5169    57.7252    90.0396
         TRA.     0.2591D+28                  1738.8037     4.9680    41.9947
         TOT.                        5.506   12574.3207    62.6932   132.0343

 360.00  VIB.     0.4689D+07                 10348.3318    56.4740    59.2702
         ROT.     0.2715D+07                  1073.0903     2.9808    32.4199
         INT.     0.1273D+14                 11421.4221    59.4548    91.6900
         TRA.     0.2703D+28                  1788.4838     4.9680    42.1347
         TOT.                        6.141   13209.9059    64.4228   133.8247

 370.00  VIB.     0.7006D+07                 10921.6861    58.1953    60.8410
         ROT.     0.2829D+07                  1102.8984     2.9808    32.5015
         INT.     0.1982D+14                 12024.5845    61.1761    93.3425
         TRA.     0.2817D+28                  1838.1639     4.9680    42.2708
         TOT.                        6.794   13862.7484    66.1441   135.6133

 380.00  VIB.     0.1047D+08                 11512.1991    59.9052    62.4157
         ROT.     0.2944D+07                  1132.7064     2.9808    32.5810
         INT.     0.3082D+14                 12644.9055    62.8860    94.9967
         TRA.     0.2932D+28                  1887.8440     4.9680    42.4033
         TOT.                        7.464   14532.7495    67.8540   137.4000

 390.00  VIB.     0.1563D+08                 12119.7427    61.6010    63.9937
         ROT.     0.3061D+07                  1162.5145     2.9808    32.6585
         INT.     0.4785D+14                 13282.2572    64.5818    96.6522
         TRA.     0.3048D+28                  1937.5242     4.9680    42.5323
         TOT.                        8.151   15219.7813    69.5498   139.1845

 400.00  VIB.     0.2334D+08                 12744.1634    63.2802    65.5745
         ROT.     0.3180D+07                  1192.3226     2.9808    32.7339
         INT.     0.7421D+14                 13936.4859    66.2610    98.3084
         TRA.     0.3166D+28                  1987.2043     4.9680    42.6581
         TOT.                        8.855   15923.6902    71.2290   140.9665

   *: NOTE: HEATS OF FORMATION ARE RELATIVE TO THE
            ELEMENTS IN THEIR STANDARD STATE AT 298K
              (=  Standard Enthalpy of Formation).

            Hvib:  Zero-point energy is not included.
                   frequencies of less than zero cm-1 are not included.
            Hrot = (3/2)RT
            Htra = (3/2)RT + pV = (5/2)RT

            Heat capacity is Cp, not Cv

          For more information, see: HTTP://OpenMOPAC.net/Manual/thermochemistry.html


           FORCE CONSTANT IN CARTESIAN COORDINATES (Millidynes/A)

    ATOM   CHEMICAL       X               Y               Z
   NUMBER   SYMBOL  FORCE CONSTANT  FORCE CONSTANT  FORCE CONSTANT

      1       C        7.583440        8.561259        8.937596
      2       C        7.576526        8.634374        8.872193
      3       C        8.073379        7.896036        8.583254
      4       C        8.073058        7.891274        8.588642
      5       C        8.245974        8.550410        8.643767
      6       C        8.242584        8.570334        8.628370
      7       C        8.260139        8.293552        8.304688
      8       C        8.261965        8.305437        8.289586
      9       C        5.413548       14.495332        7.366476
     10       C        5.339048       14.844068        7.088995
     11       C        5.186545       14.525344        7.327777
     12       C        5.120117       14.890180        7.027715
     13       H        1.302553        1.301154        3.509384
     14       H        1.302656        1.121551        3.690097
     15       H        1.231930        1.485293        3.893621
     16       H        1.709736        1.470065        3.452926
     17       H        1.232231        1.267571        4.111197
     18       H        1.709285        1.694022        3.229043
     19       H        2.883689        0.797965        2.589714
     20       H        2.823057        2.112101        1.457559
     21       H        2.680612        2.009542        1.703865
     22       H        2.930700        0.931087        2.412148
     23       H        2.973854        2.339650        1.466402
     24       H        3.175753        0.821333        2.784249
     25       H        1.374078        1.736281        3.680070
     26       H        1.342419        2.035166        3.412907
     27       H        2.805200        2.197438        1.777565
     28       H        3.268401        0.962552        2.550798
     29       H        2.105166        1.961833        2.168313
     30       H        2.091841        2.113646        2.007485
     31       H        2.062990        1.789322        2.387160
     32       H        2.044342        1.929268        2.239408

 **********************
 *                    *
 * JOB ENDED NORMALLY *
 *                    *
 **********************



 TOTAL JOB TIME:             8.55 SECONDS

 == MOPAC DONE ==
