 *******************************************************************************
 **                                                                           **
 **                              MOPAC v23.1.2                                **
 **                                                                           **
 *******************************************************************************
 **          Digital Object Identifier (DOI): 10.5281/zenodo.6511958          **
 **    Visit the DOI location for information on how to cite this program.    **
 *******************************************************************************

                              PM3 CALCULATION RESULTS

 *******************************************************************************
 *  CALCULATION DONE: (MAX THREADS = 1)              Tue Jun  3 16:30:21 2025  *
 *  PM3        - The PM3 Hamiltonian to be used
 *  PRECISE    - TIGHTER CRITERIA TO BE USED
 *  NOSYM      - POINT-GROUP SYMMETRY SET TO C1
 *  THREADS=1  - MULTI-THREADING NOT USED
 *  T=         - A TIME OF 172800.0 SECONDS REQUESTED
 *  DUMP=N     - RESTART FILE WRITTEN EVERY 7200.0 SECONDS REQUESTED
 *******************************************************************************
pm3  precise nosym THREADS=1
 InChI=1S/C9H12/c1-2-5-9-7-3-6-8(9)4-1/h1-2,4-5,8-9H,3,6-7H2

   ATOM   CHEMICAL          X               Y               Z
  NUMBER   SYMBOL      (ANGSTROMS)     (ANGSTROMS)     (ANGSTROMS)

     1       C          0.08210000  *  -0.72410000  *  -0.75140000  *
     2       C         -0.11660000  *   0.79910000  *  -0.68640000  *
     3       C         -0.86040000  *  -1.30950000  *   0.30200000  *
     4       C         -1.57810000  *   0.96650000  *  -0.28120000  *
     5       C         -1.92700000  *  -0.24840000  *   0.57300000  *
     6       C          1.51120000  *  -1.15850000  *  -0.53220000  *
     7       C          0.80510000  *   1.46830000  *   0.31310000  *
     8       C          2.36760000  *  -0.40450000  *   0.16040000  *
     9       C          1.97340000  *   0.92180000  *   0.65920000  *
    10       H         -0.24280000  *  -1.07830000  *  -1.75570000  *
    11       H          0.06120000  *   1.25530000  *  -1.68520000  *
    12       H         -2.93940000  *  -0.62870000  *   0.31440000  *
    13       H         -1.91620000  *   0.03290000  *   1.64910000  *
    14       H         -0.31720000  *  -1.53210000  *   1.24820000  *
    15       H         -1.32270000  *  -2.25040000  *  -0.06900000  *
    16       H         -1.77040000  *   1.91680000  *   0.26420000  *
    17       H         -2.20990000  *   0.96010000  *  -1.19720000  *
    18       H          1.82050000  *  -2.13950000  *  -0.87060000  *
    19       H          0.56800000  *   2.46300000  *   0.67060000  *
    20       H          3.36520000  *  -0.77230000  *   0.36290000  *
    21       H          2.64650000  *   1.46280000  *   1.31190000  *



          CARTESIAN COORDINATES 

    NO.       ATOM           X           Y           Z

     1         C          0.0821     -0.7241     -0.7514
     2         C         -0.1166      0.7991     -0.6864
     3         C         -0.8604     -1.3095      0.3020
     4         C         -1.5781      0.9665     -0.2812
     5         C         -1.9270     -0.2484      0.5730
     6         C          1.5112     -1.1585     -0.5322
     7         C          0.8051      1.4683      0.3131
     8         C          2.3676     -0.4045      0.1604
     9         C          1.9734      0.9218      0.6592
    10         H         -0.2428     -1.0783     -1.7557
    11         H          0.0612      1.2553     -1.6852
    12         H         -2.9394     -0.6287      0.3144
    13         H         -1.9162      0.0329      1.6491
    14         H         -0.3172     -1.5321      1.2482
    15         H         -1.3227     -2.2504     -0.0690
    16         H         -1.7704      1.9168      0.2642
    17         H         -2.2099      0.9601     -1.1972
    18         H          1.8205     -2.1395     -0.8706
    19         H          0.5680      2.4630      0.6706
    20         H          3.3652     -0.7723      0.3629
    21         H          2.6465      1.4628      1.3119

  H: (PM3): J. J. P. STEWART, J. COMP. CHEM. 10, 209 (1989).
  C: (PM3): J. J. P. STEWART, J. COMP. CHEM. 10, 209 (1989).

           Empirical Formula: C9 H12  =    21 atoms



      MOLECULAR POINT GROUP   :   C1  


      RHF CALCULATION, NO. OF DOUBLY OCCUPIED LEVELS = 24


          Geometry optimization using EF

          DIAGONAL MATRIX USED AS START HESSIAN

 CYCLE:     1 TIME:   0.004 TIME LEFT:  2.00D  GRAD.:    64.035 HEAT:  16.74609
 CYCLE:     2 TIME:   0.016 TIME LEFT:  2.00D  GRAD.:    41.116 HEAT:  15.74358
 CYCLE:     3 TIME:   0.008 TIME LEFT:  2.00D  GRAD.:    48.874 HEAT:  15.44342
 CYCLE:     4 TIME:   0.008 TIME LEFT:  2.00D  GRAD.:    28.917 HEAT:  15.04047
 CYCLE:     5 TIME:   0.008 TIME LEFT:  2.00D  GRAD.:    19.226 HEAT:  14.86037
 CYCLE:     6 TIME:   0.004 TIME LEFT:  2.00D  GRAD.:    17.831 HEAT:  14.71621
 CYCLE:     7 TIME:   0.008 TIME LEFT:  2.00D  GRAD.:    25.025 HEAT:  14.64395
 CYCLE:     8 TIME:   0.004 TIME LEFT:  2.00D  GRAD.:    21.856 HEAT:  14.56132
 CYCLE:     9 TIME:   0.008 TIME LEFT:  2.00D  GRAD.:    21.555 HEAT:  14.52825
 CYCLE:    10 TIME:   0.008 TIME LEFT:  2.00D  GRAD.:     8.544 HEAT:  14.41994
 CYCLE:    11 TIME:   0.012 TIME LEFT:  2.00D  GRAD.:     9.269 HEAT:  14.41371
 CYCLE:    12 TIME:   0.008 TIME LEFT:  2.00D  GRAD.:     4.984 HEAT:  14.38860
 CYCLE:    13 TIME:   0.012 TIME LEFT:  2.00D  GRAD.:     5.601 HEAT:  14.37993
 CYCLE:    14 TIME:   0.008 TIME LEFT:  2.00D  GRAD.:     5.121 HEAT:  14.37100
 CYCLE:    15 TIME:   0.004 TIME LEFT:  2.00D  GRAD.:     4.835 HEAT:  14.35772
 CYCLE:    16 TIME:   0.008 TIME LEFT:  2.00D  GRAD.:     4.854 HEAT:  14.34259
 CYCLE:    17 TIME:   0.004 TIME LEFT:  2.00D  GRAD.:     6.889 HEAT:  14.32956
 CYCLE:    18 TIME:   0.008 TIME LEFT:  2.00D  GRAD.:     7.284 HEAT:  14.31236
 CYCLE:    19 TIME:   0.004 TIME LEFT:  2.00D  GRAD.:     9.500 HEAT:  14.30541
 CYCLE:    20 TIME:   0.008 TIME LEFT:  2.00D  GRAD.:     9.592 HEAT:  14.29405
 CYCLE:    21 TIME:   0.008 TIME LEFT:  2.00D  GRAD.:     5.789 HEAT:  14.26887
 CYCLE:    22 TIME:   0.004 TIME LEFT:  2.00D  GRAD.:     6.702 HEAT:  14.25949
 CYCLE:    23 TIME:   0.008 TIME LEFT:  2.00D  GRAD.:     6.071 HEAT:  14.24404
 CYCLE:    24 TIME:   0.008 TIME LEFT:  2.00D  GRAD.:     6.709 HEAT:  14.22638
 CYCLE:    25 TIME:   0.008 TIME LEFT:  2.00D  GRAD.:     4.628 HEAT:  14.20368
 CYCLE:    26 TIME:   0.004 TIME LEFT:  2.00D  GRAD.:     7.024 HEAT:  14.18503
 CYCLE:    27 TIME:   0.008 TIME LEFT:  2.00D  GRAD.:     5.653 HEAT:  14.15266
 CYCLE:    28 TIME:   0.004 TIME LEFT:  2.00D  GRAD.:     4.054 HEAT:  14.11589
 CYCLE:    29 TIME:   0.008 TIME LEFT:  2.00D  GRAD.:     5.901 HEAT:  14.07217
 CYCLE:    30 TIME:   0.004 TIME LEFT:  2.00D  GRAD.:     6.489 HEAT:  14.03152
 CYCLE:    31 TIME:   0.008 TIME LEFT:  2.00D  GRAD.:     3.864 HEAT:  14.00274
 CYCLE:    32 TIME:   0.008 TIME LEFT:  2.00D  GRAD.:     4.010 HEAT:  13.97498
 CYCLE:    33 TIME:   0.004 TIME LEFT:  2.00D  GRAD.:     4.000 HEAT:  13.95771
 CYCLE:    34 TIME:   0.008 TIME LEFT:  2.00D  GRAD.:     2.677 HEAT:  13.94694
 CYCLE:    35 TIME:   0.008 TIME LEFT:  2.00D  GRAD.:     1.945 HEAT:  13.94035
 CYCLE:    36 TIME:   0.008 TIME LEFT:  2.00D  GRAD.:     2.076 HEAT:  13.93430
 CYCLE:    37 TIME:   0.008 TIME LEFT:  2.00D  GRAD.:     1.995 HEAT:  13.92872
 CYCLE:    38 TIME:   0.004 TIME LEFT:  2.00D  GRAD.:     1.334 HEAT:  13.92435
 CYCLE:    39 TIME:   0.012 TIME LEFT:  2.00D  GRAD.:     1.143 HEAT:  13.92167
 CYCLE:    40 TIME:   0.004 TIME LEFT:  2.00D  GRAD.:     1.201 HEAT:  13.91935
 CYCLE:    41 TIME:   0.008 TIME LEFT:  2.00D  GRAD.:     0.993 HEAT:  13.91716
 CYCLE:    42 TIME:   0.008 TIME LEFT:  2.00D  GRAD.:     0.782 HEAT:  13.91534
 CYCLE:    43 TIME:   0.008 TIME LEFT:  2.00D  GRAD.:     0.737 HEAT:  13.91415
 CYCLE:    44 TIME:   0.004 TIME LEFT:  2.00D  GRAD.:     0.668 HEAT:  13.91327
 CYCLE:    45 TIME:   0.008 TIME LEFT:  2.00D  GRAD.:     0.528 HEAT:  13.91254
 CYCLE:    46 TIME:   0.008 TIME LEFT:  2.00D  GRAD.:     0.449 HEAT:  13.91194
 CYCLE:    47 TIME:   0.008 TIME LEFT:  2.00D  GRAD.:     0.467 HEAT:  13.91143
 CYCLE:    48 TIME:   0.008 TIME LEFT:  2.00D  GRAD.:     0.423 HEAT:  13.91103
 CYCLE:    49 TIME:   0.008 TIME LEFT:  2.00D  GRAD.:     0.342 HEAT:  13.91072
 CYCLE:    50 TIME:   0.008 TIME LEFT:  2.00D  GRAD.:     0.290 HEAT:  13.91049
 CYCLE:    51 TIME:   0.008 TIME LEFT:  2.00D  GRAD.:     0.336 HEAT:  13.91026
 CYCLE:    52 TIME:   0.008 TIME LEFT:  2.00D  GRAD.:     0.326 HEAT:  13.91005
 CYCLE:    53 TIME:   0.004 TIME LEFT:  2.00D  GRAD.:     0.288 HEAT:  13.90982
 CYCLE:    54 TIME:   0.008 TIME LEFT:  2.00D  GRAD.:     0.273 HEAT:  13.90960
 CYCLE:    55 TIME:   0.008 TIME LEFT:  2.00D  GRAD.:     0.282 HEAT:  13.90937
 CYCLE:    56 TIME:   0.008 TIME LEFT:  2.00D  GRAD.:     0.299 HEAT:  13.90920
 CYCLE:    57 TIME:   0.008 TIME LEFT:  2.00D  GRAD.:     0.324 HEAT:  13.90896
 CYCLE:    58 TIME:   0.008 TIME LEFT:  2.00D  GRAD.:     0.325 HEAT:  13.90875
 CYCLE:    59 TIME:   0.004 TIME LEFT:  2.00D  GRAD.:     0.299 HEAT:  13.90853
 CYCLE:    60 TIME:   0.008 TIME LEFT:  2.00D  GRAD.:     0.278 HEAT:  13.90830
 CYCLE:    61 TIME:   0.008 TIME LEFT:  2.00D  GRAD.:     0.305 HEAT:  13.90812
 CYCLE:    62 TIME:   0.008 TIME LEFT:  2.00D  GRAD.:     0.396 HEAT:  13.90779
 CYCLE:    63 TIME:   0.008 TIME LEFT:  2.00D  GRAD.:     0.566 HEAT:  13.90721
 CYCLE:    64 TIME:   0.008 TIME LEFT:  2.00D  GRAD.:     0.950 HEAT:  13.90590
 CYCLE:    65 TIME:   0.008 TIME LEFT:  2.00D  GRAD.:     0.995 HEAT:  13.90465
 CYCLE:    66 TIME:   0.008 TIME LEFT:  2.00D  GRAD.:     4.051 HEAT:  13.90599
 CYCLE:    67 TIME:   0.008 TIME LEFT:  2.00D  GRAD.:     1.979 HEAT:  13.89846
 CYCLE:    68 TIME:   0.008 TIME LEFT:  2.00D  GRAD.:     1.434 HEAT:  13.89459
 CYCLE:    69 TIME:   0.012 TIME LEFT:  2.00D  GRAD.:     3.083 HEAT:  13.88675
 CYCLE:    70 TIME:   0.008 TIME LEFT:  2.00D  GRAD.:     2.551 HEAT:  13.87951
 CYCLE:    71 TIME:   0.008 TIME LEFT:  2.00D  GRAD.:     4.478 HEAT:  13.86481
 CYCLE:    72 TIME:   0.004 TIME LEFT:  2.00D  GRAD.:     2.438 HEAT:  13.86290
 CYCLE:    73 TIME:   0.008 TIME LEFT:  2.00D  GRAD.:     2.314 HEAT:  13.85201
 CYCLE:    74 TIME:   0.008 TIME LEFT:  2.00D  GRAD.:     2.478 HEAT:  13.84536
 CYCLE:    75 TIME:   0.008 TIME LEFT:  2.00D  GRAD.:     2.520 HEAT:  13.83782
 CYCLE:    76 TIME:   0.008 TIME LEFT:  2.00D  GRAD.:     1.531 HEAT:  13.82115
 CYCLE:    77 TIME:   0.008 TIME LEFT:  2.00D  GRAD.:     3.347 HEAT:  13.82057
 CYCLE:    78 TIME:   0.008 TIME LEFT:  2.00D  GRAD.:     1.977 HEAT:  13.81356
 CYCLE:    79 TIME:   0.008 TIME LEFT:  2.00D  GRAD.:     0.933 HEAT:  13.80827
 CYCLE:    80 TIME:   0.008 TIME LEFT:  2.00D  GRAD.:     1.209 HEAT:  13.79923
 CYCLE:    81 TIME:   0.008 TIME LEFT:  2.00D  GRAD.:     2.061 HEAT:  13.79508
 CYCLE:    82 TIME:   0.012 TIME LEFT:  2.00D  GRAD.:     1.486 HEAT:  13.79069
 CYCLE:    83 TIME:   0.008 TIME LEFT:  2.00D  GRAD.:     1.639 HEAT:  13.78519
 CYCLE:    84 TIME:   0.008 TIME LEFT:  2.00D  GRAD.:     1.332 HEAT:  13.78007
 CYCLE:    85 TIME:   0.008 TIME LEFT:  2.00D  GRAD.:     2.870 HEAT:  13.77890
 CYCLE:    86 TIME:   0.004 TIME LEFT:  2.00D  GRAD.:     1.139 HEAT:  13.77245
 CYCLE:    87 TIME:   0.012 TIME LEFT:  2.00D  GRAD.:     0.682 HEAT:  13.76949
 CYCLE:    88 TIME:   0.008 TIME LEFT:  2.00D  GRAD.:     2.055 HEAT:  13.76899
 CYCLE:    89 TIME:   0.008 TIME LEFT:  2.00D  GRAD.:     0.596 HEAT:  13.76660
 CYCLE:    90 TIME:   0.008 TIME LEFT:  2.00D  GRAD.:     0.601 HEAT:  13.76593
 CYCLE:    91 TIME:   0.012 TIME LEFT:  2.00D  GRAD.:     0.946 HEAT:  13.76471
 CYCLE:    92 TIME:   0.008 TIME LEFT:  2.00D  GRAD.:     0.666 HEAT:  13.76399
 CYCLE:    93 TIME:   0.008 TIME LEFT:  2.00D  GRAD.:     0.521 HEAT:  13.76323
 CYCLE:    94 TIME:   0.008 TIME LEFT:  2.00D  GRAD.:     0.584 HEAT:  13.76277
 CYCLE:    95 TIME:   0.004 TIME LEFT:  2.00D  GRAD.:     0.518 HEAT:  13.76238
 CYCLE:    96 TIME:   0.008 TIME LEFT:  2.00D  GRAD.:     0.616 HEAT:  13.76178
 CYCLE:    97 TIME:   0.008 TIME LEFT:  2.00D  GRAD.:     0.487 HEAT:  13.76154
 CYCLE:    98 TIME:   0.008 TIME LEFT:  2.00D  GRAD.:     0.370 HEAT:  13.76113
 CYCLE:    99 TIME:   0.008 TIME LEFT:  2.00D  GRAD.:     0.414 HEAT:  13.76092
 CYCLE:   100 TIME:   0.012 TIME LEFT:  2.00D  GRAD.:     0.262 HEAT:  13.76072
 CYCLE:   101 TIME:   0.008 TIME LEFT:  2.00D  GRAD.:     0.163 HEAT:  13.76060
 CYCLE:   102 TIME:   0.012 TIME LEFT:  2.00D  GRAD.:     2.905 HEAT:  13.76806
 CYCLE:   103 TIME:   0.004 TIME LEFT:  2.00D  GRAD.:     0.185 HEAT:  13.76055
 CYCLE:   104 TIME:   0.008 TIME LEFT:  2.00D  GRAD.:     0.147 HEAT:  13.76051
 CYCLE:   105 TIME:   0.008 TIME LEFT:  2.00D  GRAD.:     0.099 HEAT:  13.76049
 CYCLE:   106 TIME:   0.008 TIME LEFT:  2.00D  GRAD.:     0.188 HEAT:  13.76050
 CYCLE:   107 TIME:   0.004 TIME LEFT:  2.00D  GRAD.:     0.063 HEAT:  13.76048
 CYCLE:   108 TIME:   0.012 TIME LEFT:  2.00D  GRAD.:     0.036 HEAT:  13.76048

     GRADIENT =  0.03635 IS LESS THAN CUTOFF =  0.05000



 -------------------------------------------------------------------------------
 pm3  precise nosym THREADS=1
 InChI=1S/C9H12/c1-2-5-9-7-3-6-8(9)4-1/h1-2,4-5,8-9H,3,6-7H2



     GEOMETRY OPTIMISED USING EIGENVECTOR FOLLOWING (EF).     
     SCF FIELD WAS ACHIEVED                                   


                              PM3 CALCULATION
                                                       MOPAC v23.1.2 MacOS
                                                       Tue Jun  3 16:30:22 2025




          FINAL HEAT OF FORMATION =         13.76048 KCAL/MOL =      57.57384 KJ/MOL


          COSMO AREA              =        161.93 SQUARE ANGSTROMS
          COSMO VOLUME            =        165.05 CUBIC ANGSTROMS

          GRADIENT NORM           =          0.03635          =       0.00793 PER ATOM
          IONIZATION POTENTIAL    =          8.962566 EV
          HOMO LUMO ENERGIES (EV) =         -8.963  0.310
          NO. OF FILLED LEVELS    =         24
          MOLECULAR WEIGHT        =        120.1938         POINT GROUP:  C1  

          MOLECULAR DIMENSIONS (Angstroms)

            Atom       Atom       Distance
            H    20    H    12     6.13977
            H    19    H    14     4.99254
            H    10    H    13     3.65985


          SCF CALCULATIONS        =        117

          WALL-CLOCK TIME         =      0.824 SECONDS
          COMPUTATION TIME        =      0.493 SECONDS




   ATOM   CHEMICAL          X               Y               Z
  NUMBER   SYMBOL      (ANGSTROMS)     (ANGSTROMS)     (ANGSTROMS)

     1       C          0.13785299  *  -0.73117288  *  -0.77402497  *
     2       C         -0.14303240  *   0.78599091  *  -0.70310687  *
     3       C         -1.05334674  *  -1.43576094  *  -0.10398714  *
     4       C         -1.50661371  *   0.95126781  *  -0.01266940  *
     5       C         -1.81365123  *  -0.37151457  *   0.67380669  *
     6       C          1.42279237  *  -1.17465838  *  -0.16329681  *
     7       C          0.89875419  *   1.59934185  *  -0.01466887  *
     8       C          2.29763902  *  -0.33755841  *   0.40487843  *
     9       C          2.02771257  *   1.08358429  *   0.48372467  *
    10       H          0.19156640  *  -1.03312429  *  -1.84784626  *
    11       H         -0.20170263  *   1.18756550  *  -1.74352430  *
    12       H         -2.89858151  *  -0.57861628  *   0.70391263  *
    13       H         -1.48343893  *  -0.34905339  *   1.72968979  *
    14       H         -0.73005389  *  -2.26568690  *   0.55139857  *
    15       H         -1.70336270  *  -1.89845247  *  -0.87039628  *
    16       H         -1.51066391  *   1.79323021  *   0.70417852  *
    17       H         -2.28585694  *   1.19329836  *  -0.75987326  *
    18       H          1.62169171  *  -2.25216650  *  -0.20523545  *
    19       H          0.68963587  *   2.67302663  *   0.06196497  *
    20       H          3.23867474  *  -0.69953574  *   0.83158565  *
    21       H          2.77758498  *   1.71606465  *   0.96983709  *

                             CARTESIAN COORDINATES

   1    C        0.137852989    -0.731172875    -0.774024969
   2    C       -0.143032403     0.785990909    -0.703106868
   3    C       -1.053346735    -1.435760942    -0.103987142
   4    C       -1.506613710     0.951267806    -0.012669402
   5    C       -1.813651225    -0.371514568     0.673806694
   6    C        1.422792372    -1.174658377    -0.163296806
   7    C        0.898754186     1.599341851    -0.014668866
   8    C        2.297639015    -0.337558409     0.404878429
   9    C        2.027712565     1.083584286     0.483724666
  10    H        0.191566399    -1.033124294    -1.847846257
  11    H       -0.201702629     1.187565496    -1.743524304
  12    H       -2.898581514    -0.578616281     0.703912634
  13    H       -1.483438931    -0.349053393     1.729689785
  14    H       -0.730053889    -2.265686898     0.551398569
  15    H       -1.703362696    -1.898452470    -0.870396280
  16    H       -1.510663908     1.793230212     0.704178519
  17    H       -2.285856936     1.193298359    -0.759873261
  18    H        1.621691709    -2.252166499    -0.205235445
  19    H        0.689635874     2.673026631     0.061964971
  20    H        3.238674737    -0.699535745     0.831585647
  21    H        2.777584976     1.716064646     0.969837094


           Empirical Formula: C9 H12  =    21 atoms



      MOLECULAR POINT GROUP   :   C1  


                  EIGENVALUES  
 -41.90770 -34.76924 -31.38592 -27.85598 -26.20803 -21.29941 -20.44084 -20.10890
 -17.52185 -16.81117 -16.70402 -15.80082 -14.55348 -14.52935 -13.79534 -13.37445
 -12.98642 -12.96440 -12.47327 -11.76019 -11.56036 -11.31896 -11.20666  -8.96257
   0.31037   2.12973   3.32184   3.37327   3.49796   3.54539   3.64703   3.75458
   3.82276   3.90945   4.07862   4.09949   4.21834   4.22871   4.32087   4.87680
   4.90265   5.04417   5.11203   5.14522   5.26706   5.42418   6.04424   6.28991


              NET ATOMIC CHARGES AND DIPOLE CONTRIBUTIONS

  ATOM NO.   TYPE          CHARGE      No. of ELECS.   s-Pop       p-Pop       
    1          C          -0.035711        4.0357     1.16916     2.86655
    2          C          -0.035829        4.0358     1.16910     2.86673
    3          C          -0.092974        4.0930     1.16592     2.92705
    4          C          -0.092899        4.0929     1.16585     2.92705
    5          C          -0.095661        4.0957     1.16140     2.93426
    6          C          -0.130604        4.1306     1.19737     2.93324
    7          C          -0.130397        4.1304     1.19745     2.93294
    8          C          -0.111029        4.1110     1.17739     2.93364
    9          C          -0.111437        4.1114     1.17741     2.93403
   10          H           0.065461        0.9345     0.93454
   11          H           0.065646        0.9344     0.93435
   12          H           0.050222        0.9498     0.94978
   13          H           0.052054        0.9479     0.94795
   14          H           0.055884        0.9441     0.94412
   15          H           0.046435        0.9536     0.95356
   16          H           0.055822        0.9442     0.94418
   17          H           0.046521        0.9535     0.95348
   18          H           0.098601        0.9014     0.90140
   19          H           0.098653        0.9013     0.90135
   20          H           0.100607        0.8994     0.89939
   21          H           0.100633        0.8994     0.89937
 DIPOLE           X         Y         Z       TOTAL
 POINT-CHG.    -0.352    -0.057    -0.120     0.376
 HYBRID         0.015     0.001     0.011     0.018
 SUM           -0.337    -0.056    -0.109     0.359


          ATOMIC ORBITAL ELECTRON POPULATIONS

     Atom    s        px        py        pz   
    1  C   1.16916   0.93544   0.94362   0.98749
    2  C   1.16910   0.94152   0.94076   0.98446
    3  C   1.16592   0.96259   0.97264   0.99182
    4  C   1.16585   0.95864   0.97421   0.99420
    5  C   1.16140   0.99295   0.95028   0.99104
    6  C   1.19737   0.95974   0.98361   0.98988
    7  C   1.19745   0.96037   0.98294   0.98963
    8  C   1.17739   0.98581   0.94434   1.00349
    9  C   1.17741   0.97594   0.95238   1.00570
   10  H   0.93454
   11  H   0.93435
   12  H   0.94978
   13  H   0.94795
   14  H   0.94412
   15  H   0.95356
   16  H   0.94418
   17  H   0.95348
   18  H   0.90140
   19  H   0.90135
   20  H   0.89939
   21  H   0.89937
 *******************************************************************************
 **                                                                           **
 **                              MOPAC v23.1.2                                **
 **                                                                           **
 *******************************************************************************
 **          Digital Object Identifier (DOI): 10.5281/zenodo.6511958          **
 **    Visit the DOI location for information on how to cite this program.    **
 *******************************************************************************

                              PM3 CALCULATION RESULTS

 *******************************************************************************
 *  CALCULATION DONE: (MAX THREADS = 1)              Tue Jun  3 16:30:22 2025  *
 *  PM3        - The PM3 Hamiltonian to be used
 *  OLDGEO     - PREVIOUS GEOMETRY TO BE USED
 *  PRECISE    - TIGHTER CRITERIA TO BE USED
 *  NOSYM      - POINT-GROUP SYMMETRY SET TO C1
 *  THREADS=1  - MULTI-THREADING NOT USED
 *  T=         - A TIME OF 172800.0 SECONDS REQUESTED
 *  DUMP=N     - RESTART FILE WRITTEN EVERY 7200.0 SECONDS REQUESTED
 *  THERMO     - THERMODYNAMIC QUANTITIES TO BE CALCULATED
 *******************************************************************************
oldgeo thermo nosym precise THREADS=1  pm3
 InChI=1S/C9H12/c1-2-5-9-7-3-6-8(9)4-1/h1-2,4-5,8-9H,3,6-7H2

   ATOM   CHEMICAL          X               Y               Z
  NUMBER   SYMBOL      (ANGSTROMS)     (ANGSTROMS)     (ANGSTROMS)

     1       C          0.13785299  *  -0.73117288  *  -0.77402497  *
     2       C         -0.14303240  *   0.78599091  *  -0.70310687  *
     3       C         -1.05334674  *  -1.43576094  *  -0.10398714  *
     4       C         -1.50661371  *   0.95126781  *  -0.01266940  *
     5       C         -1.81365123  *  -0.37151457  *   0.67380669  *
     6       C          1.42279237  *  -1.17465838  *  -0.16329681  *
     7       C          0.89875419  *   1.59934185  *  -0.01466887  *
     8       C          2.29763902  *  -0.33755841  *   0.40487843  *
     9       C          2.02771257  *   1.08358429  *   0.48372467  *
    10       H          0.19156640  *  -1.03312429  *  -1.84784626  *
    11       H         -0.20170263  *   1.18756550  *  -1.74352430  *
    12       H         -2.89858151  *  -0.57861628  *   0.70391263  *
    13       H         -1.48343893  *  -0.34905339  *   1.72968979  *
    14       H         -0.73005389  *  -2.26568690  *   0.55139857  *
    15       H         -1.70336270  *  -1.89845247  *  -0.87039628  *
    16       H         -1.51066391  *   1.79323021  *   0.70417852  *
    17       H         -2.28585694  *   1.19329836  *  -0.75987326  *
    18       H          1.62169171  *  -2.25216650  *  -0.20523545  *
    19       H          0.68963587  *   2.67302663  *   0.06196497  *
    20       H          3.23867474  *  -0.69953574  *   0.83158565  *
    21       H          2.77758498  *   1.71606465  *   0.96983709  *



          CARTESIAN COORDINATES 

    NO.       ATOM           X           Y           Z

     1         C          0.1379     -0.7312     -0.7740
     2         C         -0.1430      0.7860     -0.7031
     3         C         -1.0533     -1.4358     -0.1040
     4         C         -1.5066      0.9513     -0.0127
     5         C         -1.8137     -0.3715      0.6738
     6         C          1.4228     -1.1747     -0.1633
     7         C          0.8988      1.5993     -0.0147
     8         C          2.2976     -0.3376      0.4049
     9         C          2.0277      1.0836      0.4837
    10         H          0.1916     -1.0331     -1.8478
    11         H         -0.2017      1.1876     -1.7435
    12         H         -2.8986     -0.5786      0.7039
    13         H         -1.4834     -0.3491      1.7297
    14         H         -0.7301     -2.2657      0.5514
    15         H         -1.7034     -1.8985     -0.8704
    16         H         -1.5107      1.7932      0.7042
    17         H         -2.2859      1.1933     -0.7599
    18         H          1.6217     -2.2522     -0.2052
    19         H          0.6896      2.6730      0.0620
    20         H          3.2387     -0.6995      0.8316
    21         H          2.7776      1.7161      0.9698

  H: (PM3): J. J. P. STEWART, J. COMP. CHEM. 10, 209 (1989).
  C: (PM3): J. J. P. STEWART, J. COMP. CHEM. 10, 209 (1989).

           Empirical Formula: C9 H12  =    21 atoms



      MOLECULAR POINT GROUP   :   C1  


      RHF CALCULATION, NO. OF DOUBLY OCCUPIED LEVELS = 24



          HEAT OF FORMATION =      13.760477 KCALS/MOLE


          CARTESIAN COORDINATE DERIVATIVES

   NUMBER  ATOM         X            Y            Z

     1       C     -0.001436     0.006389     0.001048
     2       C     -0.005521     0.001498    -0.004589
     3       C     -0.003652    -0.002418    -0.000716
     4       C     -0.003221    -0.000602    -0.001961
     5       C      0.000572    -0.007339     0.004245
     6       C     -0.006981    -0.004702     0.002147
     7       C      0.010599    -0.002478    -0.000954
     8       C     -0.007115    -0.000487    -0.000563
     9       C     -0.002145    -0.002633     0.002956
    10       H      0.002502     0.001594    -0.004362
    11       H     -0.000213    -0.000416     0.001938
    12       H     -0.000635     0.005761    -0.001195
    13       H      0.003593     0.010407    -0.004166
    14       H     -0.002262    -0.005466    -0.001746
    15       H      0.013561    -0.006790     0.008337
    16       H      0.009409    -0.003611     0.003166
    17       H     -0.003223     0.006394    -0.004710
    18       H      0.001095    -0.002094     0.003723
    19       H     -0.005472     0.004254     0.001348
    20       H      0.001372     0.000952    -0.000445
    21       H     -0.000828     0.001786    -0.003504



          GRADIENT NORM =   0.03587

          MOLECULAR WEIGHT =  120.19



          ROTATIONAL CONSTANTS IN CM(-1)

          A =    0.09403778   B =    0.05495699   C =    0.04089740



           PRINCIPAL MOMENTS OF INERTIA IN UNITS OF 10**(-40)*GRAM-CM**2

          A =      297.6756   B =      509.3575   C =      684.4629


          ORIENTATION OF MOLECULE IN FORCE CALCULATION

    NO.       ATOM         X         Y         Z

     1          C      -0.7722   -0.1547   -0.7326
     2          C       0.7724   -0.1547   -0.7326
     3          C      -1.2169    1.3172   -0.7326
     4          C       1.2144    1.3175   -0.7558
     5          C       0.0024    2.1455   -0.3547
     6          C      -1.4135   -0.8980    0.3886
     7          C       1.4134   -0.8801    0.4004
     8          C      -0.7242   -1.5398    1.3383
     9          C       0.7244   -1.5281    1.3460
    10          H      -1.1279   -0.6499   -1.6683
    11          H       1.1297   -0.6651   -1.6594
    12          H      -0.0023    3.1350   -0.8466
    13          H       0.0129    2.3514    0.7324
    14          H      -2.0608    1.4963   -0.0408
    15          H      -1.5884    1.6037   -1.7346
    16          H       2.0750    1.5041   -0.0871
    17          H       1.5595    1.5964   -1.7693
    18          H      -2.5099   -0.8935    0.3957
    19          H       2.5096   -0.8587    0.4189
    20          H      -1.2313   -2.0871    2.1395
    21          H       1.2316   -2.0632    2.1554


    FIRST DERIVATIVES WILL BE USED IN THE CALCULATION OF SECOND DERIVATIVES

          ESTIMATED TIME TO COMPLETE CALCULATION =        1.97 SECONDS

    FOR POINT-GROUP C1   THERE ARE   1 UNIQUE SYMMETRY FUNCTIONS.

 STEP:   1 TIME =     0.02 SECS, INTEGRAL =      0.02 TIME LEFT: 172799.97
 STEP:   2 TIME =     0.02 SECS, INTEGRAL =      0.04 TIME LEFT: 172799.95
 STEP:   3 TIME =     0.02 SECS, INTEGRAL =      0.06 TIME LEFT: 172799.93
 STEP:   4 TIME =     0.02 SECS, INTEGRAL =      0.07 TIME LEFT: 172799.92
 STEP:   5 TIME =     0.02 SECS, INTEGRAL =      0.09 TIME LEFT: 172799.90
 STEP:   6 TIME =     0.02 SECS, INTEGRAL =      0.11 TIME LEFT: 172799.88
 STEP:   7 TIME =     0.02 SECS, INTEGRAL =      0.13 TIME LEFT: 172799.86
 STEP:   8 TIME =     0.02 SECS, INTEGRAL =      0.15 TIME LEFT: 172799.84
 STEP:   9 TIME =     0.02 SECS, INTEGRAL =      0.17 TIME LEFT: 172799.82
 STEP:  10 TIME =     0.02 SECS, INTEGRAL =      0.19 TIME LEFT: 172799.80
 STEP:  11 TIME =     0.02 SECS, INTEGRAL =      0.20 TIME LEFT: 172799.79
 STEP:  12 TIME =     0.02 SECS, INTEGRAL =      0.22 TIME LEFT: 172799.77
 STEP:  13 TIME =     0.02 SECS, INTEGRAL =      0.24 TIME LEFT: 172799.75
 STEP:  14 TIME =     0.02 SECS, INTEGRAL =      0.26 TIME LEFT: 172799.73
 STEP:  15 TIME =     0.02 SECS, INTEGRAL =      0.28 TIME LEFT: 172799.71
 STEP:  16 TIME =     0.02 SECS, INTEGRAL =      0.30 TIME LEFT: 172799.70
 STEP:  17 TIME =     0.02 SECS, INTEGRAL =      0.32 TIME LEFT: 172799.68
 STEP:  18 TIME =     0.02 SECS, INTEGRAL =      0.34 TIME LEFT: 172799.66
 STEP:  19 TIME =     0.02 SECS, INTEGRAL =      0.36 TIME LEFT: 172799.64
 STEP:  20 TIME =     0.02 SECS, INTEGRAL =      0.38 TIME LEFT: 172799.62
 STEP:  21 TIME =     0.02 SECS, INTEGRAL =      0.39 TIME LEFT: 172799.60
 STEP:  22 TIME =     0.02 SECS, INTEGRAL =      0.41 TIME LEFT: 172799.58
 STEP:  23 TIME =     0.02 SECS, INTEGRAL =      0.43 TIME LEFT: 172799.56
 STEP:  24 TIME =     0.02 SECS, INTEGRAL =      0.45 TIME LEFT: 172799.55
 STEP:  25 TIME =     0.02 SECS, INTEGRAL =      0.46 TIME LEFT: 172799.53
 STEP:  26 TIME =     0.02 SECS, INTEGRAL =      0.48 TIME LEFT: 172799.51
 STEP:  27 TIME =     0.02 SECS, INTEGRAL =      0.50 TIME LEFT: 172799.49
 STEP:  28 TIME =     0.02 SECS, INTEGRAL =      0.52 TIME LEFT: 172799.47
 STEP:  29 TIME =     0.02 SECS, INTEGRAL =      0.54 TIME LEFT: 172799.45
 STEP:  30 TIME =     0.02 SECS, INTEGRAL =      0.55 TIME LEFT: 172799.44
 STEP:  31 TIME =     0.02 SECS, INTEGRAL =      0.57 TIME LEFT: 172799.42
 STEP:  32 TIME =     0.02 SECS, INTEGRAL =      0.59 TIME LEFT: 172799.40
 STEP:  33 TIME =     0.02 SECS, INTEGRAL =      0.61 TIME LEFT: 172799.38
 STEP:  34 TIME =     0.02 SECS, INTEGRAL =      0.64 TIME LEFT: 172799.36
 STEP:  35 TIME =     0.02 SECS, INTEGRAL =      0.66 TIME LEFT: 172799.34
 STEP:  36 TIME =     0.02 SECS, INTEGRAL =      0.68 TIME LEFT: 172799.32
 STEP:  37 TIME =     0.02 SECS, INTEGRAL =      0.70 TIME LEFT: 172799.29
 STEP:  38 TIME =     0.02 SECS, INTEGRAL =      0.72 TIME LEFT: 172799.27
 STEP:  39 TIME =     0.02 SECS, INTEGRAL =      0.74 TIME LEFT: 172799.25
 STEP:  40 TIME =     0.02 SECS, INTEGRAL =      0.76 TIME LEFT: 172799.23
 STEP:  41 TIME =     0.02 SECS, INTEGRAL =      0.78 TIME LEFT: 172799.21
 STEP:  42 TIME =     0.02 SECS, INTEGRAL =      0.80 TIME LEFT: 172799.19
 STEP:  43 TIME =     0.02 SECS, INTEGRAL =      0.82 TIME LEFT: 172799.18
 STEP:  44 TIME =     0.02 SECS, INTEGRAL =      0.84 TIME LEFT: 172799.16
 STEP:  45 TIME =     0.02 SECS, INTEGRAL =      0.85 TIME LEFT: 172799.14
 STEP:  46 TIME =     0.02 SECS, INTEGRAL =      0.87 TIME LEFT: 172799.12
 STEP:  47 TIME =     0.02 SECS, INTEGRAL =      0.89 TIME LEFT: 172799.11
 STEP:  48 TIME =     0.02 SECS, INTEGRAL =      0.91 TIME LEFT: 172799.09
 STEP:  49 TIME =     0.02 SECS, INTEGRAL =      0.93 TIME LEFT: 172799.07
 STEP:  50 TIME =     0.02 SECS, INTEGRAL =      0.95 TIME LEFT: 172799.05
 STEP:  51 TIME =     0.02 SECS, INTEGRAL =      0.96 TIME LEFT: 172799.03
 STEP:  52 TIME =     0.02 SECS, INTEGRAL =      0.98 TIME LEFT: 172799.01
 STEP:  53 TIME =     0.02 SECS, INTEGRAL =      1.00 TIME LEFT: 172798.99
 STEP:  54 TIME =     0.02 SECS, INTEGRAL =      1.02 TIME LEFT: 172798.97
 STEP:  55 TIME =     0.02 SECS, INTEGRAL =      1.04 TIME LEFT: 172798.95
 STEP:  56 TIME =     0.02 SECS, INTEGRAL =      1.06 TIME LEFT: 172798.93
 STEP:  57 TIME =     0.02 SECS, INTEGRAL =      1.08 TIME LEFT: 172798.91
 STEP:  58 TIME =     0.02 SECS, INTEGRAL =      1.10 TIME LEFT: 172798.89
 STEP:  59 TIME =     0.02 SECS, INTEGRAL =      1.12 TIME LEFT: 172798.88
 STEP:  60 TIME =     0.02 SECS, INTEGRAL =      1.14 TIME LEFT: 172798.85
 STEP:  61 TIME =     0.02 SECS, INTEGRAL =      1.16 TIME LEFT: 172798.83
 STEP:  62 TIME =     0.02 SECS, INTEGRAL =      1.18 TIME LEFT: 172798.81
 STEP:  63 TIME =     0.02 SECS, INTEGRAL =      1.20 TIME LEFT: 172798.79

(To convert to Hartree/Bohr^2, multiply by (10^(-21) x N x a0^2)/(4.184 x 627.51) =  0.0642)


           FORCE MATRIX IN MILLIDYNES/ANGSTROM


                  C  1       C  2       C  3       C  4       C  5       C  6
 ------------------------------------------------------------------------------
     C    1  14.567483
     C    2   3.453191  14.568740
     C    3   3.625753   0.691618  14.335270
     C    4   0.694810   3.634016   0.804008  14.343723
     C    5   0.749321   0.752074   4.147237   4.150594  14.516014
     C    6   4.834585   0.583634   0.683077   0.032743   0.022052  18.106587
     C    7   0.583920   4.832316   0.031523   0.683507   0.021671   0.170872
     C    8   0.818449   0.120751   0.043720   0.017621   0.008572  10.350141
     C    9   0.120322   0.818757   0.017845   0.044085   0.008576   1.151604
     H   10   4.235304   0.419447   0.430210   0.025684   0.033900   0.391764
     H   11   0.419678   4.234417   0.026723   0.430230   0.034798   0.028158
     H   12   0.042224   0.042531   0.438482   0.438603   4.554500   0.003437
     H   13   0.011798   0.011713   0.443740   0.443923   4.514899   0.001047
     H   14   0.451671   0.030634   4.532506   0.042293   0.439004   0.072860
     H   15   0.436606   0.019571   4.516324   0.012047   0.444627   0.035668
     H   16   0.031508   0.451351   0.042530   4.532263   0.438988   0.003027
     H   17   0.018826   0.436457   0.011940   4.514556   0.444679   0.001231
     H   18   0.429502   0.043783   0.025013   0.005823   0.001196   4.799741
     H   19   0.043750   0.429651   0.005649   0.026110   0.001191   0.012545
     H   20   0.122173   0.003348   0.017343   0.000478   0.001100   0.443988
     H   21   0.003453   0.122225   0.000475   0.017237   0.001036   0.047762


                  C  7       C  8       C  9       H 10       H 11       H 12
 ------------------------------------------------------------------------------
     C    7  18.107008
     C    8   1.151582  18.468658
     C    9  10.349226   5.722035  18.468200
     H   10   0.029268   0.039284   0.013040   4.654986
     H   11   0.390564   0.013296   0.038939   0.019737   4.655248
     H   12   0.003336   0.002245   0.002247   0.003823   0.003994   5.173912
     H   13   0.001113   0.000608   0.000609   0.001020   0.001018   0.578602
     H   14   0.002824   0.004378   0.001372   0.020017   0.002466   0.015927
     H   15   0.001254   0.005350   0.001608   0.025381   0.001435   0.032657
     H   16   0.072000   0.001330   0.004218   0.002394   0.019320   0.015803
     H   17   0.036579   0.001631   0.005551   0.001363   0.026038   0.032758
     H   18   0.012604   0.444400   0.128604   0.032838   0.005320   0.000249
     H   19   4.798751   0.128643   0.444324   0.005435   0.032142   0.000264
     H   20   0.047769   4.853980   0.435569   0.016115   0.000724   0.000239
     H   21   0.444009   0.435578   4.854087   0.000724   0.016225   0.000229


                  H 13       H 14       H 15       H 16       H 17       H 18
 ------------------------------------------------------------------------------
     H   13   5.117838
     H   14   0.032593   5.160861
     H   15   0.041385   0.582415   5.116175
     H   16   0.032720   0.005158   0.001121   5.161334
     H   17   0.041633   0.001087   0.001618   0.581907   5.114866
     H   18   0.000360   0.029225   0.001217   0.000992   0.000677   5.178823
     H   19   0.000385   0.000946   0.000694   0.030195   0.001280   0.010407
     H   20   0.000242   0.000969   0.002060   0.000220   0.000191   0.067606
     H   21   0.000248   0.000223   0.000191   0.000969   0.002090   0.007552


                  H 19       H 20       H 21
 ------------------------------------------
     H   19   5.177884
     H   20   0.007557   5.219273
     H   21   0.067631   0.031988   5.219404


          HEAT OF FORMATION =      13.760477 KCALS/MOLE

          ZERO POINT ENERGY     115.635 KCAL/MOL


           NORMAL COORDINATE ANALYSIS (Total motion = 1 Angstrom)


   Root No.       1         2         3         4         5         6         7         8

                 1 A       2 A       3 A       4 A       5 A       6 A       7 A       8 A   

                  15.3     111.8     198.5     333.4     451.1     471.4     501.1     564.4
  
           1    0.0003   -0.0009    0.0007   -0.0253   -0.0018    0.0219    0.0251    0.0100
           2    0.0041   -0.0097   -0.0065    0.0097   -0.0145   -0.0284    0.0127    0.0042
           3   -0.0007   -0.0186   -0.0160    0.0123   -0.0198    0.0320    0.0033   -0.0474
           4    0.0003    0.0008   -0.0003   -0.0253    0.0024    0.0216    0.0255   -0.0096
           5   -0.0039   -0.0097   -0.0064   -0.0097   -0.0128    0.0292   -0.0132    0.0028
           6    0.0011   -0.0187   -0.0161   -0.0124   -0.0213   -0.0309   -0.0026   -0.0466
           7    0.0030    0.0066   -0.0054    0.0069   -0.0086    0.0294   -0.0154    0.0022
           8    0.0056   -0.0063   -0.0078    0.0189   -0.0218   -0.0368   -0.0019    0.0115
           9    0.0441   -0.0132    0.0303   -0.0209    0.0173    0.0090    0.0078   -0.0050
          10    0.0025   -0.0068    0.0058    0.0077    0.0110    0.0279   -0.0156   -0.0032
          11   -0.0060   -0.0063   -0.0069   -0.0186   -0.0193    0.0392    0.0012    0.0111
          12   -0.0430   -0.0143    0.0303    0.0216    0.0172   -0.0110   -0.0075   -0.0051
          13    0.0209    0.0008   -0.0005    0.0147    0.0003    0.0099   -0.0219   -0.0005
          14    0.0003   -0.0329    0.0012    0.0001   -0.0307    0.0019   -0.0004    0.0136
          15   -0.0010    0.0634   -0.0063   -0.0002    0.0018   -0.0001    0.0001    0.0030
          16   -0.0048   -0.0004    0.0002   -0.0047   -0.0062   -0.0222    0.0116    0.0803
          17   -0.0274    0.0019   -0.0194   -0.0132    0.0417   -0.0125    0.0460    0.0037
          18   -0.0246   -0.0106   -0.0245    0.0105    0.0128    0.0301    0.0087    0.0038
          19   -0.0053    0.0003    0.0002   -0.0050    0.0039   -0.0236    0.0140   -0.0795
          20    0.0274    0.0032   -0.0202    0.0125    0.0430    0.0088   -0.0452    0.0006
          21    0.0244   -0.0101   -0.0248   -0.0110    0.0108   -0.0305   -0.0083    0.0036
          22   -0.0089   -0.0002   -0.0003    0.0131   -0.0003   -0.0351   -0.0059    0.0050
          23   -0.0191    0.0313    0.0323   -0.0354    0.0019   -0.0291   -0.0219   -0.0318
          24   -0.0161    0.0089    0.0104   -0.0156   -0.0210    0.0250   -0.0274    0.0400
          25   -0.0093   -0.0002   -0.0004    0.0124   -0.0009   -0.0353   -0.0064   -0.0042
          26    0.0189    0.0323    0.0317    0.0358    0.0032    0.0276    0.0226   -0.0317
          27    0.0157    0.0093    0.0099    0.0157   -0.0227   -0.0226    0.0260    0.0419
          28    0.0020   -0.0050    0.0001   -0.0470   -0.0129    0.0153    0.0228   -0.0354
          29    0.0358   -0.0091    0.0183    0.0056   -0.0258   -0.0617   -0.0034    0.0113
          30   -0.0181   -0.0168   -0.0285    0.0217   -0.0083    0.0515    0.0127   -0.0334
          31    0.0020    0.0050    0.0003   -0.0472    0.0134    0.0159    0.0220    0.0353
          32   -0.0348   -0.0099    0.0185   -0.0056   -0.0223    0.0634    0.0028    0.0108
          33    0.0187   -0.0165   -0.0291   -0.0221   -0.0105   -0.0514   -0.0127   -0.0331
          34    0.0083    0.0014   -0.0013    0.0409   -0.0011   -0.0370   -0.0264   -0.0002
          35   -0.0005    0.0113   -0.0196   -0.0002   -0.0358    0.0021   -0.0005    0.0197
          36   -0.0025    0.1533   -0.0490   -0.0010   -0.0079    0.0008   -0.0001    0.0151
          37    0.0613    0.0017   -0.0008   -0.0022    0.0000    0.0148   -0.0180   -0.0005
          38    0.0022   -0.1346    0.0507    0.0008   -0.0201    0.0015   -0.0002    0.0031
          39   -0.0018    0.0827   -0.0156   -0.0001    0.0001   -0.0000   -0.0000    0.0052
          40    0.0371   -0.0270    0.0249   -0.0134    0.0216    0.0197   -0.0068    0.0168
          41   -0.0050   -0.0113   -0.0274    0.0452   -0.0350   -0.0254   -0.0217   -0.0208
          42    0.0886   -0.0533    0.0732   -0.0541    0.0606   -0.0061    0.0255    0.0217
          43   -0.0466    0.0635   -0.0570    0.0515   -0.0589    0.0423   -0.0455   -0.0247
          44    0.0219    0.0176    0.0075    0.0104    0.0028   -0.0642   -0.0033    0.0444
          45    0.0673   -0.0274    0.0541   -0.0403    0.0439   -0.0039    0.0189    0.0150
          46    0.0339    0.0263   -0.0234   -0.0124   -0.0190    0.0211   -0.0073   -0.0161
          47    0.0039   -0.0111   -0.0255   -0.0452   -0.0328    0.0291    0.0220   -0.0192
          48   -0.0863   -0.0561    0.0741    0.0567    0.0627    0.0006   -0.0262    0.0203
          49   -0.0451   -0.0652    0.0576    0.0541    0.0633    0.0366   -0.0466    0.0214
          50   -0.0229    0.0171    0.0091   -0.0090    0.0071    0.0648    0.0013    0.0436
          51   -0.0639   -0.0277    0.0526    0.0405    0.0432   -0.0008   -0.0183    0.0127
          52   -0.0050   -0.0005   -0.0001   -0.0045   -0.0058   -0.0221    0.0114    0.0796
          53   -0.0542   -0.0088   -0.0558   -0.0408    0.1220    0.0099    0.0881    0.0451
          54   -0.0479   -0.0178   -0.0498    0.0143    0.0691    0.0049    0.0166    0.0247
          55   -0.0062    0.0006    0.0014   -0.0052    0.0017   -0.0232    0.0145   -0.0797
          56    0.0544   -0.0062   -0.0577    0.0386    0.1223   -0.0181   -0.0855    0.0417
          57    0.0476   -0.0166   -0.0505   -0.0158    0.0675   -0.0086   -0.0151    0.0236
          58   -0.0121   -0.0001   -0.0005    0.0268    0.0038   -0.0091   -0.0233   -0.0443
          59   -0.0402    0.0490    0.0544   -0.1030    0.0132   -0.0582   -0.0998    0.0035
          60   -0.0325    0.0211    0.0254   -0.0528   -0.0109    0.0208   -0.0919    0.0323
          61   -0.0132   -0.0005   -0.0005    0.0245   -0.0035   -0.0090   -0.0270    0.0429
          62    0.0398    0.0511    0.0528    0.1036    0.0150    0.0573    0.1008    0.0068
          63    0.0319    0.0219    0.0239    0.0527   -0.0134   -0.0187    0.0908    0.0373


   Root No.       9        10        11        12        13        14        15        16

                 9 A      10 A      11 A      12 A      13 A      14 A      15 A      16 A   

                 627.8     715.1     754.4     804.4     822.0     832.1     873.5     925.8
  
           1    0.0057    0.0324   -0.0075   -0.0030   -0.0042    0.0033   -0.0321    0.0148
           2   -0.0270    0.0317    0.0016   -0.0164    0.0032    0.0022   -0.0054    0.0080
           3   -0.0111    0.0389    0.0041   -0.0087    0.0151    0.0043   -0.0258    0.0299
           4   -0.0062    0.0321    0.0065    0.0039   -0.0042    0.0023    0.0326    0.0149
           5   -0.0269   -0.0318    0.0024   -0.0172   -0.0041   -0.0031   -0.0058   -0.0083
           6   -0.0104   -0.0385    0.0051   -0.0089   -0.0154   -0.0041   -0.0261   -0.0294
           7    0.0436   -0.0202   -0.0085    0.0208    0.0088   -0.0030   -0.0174    0.0010
           8   -0.0077    0.0262    0.0124    0.0101   -0.0180    0.0028    0.0164    0.0032
           9    0.0109    0.0053   -0.0040   -0.0135    0.0238    0.0141   -0.0017   -0.0162
          10   -0.0434   -0.0195    0.0088   -0.0217    0.0073   -0.0048    0.0169    0.0017
          11   -0.0080   -0.0263    0.0129    0.0087    0.0183   -0.0029    0.0159   -0.0030
          12    0.0123   -0.0042   -0.0040   -0.0119   -0.0245   -0.0145   -0.0026    0.0166
          13    0.0003   -0.0183    0.0003   -0.0002   -0.0068   -0.0050   -0.0000   -0.0007
          14    0.0478   -0.0004    0.0034    0.0315    0.0006    0.0009   -0.0079   -0.0000
          15    0.0223    0.0002   -0.0086   -0.0129   -0.0002   -0.0003    0.0095   -0.0003
          16   -0.0071    0.0162   -0.0112   -0.0162   -0.0147    0.0052   -0.0199   -0.0268
          17    0.0004   -0.0074   -0.0247   -0.0028    0.0128   -0.0161   -0.0091   -0.0067
          18   -0.0012   -0.0010   -0.0074    0.0107   -0.0068   -0.0125    0.0144   -0.0040
          19    0.0068    0.0152    0.0113    0.0168   -0.0137    0.0049    0.0201   -0.0271
          20    0.0007    0.0073   -0.0246   -0.0028   -0.0131    0.0162   -0.0083    0.0060
          21   -0.0012    0.0000   -0.0071    0.0101    0.0072    0.0125    0.0151    0.0034
          22   -0.0003   -0.0172   -0.0006   -0.0021    0.0162   -0.0025   -0.0004    0.0148
          23   -0.0005    0.0008   -0.0155    0.0011    0.0265   -0.0202   -0.0019    0.0015
          24   -0.0076    0.0262   -0.0065    0.0054   -0.0235   -0.0104    0.0102   -0.0286
          25    0.0009   -0.0169    0.0013    0.0013    0.0165   -0.0029    0.0002    0.0145
          26   -0.0006   -0.0016   -0.0155    0.0010   -0.0262    0.0202   -0.0012   -0.0007
          27   -0.0073   -0.0270   -0.0058    0.0037    0.0240    0.0102    0.0106    0.0289
          28   -0.0181    0.0108    0.0054   -0.0204   -0.0305   -0.0046   -0.0757    0.0118
          29   -0.0131    0.0554    0.0210   -0.0232    0.0154    0.0377    0.0177   -0.0240
          30   -0.0095    0.0339   -0.0104    0.0023    0.0173   -0.0118   -0.0196    0.0486
          31    0.0183    0.0094   -0.0062    0.0224   -0.0298   -0.0050    0.0757    0.0115
          32   -0.0122   -0.0538    0.0221   -0.0219   -0.0153   -0.0388    0.0168    0.0253
          33   -0.0091   -0.0345   -0.0100    0.0016   -0.0176    0.0130   -0.0200   -0.0499
          34   -0.0000    0.0160    0.0004    0.0034   -0.0856   -0.0242   -0.0004    0.0586
          35    0.0057   -0.0013    0.0251    0.0924    0.0016    0.0026   -0.0385    0.0004
          36   -0.0695   -0.0021    0.0370    0.1143    0.0026    0.0033   -0.0582    0.0001
          37   -0.0003   -0.0168    0.0004   -0.0011    0.0377    0.0244    0.0004   -0.0724
          38    0.1595    0.0017   -0.0466   -0.0998   -0.0015   -0.0028    0.0723   -0.0012
          39   -0.0010   -0.0003    0.0021    0.0160   -0.0002    0.0002   -0.0077    0.0006
          40    0.0069   -0.0583    0.0024    0.0807   -0.0430   -0.0404   -0.0334    0.0461
          41   -0.0180    0.0350    0.0276   -0.0130    0.0093    0.0248    0.0192    0.0072
          42   -0.0340   -0.0454    0.0057    0.0684   -0.0488   -0.0394   -0.0225    0.0407
          43    0.1007    0.0250   -0.0211   -0.0701    0.0914    0.0575    0.0178   -0.0814
          44   -0.0105   -0.0134    0.0090    0.0271   -0.0565   -0.0167    0.0737   -0.0332
          45   -0.0120   -0.0244   -0.0002    0.0280   -0.0201   -0.0156   -0.0001    0.0057
          46   -0.0069   -0.0544   -0.0008   -0.0770   -0.0440   -0.0435    0.0309    0.0455
          47   -0.0185   -0.0325    0.0283   -0.0121   -0.0084   -0.0255    0.0192   -0.0049
          48   -0.0348    0.0442    0.0044    0.0678    0.0517    0.0440   -0.0219   -0.0424
          49   -0.1024    0.0230    0.0203    0.0655    0.0932    0.0610   -0.0164   -0.0822
          50   -0.0114    0.0119    0.0080    0.0253    0.0576    0.0164    0.0726    0.0310
          51   -0.0098    0.0223   -0.0013    0.0252    0.0180    0.0150    0.0000   -0.0045
          52   -0.0066    0.0156   -0.0103   -0.0163   -0.0154    0.0063   -0.0201   -0.0270
          53    0.0527   -0.0692    0.0853   -0.0291   -0.0455    0.1303   -0.0348    0.0081
          54    0.0307   -0.0918    0.0790    0.0040   -0.0296    0.0785    0.0576    0.0137
          55    0.0052    0.0125    0.0079    0.0172   -0.0156    0.0092    0.0203   -0.0270
          56    0.0537    0.0763    0.0845   -0.0221    0.0455   -0.1302   -0.0374   -0.0054
          57    0.0295    0.0941    0.0765    0.0095    0.0302   -0.0787    0.0560   -0.0128
          58    0.0043   -0.0142    0.0063    0.0128   -0.0091   -0.0063    0.0214    0.0158
          59    0.0360    0.0068    0.1519   -0.0410    0.0045    0.0716   -0.0446    0.0789
          60    0.0202    0.0317    0.1128   -0.0132   -0.0551    0.0499   -0.0034    0.0243
          61   -0.0044   -0.0132   -0.0097   -0.0118   -0.0101   -0.0047   -0.0210    0.0176
          62    0.0358    0.0006    0.1521   -0.0380   -0.0061   -0.0723   -0.0480   -0.0813
          63    0.0200   -0.0275    0.1125   -0.0131    0.0545   -0.0498   -0.0052   -0.0257


   Root No.      17        18        19        20        21        22        23        24

                17 A      18 A      19 A      20 A      21 A      22 A      23 A      24 A   

                 966.5     984.5    1004.5    1004.9    1010.3    1037.2    1062.7    1074.5
  
           1    0.0011    0.0155   -0.0073   -0.0094   -0.0027   -0.0055    0.0055   -0.0004
           2   -0.0017   -0.0052   -0.0098    0.0110   -0.0133   -0.0123   -0.0017    0.0150
           3    0.0023   -0.0024   -0.0059    0.0030    0.0089   -0.0066   -0.0130    0.0031
           4   -0.0014    0.0159    0.0095    0.0060   -0.0025    0.0053   -0.0060   -0.0019
           5   -0.0013    0.0049    0.0098   -0.0113    0.0134   -0.0120   -0.0010    0.0173
           6    0.0034    0.0023    0.0030   -0.0061   -0.0087   -0.0064   -0.0121    0.0053
           7   -0.0002   -0.0104    0.0025    0.0249   -0.0131   -0.0326   -0.0083    0.0081
           8    0.0003    0.0119    0.0043   -0.0087    0.0051   -0.0043   -0.0089   -0.0144
           9    0.0082    0.0055    0.0199    0.0060    0.0025    0.0172    0.0065   -0.0064
          10    0.0002   -0.0105   -0.0247    0.0013   -0.0140    0.0327    0.0074   -0.0103
          11    0.0002   -0.0116   -0.0078    0.0056   -0.0053   -0.0042   -0.0087   -0.0135
          12    0.0080   -0.0046    0.0088    0.0193   -0.0019    0.0165    0.0060   -0.0074
          13    0.0000    0.0008    0.0074   -0.0087    0.0125    0.0000    0.0005    0.0014
          14    0.0004   -0.0000   -0.0132   -0.0114   -0.0006    0.0462    0.0157    0.0024
          15   -0.0109   -0.0003   -0.0197   -0.0175   -0.0004   -0.0076   -0.0106    0.0010
          16    0.0014   -0.0297    0.0034    0.0059    0.0127    0.0079   -0.0181    0.0101
          17   -0.0226   -0.0111    0.0169   -0.0040   -0.0126    0.0036    0.0098   -0.0013
          18   -0.0167    0.0043    0.0092   -0.0044   -0.0164   -0.0007    0.0145    0.0042
          19   -0.0009   -0.0302   -0.0059   -0.0023    0.0121   -0.0074    0.0182   -0.0094
          20   -0.0225    0.0115   -0.0029    0.0168    0.0130    0.0033    0.0095   -0.0045
          21   -0.0167   -0.0044   -0.0040    0.0096    0.0164   -0.0007    0.0142    0.0021
          22   -0.0006    0.0092    0.0036    0.0006   -0.0008    0.0073   -0.0145    0.0220
          23    0.0189    0.0176   -0.0137    0.0103    0.0194    0.0040   -0.0126    0.0074
          24    0.0139    0.0059   -0.0142    0.0073    0.0062   -0.0082    0.0119   -0.0106
          25    0.0000    0.0095   -0.0016   -0.0032   -0.0006   -0.0074    0.0146   -0.0220
          26    0.0187   -0.0180    0.0098   -0.0142   -0.0192    0.0039   -0.0116    0.0093
          27    0.0129   -0.0063    0.0057   -0.0145   -0.0065   -0.0082    0.0120   -0.0109
          28    0.0088    0.1155   -0.0362   -0.1116   -0.0244   -0.0497    0.0869    0.0206
          29    0.0418    0.0221   -0.0104    0.1323   -0.1054   -0.0632    0.1299    0.0748
          30   -0.0238   -0.0526    0.0062   -0.0232    0.0657    0.0364   -0.1150   -0.0362
          31   -0.0077    0.1199    0.1134    0.0208   -0.0198    0.0484   -0.0821    0.0008
          32    0.0402   -0.0200    0.1284   -0.0253    0.1072   -0.0605    0.1281    0.0611
          33   -0.0222    0.0538   -0.0231    0.0082   -0.0667    0.0362   -0.1139   -0.0171
          34    0.0001    0.0485    0.0291   -0.0345    0.0751   -0.0005    0.0029    0.0044
          35    0.0154    0.0004    0.0023    0.0028   -0.0006    0.0866    0.0356    0.0016
          36    0.0209    0.0001    0.0133    0.0131   -0.0011    0.0771    0.0317    0.0013
          37    0.0012    0.0225    0.0617   -0.0692    0.0262    0.0015    0.0010   -0.0028
          38   -0.0383   -0.0012   -0.0605   -0.0542   -0.0009   -0.0333   -0.0306   -0.0029
          39   -0.0027   -0.0003   -0.0099   -0.0076   -0.0005    0.0082   -0.0022    0.0013
          40   -0.0062   -0.0336   -0.0103    0.0482   -0.0032   -0.0880   -0.0474    0.0045
          41    0.0379    0.0015    0.0694    0.0583    0.0528   -0.0203   -0.0477   -0.0623
          42   -0.0099   -0.0216   -0.0160    0.0173    0.0008   -0.0461   -0.0313    0.0018
          43    0.0164    0.0213    0.0640    0.0090   -0.0103   -0.0035    0.0099   -0.0131
          44   -0.0353    0.0291   -0.0148   -0.0722   -0.0337   -0.0885   -0.0260   -0.0294
          45   -0.0087   -0.0017   -0.0088   -0.0072   -0.0084   -0.0181   -0.0065   -0.0028
          46    0.0047   -0.0330   -0.0470    0.0157   -0.0047    0.0874    0.0475    0.0048
          47    0.0384    0.0017    0.0672    0.0641   -0.0517   -0.0233   -0.0573   -0.1067
          48   -0.0094    0.0222    0.0165   -0.0194    0.0005   -0.0483   -0.0320    0.0001
          49   -0.0147    0.0206   -0.0152   -0.0629   -0.0113    0.0025   -0.0119    0.0032
          50   -0.0374   -0.0314   -0.0747   -0.0086    0.0339   -0.0873   -0.0156    0.0190
          51   -0.0080    0.0009   -0.0073   -0.0069    0.0086   -0.0171   -0.0038    0.0061
          52    0.0027   -0.0288    0.0030    0.0062    0.0127    0.0081   -0.0193    0.0131
          53    0.1268    0.0307   -0.0692    0.0098    0.0589   -0.0300    0.0054   -0.0697
          54    0.0775    0.0425   -0.0390    0.0234    0.0113    0.0180   -0.0553    0.1135
          55   -0.0053   -0.0281   -0.0067    0.0000    0.0135   -0.0073    0.0202   -0.0126
          56    0.1265   -0.0347    0.0053   -0.0683   -0.0597   -0.0293    0.0059   -0.0659
          57    0.0759   -0.0453    0.0197   -0.0408   -0.0105    0.0184   -0.0521    0.1248
          58   -0.0029    0.0666   -0.0017   -0.0021   -0.0475    0.0126   -0.0183    0.0985
          59   -0.1033   -0.0798    0.0649   -0.0341   -0.0402    0.0069   -0.0058   -0.0135
          60   -0.0711   -0.0241    0.0358   -0.0248   -0.0647   -0.0037    0.0162    0.0235
          61    0.0066    0.0655    0.0023   -0.0009   -0.0491   -0.0146    0.0192   -0.0932
          62   -0.0998    0.0839   -0.0295    0.0657    0.0402    0.0059   -0.0058   -0.0156
          63   -0.0697    0.0259   -0.0230    0.0366    0.0638   -0.0033    0.0149    0.0171


   Root No.      25        26        27        28        29        30        31        32

                25 A      26 A      27 A      28 A      29 A      30 A      31 A      32 A   

                1077.5    1087.9    1113.2    1139.1    1144.7    1151.9    1153.0    1209.0
  
           1   -0.0080   -0.0016   -0.0007    0.0091    0.0019    0.0016   -0.0137   -0.0039
           2   -0.0094   -0.0069   -0.0141   -0.0054    0.0069    0.0031    0.0025   -0.0185
           3   -0.0075   -0.0030   -0.0108    0.0044    0.0061   -0.0022    0.0016    0.0138
           4   -0.0075   -0.0016    0.0005   -0.0093    0.0008    0.0016    0.0139   -0.0039
           5    0.0044    0.0070   -0.0141   -0.0046   -0.0071   -0.0028    0.0024    0.0181
           6    0.0068    0.0028   -0.0103    0.0050   -0.0052    0.0023    0.0016   -0.0140
           7   -0.0075   -0.0021   -0.0031    0.0039   -0.0095   -0.0097    0.0042   -0.0039
           8   -0.0007   -0.0121    0.0119    0.0051   -0.0087   -0.0103   -0.0046   -0.0056
           9    0.0046    0.0173    0.0096    0.0207   -0.0118   -0.0079    0.0037   -0.0088
          10   -0.0052   -0.0022    0.0025   -0.0021   -0.0096   -0.0096   -0.0046   -0.0037
          11    0.0057    0.0118    0.0123    0.0042    0.0088    0.0102   -0.0042    0.0057
          12   -0.0028   -0.0172    0.0097    0.0191    0.0130    0.0083    0.0041    0.0088
          13    0.0091    0.0066    0.0005   -0.0016    0.0164    0.0137    0.0002   -0.0018
          14   -0.0011    0.0003   -0.0043   -0.0087   -0.0003   -0.0000    0.0022    0.0001
          15    0.0001   -0.0000   -0.0018   -0.0443   -0.0018   -0.0005   -0.0076    0.0001
          16    0.0022    0.0028    0.0063    0.0027    0.0029   -0.0037    0.0010   -0.0027
          17    0.0092    0.0051    0.0046   -0.0007   -0.0029    0.0032    0.0018   -0.0064
          18    0.0048    0.0035    0.0055   -0.0013    0.0043   -0.0056   -0.0014    0.0148
          19    0.0047    0.0028   -0.0062   -0.0029    0.0026   -0.0038   -0.0011   -0.0028
          20   -0.0091   -0.0051    0.0045   -0.0010    0.0027   -0.0033    0.0018    0.0063
          21   -0.0067   -0.0034    0.0054   -0.0010   -0.0044    0.0055   -0.0014   -0.0149
          22   -0.0036   -0.0006    0.0108    0.0033   -0.0011   -0.0004   -0.0016    0.0157
          23   -0.0078   -0.0018    0.0008    0.0022    0.0002    0.0007    0.0015   -0.0019
          24    0.0016   -0.0023   -0.0036   -0.0028    0.0004   -0.0008   -0.0023    0.0014
          25    0.0029   -0.0009   -0.0109   -0.0031   -0.0014   -0.0004    0.0016    0.0155
          26    0.0058    0.0018    0.0007    0.0022    0.0000   -0.0007    0.0015    0.0022
          27    0.0014    0.0022   -0.0039   -0.0028   -0.0007    0.0007   -0.0022   -0.0013
          28    0.0543   -0.0343    0.1506    0.0094    0.0206   -0.0697    0.0636    0.0098
          29    0.0243    0.0421   -0.0560   -0.0402    0.0428    0.0241   -0.0191    0.0688
          30   -0.0501   -0.0173   -0.0465    0.0238   -0.0196    0.0122   -0.0155   -0.0380
          31    0.0676   -0.0349   -0.1492   -0.0090    0.0239   -0.0669   -0.0646    0.0089
          32   -0.0500   -0.0431   -0.0569   -0.0351   -0.0429   -0.0259   -0.0206   -0.0677
          33    0.0669    0.0184   -0.0447    0.0229    0.0231   -0.0098   -0.0152    0.0385
          34    0.0307    0.2815    0.0010   -0.0020    0.0303    0.0547    0.0012    0.0102
          35   -0.0018    0.0006   -0.0025    0.0250    0.0008    0.0002    0.0117    0.0001
          36   -0.0019   -0.0022   -0.0001    0.0211    0.0002   -0.0004    0.0108    0.0000
          37   -0.0136   -0.1734    0.0038   -0.0117    0.1528    0.1276    0.0027    0.0307
          38    0.0015   -0.0000   -0.0011   -0.0882   -0.0031   -0.0007   -0.0140    0.0002
          39   -0.0001    0.0018   -0.0011   -0.0303   -0.0026   -0.0015   -0.0044   -0.0002
          40    0.0275   -0.0489    0.0189   -0.0451   -0.0185   -0.0198    0.0017    0.0134
          41    0.1423   -0.0721    0.1196   -0.0561   -0.0600   -0.0484   -0.0095    0.0182
          42    0.0082   -0.0237    0.0061   -0.0236   -0.0104   -0.0106    0.0014    0.0058
          43   -0.0300    0.0315    0.0204    0.1063   -0.0327   -0.0275    0.0241    0.0029
          44   -0.1424   -0.0170   -0.0181    0.1654   -0.0319   -0.0357    0.0203    0.0682
          45   -0.0273    0.0047   -0.0071    0.0283   -0.0103   -0.0088    0.0039    0.0095
          46    0.0247   -0.0479   -0.0193    0.0470   -0.0145   -0.0190   -0.0026    0.0128
          47   -0.1134    0.0725    0.1178   -0.0641    0.0519    0.0466   -0.0082   -0.0173
          48   -0.0062    0.0240    0.0058   -0.0257    0.0084    0.0104    0.0021   -0.0058
          49   -0.0311    0.0316   -0.0230   -0.1011   -0.0393   -0.0291   -0.0252    0.0026
          50    0.1463    0.0154   -0.0124    0.1595    0.0455    0.0382    0.0222   -0.0683
          51    0.0268   -0.0059   -0.0052    0.0278    0.0134    0.0096    0.0048   -0.0092
          52    0.0021    0.0027    0.0084    0.0029    0.0039   -0.0050    0.0014   -0.0043
          53   -0.0005   -0.0179   -0.0422    0.0161   -0.0554    0.0555   -0.0766    0.0729
          54   -0.0485    0.0075    0.0257   -0.0184    0.0898   -0.0778    0.1114   -0.1126
          55    0.0048    0.0023   -0.0078   -0.0032    0.0037   -0.0049   -0.0015   -0.0046
          56    0.0231    0.0172   -0.0410    0.0108    0.0575   -0.0539   -0.0761   -0.0729
          57    0.0131   -0.0064    0.0243   -0.0096   -0.0921    0.0761    0.1109    0.1131
          58   -0.0066   -0.0236    0.0706    0.0362   -0.0808    0.0951   -0.1824   -0.0921
          59    0.0062    0.0110   -0.0162   -0.0074    0.0221   -0.0264    0.0543    0.0295
          60    0.0093   -0.0080    0.0229    0.0111   -0.0343    0.0404   -0.0820   -0.0465
          61    0.0253   -0.0248   -0.0715   -0.0290   -0.0848    0.0926    0.1830   -0.0919
          62   -0.0008   -0.0116   -0.0173   -0.0059   -0.0243    0.0272    0.0572   -0.0306
          63   -0.0172    0.0081    0.0225    0.0077    0.0347   -0.0384   -0.0805    0.0454


   Root No.      33        34        35        36        37        38        39        40

                33 A      34 A      35 A      36 A      37 A      38 A      39 A      40 A   

                1229.2    1245.8    1293.5    1300.9    1322.7    1363.7    1399.7    1407.4
  
           1   -0.0277   -0.0309    0.0114    0.0339    0.0095   -0.0428    0.0258   -0.0024
           2    0.0542    0.0313   -0.0181   -0.0014   -0.0097   -0.0098    0.0506   -0.0042
           3   -0.0263    0.0092   -0.0153   -0.0128    0.0057    0.0089   -0.0480    0.0004
           4    0.0273   -0.0304    0.0083   -0.0354    0.0087    0.0433    0.0249    0.0026
           5    0.0534   -0.0320    0.0181   -0.0038    0.0098   -0.0101   -0.0501   -0.0044
           6   -0.0273   -0.0084    0.0142   -0.0143   -0.0063    0.0098    0.0485    0.0007
           7    0.0172    0.0059    0.0106    0.0120   -0.0233    0.0159   -0.0100   -0.0147
           8   -0.0208   -0.0062    0.0431    0.0392   -0.0147    0.0217   -0.0237    0.0202
           9    0.0125    0.0025    0.0073    0.0102   -0.0026    0.0026    0.0059   -0.0026
          10   -0.0169    0.0063    0.0097   -0.0121   -0.0237   -0.0161   -0.0100    0.0137
          11   -0.0211    0.0060   -0.0400    0.0426    0.0154    0.0219    0.0234    0.0203
          12    0.0128   -0.0029   -0.0064    0.0109    0.0031    0.0026   -0.0060   -0.0030
          13   -0.0001    0.0226    0.0053   -0.0009    0.0793    0.0002    0.0094    0.0003
          14    0.0008    0.0002   -0.0009   -0.0215   -0.0002   -0.0013   -0.0001   -0.0264
          15   -0.0091   -0.0001   -0.0003   -0.0028   -0.0007    0.0012   -0.0001   -0.0102
          16   -0.0139    0.0067   -0.0099   -0.0121    0.0011    0.0119   -0.0276    0.0004
          17   -0.0049   -0.0045   -0.0048    0.0007    0.0034   -0.0049   -0.0176   -0.0017
          18   -0.0032   -0.0013    0.0110   -0.0015   -0.0029    0.0079    0.0209    0.0034
          19    0.0137    0.0063   -0.0088    0.0130    0.0015   -0.0123   -0.0274   -0.0006
          20   -0.0043    0.0045    0.0046    0.0005   -0.0032   -0.0048    0.0172   -0.0016
          21   -0.0034    0.0014   -0.0112   -0.0004    0.0028    0.0075   -0.0217    0.0033
          22   -0.0177    0.0037    0.0083   -0.0115   -0.0038    0.0228    0.0199    0.0059
          23   -0.0093   -0.0016   -0.0028   -0.0030    0.0019    0.0043   -0.0101    0.0010
          24    0.0152    0.0055    0.0026    0.0041   -0.0034   -0.0058    0.0165   -0.0013
          25    0.0180    0.0033    0.0091    0.0109   -0.0033   -0.0226    0.0207   -0.0058
          26   -0.0089    0.0019    0.0027   -0.0030   -0.0021    0.0040    0.0103    0.0009
          27    0.0153   -0.0057   -0.0022    0.0043    0.0036   -0.0063   -0.0162   -0.0015
          28    0.0440    0.1280   -0.0480   -0.0116   -0.0263    0.0403   -0.0616    0.0023
          29   -0.1185   -0.0572   -0.0034   -0.0278    0.0308   -0.0056   -0.0578    0.0044
          30    0.0378   -0.0045   -0.0004    0.0188   -0.0021   -0.0243    0.0427   -0.0057
          31   -0.0396    0.1284   -0.0465    0.0174   -0.0264   -0.0418   -0.0592   -0.0030
          32   -0.1165    0.0591    0.0019   -0.0268   -0.0323   -0.0060    0.0571    0.0042
          33    0.0405    0.0027    0.0019    0.0191    0.0033   -0.0246   -0.0430   -0.0060
          34   -0.0000   -0.0370   -0.0821    0.0041   -0.1409   -0.0008    0.0150    0.0006
          35    0.0067    0.0004   -0.0025   -0.0664   -0.0009   -0.0431    0.0003    0.0535
          36    0.0068    0.0008   -0.0022   -0.0818    0.0002   -0.0719    0.0004    0.1256
          37    0.0006   -0.0582   -0.0337    0.0026   -0.1429   -0.0004   -0.0119   -0.0011
          38   -0.0364    0.0006   -0.0031   -0.0796   -0.0012   -0.0749    0.0008    0.1394
          39   -0.0024    0.0006    0.0003    0.0031    0.0015    0.0097    0.0000   -0.0306
          40    0.0170   -0.0263   -0.0509   -0.0329   -0.0660   -0.0268   -0.0001    0.0598
          41   -0.0336   -0.0936   -0.0877   -0.0649    0.0363   -0.0839    0.0736   -0.0828
          42    0.0141   -0.0113   -0.0320   -0.0180   -0.0612   -0.0186   -0.0063    0.0992
          43    0.0479   -0.0109   -0.0538   -0.0208   -0.0598   -0.0326    0.0155    0.1057
          44   -0.0649   -0.0366   -0.1018   -0.0829    0.0550   -0.0415   -0.0031   -0.0590
          45   -0.0098    0.0002   -0.0117   -0.0127    0.0254    0.0015    0.0007   -0.0584
          46   -0.0173   -0.0260   -0.0477    0.0378   -0.0641    0.0265    0.0006   -0.0553
          47   -0.0336    0.0948    0.0826   -0.0700   -0.0373   -0.0850   -0.0708   -0.0812
          48    0.0151    0.0110    0.0313   -0.0222    0.0630   -0.0186    0.0058    0.0984
          49   -0.0482   -0.0106   -0.0526    0.0257   -0.0594    0.0334    0.0169   -0.1036
          50   -0.0629    0.0371    0.0959   -0.0910   -0.0574   -0.0401    0.0051   -0.0589
          51   -0.0077   -0.0002    0.0112   -0.0134   -0.0237    0.0014   -0.0004   -0.0537
          52   -0.0161    0.0059   -0.0111   -0.0120    0.0016    0.0115   -0.0299    0.0002
          53    0.0212    0.0587    0.0124   -0.0400   -0.0163    0.0517    0.0198    0.0107
          54   -0.0076   -0.0600   -0.0253    0.0597    0.0190   -0.0739   -0.0259   -0.0127
          55    0.0156    0.0057   -0.0101    0.0129    0.0020   -0.0119   -0.0297   -0.0003
          56    0.0205   -0.0584   -0.0157   -0.0396    0.0154    0.0510   -0.0214    0.0108
          57   -0.0071    0.0604    0.0301    0.0591   -0.0176   -0.0742    0.0275   -0.0129
          58    0.0311   -0.0106   -0.0439   -0.0064    0.0165   -0.0072   -0.0803   -0.0045
          59   -0.0228    0.0020    0.0114   -0.0056   -0.0039    0.0135    0.0185    0.0037
          60    0.0407   -0.0013   -0.0207    0.0074    0.0052   -0.0218   -0.0250   -0.0068
          61   -0.0340   -0.0101   -0.0430    0.0096    0.0163    0.0060   -0.0807    0.0041
          62   -0.0242   -0.0017   -0.0123   -0.0046    0.0037    0.0132   -0.0202    0.0037
          63    0.0417    0.0004    0.0206    0.0060   -0.0045   -0.0213    0.0250   -0.0067


   Root No.      41        42        43        44        45        46        47        48

                41 A      42 A      43 A      44 A      45 A      46 A      47 A      48 A   

                1419.9    1429.0    1458.4    1853.0    1869.4    2868.6    2878.3    2966.3
  
           1    0.0057   -0.0052    0.0373    0.0036    0.0052   -0.0119   -0.0107    0.0001
           2   -0.0030    0.0012    0.0277    0.0099    0.0147   -0.0158   -0.0154    0.0002
           3   -0.0002    0.0007   -0.0313   -0.0147   -0.0203   -0.0298   -0.0290    0.0007
           4    0.0054    0.0052   -0.0371   -0.0036    0.0052   -0.0118    0.0108   -0.0001
           5    0.0032    0.0015    0.0269    0.0098   -0.0145    0.0162   -0.0160    0.0002
           6    0.0001    0.0005   -0.0316   -0.0148    0.0204    0.0293   -0.0290    0.0007
           7   -0.0334    0.0246    0.0011    0.0009   -0.0001    0.0000   -0.0003   -0.0042
           8    0.0085    0.0057   -0.0090    0.0021    0.0010   -0.0007   -0.0006   -0.0015
           9   -0.0077    0.0075    0.0038   -0.0005    0.0001    0.0018    0.0020    0.0181
          10   -0.0331   -0.0250   -0.0013   -0.0010   -0.0001   -0.0000    0.0004    0.0047
          11   -0.0092    0.0054   -0.0088    0.0021   -0.0009    0.0007   -0.0006   -0.0013
          12    0.0085    0.0083    0.0040   -0.0005   -0.0000   -0.0018    0.0019    0.0182
          13    0.0284    0.0001    0.0001    0.0000   -0.0003    0.0001   -0.0000   -0.0002
          14    0.0007   -0.0347   -0.0036   -0.0011   -0.0000   -0.0000    0.0004    0.0087
          15   -0.0000   -0.0162   -0.0019   -0.0001   -0.0000   -0.0000    0.0001   -0.0213
          16   -0.0017    0.0013   -0.0202    0.0586    0.0494    0.0009    0.0007   -0.0001
          17    0.0002    0.0013   -0.0333   -0.0748   -0.0730    0.0003    0.0002    0.0002
          18    0.0011   -0.0028    0.0471    0.1092    0.1068   -0.0004   -0.0003   -0.0001
          19   -0.0016   -0.0012    0.0201   -0.0588    0.0493    0.0009   -0.0007    0.0001
          20   -0.0001    0.0012   -0.0327   -0.0753    0.0731   -0.0003    0.0002    0.0002
          21   -0.0013   -0.0028    0.0474    0.1093   -0.1064    0.0004   -0.0003   -0.0001
          22    0.0003   -0.0034    0.0703   -0.1206   -0.0683    0.0001    0.0002    0.0000
          23    0.0001   -0.0006    0.0057    0.0587    0.0609   -0.0003   -0.0002   -0.0000
          24   -0.0004    0.0009   -0.0072   -0.0876   -0.0903    0.0001    0.0001    0.0000
          25    0.0007    0.0033   -0.0703    0.1208   -0.0680    0.0001   -0.0002   -0.0000
          26   -0.0001   -0.0006    0.0046    0.0604   -0.0614    0.0003   -0.0002   -0.0000
          27    0.0005    0.0010   -0.0080   -0.0869    0.0896   -0.0001    0.0001    0.0000
          28   -0.0133    0.0083   -0.0139    0.0140    0.0016    0.1335    0.1343   -0.0029
          29    0.0143   -0.0105   -0.0194    0.0049   -0.0008    0.1911    0.1860   -0.0056
          30   -0.0020    0.0022    0.0127   -0.0124   -0.0077    0.3591    0.3499   -0.0081
          31   -0.0129   -0.0084    0.0143   -0.0136    0.0016    0.1330   -0.1359    0.0029
          32   -0.0144   -0.0111   -0.0188    0.0044    0.0013   -0.1955    0.1932   -0.0057
          33    0.0026    0.0027    0.0130   -0.0120    0.0072   -0.3530    0.3493   -0.0080
          34   -0.0550    0.0011   -0.0001   -0.0000   -0.0009    0.0006   -0.0000    0.0006
          35   -0.0014    0.0726    0.0069   -0.0014   -0.0000   -0.0000    0.0026   -0.1385
          36   -0.0027    0.1685    0.0177   -0.0005    0.0000    0.0000   -0.0010    0.0655
          37   -0.0546   -0.0009   -0.0002   -0.0000   -0.0001   -0.0001    0.0000    0.0019
          38   -0.0035    0.1738    0.0147    0.0004   -0.0000    0.0000    0.0000    0.0360
          39    0.0013   -0.0406   -0.0039   -0.0004   -0.0000    0.0000    0.0007    0.1915
          40    0.0904   -0.0711   -0.0072    0.0018    0.0009    0.0076    0.0076    0.0999
          41   -0.0704    0.0090    0.0471    0.0052    0.0078   -0.0011   -0.0008   -0.0233
          42    0.1415   -0.0965   -0.0199   -0.0029   -0.0024   -0.0066   -0.0064   -0.0795
          43    0.1563   -0.1048   -0.0085   -0.0011    0.0002   -0.0050   -0.0061   -0.0509
          44   -0.0407   -0.0007   -0.0009   -0.0022   -0.0033    0.0018    0.0028    0.0407
          45   -0.0758    0.0435    0.0068   -0.0024   -0.0027   -0.0154   -0.0185   -0.1373
          46    0.0866    0.0699    0.0070   -0.0019    0.0009    0.0074   -0.0076   -0.1027
          47    0.0716    0.0100    0.0464    0.0052   -0.0077    0.0012   -0.0009   -0.0244
          48   -0.1450   -0.1008   -0.0211   -0.0030    0.0024    0.0061   -0.0060   -0.0773
          49    0.1587    0.1082    0.0092    0.0011    0.0002   -0.0046    0.0056    0.0480
          50    0.0432    0.0008   -0.0015   -0.0021    0.0032   -0.0016    0.0027    0.0403
          51    0.0720    0.0420    0.0067   -0.0025    0.0027    0.0154   -0.0187   -0.1411
          52   -0.0020    0.0013   -0.0199    0.0810    0.0717   -0.0066   -0.0089    0.0007
          53    0.0021   -0.0024    0.0476    0.0139    0.0241    0.0005    0.0001    0.0003
          54    0.0003    0.0027   -0.0678   -0.0168   -0.0342   -0.0021   -0.0018   -0.0000
          55   -0.0020   -0.0012    0.0197   -0.0812    0.0715   -0.0063    0.0088   -0.0008
          56   -0.0030   -0.0026    0.0476    0.0125   -0.0227   -0.0005    0.0002    0.0003
          57    0.0007    0.0028   -0.0678   -0.0179    0.0351    0.0020   -0.0017   -0.0000
          58   -0.0011    0.0042   -0.0665    0.0294    0.0911   -0.0005   -0.0005   -0.0001
          59    0.0002   -0.0028    0.0482    0.0288    0.0273   -0.0010   -0.0011   -0.0001
          60   -0.0013    0.0046   -0.0707   -0.0433   -0.0401    0.0008    0.0009    0.0001
          61   -0.0013   -0.0039    0.0662   -0.0297    0.0911   -0.0005    0.0005    0.0001
          62   -0.0004   -0.0028    0.0490    0.0281   -0.0256    0.0010   -0.0011   -0.0001
          63    0.0016    0.0045   -0.0700   -0.0439    0.0411   -0.0008    0.0009    0.0001


   Root No.      49        50        51        52        53        54        55        56

                49 A      50 A      51 A      52 A      53 A      54 A      55 A      56 A   

                2973.6    2985.6    3043.3    3044.4    3055.5    3056.7    3062.9    3063.0
  
           1    0.0003   -0.0002   -0.0000   -0.0004   -0.0002   -0.0001   -0.0001    0.0003
           2    0.0005   -0.0004   -0.0002   -0.0002    0.0002    0.0004   -0.0000    0.0002
           3    0.0010   -0.0008   -0.0000   -0.0005   -0.0001   -0.0002   -0.0003    0.0002
           4    0.0003    0.0002   -0.0001    0.0004    0.0002   -0.0001   -0.0001   -0.0003
           5   -0.0005   -0.0004    0.0002   -0.0001    0.0002   -0.0004    0.0001    0.0002
           6   -0.0010   -0.0007    0.0001   -0.0004   -0.0002    0.0002    0.0003    0.0002
           7   -0.0067    0.0040   -0.0006   -0.0008   -0.0125   -0.0195    0.0013    0.0094
           8   -0.0023    0.0012    0.0002    0.0002    0.0044    0.0071   -0.0005   -0.0036
           9    0.0286   -0.0162   -0.0002   -0.0002   -0.0021   -0.0032    0.0002    0.0012
          10   -0.0074   -0.0043   -0.0008    0.0007    0.0148   -0.0174    0.0003   -0.0092
          11    0.0020    0.0011   -0.0003    0.0002    0.0052   -0.0064    0.0001   -0.0035
          12   -0.0284   -0.0159    0.0002   -0.0002   -0.0028    0.0032   -0.0001    0.0014
          13   -0.0000   -0.0002   -0.0000    0.0000   -0.0000   -0.0004    0.0000   -0.0001
          14    0.0001    0.0103    0.0000   -0.0001   -0.0128   -0.0013   -0.0012   -0.0207
          15   -0.0003   -0.0249    0.0000   -0.0001   -0.0047   -0.0004   -0.0004   -0.0064
          16   -0.0002    0.0001   -0.0208   -0.0285    0.0005    0.0002   -0.0146    0.0004
          17    0.0003   -0.0002    0.0005    0.0006    0.0000    0.0001    0.0014   -0.0001
          18   -0.0001    0.0001   -0.0005   -0.0006   -0.0000   -0.0001   -0.0019    0.0001
          19   -0.0002   -0.0001   -0.0265    0.0232   -0.0006    0.0002   -0.0144    0.0009
          20   -0.0003   -0.0002   -0.0010    0.0009    0.0000   -0.0001   -0.0016    0.0000
          21    0.0001    0.0001    0.0003   -0.0003   -0.0000    0.0001    0.0018   -0.0001
          22    0.0001   -0.0000    0.0064    0.0067   -0.0001   -0.0006   -0.0088    0.0005
          23   -0.0000   -0.0000    0.0060    0.0059   -0.0001   -0.0007   -0.0125    0.0007
          24    0.0000   -0.0000   -0.0088   -0.0086    0.0002    0.0011    0.0183   -0.0010
          25    0.0001    0.0000    0.0077   -0.0050    0.0003   -0.0006   -0.0089    0.0003
          26    0.0000   -0.0000   -0.0069    0.0041   -0.0003    0.0007    0.0124   -0.0004
          27   -0.0000   -0.0000    0.0104   -0.0063    0.0004   -0.0011   -0.0186    0.0007
          28   -0.0039    0.0028    0.0001    0.0007    0.0003    0.0004    0.0004   -0.0006
          29   -0.0079    0.0051    0.0011    0.0023    0.0013    0.0016    0.0010   -0.0013
          30   -0.0113    0.0076    0.0037    0.0065    0.0018    0.0023    0.0028   -0.0023
          31   -0.0039   -0.0028    0.0002   -0.0006   -0.0004    0.0004    0.0004    0.0006
          32    0.0080    0.0051   -0.0016    0.0021    0.0016   -0.0015   -0.0012   -0.0012
          33    0.0109    0.0074   -0.0048    0.0054    0.0020   -0.0020   -0.0029   -0.0020
          34    0.0023    0.0007   -0.0001   -0.0000   -0.0006   -0.0021    0.0000   -0.0013
          35   -0.0017   -0.1684   -0.0003    0.0015    0.1366    0.0135    0.0129    0.2275
          36    0.0008    0.0773    0.0002   -0.0009   -0.0792   -0.0078   -0.0074   -0.1300
          37   -0.0040    0.0021   -0.0000    0.0000    0.0013   -0.0007    0.0002    0.0020
          38    0.0004    0.0448   -0.0000    0.0003    0.0154    0.0015    0.0013    0.0233
          39    0.0022    0.2204   -0.0004    0.0023    0.1344    0.0131    0.0118    0.2082
          40    0.1637   -0.0949    0.0048    0.0056    0.1102    0.1784   -0.0121   -0.0873
          41   -0.0366    0.0203   -0.0017   -0.0022   -0.0228   -0.0357    0.0018    0.0166
          42   -0.1284    0.0732   -0.0045   -0.0053   -0.1028   -0.1652    0.0111    0.0799
          43   -0.0819    0.0476    0.0021    0.0025    0.0370    0.0594   -0.0038   -0.0279
          44    0.0619   -0.0332   -0.0019   -0.0023   -0.0331   -0.0525    0.0033    0.0241
          45   -0.2149    0.1198    0.0069    0.0083    0.1275    0.2041   -0.0131   -0.0956
          46    0.1659    0.0951    0.0069   -0.0053   -0.1345    0.1640   -0.0029    0.0877
          47    0.0378    0.0208    0.0024   -0.0020   -0.0284    0.0336   -0.0001    0.0171
          48    0.1231    0.0693    0.0061   -0.0047   -0.1188    0.1439   -0.0026    0.0761
          49   -0.0764   -0.0439    0.0027   -0.0021   -0.0398    0.0481   -0.0007    0.0246
          50   -0.0604   -0.0319    0.0025   -0.0020   -0.0379    0.0453   -0.0007    0.0227
          51    0.2179    0.1199   -0.0097    0.0076    0.1520   -0.1835    0.0030   -0.0938
          52    0.0013   -0.0010    0.2427    0.3339   -0.0067   -0.0030    0.1591   -0.0042
          53    0.0004   -0.0002    0.0007    0.0007    0.0002    0.0003   -0.0009   -0.0001
          54   -0.0000   -0.0000   -0.0035   -0.0045    0.0000   -0.0000   -0.0004    0.0001
          55    0.0014    0.0011    0.3091   -0.2713    0.0077   -0.0033    0.1566   -0.0103
          56   -0.0004   -0.0002    0.0039   -0.0036    0.0004   -0.0003    0.0033   -0.0004
          57    0.0001    0.0000    0.0076   -0.0064    0.0001   -0.0000    0.0020   -0.0001
          58   -0.0001    0.0001   -0.0700   -0.0743    0.0016    0.0076    0.1211   -0.0067
          59   -0.0002    0.0001   -0.0748   -0.0767    0.0016    0.0082    0.1331   -0.0072
          60    0.0002   -0.0002    0.1095    0.1123   -0.0023   -0.0120   -0.1949    0.0106
[...]
 TRAVEL (Ang.)       0.4544         C  5 -- H 12         +12.8% ( 37.1%)      7.1%
 REDUCED MASS        0.2321         C  4 -- H 16         +12.6% ( 36.7%)      3.5%
 EFFECTIVE MASS      2.7563         C  3 -- H 15         +11.6% ( 35.2%)      3.9%
 FORCE CONSTANT      0.2709         C  4 -- H 17         +11.0% ( 34.3%)      3.8%

 VIBRATION         41   41A           ATOM PAIR      ENERGY CONTRIBUTION    RADIAL
 FREQUENCY          1419.87         C  4 -- H 16         +16.1% ( 43.4%)      5.8%
 TRANSITION DIPOLE   0.0198         C  3 -- H 14         +15.9% ( 43.2%)      5.8%
 TRAVEL (Ang.)       0.3739         C  4 -- H 17         +15.5% ( 42.6%)      5.1%
 REDUCED MASS        0.3397         C  3 -- H 15         +15.4% ( 42.4%)      5.2%
 EFFECTIVE MASS      3.2546
 FORCE CONSTANT      0.4035

 VIBRATION         42   42A           ATOM PAIR      ENERGY CONTRIBUTION    RADIAL
 FREQUENCY          1429.01         C  5 -- H 12         +19.1% ( 46.9%)      6.0%
 TRANSITION DIPOLE   0.0271         C  5 -- H 13         +18.5% ( 46.3%)      5.6%
 TRAVEL (Ang.)       0.3749         C  4 -- C  5         +10.7% ( 35.2%)     82.1%
 REDUCED MASS        0.3358         C  3 -- C  5         +10.6% ( 34.9%)     80.7%
 EFFECTIVE MASS      3.2748
 FORCE CONSTANT      0.4040

 VIBRATION         43   43A           ATOM PAIR      ENERGY CONTRIBUTION    RADIAL
 FREQUENCY          1458.42         C  8 -- C  9         +17.2% ( 63.1%)    100.0%
 TRANSITION DIPOLE   0.1324         C  1 -- C  6         +10.5% ( 49.3%)     98.9%
 TRAVEL (Ang.)       0.1741         C  2 -- C  7         +10.4% ( 49.1%)     98.9%
 REDUCED MASS        1.5261         C  6 -- C  8          +9.0% ( 45.7%)      0.9%
 EFFECTIVE MASS     10.4743
 FORCE CONSTANT      1.9125

 VIBRATION         44   44A           ATOM PAIR      ENERGY CONTRIBUTION    RADIAL
 FREQUENCY          1852.96         C  7 -- C  9         +21.9% ( 69.8%)     98.9%
 TRANSITION DIPOLE   0.3195         C  6 -- C  8         +21.8% ( 69.6%)     98.9%
 TRAVEL (Ang.)       0.1125         C  8 -- C  9         +16.6% ( 60.8%)    100.0%
 REDUCED MASS        2.8762         C  9 -- H 21          +7.2% ( 40.0%)      1.7%
 EFFECTIVE MASS     11.9568
 FORCE CONSTANT      5.8184

 VIBRATION         45   45A           ATOM PAIR      ENERGY CONTRIBUTION    RADIAL
 FREQUENCY          1869.40         C  6 -- C  8         +22.3% ( 69.1%)     99.3%
 TRANSITION DIPOLE   0.3973         C  7 -- C  9         +22.2% ( 69.0%)     99.3%
 TRAVEL (Ang.)       0.1158         C  8 -- C  9         +12.1% ( 50.9%)      0.0%
 REDUCED MASS        2.6895         C  1 -- C  6          +7.9% ( 41.2%)     56.1%
 EFFECTIVE MASS     11.7818
 FORCE CONSTANT      5.5378

 VIBRATION         46   46A           ATOM PAIR      ENERGY CONTRIBUTION    RADIAL
 FREQUENCY          2868.65         C  1 -- H 10         +48.6% ( 71.0%)    100.0%
 TRANSITION DIPOLE   0.0364         C  2 -- H 11         +47.9% ( 70.5%)    100.0%
 TRAVEL (Ang.)       0.2254         C  1 -- C  2          +1.1% ( 10.9%)      0.0%
 REDUCED MASS        0.4628         C  1 -- C  3          +0.5% (  7.5%)      8.9%
 EFFECTIVE MASS      1.4606
 FORCE CONSTANT      2.2438

 VIBRATION         47   47A           ATOM PAIR      ENERGY CONTRIBUTION    RADIAL
 FREQUENCY          2878.32         C  2 -- H 11         +48.7% ( 70.7%)    100.0%
 TRANSITION DIPOLE   0.0859         C  1 -- H 10         +47.9% ( 70.2%)    100.0%
 TRAVEL (Ang.)       0.2252         C  1 -- C  2          +0.9% (  9.9%)     99.9%
 REDUCED MASS        0.4619         C  2 -- C  4          +0.5% (  7.4%)      9.8%
 EFFECTIVE MASS      1.4392
 FORCE CONSTANT      2.2547

 VIBRATION         48   48A           ATOM PAIR      ENERGY CONTRIBUTION    RADIAL
 FREQUENCY          2966.27         C  5 -- H 13         +25.6% ( 52.7%)     97.3%
 TRANSITION DIPOLE   0.0043         C  5 -- H 12         +16.5% ( 42.3%)     94.8%
 TRAVEL (Ang.)       0.3496         C  4 -- H 17         +16.1% ( 41.9%)     97.0%
 REDUCED MASS        0.1860         C  3 -- H 15         +15.6% ( 41.2%)     97.0%
 EFFECTIVE MASS      1.5606         C  4 -- H 16         +11.9% ( 36.0%)     95.5%
 FORCE CONSTANT      0.9644         C  3 -- H 14         +11.7% ( 35.7%)     95.5%

 VIBRATION         49   49A           ATOM PAIR      ENERGY CONTRIBUTION    RADIAL
 FREQUENCY          2973.65         C  4 -- H 17         +27.2% ( 54.2%)     97.1%
 TRANSITION DIPOLE   0.0409         C  3 -- H 15         +27.1% ( 54.1%)     97.1%
 TRAVEL (Ang.)       0.2947         C  3 -- H 14         +21.7% ( 48.4%)     95.9%
 REDUCED MASS        0.2612         C  4 -- H 16         +21.5% ( 48.2%)     95.8%
 EFFECTIVE MASS      1.5398
 FORCE CONSTANT      1.3606

 VIBRATION         50   50A           ATOM PAIR      ENERGY CONTRIBUTION    RADIAL
 FREQUENCY          2985.58         C  5 -- H 13         +32.8% ( 59.2%)     97.5%
 TRANSITION DIPOLE   0.0377         C  5 -- H 12         +23.0% ( 49.6%)     95.5%
 TRAVEL (Ang.)       0.3198         C  3 -- H 15         +11.5% ( 35.1%)     97.1%
 REDUCED MASS        0.2208         C  4 -- H 17         +11.3% ( 34.7%)     97.2%
 EFFECTIVE MASS      1.5275
 FORCE CONSTANT      1.1595

 VIBRATION         51   51A           ATOM PAIR      ENERGY CONTRIBUTION    RADIAL
 FREQUENCY          3043.25         C  7 -- H 19         +44.6% ( 67.8%)    100.0%
 TRANSITION DIPOLE   0.3116         C  6 -- H 18         +27.5% ( 53.2%)    100.0%
 TRAVEL (Ang.)       0.2712         C  9 -- H 21         +14.8% ( 39.1%)    100.0%
 REDUCED MASS        0.3012         C  8 -- H 20         +10.5% ( 32.9%)    100.0%
 EFFECTIVE MASS      1.4754
 FORCE CONSTANT      1.6434

 VIBRATION         52   52A           ATOM PAIR      ENERGY CONTRIBUTION    RADIAL
 FREQUENCY          3044.39         C  6 -- H 18         +48.9% ( 70.9%)    100.0%
 TRANSITION DIPOLE   0.2207         C  7 -- H 19         +32.3% ( 57.6%)    100.0%
 TRAVEL (Ang.)       0.2515         C  8 -- H 20         +10.5% ( 32.9%)     99.9%
 REDUCED MASS        0.3501         C  9 -- H 21          +5.7% ( 24.2%)     99.8%
 EFFECTIVE MASS      1.4672
 FORCE CONSTANT      1.9121

 VIBRATION         53   53A           ATOM PAIR      ENERGY CONTRIBUTION    RADIAL
 FREQUENCY          3055.47         C  4 -- H 16         +22.7% ( 47.0%)     98.2%
 TRANSITION DIPOLE   0.0216         C  4 -- H 17         +17.7% ( 41.5%)     96.8%
 TRAVEL (Ang.)       0.3626         C  5 -- H 12         +17.2% ( 40.9%)     98.4%
 REDUCED MASS        0.1678         C  3 -- H 14         +16.0% ( 39.4%)     98.2%
 EFFECTIVE MASS      1.2864         C  3 -- H 15         +12.7% ( 35.1%)     96.8%
 FORCE CONSTANT      0.9230         C  5 -- H 13         +12.4% ( 34.7%)     96.4%

 VIBRATION         54   54A           ATOM PAIR      ENERGY CONTRIBUTION    RADIAL
 FREQUENCY          3056.68         C  3 -- H 14         +30.6% ( 54.5%)     98.3%
 TRANSITION DIPOLE   0.0731         C  4 -- H 16         +24.7% ( 48.9%)     98.3%
 TRAVEL (Ang.)       0.2997         C  3 -- H 15         +23.9% ( 48.2%)     97.0%
 REDUCED MASS        0.2456         C  4 -- H 17         +19.0% ( 42.9%)     96.9%
 EFFECTIVE MASS      1.2723
 FORCE CONSTANT      1.3523

 VIBRATION         55   55A           ATOM PAIR      ENERGY CONTRIBUTION    RADIAL
 FREQUENCY          3062.90         C  9 -- H 21         +35.9% ( 60.9%)     99.9%
 TRANSITION DIPOLE   0.3035         C  8 -- H 20         +35.3% ( 60.4%)     99.9%
 TRAVEL (Ang.)       0.2786         C  6 -- H 18         +12.6% ( 36.1%)     99.8%
 REDUCED MASS        0.2835         C  7 -- H 19         +12.3% ( 35.6%)     99.8%
 EFFECTIVE MASS      1.5677
 FORCE CONSTANT      1.5673

 VIBRATION         56   56A           ATOM PAIR      ENERGY CONTRIBUTION    RADIAL
 FREQUENCY          3063.04         C  5 -- H 12         +42.4% ( 64.1%)     98.7%
 TRANSITION DIPOLE   0.0550         C  5 -- H 13         +26.4% ( 50.6%)     95.9%
 TRAVEL (Ang.)       0.2864         C  3 -- H 14          +8.8% ( 29.2%)     98.4%
 REDUCED MASS        0.2684         C  4 -- H 16          +8.5% ( 28.6%)     98.4%
 EFFECTIVE MASS      1.2874
 FORCE CONSTANT      1.4836

 VIBRATION         57   57A           ATOM PAIR      ENERGY CONTRIBUTION    RADIAL
 FREQUENCY          3074.01         C  8 -- H 20         +40.4% ( 64.4%)    100.0%
 TRANSITION DIPOLE   0.3715         C  9 -- H 21         +40.3% ( 64.4%)    100.0%
 TRAVEL (Ang.)       0.2546         C  6 -- H 18          +7.9% ( 28.5%)     99.7%
 REDUCED MASS        0.3384         C  7 -- H 19          +7.7% ( 28.1%)     99.7%
 EFFECTIVE MASS      1.5972
 FORCE CONSTANT      1.8838

      SYMMETRY NUMBER FOR POINT-GROUP C1  =  1


          SYSTEM IS A GROUND STATE



 InChI=1S/C9H12/c1-2-5-9-7-3-6-8(9)4-1/h1-2,4-5,8-9H,3,6-7H2


          MOLECULE IS NOT LINEAR

          THERE ARE 57 GENUINE VIBRATIONS IN THIS SYSTEM
          THIS THERMODYNAMICS CALCULATION IS LIMITED TO
          MOLECULES WHICH HAVE NO INTERNAL ROTATIONS




                    CALCULATED THERMODYNAMIC PROPERTIES
                                          *
   TEMP. (K)   PARTITION FUNCTION   H.O.F.    ENTHALPY  HEAT CAPACITY ENTROPY
                                   KCAL/MOL   CAL/MOLE    CAL/K/MOL  CAL/K/MOL


 298.00  VIB.     0.1363D+03                  2951.9645    24.1025    19.6723
         ROT.     0.3634D+06                   888.2803     2.9808    28.4236
         INT.     0.4952D+08                  3840.2448    27.0833    48.0959
         TRA.     0.1274D+28                  1480.4672     4.9680    40.2640
         TOT.                       13.760    5320.7120    32.0513    88.3599

 200.00  VIB.     0.2943D+02                  1171.7286    12.7139    12.5792
         ROT.     0.1998D+06                   596.1613     2.9808    27.2349
         INT.     0.5880D+07                  1767.8899    15.6947    39.8141
         TRA.     0.7004D+27                   993.6021     4.9680    38.2829
         TOT.                       11.201    2761.4920    20.6627    78.0970

 210.00  VIB.     0.3412D+02                  1303.8473    13.7178    13.2236
         ROT.     0.2150D+06                   625.9693     2.9808    27.3803
         INT.     0.7336D+07                  1929.8166    16.6986    40.6039
         TRA.     0.7536D+27                  1043.2822     4.9680    38.5253
         TOT.                       11.413    2973.0988    21.6666    79.1292

 220.00  VIB.     0.3963D+02                  1446.2403    14.7683    13.8858
         ROT.     0.2305D+06                   655.7774     2.9808    27.5190
         INT.     0.9135D+07                  2102.0177    17.7491    41.4048
         TRA.     0.8081D+27                  1092.9623     4.9680    38.7564
         TOT.                       11.635    3194.9801    22.7171    80.1613

 230.00  VIB.     0.4610D+02                  1599.3564    15.8618    14.5663
         ROT.     0.2464D+06                   685.5855     2.9808    27.6515
         INT.     0.1136D+08                  2284.9419    18.8426    42.2178
         TRA.     0.8638D+27                  1142.6424     4.9680    38.9773
         TOT.                       11.867    3427.5843    23.8106    81.1950

 240.00  VIB.     0.5373D+02                  1763.6070    16.9945    15.2652
         ROT.     0.2627D+06                   715.3935     2.9808    27.7784
         INT.     0.1411D+08                  2479.0006    19.9753    43.0435
         TRA.     0.9207D+27                  1192.3226     4.9680    39.1887
         TOT.                       12.111    3671.3231    24.9433    82.2322

 250.00  VIB.     0.6274D+02                  1939.3620    18.1619    15.9825
         ROT.     0.2792D+06                   745.2016     2.9808    27.9000
         INT.     0.1752D+08                  2684.5636    21.1427    43.8825
         TRA.     0.9789D+27                  1242.0027     4.9680    39.3915
         TOT.                       12.366    3926.5662    26.1107    83.2740

 260.00  VIB.     0.7342D+02                  2126.9459    19.3595    16.7180
         ROT.     0.2962D+06                   775.0097     2.9808    28.0169
         INT.     0.2175D+08                  2901.9555    22.3403    44.7350
         TRA.     0.1038D+28                  1291.6828     4.9680    39.5863
         TOT.                       12.633    4193.6383    27.3083    84.3213

 270.00  VIB.     0.8612D+02                  2326.6366    20.5825    17.4715
         ROT.     0.3134D+06                   804.8177     2.9808    28.1294
         INT.     0.2699D+08                  3131.4544    23.5633    45.6010
         TRA.     0.1099D+28                  1341.3629     4.9680    39.7738
         TOT.                       12.913    4472.8172    28.5313    85.3748

 280.00  VIB.     0.1012D+03                  2538.6649    21.8262    18.2425
         ROT.     0.3310D+06                   834.6258     2.9808    28.2378
         INT.     0.3351D+08                  3373.2907    24.8070    46.4803
         TRA.     0.1160D+28                  1391.0430     4.9680    39.9545
         TOT.                       13.204    4764.3337    29.7750    86.4349

 290.00  VIB.     0.1193D+03                  2763.2146    23.0860    19.0303
         ROT.     0.3489D+06                   864.4339     2.9808    28.3424
         INT.     0.4162D+08                  3627.6485    26.0668    47.3728
         TRA.     0.1223D+28                  1440.7231     4.9680    40.1289
         TOT.                       13.508    5068.3715    31.0349    87.5016

 300.00  VIB.     0.1409D+03                  3000.4245    24.3575    19.8344
         ROT.     0.3671D+06                   894.2419     2.9808    28.4435
         INT.     0.5173D+08                  3894.6664    27.3383    48.2779
         TRA.     0.1287D+28                  1490.4032     4.9680    40.2973
         TOT.                       13.825    5385.0696    32.3064    88.5752

 310.00  VIB.     0.1669D+03                  3250.3903    25.6365    20.6539
         ROT.     0.3856D+06                   924.0500     2.9808    28.5412
         INT.     0.6434D+08                  4174.4403    28.6173    49.1952
         TRA.     0.1352D+28                  1540.0833     4.9680    40.4602
         TOT.                       14.154    5714.5236    33.5854    89.6553

 320.00  VIB.     0.1981D+03                  3513.1671    26.9191    21.4881
         ROT.     0.4044D+06                   953.8580     2.9808    28.6359
         INT.     0.8009D+08                  4467.0252    29.8999    50.1240
         TRA.     0.1418D+28                  1589.7634     4.9680    40.6179
         TOT.                       14.497    6056.7886    34.8679    90.7419

 330.00  VIB.     0.2357D+03                  3788.7729    28.2017    22.3361
         ROT.     0.4235D+06                   983.6661     2.9808    28.7276
         INT.     0.9980D+08                  4772.4390    31.1826    51.0637
         TRA.     0.1485D+28                  1639.4435     4.9680    40.7708
         TOT.                       14.852    6411.8825    36.1506    91.8345

 340.00  VIB.     0.2811D+03                  4077.1912    29.4811    23.1970
         ROT.     0.4429D+06                  1013.4742     2.9808    28.8166
         INT.     0.1245D+09                  5090.6654    32.4619    52.0136
         TRA.     0.1553D+28                  1689.1236     4.9680    40.9191
         TOT.                       15.220    6779.7890    37.4299    92.9327

 350.00  VIB.     0.3361D+03                  4378.3747    30.7543    24.0700
         ROT.     0.4626D+06                  1043.2822     2.9808    28.9030
         INT.     0.1555D+09                  5421.6569    33.7351    52.9729
         TRA.     0.1622D+28                  1738.8037     4.9680    41.0631
         TOT.                       15.600    7160.4607    38.7031    94.0361

 360.00  VIB.     0.4028D+03                  4692.2485    32.0188    24.9541
         ROT.     0.4825D+06                  1073.0903     2.9808    28.9870
         INT.     0.1944D+09                  5765.3388    34.9996    53.9410
         TRA.     0.1692D+28                  1788.4838     4.9680    41.2031
         TOT.                       15.994    7553.8226    39.9676    95.1441

 370.00  VIB.     0.4838D+03                  5018.7132    33.2722    25.8485
         ROT.     0.5028D+06                  1102.8984     2.9808    29.0686
         INT.     0.2433D+09                  6121.6116    36.2530    54.9171
         TRA.     0.1762D+28                  1838.1639     4.9680    41.3392
         TOT.                       16.400    7959.7755    41.2210    96.2563

 380.00  VIB.     0.5825D+03                  5357.6484    34.5126    26.7523
         ROT.     0.5233D+06                  1132.7064     2.9808    29.1481
         INT.     0.3048D+09                  6490.3548    37.4934    55.9004
         TRA.     0.1834D+28                  1887.8440     4.9680    41.4717
         TOT.                       16.818    8378.1989    42.4614    97.3721

 390.00  VIB.     0.7029D+03                  5708.9152    35.7382    27.6647
         ROT.     0.5441D+06                  1162.5145     2.9808    29.2256
         INT.     0.3824D+09                  6871.4297    38.7190    56.8902
         TRA.     0.1907D+28                  1937.5242     4.9680    41.6007
         TOT.                       17.249    8808.9539    43.6870    98.4909

 400.00  VIB.     0.8499D+03                  6072.3593    36.9478    28.5848
         ROT.     0.5652D+06                  1192.3226     2.9808    29.3010
         INT.     0.4803D+09                  7264.6818    39.9286    57.8858
         TRA.     0.1981D+28                  1987.2043     4.9680    41.7265
         TOT.                       17.692    9251.8861    44.8966    99.6123

   *: NOTE: HEATS OF FORMATION ARE RELATIVE TO THE
            ELEMENTS IN THEIR STANDARD STATE AT 298K
              (=  Standard Enthalpy of Formation).

            Hvib:  Zero-point energy is not included.
                   frequencies of less than zero cm-1 are not included.
            Hrot = (3/2)RT
            Htra = (3/2)RT + pV = (5/2)RT

            Heat capacity is Cp, not Cv

          For more information, see: HTTP://OpenMOPAC.net/Manual/thermochemistry.html


           FORCE CONSTANT IN CARTESIAN COORDINATES (Millidynes/A)

    ATOM   CHEMICAL       X               Y               Z
   NUMBER   SYMBOL  FORCE CONSTANT  FORCE CONSTANT  FORCE CONSTANT

      1       C        8.067311        8.357441        8.693525
      2       C        8.063824        8.369152        8.690045
      3       C        9.019157        7.438421        8.283733
      4       C        9.028797        7.443161        8.283492
      5       C        7.577916        9.208191        8.274654
      6       C       11.158527        6.050652        9.915752
      7       C       11.153012        6.043200        9.926496
      8       C       11.637577        5.864401       10.212919
      9       C       11.636428        5.847666       10.230159
     10       H        1.072862        1.429567        3.388547
     11       H        1.075497        1.478545        3.336466
     12       H        0.698270        4.130124        1.662409
     13       H        0.728919        0.805928        4.902670
     14       H        3.148036        0.875753        2.507715
     15       H        1.117250        0.994218        4.317049
     16       H        3.252137        0.883936        2.395584
     17       H        1.054595        0.980259        4.393138
     18       H        5.107876        0.489628        0.637512
     19       H        5.104127        0.489583        0.641095
     20       H        1.711305        1.570054        2.975150
     21       H        1.711745        1.519999        3.024838

 **********************
 *                    *
 * JOB ENDED NORMALLY *
 *                    *
 **********************



 TOTAL JOB TIME:             3.02 SECONDS

 == MOPAC DONE ==
