 *******************************************************************************
 **                                                                           **
 **                              MOPAC v23.1.2                                **
 **                                                                           **
 *******************************************************************************
 **          Digital Object Identifier (DOI): 10.5281/zenodo.6511958          **
 **    Visit the DOI location for information on how to cite this program.    **
 *******************************************************************************

                              PM3 CALCULATION RESULTS

 *******************************************************************************
 *  CALCULATION DONE: (MAX THREADS = 1)              Tue Jun  3 16:32:28 2025  *
 *  PM3        - The PM3 Hamiltonian to be used
 *  PRECISE    - TIGHTER CRITERIA TO BE USED
 *  NOSYM      - POINT-GROUP SYMMETRY SET TO C1
 *  THREADS=1  - MULTI-THREADING NOT USED
 *  T=         - A TIME OF 172800.0 SECONDS REQUESTED
 *  DUMP=N     - RESTART FILE WRITTEN EVERY 7200.0 SECONDS REQUESTED
 *******************************************************************************
pm3  precise nosym THREADS=1
 InChI=1S/C10H10/c1-3-9-7-5-6-8-10(9)4-2/h3,6-8H,1-2,5H2

   ATOM   CHEMICAL          X               Y               Z
  NUMBER   SYMBOL      (ANGSTROMS)     (ANGSTROMS)     (ANGSTROMS)

     1       C          2.32400000  *  -0.90800000  *  -0.67790000  *
     2       C         -0.07480000  *  -0.76510000  *   0.05120000  *
     3       C         -0.00160000  *   0.71370000  *  -0.10400000  *
     4       C          1.01400000  *  -1.50260000  *  -0.21970000  *
     5       C          2.37900000  *   0.59660000  *  -0.61240000  *
     6       C          1.29840000  *   1.34280000  *  -0.38180000  *
     7       C         -1.30950000  *  -1.47020000  *   0.47670000  *
     8       C         -2.12530000  *  -1.00030000  *   1.41900000  *
     9       C         -2.14360000  *   2.20740000  *  -0.13440000  *
    10       C         -1.07590000  *   1.46090000  *  -0.11760000  *
    11       H          3.13810000  *  -1.31760000  *  -0.04380000  *
    12       H          2.51060000  *  -1.22510000  *  -1.72520000  *
    13       H          0.96760000  *  -2.58230000  *  -0.13080000  *
    14       H          3.32070000  *   1.08730000  *  -0.82420000  *
    15       H          1.38590000  *   2.42320000  *  -0.40620000  *
    16       H         -1.51550000  *  -2.45220000  *   0.06680000  *
    17       H         -1.92610000  *  -0.06760000  *   1.92950000  *
    18       H         -2.99330000  *  -1.57480000  *   1.71540000  *
    19       H         -3.12150000  *   1.75320000  *  -0.05250000  *
    20       H         -2.05110000  *   3.28060000  *  -0.22810000  *



          CARTESIAN COORDINATES 

    NO.       ATOM           X           Y           Z

     1         C          2.3240     -0.9080     -0.6779
     2         C         -0.0748     -0.7651      0.0512
     3         C         -0.0016      0.7137     -0.1040
     4         C          1.0140     -1.5026     -0.2197
     5         C          2.3790      0.5966     -0.6124
     6         C          1.2984      1.3428     -0.3818
     7         C         -1.3095     -1.4702      0.4767
     8         C         -2.1253     -1.0003      1.4190
     9         C         -2.1436      2.2074     -0.1344
    10         C         -1.0759      1.4609     -0.1176
    11         H          3.1381     -1.3176     -0.0438
    12         H          2.5106     -1.2251     -1.7252
    13         H          0.9676     -2.5823     -0.1308
    14         H          3.3207      1.0873     -0.8242
    15         H          1.3859      2.4232     -0.4062
    16         H         -1.5155     -2.4522      0.0668
    17         H         -1.9261     -0.0676      1.9295
    18         H         -2.9933     -1.5748      1.7154
    19         H         -3.1215      1.7532     -0.0525
    20         H         -2.0511      3.2806     -0.2281

  H: (PM3): J. J. P. STEWART, J. COMP. CHEM. 10, 209 (1989).
  C: (PM3): J. J. P. STEWART, J. COMP. CHEM. 10, 209 (1989).

           Empirical Formula: C10 H10  =    20 atoms



      MOLECULAR POINT GROUP   :   C1  


      RHF CALCULATION, NO. OF DOUBLY OCCUPIED LEVELS = 25


          Geometry optimization using EF

          DIAGONAL MATRIX USED AS START HESSIAN

 CYCLE:     1 TIME:   0.008 TIME LEFT:  2.00D  GRAD.:   108.021 HEAT:  136.5396
 CYCLE:     2 TIME:   0.012 TIME LEFT:  2.00D  GRAD.:   149.695 HEAT:  134.0298
 CYCLE:     3 TIME:   0.008 TIME LEFT:  2.00D  GRAD.:   103.290 HEAT:  129.1547
 CYCLE:     4 TIME:   0.008 TIME LEFT:  2.00D  GRAD.:   168.176 HEAT:  126.4986
 CYCLE:     5 TIME:   0.008 TIME LEFT:  2.00D  GRAD.:   207.029 HEAT:  125.3491
 CYCLE:     6 TIME:   0.008 TIME LEFT:  2.00D  GRAD.:   130.629 HEAT:  118.4073
 CYCLE:     7 TIME:   0.008 TIME LEFT:  2.00D  GRAD.:   149.812 HEAT:  114.5557
 CYCLE:     8 TIME:   0.008 TIME LEFT:  2.00D  GRAD.:   169.307 HEAT:  111.1541
 CYCLE:     9 TIME:   0.008 TIME LEFT:  2.00D  GRAD.:   119.008 HEAT:  106.4493
 CYCLE:    10 TIME:   0.008 TIME LEFT:  2.00D  GRAD.:   110.520 HEAT:  103.9037
 CYCLE:    11 TIME:   0.008 TIME LEFT:  2.00D  GRAD.:    74.718 HEAT:  101.7202
 CYCLE:    12 TIME:   0.008 TIME LEFT:  2.00D  GRAD.:    95.010 HEAT:  99.89665
 CYCLE:    13 TIME:   0.008 TIME LEFT:  2.00D  GRAD.:    67.198 HEAT:  97.59340
 CYCLE:    14 TIME:   0.008 TIME LEFT:  2.00D  GRAD.:   118.707 HEAT:  96.86234
 CYCLE:    15 TIME:   0.008 TIME LEFT:  2.00D  GRAD.:    90.779 HEAT:  94.54773
 CYCLE:    16 TIME:   0.012 TIME LEFT:  2.00D  GRAD.:    89.594 HEAT:  94.30914
 CYCLE:    17 TIME:   0.008 TIME LEFT:  2.00D  GRAD.:    66.730 HEAT:  93.09431
 CYCLE:    18 TIME:   0.012 TIME LEFT:  2.00D  GRAD.:    53.342 HEAT:  92.35182
 CYCLE:    19 TIME:   0.008 TIME LEFT:  2.00D  GRAD.:    41.200 HEAT:  92.06345
 CYCLE:    20 TIME:   0.008 TIME LEFT:  2.00D  GRAD.:    30.127 HEAT:  91.69172
 CYCLE:    21 TIME:   0.008 TIME LEFT:  2.00D  GRAD.:    23.055 HEAT:  91.37188
 CYCLE:    22 TIME:   0.008 TIME LEFT:  2.00D  GRAD.:    27.192 HEAT:  91.15312
 CYCLE:    23 TIME:   0.008 TIME LEFT:  2.00D  GRAD.:    16.032 HEAT:  90.96065
 CYCLE:    24 TIME:   0.016 TIME LEFT:  2.00D  GRAD.:    16.367 HEAT:  90.90949
 CYCLE:    25 TIME:   0.008 TIME LEFT:  2.00D  GRAD.:     7.074 HEAT:  90.84396
 CYCLE:    26 TIME:   0.012 TIME LEFT:  2.00D  GRAD.:    12.932 HEAT:  90.82953
 CYCLE:    27 TIME:   0.004 TIME LEFT:  2.00D  GRAD.:     7.407 HEAT:  90.77743
 CYCLE:    28 TIME:   0.008 TIME LEFT:  2.00D  GRAD.:    11.206 HEAT:  90.74551
 CYCLE:    29 TIME:   0.008 TIME LEFT:  2.00D  GRAD.:     5.217 HEAT:  90.70519
 CYCLE:    30 TIME:   0.004 TIME LEFT:  2.00D  GRAD.:     7.302 HEAT:  90.69391
 CYCLE:    31 TIME:   0.008 TIME LEFT:  2.00D  GRAD.:     4.512 HEAT:  90.67463
 CYCLE:    32 TIME:   0.008 TIME LEFT:  2.00D  GRAD.:     3.058 HEAT:  90.66304
 CYCLE:    33 TIME:   0.004 TIME LEFT:  2.00D  GRAD.:     2.398 HEAT:  90.65570
 CYCLE:    34 TIME:   0.008 TIME LEFT:  2.00D  GRAD.:     3.166 HEAT:  90.64754
 CYCLE:    35 TIME:   0.012 TIME LEFT:  2.00D  GRAD.:     2.748 HEAT:  90.64031
 CYCLE:    36 TIME:   0.004 TIME LEFT:  2.00D  GRAD.:     2.536 HEAT:  90.63023
 CYCLE:    37 TIME:   0.008 TIME LEFT:  2.00D  GRAD.:     2.262 HEAT:  90.62165
 CYCLE:    38 TIME:   0.008 TIME LEFT:  2.00D  GRAD.:     2.018 HEAT:  90.61649
 CYCLE:    39 TIME:   0.008 TIME LEFT:  2.00D  GRAD.:     1.544 HEAT:  90.61126
 CYCLE:    40 TIME:   0.004 TIME LEFT:  2.00D  GRAD.:     1.465 HEAT:  90.60717
 CYCLE:    41 TIME:   0.008 TIME LEFT:  2.00D  GRAD.:     0.895 HEAT:  90.60545
 CYCLE:    42 TIME:   0.004 TIME LEFT:  2.00D  GRAD.:     0.804 HEAT:  90.60377
 CYCLE:    43 TIME:   0.008 TIME LEFT:  2.00D  GRAD.:     0.860 HEAT:  90.60238
 CYCLE:    44 TIME:   0.008 TIME LEFT:  2.00D  GRAD.:     0.834 HEAT:  90.60093
 CYCLE:    45 TIME:   0.008 TIME LEFT:  2.00D  GRAD.:     0.773 HEAT:  90.59917
 CYCLE:    46 TIME:   0.004 TIME LEFT:  2.00D  GRAD.:     0.789 HEAT:  90.59766
 CYCLE:    47 TIME:   0.008 TIME LEFT:  2.00D  GRAD.:     0.836 HEAT:  90.59632
 CYCLE:    48 TIME:   0.008 TIME LEFT:  2.00D  GRAD.:     0.911 HEAT:  90.59468
 CYCLE:    49 TIME:   0.004 TIME LEFT:  2.00D  GRAD.:     0.919 HEAT:  90.59284
 CYCLE:    50 TIME:   0.008 TIME LEFT:  2.00D  GRAD.:     0.962 HEAT:  90.59092
 CYCLE:    51 TIME:   0.008 TIME LEFT:  2.00D  GRAD.:     0.935 HEAT:  90.58915
 CYCLE:    52 TIME:   0.008 TIME LEFT:  2.00D  GRAD.:     0.869 HEAT:  90.58730
 CYCLE:    53 TIME:   0.008 TIME LEFT:  2.00D  GRAD.:     0.792 HEAT:  90.58559
 CYCLE:    54 TIME:   0.008 TIME LEFT:  2.00D  GRAD.:     0.765 HEAT:  90.58389
 CYCLE:    55 TIME:   0.004 TIME LEFT:  2.00D  GRAD.:     0.826 HEAT:  90.58219
 CYCLE:    56 TIME:   0.008 TIME LEFT:  2.00D  GRAD.:     0.876 HEAT:  90.58025
 CYCLE:    57 TIME:   0.008 TIME LEFT:  2.00D  GRAD.:     0.937 HEAT:  90.57804
 CYCLE:    58 TIME:   0.008 TIME LEFT:  2.00D  GRAD.:     0.937 HEAT:  90.57576
 CYCLE:    59 TIME:   0.008 TIME LEFT:  2.00D  GRAD.:     1.002 HEAT:  90.57304
 CYCLE:    60 TIME:   0.008 TIME LEFT:  2.00D  GRAD.:     1.114 HEAT:  90.56987
 CYCLE:    61 TIME:   0.008 TIME LEFT:  2.00D  GRAD.:     1.068 HEAT:  90.56680
 CYCLE:    62 TIME:   0.008 TIME LEFT:  2.00D  GRAD.:     1.225 HEAT:  90.56326
 CYCLE:    63 TIME:   0.008 TIME LEFT:  2.00D  GRAD.:     1.239 HEAT:  90.55972
 CYCLE:    64 TIME:   0.008 TIME LEFT:  2.00D  GRAD.:     1.530 HEAT:  90.55613
 CYCLE:    65 TIME:   0.004 TIME LEFT:  2.00D  GRAD.:     1.293 HEAT:  90.55162
 CYCLE:    66 TIME:   0.008 TIME LEFT:  2.00D  GRAD.:     1.001 HEAT:  90.54900
 CYCLE:    67 TIME:   0.008 TIME LEFT:  2.00D  GRAD.:     0.834 HEAT:  90.54622
 CYCLE:    68 TIME:   0.008 TIME LEFT:  2.00D  GRAD.:     0.854 HEAT:  90.54473
 CYCLE:    69 TIME:   0.008 TIME LEFT:  2.00D  GRAD.:     0.830 HEAT:  90.54253
 CYCLE:    70 TIME:   0.008 TIME LEFT:  2.00D  GRAD.:     0.823 HEAT:  90.54195
 CYCLE:    71 TIME:   0.008 TIME LEFT:  2.00D  GRAD.:     1.363 HEAT:  90.54079
 CYCLE:    72 TIME:   0.004 TIME LEFT:  2.00D  GRAD.:     0.801 HEAT:  90.53977
 CYCLE:    73 TIME:   0.008 TIME LEFT:  2.00D  GRAD.:     1.197 HEAT:  90.53710
 CYCLE:    74 TIME:   0.008 TIME LEFT:  2.00D  GRAD.:     2.616 HEAT:  90.53157
 CYCLE:    75 TIME:   0.008 TIME LEFT:  2.00D  GRAD.:     1.447 HEAT:  90.52570
 CYCLE:    76 TIME:   0.008 TIME LEFT:  2.00D  GRAD.:     3.699 HEAT:  90.52157
 CYCLE:    77 TIME:   0.004 TIME LEFT:  2.00D  GRAD.:     1.221 HEAT:  90.51533
 CYCLE:    78 TIME:   0.008 TIME LEFT:  2.00D  GRAD.:     1.750 HEAT:  90.51207
 CYCLE:    79 TIME:   0.008 TIME LEFT:  2.00D  GRAD.:     2.151 HEAT:  90.50933
 CYCLE:    80 TIME:   0.008 TIME LEFT:  2.00D  GRAD.:     0.918 HEAT:  90.50738
 CYCLE:    81 TIME:   0.008 TIME LEFT:  2.00D  GRAD.:     0.965 HEAT:  90.50582
 CYCLE:    82 TIME:   0.008 TIME LEFT:  2.00D  GRAD.:     1.431 HEAT:  90.50381
 CYCLE:    83 TIME:   0.008 TIME LEFT:  2.00D  GRAD.:     1.597 HEAT:  90.50166
 CYCLE:    84 TIME:   0.012 TIME LEFT:  2.00D  GRAD.:     4.145 HEAT:  90.50026
 CYCLE:    85 TIME:   0.008 TIME LEFT:  2.00D  GRAD.:     1.570 HEAT:  90.49567
 CYCLE:    86 TIME:   0.008 TIME LEFT:  2.00D  GRAD.:     1.171 HEAT:  90.49227
 CYCLE:    87 TIME:   0.008 TIME LEFT:  2.00D  GRAD.:     4.495 HEAT:  90.49109
 CYCLE:    88 TIME:   0.008 TIME LEFT:  2.00D  GRAD.:     0.874 HEAT:  90.48360
 CYCLE:    89 TIME:   0.008 TIME LEFT:  2.00D  GRAD.:     1.123 HEAT:  90.48070
 CYCLE:    90 TIME:   0.008 TIME LEFT:  2.00D  GRAD.:     3.885 HEAT:  90.47850
 CYCLE:    91 TIME:   0.008 TIME LEFT:  2.00D  GRAD.:     1.978 HEAT:  90.47410
 CYCLE:    92 TIME:   0.008 TIME LEFT:  2.00D  GRAD.:     1.148 HEAT:  90.46775
 CYCLE:    93 TIME:   0.008 TIME LEFT:  2.00D  GRAD.:     2.462 HEAT:  90.46132
 CYCLE:    94 TIME:   0.008 TIME LEFT:  2.00D  GRAD.:     3.125 HEAT:  90.45637
 CYCLE:    95 TIME:   0.008 TIME LEFT:  2.00D  GRAD.:     1.361 HEAT:  90.44987
 CYCLE:    96 TIME:   0.004 TIME LEFT:  2.00D  GRAD.:     4.682 HEAT:  90.44668
 CYCLE:    97 TIME:   0.008 TIME LEFT:  2.00D  GRAD.:     2.494 HEAT:  90.44095
 CYCLE:    98 TIME:   0.008 TIME LEFT:  2.00D  GRAD.:     2.390 HEAT:  90.43286
 CYCLE:    99 TIME:   0.008 TIME LEFT:  2.00D  GRAD.:     4.696 HEAT:  90.43042
 CYCLE:   100 TIME:   0.008 TIME LEFT:  2.00D  GRAD.:     1.839 HEAT:  90.41354
 CYCLE:   101 TIME:   0.012 TIME LEFT:  2.00D  GRAD.:     3.645 HEAT:  90.40730
 CYCLE:   102 TIME:   0.008 TIME LEFT:  2.00D  GRAD.:     3.803 HEAT:  90.39939
 CYCLE:   103 TIME:   0.008 TIME LEFT:  2.00D  GRAD.:     2.459 HEAT:  90.37418
 CYCLE:   104 TIME:   0.008 TIME LEFT:  2.00D  GRAD.:     4.354 HEAT:  90.34466
 CYCLE:   105 TIME:   0.004 TIME LEFT:  2.00D  GRAD.:     7.703 HEAT:  90.32129
 CYCLE:   106 TIME:   0.016 TIME LEFT:  2.00D  GRAD.:    11.940 HEAT:  90.31668
 CYCLE:   107 TIME:   0.008 TIME LEFT:  2.00D  GRAD.:    11.905 HEAT:  90.29272
 CYCLE:   108 TIME:   0.004 TIME LEFT:  2.00D  GRAD.:     3.723 HEAT:  90.23791
 CYCLE:   109 TIME:   0.008 TIME LEFT:  2.00D  GRAD.:     3.085 HEAT:  90.20797
 CYCLE:   110 TIME:   0.012 TIME LEFT:  2.00D  GRAD.:     6.129 HEAT:  90.17704
 CYCLE:   111 TIME:   0.008 TIME LEFT:  2.00D  GRAD.:     5.040 HEAT:  90.15131
 CYCLE:   112 TIME:   0.008 TIME LEFT:  2.00D  GRAD.:     6.942 HEAT:  90.13132
 CYCLE:   113 TIME:   0.008 TIME LEFT:  2.00D  GRAD.:     3.413 HEAT:  90.10496
 CYCLE:   114 TIME:   0.004 TIME LEFT:  2.00D  GRAD.:     4.012 HEAT:  90.08416
 CYCLE:   115 TIME:   0.008 TIME LEFT:  2.00D  GRAD.:     4.563 HEAT:  90.06183
 CYCLE:   116 TIME:   0.008 TIME LEFT:  2.00D  GRAD.:     3.606 HEAT:  90.03623
 CYCLE:   117 TIME:   0.008 TIME LEFT:  2.00D  GRAD.:     9.143 HEAT:  90.01723
 CYCLE:   118 TIME:   0.008 TIME LEFT:  2.00D  GRAD.:     4.508 HEAT:  89.97161
 CYCLE:   119 TIME:   0.008 TIME LEFT:  2.00D  GRAD.:     4.385 HEAT:  89.89915
 CYCLE:   120 TIME:   0.008 TIME LEFT:  2.00D  GRAD.:    12.060 HEAT:  89.78919
 CYCLE:   121 TIME:   0.008 TIME LEFT:  2.00D  GRAD.:     7.534 HEAT:  89.72142
 CYCLE:   122 TIME:   0.008 TIME LEFT:  2.00D  GRAD.:     7.241 HEAT:  89.64993
 CYCLE:   123 TIME:   0.008 TIME LEFT:  2.00D  GRAD.:     9.350 HEAT:  89.57791
 CYCLE:   124 TIME:   0.004 TIME LEFT:  2.00D  GRAD.:     6.733 HEAT:  89.52837
 CYCLE:   125 TIME:   0.012 TIME LEFT:  2.00D  GRAD.:    13.355 HEAT:  89.49526
 CYCLE:   126 TIME:   0.008 TIME LEFT:  2.00D  GRAD.:     7.101 HEAT:  89.45966
 CYCLE:   127 TIME:   0.004 TIME LEFT:  2.00D  GRAD.:     6.327 HEAT:  89.42325
 CYCLE:   128 TIME:   0.008 TIME LEFT:  2.00D  GRAD.:     9.212 HEAT:  89.38120
 CYCLE:   129 TIME:   0.008 TIME LEFT:  2.00D  GRAD.:     8.409 HEAT:  89.34569
 CYCLE:   130 TIME:   0.008 TIME LEFT:  2.00D  GRAD.:     3.175 HEAT:  89.31890
 CYCLE:   131 TIME:   0.004 TIME LEFT:  2.00D  GRAD.:     5.523 HEAT:  89.28999
 CYCLE:   132 TIME:   0.008 TIME LEFT:  2.00D  GRAD.:     4.490 HEAT:  89.26520
 CYCLE:   133 TIME:   0.008 TIME LEFT:  2.00D  GRAD.:     4.304 HEAT:  89.24009
 CYCLE:   134 TIME:   0.008 TIME LEFT:  2.00D  GRAD.:     4.100 HEAT:  89.22978
 CYCLE:   135 TIME:   0.008 TIME LEFT:  2.00D  GRAD.:     4.034 HEAT:  89.22083
 CYCLE:   136 TIME:   0.004 TIME LEFT:  2.00D  GRAD.:     1.645 HEAT:  89.21511
 CYCLE:   137 TIME:   0.008 TIME LEFT:  2.00D  GRAD.:     0.954 HEAT:  89.21316
 CYCLE:   138 TIME:   0.008 TIME LEFT:  2.00D  GRAD.:     1.435 HEAT:  89.21124
 CYCLE:   139 TIME:   0.008 TIME LEFT:  2.00D  GRAD.:     1.152 HEAT:  89.20971
 CYCLE:   140 TIME:   0.008 TIME LEFT:  2.00D  GRAD.:     1.491 HEAT:  89.20727
 CYCLE:   141 TIME:   0.004 TIME LEFT:  2.00D  GRAD.:     1.618 HEAT:  89.20599
 CYCLE:   142 TIME:   0.008 TIME LEFT:  2.00D  GRAD.:     1.475 HEAT:  89.20419
 CYCLE:   143 TIME:   0.008 TIME LEFT:  2.00D  GRAD.:     1.132 HEAT:  89.20253
 CYCLE:   144 TIME:   0.008 TIME LEFT:  2.00D  GRAD.:     0.867 HEAT:  89.20110
 CYCLE:   145 TIME:   0.008 TIME LEFT:  2.00D  GRAD.:     1.259 HEAT:  89.19971
 CYCLE:   146 TIME:   0.004 TIME LEFT:  2.00D  GRAD.:     0.934 HEAT:  89.19829
 CYCLE:   147 TIME:   0.008 TIME LEFT:  2.00D  GRAD.:     1.114 HEAT:  89.19632
 CYCLE:   148 TIME:   0.008 TIME LEFT:  2.00D  GRAD.:     0.930 HEAT:  89.19397
 CYCLE:   149 TIME:   0.008 TIME LEFT:  2.00D  GRAD.:     5.207 HEAT:  89.20226
 CYCLE:   150 TIME:   0.004 TIME LEFT:  2.00D  GRAD.:     1.648 HEAT:  89.19157
 CYCLE:   151 TIME:   0.008 TIME LEFT:  2.00D  GRAD.:     1.074 HEAT:  89.19002
 CYCLE:   152 TIME:   0.008 TIME LEFT:  2.00D  GRAD.:     1.238 HEAT:  89.18821
 CYCLE:   153 TIME:   0.016 TIME LEFT:  2.00D  GRAD.:     3.526 HEAT:  89.18567
 CYCLE:   154 TIME:   0.008 TIME LEFT:  2.00D  GRAD.:     2.182 HEAT:  89.18252
 CYCLE:   155 TIME:   0.004 TIME LEFT:  2.00D  GRAD.:     2.371 HEAT:  89.17854
 CYCLE:   156 TIME:   0.012 TIME LEFT:  2.00D  GRAD.:     8.468 HEAT:  89.18230
 CYCLE:   157 TIME:   0.008 TIME LEFT:  2.00D  GRAD.:     2.944 HEAT:  89.15811
 CYCLE:   158 TIME:   0.008 TIME LEFT:  2.00D  GRAD.:     2.791 HEAT:  89.13888
 CYCLE:   159 TIME:   0.043 TIME LEFT:  2.00D  GRAD.:     5.469 HEAT:  89.13872
 CYCLE:   160 TIME:   0.004 TIME LEFT:  2.00D  GRAD.:     2.254 HEAT:  89.12935
 CYCLE:   161 TIME:   0.008 TIME LEFT:  2.00D  GRAD.:     1.849 HEAT:  89.12220
 CYCLE:   162 TIME:   0.008 TIME LEFT:  2.00D  GRAD.:     3.306 HEAT:  89.06776
 CYCLE:   163 TIME:   0.008 TIME LEFT:  2.00D  GRAD.:    12.110 HEAT:  89.05146
 CYCLE:   164 TIME:   0.012 TIME LEFT:  2.00D  GRAD.:     7.009 HEAT:  89.04988
 CYCLE:   165 TIME:   0.008 TIME LEFT:  2.00D  GRAD.:     5.174 HEAT:  88.98704
 CYCLE:   166 TIME:   0.008 TIME LEFT:  2.00D  GRAD.:     5.967 HEAT:  88.93753
 CYCLE:   167 TIME:   0.008 TIME LEFT:  2.00D  GRAD.:     4.896 HEAT:  88.90799
 CYCLE:   168 TIME:   0.008 TIME LEFT:  2.00D  GRAD.:     3.089 HEAT:  88.85159
 CYCLE:   169 TIME:   0.004 TIME LEFT:  2.00D  GRAD.:     3.872 HEAT:  88.83636
 CYCLE:   170 TIME:   0.008 TIME LEFT:  2.00D  GRAD.:     2.976 HEAT:  88.82788
 CYCLE:   171 TIME:   0.004 TIME LEFT:  2.00D  GRAD.:     3.284 HEAT:  88.81798
 CYCLE:   172 TIME:   0.008 TIME LEFT:  2.00D  GRAD.:     1.855 HEAT:  88.81057
 CYCLE:   173 TIME:   0.008 TIME LEFT:  2.00D  GRAD.:     1.494 HEAT:  88.80450
 CYCLE:   174 TIME:   0.008 TIME LEFT:  2.00D  GRAD.:     1.547 HEAT:  88.80023
 CYCLE:   175 TIME:   0.008 TIME LEFT:  2.00D  GRAD.:     1.415 HEAT:  88.79809
 CYCLE:   176 TIME:   0.004 TIME LEFT:  2.00D  GRAD.:     1.085 HEAT:  88.79670
 CYCLE:   177 TIME:   0.008 TIME LEFT:  2.00D  GRAD.:     0.908 HEAT:  88.79556
 CYCLE:   178 TIME:   0.008 TIME LEFT:  2.00D  GRAD.:     0.807 HEAT:  88.79507
 CYCLE:   179 TIME:   0.004 TIME LEFT:  2.00D  GRAD.:     0.717 HEAT:  88.79406
 CYCLE:   180 TIME:   0.008 TIME LEFT:  2.00D  GRAD.:     0.863 HEAT:  88.79366
 CYCLE:   181 TIME:   0.008 TIME LEFT:  2.00D  GRAD.:     0.431 HEAT:  88.79330
 CYCLE:   182 TIME:   0.008 TIME LEFT:  2.00D  GRAD.:     0.200 HEAT:  88.79316
 CYCLE:   183 TIME:   0.008 TIME LEFT:  2.00D  GRAD.:     0.108 HEAT:  88.79314
 CYCLE:   184 TIME:   0.004 TIME LEFT:  2.00D  GRAD.:     0.073 HEAT:  88.79314
 CYCLE:   185 TIME:   0.008 TIME LEFT:  2.00D  GRAD.:     0.417 HEAT:  88.79323
 CYCLE:   186 TIME:   0.008 TIME LEFT:  2.00D  GRAD.:     0.074 HEAT:  88.79313
 CYCLE:   187 TIME:   0.004 TIME LEFT:  2.00D  GRAD.:     0.031 HEAT:  88.79312

     GRADIENT =  0.03125 IS LESS THAN CUTOFF =  0.05000



 -------------------------------------------------------------------------------
 pm3  precise nosym THREADS=1
 InChI=1S/C10H10/c1-3-9-7-5-6-8-10(9)4-2/h3,6-8H,1-2,5H2



     GEOMETRY OPTIMISED USING EIGENVECTOR FOLLOWING (EF).     
     SCF FIELD WAS ACHIEVED                                   


                              PM3 CALCULATION
                                                       MOPAC v23.1.2 MacOS
                                                       Tue Jun  3 16:32:29 2025




          FINAL HEAT OF FORMATION =         88.79312 KCAL/MOL =     371.51043 KJ/MOL


          COSMO AREA              =        182.31 SQUARE ANGSTROMS
          COSMO VOLUME            =        179.82 CUBIC ANGSTROMS

          GRADIENT NORM           =          0.03125          =       0.00699 PER ATOM
          IONIZATION POTENTIAL    =          8.421614 EV
          HOMO LUMO ENERGIES (EV) =         -8.422 -0.204
          NO. OF FILLED LEVELS    =         25
          MOLECULAR WEIGHT        =        130.1890         POINT GROUP:  C1  

          MOLECULAR DIMENSIONS (Angstroms)

            Atom       Atom       Distance
            H    18    H    14     7.31384
            H    12    H    20     6.62143
            H    19    H    11     3.47024


          SCF CALCULATIONS        =        208

          WALL-CLOCK TIME         =      1.461 SECONDS
          COMPUTATION TIME        =      0.934 SECONDS




   ATOM   CHEMICAL          X               Y               Z
  NUMBER   SYMBOL      (ANGSTROMS)     (ANGSTROMS)     (ANGSTROMS)

     1       C          2.24517101  *  -0.90567636  *  -0.25380211  *
     2       C         -0.16678030  *  -0.49881021  *   0.24378172  *
     3       C         -0.07062638  *   0.85557428  *  -0.31568541  *
     4       C          0.91502169  *  -1.30140025  *   0.26482972  *
     5       C          2.29257532  *   0.46841683  *  -0.81301934  *
     6       C          1.22766441  *   1.27618636  *  -0.84068079  *
     7       C         -1.45467786  *  -0.94751737  *   0.77153671  *
     8       C         -1.63990106  *  -2.15751211  *   1.29695313  *
     9       C         -2.09268139  *   2.50383372  *  -0.40280194  *
    10       C         -1.09443766  *   1.68198766  *  -0.35674114  *
    11       H          2.99296326  *  -0.99422823  *   0.56172951  *
    12       H          2.55953824  *  -1.62916259  *  -1.03471297  *
    13       H          0.82365184  *  -2.31479715  *   0.68880646  *
    14       H          3.25918481  *   0.79758073  *  -1.21007510  *
    15       H          1.29184305  *   2.28650945  *  -1.25987003  *
    16       H         -2.27918182  *  -0.22455168  *   0.71287860  *
    17       H         -0.82977832  *  -2.88583175  *   1.36158979  *
    18       H         -2.59341139  *  -2.49377655  *   1.68928895  *
    19       H         -2.77138192  *   2.54868149  *  -1.25095797  *
    20       H         -2.31213692  *   3.19905773  *   0.40375719  *

                             CARTESIAN COORDINATES

   1    C        2.245171005    -0.905676363    -0.253802109
   2    C       -0.166780301    -0.498810210     0.243781722
   3    C       -0.070626377     0.855574281    -0.315685410
   4    C        0.915021690    -1.301400253     0.264829717
   5    C        2.292575318     0.468416834    -0.813019341
   6    C        1.227664410     1.276186355    -0.840680789
   7    C       -1.454677860    -0.947517371     0.771536709
   8    C       -1.639901058    -2.157512111     1.296953129
   9    C       -2.092681394     2.503833717    -0.402801939
  10    C       -1.094437664     1.681987664    -0.356741141
  11    H        2.992963259    -0.994228227     0.561729514
  12    H        2.559538244    -1.629162590    -1.034712972
  13    H        0.823651836    -2.314797151     0.688806455
  14    H        3.259184814     0.797580726    -1.210075102
  15    H        1.291843047     2.286509449    -1.259870030
  16    H       -2.279181817    -0.224551683     0.712878602
  17    H       -0.829778322    -2.885831748     1.361589793
  18    H       -2.593411390    -2.493776550     1.689288953
  19    H       -2.771381922     2.548681490    -1.250957969
  20    H       -2.312136922     3.199057725     0.403757194


           Empirical Formula: C10 H10  =    20 atoms



      MOLECULAR POINT GROUP   :   C1  


                  EIGENVALUES  
 -40.14054 -33.97885 -33.21341 -28.89746 -27.85964 -23.43339 -22.33825 -19.30550
 -18.83293 -17.20734 -16.70668 -16.08424 -15.50962 -15.32904 -14.86042 -14.57781
 -14.24873 -13.33963 -12.30665 -12.22958 -12.09547 -11.10990 -10.42406  -9.67317
  -8.42161  -0.20352   0.50557   1.06827   1.66796   2.61549   2.86885   3.19993
   3.29222   3.44691   3.60788   3.80898   4.00943   4.04364   4.15237   4.36377
   4.54042   4.64605   4.90244   5.00659   5.11481   5.55418   5.69552   5.92716
   6.31168   6.63850


              NET ATOMIC CHARGES AND DIPOLE CONTRIBUTIONS

  ATOM NO.   TYPE          CHARGE      No. of ELECS.   s-Pop       p-Pop       
    1          C          -0.020725        4.0207     1.13044     2.89028
    2          C          -0.037687        4.0377     1.16441     2.87327
    3          C           0.030908        3.9691     1.13138     2.83771
    4          C          -0.135060        4.1351     1.19727     2.93779
    5          C          -0.138459        4.1385     1.19458     2.94388
    6          C          -0.093042        4.0930     1.17696     2.91608
    7          C          -0.091167        4.0912     1.17997     2.91119
    8          C          -0.165732        4.1657     1.18474     2.98099
    9          C          -0.082480        4.0825     1.14681     2.93567
   10          C          -0.171910        4.1719     1.21152     2.96039
   11          H           0.065117        0.9349     0.93488
   12          H           0.065022        0.9350     0.93498
   13          H           0.108065        0.8919     0.89194
   14          H           0.099748        0.9003     0.90025
   15          H           0.104697        0.8953     0.89530
   16          H           0.106617        0.8934     0.89338
   17          H           0.083362        0.9166     0.91664
   18          H           0.083881        0.9161     0.91612
   19          H           0.094420        0.9056     0.90558
   20          H           0.094425        0.9056     0.90557
 DIPOLE           X         Y         Z       TOTAL
 POINT-CHG.     0.329    -0.136    -0.034     0.358
 HYBRID        -0.021     0.006     0.004     0.022
 SUM            0.307    -0.131    -0.030     0.335


          ATOMIC ORBITAL ELECTRON POPULATIONS

     Atom    s        px        py        pz   
    1  C   1.13044   0.95160   0.94862   0.99006
    2  C   1.16441   0.94260   0.93300   0.99768
    3  C   1.13138   0.91230   0.91938   1.00603
    4  C   1.19727   0.95010   0.99054   0.99715
    5  C   1.19458   0.97992   0.96311   1.00085
    6  C   1.17696   0.92797   0.98537   1.00274
    7  C   1.17997   0.95761   0.97195   0.98164
    8  C   1.18474   1.00967   0.96931   1.00201
    9  C   1.14681   0.95497   0.97361   1.00709
   10  C   1.21152   0.97363   0.98067   1.00609
   11  H   0.93488
   12  H   0.93498
   13  H   0.89194
   14  H   0.90025
   15  H   0.89530
   16  H   0.89338
   17  H   0.91664
   18  H   0.91612
   19  H   0.90558
   20  H   0.90557
 *******************************************************************************
 **                                                                           **
 **                              MOPAC v23.1.2                                **
 **                                                                           **
 *******************************************************************************
 **          Digital Object Identifier (DOI): 10.5281/zenodo.6511958          **
 **    Visit the DOI location for information on how to cite this program.    **
 *******************************************************************************

                              PM3 CALCULATION RESULTS

 *******************************************************************************
 *  CALCULATION DONE: (MAX THREADS = 1)              Tue Jun  3 16:32:29 2025  *
 *  PM3        - The PM3 Hamiltonian to be used
 *  OLDGEO     - PREVIOUS GEOMETRY TO BE USED
 *  PRECISE    - TIGHTER CRITERIA TO BE USED
 *  NOSYM      - POINT-GROUP SYMMETRY SET TO C1
 *  THREADS=1  - MULTI-THREADING NOT USED
 *  T=         - A TIME OF 172800.0 SECONDS REQUESTED
 *  DUMP=N     - RESTART FILE WRITTEN EVERY 7200.0 SECONDS REQUESTED
 *  THERMO     - THERMODYNAMIC QUANTITIES TO BE CALCULATED
 *******************************************************************************
oldgeo thermo nosym precise THREADS=1  pm3
 InChI=1S/C10H10/c1-3-9-7-5-6-8-10(9)4-2/h3,6-8H,1-2,5H2

   ATOM   CHEMICAL          X               Y               Z
  NUMBER   SYMBOL      (ANGSTROMS)     (ANGSTROMS)     (ANGSTROMS)

     1       C          2.24517101  *  -0.90567636  *  -0.25380211  *
     2       C         -0.16678030  *  -0.49881021  *   0.24378172  *
     3       C         -0.07062638  *   0.85557428  *  -0.31568541  *
     4       C          0.91502169  *  -1.30140025  *   0.26482972  *
     5       C          2.29257532  *   0.46841683  *  -0.81301934  *
     6       C          1.22766441  *   1.27618636  *  -0.84068079  *
     7       C         -1.45467786  *  -0.94751737  *   0.77153671  *
     8       C         -1.63990106  *  -2.15751211  *   1.29695313  *
     9       C         -2.09268139  *   2.50383372  *  -0.40280194  *
    10       C         -1.09443766  *   1.68198766  *  -0.35674114  *
    11       H          2.99296326  *  -0.99422823  *   0.56172951  *
    12       H          2.55953824  *  -1.62916259  *  -1.03471297  *
    13       H          0.82365184  *  -2.31479715  *   0.68880646  *
    14       H          3.25918481  *   0.79758073  *  -1.21007510  *
    15       H          1.29184305  *   2.28650945  *  -1.25987003  *
    16       H         -2.27918182  *  -0.22455168  *   0.71287860  *
    17       H         -0.82977832  *  -2.88583175  *   1.36158979  *
    18       H         -2.59341139  *  -2.49377655  *   1.68928895  *
    19       H         -2.77138192  *   2.54868149  *  -1.25095797  *
    20       H         -2.31213692  *   3.19905773  *   0.40375719  *



          CARTESIAN COORDINATES 

    NO.       ATOM           X           Y           Z

     1         C          2.2452     -0.9057     -0.2538
     2         C         -0.1668     -0.4988      0.2438
     3         C         -0.0706      0.8556     -0.3157
     4         C          0.9150     -1.3014      0.2648
     5         C          2.2926      0.4684     -0.8130
     6         C          1.2277      1.2762     -0.8407
     7         C         -1.4547     -0.9475      0.7715
     8         C         -1.6399     -2.1575      1.2970
     9         C         -2.0927      2.5038     -0.4028
    10         C         -1.0944      1.6820     -0.3567
    11         H          2.9930     -0.9942      0.5617
    12         H          2.5595     -1.6292     -1.0347
    13         H          0.8237     -2.3148      0.6888
    14         H          3.2592      0.7976     -1.2101
    15         H          1.2918      2.2865     -1.2599
    16         H         -2.2792     -0.2246      0.7129
    17         H         -0.8298     -2.8858      1.3616
    18         H         -2.5934     -2.4938      1.6893
    19         H         -2.7714      2.5487     -1.2510
    20         H         -2.3121      3.1991      0.4038

  H: (PM3): J. J. P. STEWART, J. COMP. CHEM. 10, 209 (1989).
  C: (PM3): J. J. P. STEWART, J. COMP. CHEM. 10, 209 (1989).

           Empirical Formula: C10 H10  =    20 atoms



      MOLECULAR POINT GROUP   :   C1  


      RHF CALCULATION, NO. OF DOUBLY OCCUPIED LEVELS = 25



          HEAT OF FORMATION =      88.793123 KCALS/MOLE


          CARTESIAN COORDINATE DERIVATIVES

   NUMBER  ATOM         X            Y            Z

     1       C     -0.005214    -0.002159    -0.002181
     2       C     -0.004405    -0.010801     0.000361
     3       C     -0.000454     0.006326     0.003481
     4       C      0.004256    -0.000164    -0.002019
     5       C      0.000760     0.007310     0.001461
     6       C     -0.001260     0.000585    -0.000329
     7       C      0.007921    -0.009387    -0.001554
     8       C      0.002879     0.013723    -0.000392
     9       C     -0.003357    -0.003442     0.001342
    10       C      0.001527    -0.000210     0.000809
    11       H      0.004360     0.003004    -0.000585
    12       H     -0.001291    -0.000810    -0.003446
    13       H      0.000308     0.002206    -0.000067
    14       H      0.003215    -0.003044     0.001324
    15       H      0.000237    -0.002388     0.002220
    16       H     -0.009285    -0.007525     0.002013
    17       H      0.001965     0.002734     0.005590
    18       H     -0.002441     0.001393    -0.001598
    19       H      0.001338     0.000609    -0.000571
    20       H     -0.001059     0.002039    -0.005859



          GRADIENT NORM =   0.03170

          MOLECULAR WEIGHT =  130.19



          ROTATIONAL CONSTANTS IN CM(-1)

          A =    0.05223290   B =    0.04675969   C =    0.02491187



           PRINCIPAL MOMENTS OF INERTIA IN UNITS OF 10**(-40)*GRAM-CM**2

          A =      535.9218   B =      598.6513   C =     1123.6715


          ORIENTATION OF MOLECULE IN FORCE CALCULATION

    NO.       ATOM         X         Y         Z

     1          C      -2.3583   -0.6495    0.0003
     2          C       0.1378   -0.6495    0.0003
     3          C       0.1541    0.8189    0.0003
     4          C      -1.0341   -1.3139    0.0003
     5          C      -2.2916    0.8333    0.0051
     6          C      -1.1365    1.5063    0.0051
     7          C       1.4144   -1.3630    0.0004
     8          C       1.5008   -2.6922    0.0018
     9          C       2.3593    2.2154   -0.0090
    10          C       1.2700    1.5174   -0.0043
    11          H      -2.9327   -0.9865   -0.8877
    12          H      -2.9357   -0.9923    0.8842
    13          H      -1.0265   -2.4162    0.0002
    14          H      -3.2511    1.3621    0.0086
    15          H      -1.1174    2.6018    0.0087
    16          H       2.3172   -0.7378   -0.0006
    17          H       0.6122   -3.3257    0.0029
    18          H       2.4456   -3.2248    0.0019
    19          H       2.8534    2.5300    0.9069
    20          H       2.8455    2.5296   -0.9294


    FIRST DERIVATIVES WILL BE USED IN THE CALCULATION OF SECOND DERIVATIVES

          ESTIMATED TIME TO COMPLETE CALCULATION =        0.94 SECONDS

    FOR POINT-GROUP C1   THERE ARE   1 UNIQUE SYMMETRY FUNCTIONS.

 STEP:   1 TIME =     0.02 SECS, INTEGRAL =      0.02 TIME LEFT: 172799.98
 STEP:   2 TIME =     0.02 SECS, INTEGRAL =      0.04 TIME LEFT: 172799.96
 STEP:   3 TIME =     0.02 SECS, INTEGRAL =      0.06 TIME LEFT: 172799.93
 STEP:   4 TIME =     0.02 SECS, INTEGRAL =      0.08 TIME LEFT: 172799.91
 STEP:   5 TIME =     0.02 SECS, INTEGRAL =      0.10 TIME LEFT: 172799.89
 STEP:   6 TIME =     0.02 SECS, INTEGRAL =      0.12 TIME LEFT: 172799.87
 STEP:   7 TIME =     0.02 SECS, INTEGRAL =      0.14 TIME LEFT: 172799.85
 STEP:   8 TIME =     0.02 SECS, INTEGRAL =      0.16 TIME LEFT: 172799.83
 STEP:   9 TIME =     0.02 SECS, INTEGRAL =      0.19 TIME LEFT: 172799.81
 STEP:  10 TIME =     0.02 SECS, INTEGRAL =      0.21 TIME LEFT: 172799.79
 STEP:  11 TIME =     0.02 SECS, INTEGRAL =      0.22 TIME LEFT: 172799.77
 STEP:  12 TIME =     0.02 SECS, INTEGRAL =      0.24 TIME LEFT: 172799.75
 STEP:  13 TIME =     0.02 SECS, INTEGRAL =      0.26 TIME LEFT: 172799.73
 STEP:  14 TIME =     0.02 SECS, INTEGRAL =      0.28 TIME LEFT: 172799.71
 STEP:  15 TIME =     0.02 SECS, INTEGRAL =      0.30 TIME LEFT: 172799.69
 STEP:  16 TIME =     0.02 SECS, INTEGRAL =      0.32 TIME LEFT: 172799.67
 STEP:  17 TIME =     0.02 SECS, INTEGRAL =      0.34 TIME LEFT: 172799.66
 STEP:  18 TIME =     0.02 SECS, INTEGRAL =      0.36 TIME LEFT: 172799.63
 STEP:  19 TIME =     0.02 SECS, INTEGRAL =      0.38 TIME LEFT: 172799.61
 STEP:  20 TIME =     0.02 SECS, INTEGRAL =      0.40 TIME LEFT: 172799.59
 STEP:  21 TIME =     0.02 SECS, INTEGRAL =      0.42 TIME LEFT: 172799.57
 STEP:  22 TIME =     0.02 SECS, INTEGRAL =      0.44 TIME LEFT: 172799.55
 STEP:  23 TIME =     0.02 SECS, INTEGRAL =      0.46 TIME LEFT: 172799.54
 STEP:  24 TIME =     0.02 SECS, INTEGRAL =      0.48 TIME LEFT: 172799.52
 STEP:  25 TIME =     0.02 SECS, INTEGRAL =      0.50 TIME LEFT: 172799.50
 STEP:  26 TIME =     0.02 SECS, INTEGRAL =      0.52 TIME LEFT: 172799.47
 STEP:  27 TIME =     0.02 SECS, INTEGRAL =      0.55 TIME LEFT: 172799.45
 STEP:  28 TIME =     0.02 SECS, INTEGRAL =      0.57 TIME LEFT: 172799.43
 STEP:  29 TIME =     0.02 SECS, INTEGRAL =      0.59 TIME LEFT: 172799.41
 STEP:  30 TIME =     0.02 SECS, INTEGRAL =      0.61 TIME LEFT: 172799.39
 STEP:  31 TIME =     0.02 SECS, INTEGRAL =      0.63 TIME LEFT: 172799.36
 STEP:  32 TIME =     0.02 SECS, INTEGRAL =      0.65 TIME LEFT: 172799.34
 STEP:  33 TIME =     0.02 SECS, INTEGRAL =      0.67 TIME LEFT: 172799.32
 STEP:  34 TIME =     0.02 SECS, INTEGRAL =      0.69 TIME LEFT: 172799.30
 STEP:  35 TIME =     0.02 SECS, INTEGRAL =      0.71 TIME LEFT: 172799.29
 STEP:  36 TIME =     0.02 SECS, INTEGRAL =      0.73 TIME LEFT: 172799.27
 STEP:  37 TIME =     0.02 SECS, INTEGRAL =      0.75 TIME LEFT: 172799.24
 STEP:  38 TIME =     0.02 SECS, INTEGRAL =      0.77 TIME LEFT: 172799.22
 STEP:  39 TIME =     0.02 SECS, INTEGRAL =      0.80 TIME LEFT: 172799.20
 STEP:  40 TIME =     0.02 SECS, INTEGRAL =      0.82 TIME LEFT: 172799.18
 STEP:  41 TIME =     0.02 SECS, INTEGRAL =      0.84 TIME LEFT: 172799.16
 STEP:  42 TIME =     0.02 SECS, INTEGRAL =      0.86 TIME LEFT: 172799.14
 STEP:  43 TIME =     0.02 SECS, INTEGRAL =      0.88 TIME LEFT: 172799.12
 STEP:  44 TIME =     0.02 SECS, INTEGRAL =      0.90 TIME LEFT: 172799.10
 STEP:  45 TIME =     0.02 SECS, INTEGRAL =      0.92 TIME LEFT: 172799.07
 STEP:  46 TIME =     0.02 SECS, INTEGRAL =      0.94 TIME LEFT: 172799.05
 STEP:  47 TIME =     0.02 SECS, INTEGRAL =      0.96 TIME LEFT: 172799.04
 STEP:  48 TIME =     0.02 SECS, INTEGRAL =      0.98 TIME LEFT: 172799.01
 STEP:  49 TIME =     0.02 SECS, INTEGRAL =      1.00 TIME LEFT: 172798.99
 STEP:  50 TIME =     0.02 SECS, INTEGRAL =      1.02 TIME LEFT: 172798.97
 STEP:  51 TIME =     0.02 SECS, INTEGRAL =      1.04 TIME LEFT: 172798.95
 STEP:  52 TIME =     0.02 SECS, INTEGRAL =      1.06 TIME LEFT: 172798.93
 STEP:  53 TIME =     0.02 SECS, INTEGRAL =      1.08 TIME LEFT: 172798.91
 STEP:  54 TIME =     0.02 SECS, INTEGRAL =      1.11 TIME LEFT: 172798.89
 STEP:  55 TIME =     0.02 SECS, INTEGRAL =      1.12 TIME LEFT: 172798.87
 STEP:  56 TIME =     0.02 SECS, INTEGRAL =      1.15 TIME LEFT: 172798.85
 STEP:  57 TIME =     0.02 SECS, INTEGRAL =      1.17 TIME LEFT: 172798.83
 STEP:  58 TIME =     0.02 SECS, INTEGRAL =      1.19 TIME LEFT: 172798.80
 STEP:  59 TIME =     0.02 SECS, INTEGRAL =      1.21 TIME LEFT: 172798.78
 STEP:  60 TIME =     0.02 SECS, INTEGRAL =      1.23 TIME LEFT: 172798.76

(To convert to Hartree/Bohr^2, multiply by (10^(-21) x N x a0^2)/(4.184 x 627.51) =  0.0642)


           FORCE MATRIX IN MILLIDYNES/ANGSTROM


                  C  1       C  2       C  3       C  4       C  5       C  6
 ------------------------------------------------------------------------------
     C    1  15.149916
     C    2   0.819305  18.824939
     C    3   0.179686   5.020256  19.269374
     C    4   5.112684   9.726913   1.022834  17.944818
     C    5   5.055149   0.052320   1.067134   0.740208  18.144405
     C    6   0.853053   0.695699   5.255524   0.064290  10.432932  18.512559
     C    7   0.132992   5.228022   0.667861   1.006248   0.003830   0.047563
     C    8   0.015105   1.015524   0.054570   0.160758   0.001809   0.010197
     C    9   0.006646   0.093706   0.764169   0.022558   0.024092   0.091122
     C   10   0.029023   1.079745  10.572079   0.112894   0.125830   1.183746
     H   11   4.363967   0.037779   0.014383   0.415414   0.419156   0.038423
     H   12   4.364935   0.037919   0.014406   0.415571   0.419288   0.038568
     H   13   0.420114   0.457513   0.109964   4.611019   0.045188   0.006152
     H   14   0.423709   0.006034   0.121931   0.047292   4.832062   0.441130
     H   15   0.125810   0.040050   0.443238   0.003980   0.439923   4.834359
     H   16   0.007774   0.445890   0.051588   0.045527   0.002356   0.003012
     H   17   0.007319   0.104885   0.003236   0.092089   0.001184   0.001091
     H   18   0.005456   0.137984   0.007516   0.012279   0.000534   0.001754
     H   19   0.000878   0.073456   0.042296   0.004680   0.004871   0.074488
     H   20   0.000881   0.073428   0.042355   0.004678   0.004872   0.074465


                  C  7       C  8       C  9       C 10       H 11       H 12
 ------------------------------------------------------------------------------
     C    7  18.343062
     C    8  10.716329  17.798951
     C    9   0.019091   0.003701  18.097656
     C   10   0.081250   0.008674  11.895948  24.588409
     H   11   0.017887   0.001626   0.000915   0.005188   4.951848
     H   12   0.017844   0.001621   0.000914   0.005168   0.566831   4.952722
     H   13   0.084406   0.101052   0.005264   0.008411   0.026790   0.027066
     H   14   0.001748   0.000527   0.005616   0.008589   0.027263   0.027527
     H   15   0.007309   0.001620   0.005051   0.039178   0.016185   0.016144
     H   16   4.750438   0.449210   0.017216   0.052267   0.001159   0.001156
     H   17   0.493921   4.909462   0.000740   0.001288   0.000928   0.000928
     H   18   0.460500   5.144246   0.000662   0.000988   0.000972   0.000972
     H   19   0.002023   0.001196   4.996088   0.479866   0.000658   0.000876
     H   20   0.002043   0.001198   4.995808   0.479819   0.000878   0.000654


                  H 13       H 14       H 15       H 16       H 17       H 18
 ------------------------------------------------------------------------------
     H   13   5.006903
     H   14   0.006334   5.207065
     H   15   0.001007   0.068984   5.202187
     H   16   0.002844   0.000496   0.000635   5.110519
     H   17   0.066231   0.000268   0.000157   0.118775   5.295156
     H   18   0.006532   0.000174   0.000398   0.078328   0.393240   5.510702
     H   19   0.005191   0.005614   0.001330   0.001989   0.000239   0.000289
     H   20   0.005185   0.005608   0.001328   0.001990   0.000238   0.000291


                  H 19       H 20
 ------------------------------
     H   19   5.378140
     H   20   0.408728   5.377854


          HEAT OF FORMATION =      88.793123 KCALS/MOLE

          ZERO POINT ENERGY     102.701 KCAL/MOL


           NORMAL COORDINATE ANALYSIS (Total motion = 1 Angstrom)


   Root No.       1         2         3         4         5         6         7         8

                 1 A       2 A       3 A       4 A       5 A       6 A       7 A       8 A   

                  35.3      83.2     134.8     201.6     222.1     271.1     350.6     410.3
  
           1    0.0001   -0.0000    0.0067    0.0001    0.0000   -0.0208   -0.0001    0.0006
           2    0.0002   -0.0000    0.0102    0.0001    0.0001    0.0318    0.0000    0.0006
           3   -0.0547    0.0081    0.0001   -0.0191   -0.0303    0.0001   -0.0102   -0.0043
           4    0.0000   -0.0000    0.0095    0.0000   -0.0001   -0.0233   -0.0001    0.0007
           5   -0.0000   -0.0000   -0.0181   -0.0000   -0.0001   -0.0303   -0.0000   -0.0001
           6    0.0002   -0.0414    0.0001    0.0324    0.0082   -0.0001   -0.0069    0.0618
           7    0.0001    0.0000    0.0257    0.0001   -0.0001   -0.0016    0.0000   -0.0005
           8   -0.0000   -0.0000   -0.0192   -0.0000   -0.0001   -0.0313   -0.0000   -0.0000
           9    0.0161   -0.0155   -0.0001    0.0449   -0.0335    0.0000   -0.0147    0.0258
          10    0.0000   -0.0000   -0.0001    0.0000   -0.0001   -0.0351   -0.0001    0.0005
          11    0.0000   -0.0000   -0.0026    0.0000   -0.0001   -0.0088   -0.0000    0.0004
          12   -0.0347   -0.0269    0.0002    0.0335    0.0613   -0.0002   -0.0011   -0.0306
          13    0.0001    0.0001    0.0226   -0.0001    0.0000    0.0061    0.0001   -0.0004
          14   -0.0001   -0.0001    0.0088    0.0001   -0.0000    0.0321   -0.0002    0.0006
          15    0.0275    0.0206   -0.0002   -0.0415    0.0195   -0.0001    0.0542    0.0197
          16    0.0002    0.0001    0.0306   -0.0000    0.0000    0.0201   -0.0001   -0.0005
          17   -0.0001   -0.0001   -0.0064    0.0000   -0.0000    0.0057    0.0001    0.0006
          18    0.0607    0.0072   -0.0002    0.0124   -0.0007    0.0000   -0.0597   -0.0226
          19    0.0000   -0.0001   -0.0050    0.0000   -0.0000   -0.0045   -0.0001    0.0006
          20   -0.0000   -0.0001   -0.0441   -0.0001    0.0000    0.0044    0.0000   -0.0008
          21    0.0239   -0.0697    0.0001   -0.0382   -0.0101    0.0001   -0.0009    0.0050
          22   -0.0000   -0.0000   -0.0360    0.0001    0.0002    0.0745    0.0001    0.0005
          23   -0.0000    0.0001   -0.0467   -0.0000    0.0000    0.0115    0.0001   -0.0009
          24    0.0283    0.0736    0.0000   -0.0068   -0.0088    0.0000    0.0002   -0.0048
          25   -0.0003    0.0001   -0.0498   -0.0002    0.0001   -0.0247   -0.0000   -0.0005
          26    0.0000    0.0002    0.0996   -0.0001    0.0001    0.0024    0.0001   -0.0005
          27   -0.0457    0.0257    0.0001   -0.0249    0.0246    0.0001   -0.0140    0.0034
          28   -0.0001    0.0000    0.0111    0.0000   -0.0001    0.0030    0.0004   -0.0010
          29    0.0000    0.0001    0.0044   -0.0000   -0.0001   -0.0397   -0.0001    0.0002
          30   -0.0146    0.0020   -0.0001    0.0363   -0.0366    0.0000    0.0749   -0.0367
          31    0.0380   -0.0198    0.0032    0.0357    0.0943   -0.0302    0.0483   -0.0114
          32    0.0485    0.0082    0.0159   -0.0167    0.0344    0.0472    0.0635    0.0268
          33   -0.0977    0.0178    0.0001   -0.0361   -0.1056    0.0005   -0.0673   -0.0066
          34   -0.0378    0.0196    0.0032   -0.0355   -0.0940   -0.0297   -0.0484    0.0128
          35   -0.0478   -0.0082    0.0163    0.0168   -0.0337    0.0475   -0.0629   -0.0257
          36   -0.0982    0.0178    0.0002   -0.0361   -0.1061    0.0003   -0.0679   -0.0067
          37   -0.0001   -0.0001   -0.0149   -0.0000   -0.0001   -0.0514   -0.0001    0.0001
          38    0.0000   -0.0000   -0.0030    0.0000   -0.0001   -0.0071   -0.0000    0.0004
          39   -0.0483   -0.0316    0.0003    0.0434    0.1363   -0.0004    0.0034   -0.1184
          40    0.0001    0.0001    0.0291   -0.0002    0.0001    0.0173    0.0003   -0.0006
          41   -0.0002   -0.0001    0.0205    0.0003   -0.0001    0.0523   -0.0004    0.0001
          42    0.0599    0.0414   -0.0004   -0.0967    0.0641   -0.0003    0.1417    0.0439
          43    0.0003    0.0001    0.0423   -0.0001    0.0002    0.0506   -0.0002   -0.0002
          44   -0.0003   -0.0001   -0.0063    0.0000   -0.0001    0.0053    0.0003    0.0008
          45    0.1213    0.0160   -0.0004    0.0144    0.0222   -0.0000   -0.1295   -0.0735
          46    0.0000   -0.0001    0.0063   -0.0000   -0.0001   -0.0285   -0.0001    0.0006
          47   -0.0001   -0.0002   -0.0612   -0.0001    0.0001    0.0415    0.0001   -0.0010
          48    0.0392   -0.2075    0.0003   -0.1339   -0.0387    0.0003    0.0059   -0.0764
          49   -0.0001   -0.0000   -0.0506    0.0002    0.0003    0.1121    0.0001    0.0005
          50   -0.0000    0.0002   -0.0267    0.0000   -0.0001   -0.0382   -0.0001   -0.0008
          51    0.0128    0.2067   -0.0001    0.0874    0.0219   -0.0002   -0.0056    0.0783
          52   -0.0001   -0.0001   -0.0489    0.0001    0.0002    0.1097    0.0001    0.0004
          53   -0.0001    0.0000   -0.0695   -0.0000    0.0001    0.0731    0.0002   -0.0011
          54    0.0464    0.0615    0.0000   -0.0740   -0.0350    0.0002    0.0080   -0.1084
          55    0.0300   -0.0052   -0.0762    0.0404   -0.0443   -0.0373    0.0491   -0.0922
          56   -0.0063   -0.0242    0.1410    0.0304   -0.0275    0.0209    0.0950    0.0560
          57   -0.0598    0.0370    0.0001   -0.0576    0.0585    0.0004   -0.0744    0.0343
          58   -0.0307    0.0054   -0.0762   -0.0410    0.0447   -0.0375   -0.0498    0.0917
          59    0.0064    0.0246    0.1407   -0.0307    0.0278    0.0211   -0.0947   -0.0576
          60   -0.0596    0.0369    0.0002   -0.0573    0.0581   -0.0001   -0.0739    0.0334


   Root No.       9        10        11        12        13        14        15        16

                 9 A      10 A      11 A      12 A      13 A      14 A      15 A      16 A   

                 423.0     473.0     548.3     572.3     591.7     613.5     718.8     780.1
  
           1   -0.0321   -0.0406   -0.0002   -0.0507   -0.0003   -0.0178   -0.0000   -0.0017
           2   -0.0376   -0.0128    0.0001    0.0146   -0.0000    0.0092    0.0000   -0.0009
           3   -0.0002   -0.0001   -0.0010   -0.0000    0.0086    0.0000   -0.0132   -0.0365
           4   -0.0434   -0.0111    0.0002    0.0379    0.0001   -0.0018    0.0000    0.0005
           5    0.0072    0.0125   -0.0001   -0.0052    0.0000   -0.0357   -0.0000    0.0009
           6    0.0022    0.0003   -0.0146    0.0003   -0.0113    0.0001    0.0557   -0.0250
           7    0.0356    0.0246    0.0000    0.0172    0.0003    0.0184   -0.0001   -0.0001
           8   -0.0006    0.0269   -0.0001   -0.0185   -0.0000   -0.0369   -0.0000    0.0002
           9    0.0008   -0.0000   -0.0172   -0.0003    0.0567    0.0001   -0.0239    0.0578
          10   -0.0298   -0.0212   -0.0000   -0.0068   -0.0001   -0.0211   -0.0000   -0.0002
          11   -0.0224    0.0234    0.0003    0.0649    0.0002   -0.0187    0.0000    0.0022
          12   -0.0009   -0.0000    0.0072   -0.0001    0.0101   -0.0000    0.0072   -0.0009
          13    0.0285   -0.0160   -0.0003   -0.0620   -0.0002    0.0255    0.0001    0.0023
          14   -0.0397   -0.0165    0.0001    0.0076   -0.0001    0.0035    0.0000   -0.0013
          15    0.0004   -0.0000   -0.0124    0.0002    0.0095    0.0000   -0.0117   -0.0064
          16    0.0271   -0.0087   -0.0000   -0.0164   -0.0001    0.0402    0.0000    0.0009
          17   -0.0301   -0.0227   -0.0004   -0.0642   -0.0002   -0.0353    0.0001    0.0010
          18   -0.0005    0.0000    0.0220   -0.0002   -0.0063   -0.0003   -0.0142   -0.0243
          19   -0.0325   -0.0388    0.0004    0.0606    0.0001    0.0260    0.0000    0.0003
          20    0.0516   -0.0438    0.0001    0.0097   -0.0000    0.0177   -0.0000   -0.0002
          21    0.0002    0.0001   -0.0105    0.0003   -0.0360    0.0000   -0.0271    0.0014
          22   -0.0314    0.0420   -0.0000    0.0030    0.0000   -0.0088    0.0000    0.0003
          23    0.0563   -0.0410    0.0001    0.0067    0.0000    0.0180   -0.0000   -0.0003
          24   -0.0002   -0.0000    0.0011   -0.0000    0.0046   -0.0000   -0.0007   -0.0014
          25    0.0290    0.0454    0.0000    0.0064    0.0001   -0.0002   -0.0000   -0.0013
          26    0.0278    0.0224   -0.0000    0.0050    0.0001   -0.0091   -0.0000   -0.0008
          27   -0.0000   -0.0002    0.0012   -0.0000   -0.0038   -0.0000    0.0027   -0.0076
          28    0.0588    0.0121    0.0001    0.0258    0.0001   -0.0613   -0.0001   -0.0008
          29   -0.0263    0.0627   -0.0001   -0.0280   -0.0001    0.0888    0.0001   -0.0005
          30   -0.0013   -0.0001    0.0068    0.0000   -0.0214    0.0002    0.0054   -0.0077
          31   -0.0406   -0.0401   -0.0119   -0.0407    0.0535   -0.0311   -0.0360   -0.1002
          32   -0.0265   -0.0177   -0.0263   -0.0078    0.0329    0.0309   -0.0369   -0.0624
          33    0.0009    0.0013    0.0174    0.0017   -0.0409    0.0004    0.0259    0.0544
          34   -0.0397   -0.0397    0.0115   -0.0399   -0.0538   -0.0315    0.0359    0.0958
          35   -0.0275   -0.0176    0.0262   -0.0081   -0.0328    0.0305    0.0366    0.0600
          36   -0.0011   -0.0011    0.0176   -0.0015   -0.0413   -0.0007    0.0263    0.0547
          37   -0.0060   -0.0020   -0.0002   -0.0219   -0.0000   -0.0483   -0.0001    0.0014
          38   -0.0225    0.0235    0.0003    0.0644    0.0002   -0.0188    0.0000    0.0022
          39   -0.0036   -0.0001    0.0251    0.0000   -0.0307   -0.0002   -0.0818    0.1944
          40    0.0400   -0.0074   -0.0002   -0.0399   -0.0003    0.0510    0.0004    0.0034
          41   -0.0178   -0.0000    0.0003    0.0474    0.0003    0.0483   -0.0004   -0.0010
          42    0.0011    0.0003    0.0053    0.0006   -0.0556   -0.0002    0.1293    0.2251
          43    0.0038   -0.0361    0.0004    0.0000   -0.0005    0.0710    0.0004   -0.0001
          44   -0.0298   -0.0217   -0.0007   -0.0641    0.0002   -0.0351   -0.0003    0.0009
          45   -0.0015    0.0004    0.1168   -0.0000   -0.1221   -0.0013    0.1179    0.0196
          46   -0.0396   -0.0441    0.0004    0.0674    0.0001    0.0126    0.0000    0.0007
          47    0.0622   -0.0338    0.0001   -0.0008    0.0000    0.0360    0.0000   -0.0007
          48   -0.0026   -0.0003    0.0180   -0.0005    0.0424   -0.0001   -0.0307    0.0183
          49   -0.0324    0.0964   -0.0004   -0.0507   -0.0001   -0.0474   -0.0001    0.0001
          50    0.0568   -0.1125    0.0005    0.0790    0.0000    0.0691   -0.0000   -0.0000
          51    0.0027    0.0005   -0.0377    0.0010   -0.1281    0.0001   -0.1000    0.0194
          52   -0.0314    0.0912   -0.0003   -0.0429    0.0000   -0.0418    0.0000    0.0002
          53    0.0581    0.0426   -0.0004   -0.0727    0.0001   -0.0377    0.0001   -0.0005
          54   -0.0040   -0.0007    0.0597   -0.0017    0.2076   -0.0003    0.1626   -0.0151
          55    0.0123    0.0640   -0.1454   -0.0039   -0.0425    0.0379    0.0384   -0.0327
          56    0.0569    0.0026    0.2487    0.0238   -0.0023   -0.0704   -0.0317   -0.0208
          57   -0.0005   -0.0026   -0.0061   -0.0007    0.0208    0.0004   -0.0075    0.0171
          58    0.0179    0.0645    0.1453   -0.0069    0.0428    0.0381   -0.0385    0.0293
          59    0.0532    0.0019   -0.2486    0.0279    0.0027   -0.0701    0.0315    0.0186
          60    0.0023    0.0021   -0.0072    0.0006    0.0205   -0.0005   -0.0072    0.0163


   Root No.      17        18        19        20        21        22        23        24

                17 A      18 A      19 A      20 A      21 A      22 A      23 A      24 A   

                 791.2     812.7     850.8     919.3     937.7     952.2     987.4    1005.2
  
           1   -0.0527   -0.0358   -0.0002    0.0000    0.0000   -0.0000    0.0012   -0.0009
           2   -0.0334   -0.0163   -0.0002    0.0000    0.0001   -0.0001    0.0035   -0.0006
           3    0.0017    0.0001    0.0335    0.0012   -0.0193    0.0205    0.0000    0.0357
           4    0.0176   -0.0100    0.0000    0.0000   -0.0000    0.0000    0.0004    0.0005
           5    0.0347   -0.0228    0.0001   -0.0000   -0.0000    0.0000   -0.0008   -0.0002
           6    0.0012    0.0000   -0.0254   -0.0062    0.0100    0.0212    0.0000    0.0156
           7   -0.0105   -0.0120    0.0001    0.0001   -0.0001    0.0000   -0.0010   -0.0001
           8    0.0069    0.0226    0.0000   -0.0000   -0.0000    0.0000    0.0019   -0.0001
           9   -0.0031   -0.0001    0.0222    0.0200   -0.0118    0.0056    0.0000   -0.0143
          10   -0.0035   -0.0228   -0.0000   -0.0000   -0.0000    0.0000   -0.0005    0.0003
          11    0.0776   -0.0333    0.0001   -0.0000    0.0000   -0.0000   -0.0027   -0.0006
          12    0.0001   -0.0000    0.0128    0.0028    0.0188   -0.0338    0.0000   -0.0362
          13    0.0771    0.0119    0.0001   -0.0000    0.0000    0.0000    0.0041   -0.0003
          14   -0.0434   -0.0056    0.0000    0.0000   -0.0000   -0.0000   -0.0026    0.0007
          15    0.0003    0.0000   -0.0262   -0.0078    0.0030    0.0088   -0.0000   -0.0464
          16    0.0339   -0.0193    0.0000   -0.0000    0.0000   -0.0000    0.0019    0.0001
          17    0.0252    0.0592    0.0001   -0.0000   -0.0000    0.0001   -0.0055    0.0004
          18    0.0014    0.0003   -0.0269    0.0011    0.0155   -0.0296   -0.0000    0.0372
          19    0.0058    0.0494    0.0000   -0.0000   -0.0000   -0.0000    0.0001    0.0007
          20   -0.0067   -0.0069   -0.0000    0.0000   -0.0000   -0.0000   -0.0004    0.0002
          21   -0.0001   -0.0000    0.0036   -0.0053   -0.0428   -0.0159   -0.0000    0.0055
          22    0.0072    0.0243    0.0000   -0.0000   -0.0000   -0.0000   -0.0003   -0.0009
          23   -0.0084   -0.0143   -0.0000    0.0000   -0.0000   -0.0000   -0.0007    0.0001
          24    0.0001    0.0000    0.0044    0.0002   -0.0074   -0.0121   -0.0000   -0.0189
          25   -0.0438    0.0201   -0.0001    0.0003   -0.0000   -0.0000    0.0507    0.0001
          26   -0.0273    0.0134   -0.0001    0.0000    0.0000   -0.0000   -0.0809    0.0000
          27    0.0006   -0.0001   -0.0058    0.0714   -0.0057    0.0017   -0.0002   -0.0024
          28   -0.0267    0.0150   -0.0001   -0.0003    0.0000   -0.0000   -0.0197    0.0000
          29   -0.0181    0.0030   -0.0000   -0.0000    0.0000   -0.0000    0.0304    0.0001
          30    0.0005   -0.0000   -0.0003   -0.0652    0.0071   -0.0025    0.0001    0.0050
          31   -0.0597   -0.0615    0.1001    0.0105   -0.0262    0.0039   -0.0053    0.0838
          32   -0.0306    0.0108    0.0029   -0.0118   -0.0434    0.0847    0.0170    0.0094
          33    0.0033    0.0050   -0.0352   -0.0012    0.0154   -0.0154   -0.0007   -0.0246
          34   -0.0692   -0.0622   -0.1000   -0.0104    0.0264   -0.0043   -0.0053   -0.0859
          35   -0.0369    0.0105   -0.0031    0.0117    0.0431   -0.0839    0.0169   -0.0108
          36   -0.0090   -0.0054   -0.0356   -0.0011    0.0158   -0.0160    0.0008   -0.0255
          37    0.0533   -0.0362    0.0001   -0.0000   -0.0002    0.0003   -0.0072    0.0011
          38    0.0787   -0.0344    0.0001   -0.0000    0.0000   -0.0000   -0.0026   -0.0006
          39   -0.0091   -0.0004   -0.1478   -0.0134   -0.0897    0.1644    0.0000    0.1058
          40    0.1004   -0.0025    0.0005    0.0001   -0.0000   -0.0001    0.0089    0.0008
          41   -0.0035   -0.0285   -0.0002   -0.0001   -0.0002    0.0004    0.0058    0.0014
          42   -0.0123   -0.0008    0.1167    0.0524    0.0169   -0.0944   -0.0000    0.1729
          43    0.0056   -0.0627    0.0003   -0.0001   -0.0002    0.0004   -0.0057    0.0011
          44    0.0260    0.0607   -0.0005    0.0001    0.0003   -0.0006   -0.0055    0.0010
          45   -0.0020    0.0002    0.1581   -0.0216   -0.0848    0.1632    0.0000   -0.1410
          46    0.0201    0.0403    0.0001    0.0000    0.0001    0.0001   -0.0036    0.0020
          47   -0.0266    0.0052   -0.0000    0.0001    0.0003    0.0001    0.0058   -0.0017
          48   -0.0010   -0.0001    0.0479    0.0498    0.3079    0.0931    0.0001   -0.0148
          49    0.0094   -0.0584    0.0000    0.0000    0.0001    0.0001    0.0001    0.0017
          50   -0.0107    0.0942    0.0000   -0.0000    0.0002    0.0001   -0.0012   -0.0032
          51   -0.0010   -0.0001    0.0355    0.0295    0.1976    0.0865    0.0001    0.0672
          52    0.0101   -0.0554   -0.0000    0.0000   -0.0000    0.0000   -0.0001    0.0014
          53   -0.0048   -0.1536   -0.0001    0.0001    0.0000    0.0001   -0.0004    0.0041
          54    0.0008    0.0001   -0.0653   -0.0132   -0.0073    0.0556    0.0001    0.0829
          55   -0.0594    0.0256   -0.0177    0.2364   -0.0185    0.0090   -0.2109   -0.0087
          56   -0.0365    0.0239   -0.0185    0.1519   -0.0126   -0.0028    0.3261   -0.0020
          57    0.0096   -0.0054    0.0107   -0.1150    0.0091   -0.0024    0.0011    0.0033
          58   -0.0629    0.0255    0.0176   -0.2373    0.0187   -0.0090   -0.2109    0.0091
          59   -0.0389    0.0235    0.0183   -0.1519    0.0125    0.0026    0.3262    0.0025
          60   -0.0109    0.0050    0.0105   -0.1129    0.0090   -0.0024    0.0006    0.0033


   Root No.      25        26        27        28        29        30        31        32

                25 A      26 A      27 A      28 A      29 A      30 A      31 A      32 A   

                1007.3    1030.0    1033.4    1057.3    1075.1    1149.5    1194.4    1215.8
  
           1   -0.0323   -0.0190   -0.0001   -0.0002   -0.0089    0.0053   -0.0085    0.0090
           2   -0.0152   -0.0334   -0.0002   -0.0002    0.0052    0.0053   -0.0029   -0.0088
           3   -0.0009   -0.0003   -0.0119    0.0008   -0.0001   -0.0000   -0.0000   -0.0000
           4    0.0218   -0.0059   -0.0000   -0.0001   -0.0021   -0.0033    0.0220    0.0107
           5   -0.0125    0.0112    0.0000    0.0003    0.0326   -0.0074   -0.0276    0.0015
           6   -0.0004    0.0001   -0.0201   -0.0117    0.0000    0.0000   -0.0000   -0.0000
           7   -0.0024    0.0011    0.0000   -0.0000   -0.0060   -0.0041    0.0045   -0.0301
           8   -0.0027   -0.0031   -0.0000    0.0001    0.0237    0.0148   -0.0244    0.0105
           9    0.0003    0.0001    0.0069   -0.0005    0.0000   -0.0000   -0.0001    0.0001
          10    0.0111    0.0118    0.0000    0.0003    0.0264   -0.0068    0.0165    0.0088
          11   -0.0237   -0.0112   -0.0000   -0.0004   -0.0355   -0.0031    0.0109    0.0061
          12    0.0009   -0.0000    0.0162    0.0372   -0.0001    0.0000    0.0000    0.0000
          13   -0.0068   -0.0212   -0.0001   -0.0002   -0.0020    0.0073    0.0003    0.0026
          14    0.0141    0.0410    0.0002    0.0003    0.0006    0.0011    0.0060   -0.0236
          15    0.0011    0.0005    0.0160   -0.0379    0.0002   -0.0000    0.0000   -0.0001
          16   -0.0038    0.0121    0.0000    0.0001    0.0018    0.0010   -0.0050   -0.0151
          17    0.0205    0.0121    0.0001   -0.0002   -0.0299   -0.0091    0.0153   -0.0032
          18   -0.0008   -0.0002   -0.0097    0.0121   -0.0001   -0.0000    0.0000    0.0000
          19    0.0340   -0.0115   -0.0000   -0.0002   -0.0061    0.0066   -0.0025    0.0013
          20    0.0084   -0.0020    0.0000   -0.0000   -0.0013    0.0003   -0.0060   -0.0028
          21   -0.0002   -0.0003    0.0435    0.0067   -0.0000   -0.0000    0.0000    0.0000
          22   -0.0453    0.0112    0.0000    0.0002    0.0101   -0.0017   -0.0148   -0.0024
          23    0.0042   -0.0017   -0.0001   -0.0001   -0.0049   -0.0010   -0.0074   -0.0059
          24    0.0005    0.0004   -0.0608   -0.0071    0.0000    0.0000    0.0000    0.0000
          25    0.0056    0.0001    0.0000   -0.0001   -0.0100   -0.0025    0.0039    0.0031
          26    0.0029   -0.0026   -0.0000   -0.0000   -0.0034   -0.0007    0.0021    0.0034
          27    0.0000    0.0000    0.0008    0.0000    0.0000    0.0000   -0.0000   -0.0000
          28    0.0012   -0.0019   -0.0000    0.0000    0.0019    0.0014   -0.0027   -0.0035
          29    0.0021    0.0024    0.0000   -0.0000   -0.0066   -0.0020   -0.0009   -0.0081
          30   -0.0001   -0.0000   -0.0019    0.0001   -0.0000   -0.0000    0.0000    0.0000
          31   -0.0618    0.0248   -0.0020   -0.1639   -0.0861    0.0775   -0.0337   -0.0122
          32   -0.0010   -0.1370   -0.0474    0.2816    0.1352   -0.0953    0.0210    0.0393
          33    0.0115    0.0106    0.0078   -0.0004    0.0023   -0.0064    0.0069   -0.0043
          34   -0.0577    0.0248    0.0025    0.1620   -0.0878    0.0784   -0.0339   -0.0123
          35   -0.0006   -0.1354    0.0452   -0.2798    0.1391   -0.0967    0.0214    0.0393
          36   -0.0105   -0.0112    0.0079   -0.0019   -0.0016    0.0061   -0.0069    0.0045
          37    0.0140    0.1202    0.0004    0.0023    0.1296   -0.1142    0.1520   -0.1512
          38   -0.0235   -0.0136   -0.0000   -0.0004   -0.0354   -0.0041    0.0112    0.0071
          39   -0.0026    0.0002   -0.0806   -0.0722   -0.0000    0.0001   -0.0001    0.0000
          40    0.0119    0.0225    0.0000    0.0006    0.0707    0.1435    0.0089    0.0729
          41    0.0495    0.1180    0.0008    0.0010    0.1332    0.2433    0.0240    0.0993
          42   -0.0039   -0.0007   -0.0426    0.0671   -0.0000    0.0004    0.0000    0.0002
          43    0.0254    0.1659    0.0011    0.0010   -0.0349   -0.2277   -0.1370    0.1793
          44    0.0215    0.0124    0.0000   -0.0001   -0.0301   -0.0056    0.0176   -0.0055
          45    0.0032    0.0003    0.0280   -0.0240   -0.0000    0.0005    0.0004   -0.0004
          46    0.0970   -0.0247   -0.0001   -0.0002    0.0127    0.0113   -0.1827   -0.0569
          47   -0.0809    0.0161   -0.0000   -0.0000   -0.0297   -0.0062    0.2587    0.0832
          48    0.0004    0.0007   -0.1141   -0.0147    0.0001    0.0000   -0.0002   -0.0001
          49    0.0813   -0.0204    0.0000   -0.0002   -0.0060    0.0050   -0.0125   -0.0015
          50   -0.1617    0.0379    0.0004    0.0005    0.0137   -0.0086   -0.0134   -0.0060
          51   -0.0015   -0.0015    0.2213    0.0295   -0.0000   -0.0000    0.0000    0.0000
          52    0.0702   -0.0218    0.0000   -0.0003   -0.0180    0.0048    0.0062    0.0042
          53    0.2032   -0.0587   -0.0000   -0.0010   -0.0555    0.0098    0.0344    0.0060
          54   -0.0023   -0.0014    0.2254    0.0217    0.0001   -0.0000   -0.0000   -0.0000
          55    0.0104   -0.0066    0.0016   -0.0022   -0.0206   -0.0093    0.0351    0.0815
          56    0.0086    0.0052    0.0026    0.0029   -0.0194   -0.0070    0.0204    0.0515
          57   -0.0039    0.0009   -0.0010    0.0001    0.0099    0.0052   -0.0210   -0.0538
          58    0.0101   -0.0067   -0.0016    0.0018   -0.0208   -0.0093    0.0353    0.0820
          59    0.0086    0.0052   -0.0025   -0.0032   -0.0194   -0.0071    0.0204    0.0515
          60    0.0037   -0.0008   -0.0010   -0.0001   -0.0097   -0.0051    0.0207    0.0531


   Root No.      33        34        35        36        37        38        39        40

                33 A      34 A      35 A      36 A      37 A      38 A      39 A      40 A   

                1233.7    1277.6    1309.8    1342.9    1371.3    1435.6    1518.8    1551.5
  
           1    0.0033   -0.0017    0.0029   -0.0090    0.0501   -0.0677   -0.0121    0.0175
           2    0.0077   -0.0153   -0.0067    0.0214    0.0319    0.0922    0.0523   -0.0122
           3    0.0000   -0.0000   -0.0000    0.0000    0.0002    0.0002    0.0001   -0.0000
           4   -0.0124    0.0319   -0.0039   -0.0128   -0.0139    0.0496   -0.0227    0.0413
           5   -0.0033   -0.0078   -0.0199    0.0184   -0.0155   -0.0274    0.0591   -0.1024
           6   -0.0000   -0.0000   -0.0000   -0.0000    0.0000   -0.0000    0.0000    0.0000
           7   -0.0169    0.0122    0.0000   -0.0139   -0.0129   -0.0308    0.1167    0.0624
           8   -0.0251   -0.0206   -0.0061    0.0353   -0.0021    0.0113   -0.0392    0.1238
           9    0.0001   -0.0001    0.0000    0.0001    0.0001    0.0001   -0.0004   -0.0002
          10   -0.0113    0.0305   -0.0154   -0.0071   -0.0202    0.0387    0.0067   -0.0361
          11    0.0112   -0.0007    0.0121   -0.0175    0.0127   -0.0316   -0.0266    0.0076
          12    0.0000    0.0000    0.0000   -0.0000   -0.0000   -0.0000   -0.0000   -0.0000
          13    0.0081   -0.0065   -0.0029    0.0093    0.0042    0.0257   -0.0206   -0.0147
          14   -0.0035    0.0102   -0.0202    0.0098   -0.0223   -0.0382   -0.0571   -0.0013
          15   -0.0000    0.0000   -0.0001    0.0000   -0.0001   -0.0002   -0.0001    0.0000
          16   -0.0012   -0.0018   -0.0220    0.0210   -0.0184   -0.0171   -0.0519    0.0017
          17   -0.0004    0.0154    0.0119   -0.0245   -0.0022   -0.0056    0.0437   -0.0042
          18   -0.0000    0.0000    0.0001   -0.0001    0.0000    0.0000    0.0003    0.0000
          19   -0.0067   -0.0434    0.0013    0.0281    0.0067   -0.0382    0.0186   -0.0254
          20    0.0030   -0.0119   -0.0097   -0.0196    0.0001    0.0020    0.0002   -0.0043
          21    0.0000    0.0000    0.0000    0.0000    0.0000    0.0000   -0.0000    0.0000
          22    0.0058    0.0137   -0.0001   -0.0035   -0.0017    0.0035   -0.0004   -0.0024
          23    0.0088    0.0146   -0.0008   -0.0265   -0.0004    0.0209   -0.0159    0.0327
          24   -0.0000   -0.0000   -0.0000    0.0000   -0.0000   -0.0000    0.0000   -0.0000
          25   -0.0005   -0.0012    0.0144   -0.0129    0.0153    0.0171   -0.0523   -0.0765
          26   -0.0011   -0.0016    0.0090   -0.0071    0.0099    0.0118   -0.0355   -0.0474
          27    0.0000    0.0000   -0.0001    0.0001   -0.0001   -0.0001    0.0002    0.0003
          28   -0.0143   -0.0027    0.0059   -0.0016    0.0033    0.0025    0.0042    0.0180
          29   -0.0059    0.0013    0.0047   -0.0052    0.0016   -0.0030    0.0103    0.0067
          30    0.0001    0.0000   -0.0000    0.0000   -0.0000   -0.0000   -0.0000   -0.0001
          31    0.0322   -0.0849    0.0684    0.0103   -0.1514    0.0663    0.0157   -0.0097
          32    0.0034   -0.0001    0.0599   -0.0505   -0.0947   -0.0944   -0.0352    0.0133
          33   -0.0141    0.0409   -0.0578    0.0129    0.1539   -0.0136    0.0132    0.0066
          34    0.0322   -0.0849    0.0682    0.0104   -0.1508    0.0664    0.0158   -0.0097
          35    0.0034    0.0003    0.0596   -0.0506   -0.0937   -0.0948   -0.0352    0.0134
          36    0.0142   -0.0411    0.0584   -0.0132   -0.1551    0.0132   -0.0134   -0.0065
          37    0.1552   -0.1156    0.0926    0.0209    0.0929    0.0493   -0.0239    0.0914
          38    0.0118   -0.0017    0.0118   -0.0199    0.0144   -0.0339   -0.0281    0.0043
          39   -0.0000   -0.0000   -0.0000    0.0000    0.0000    0.0001   -0.0000   -0.0000
          40    0.0189   -0.0072    0.0480   -0.0345    0.0467    0.0202    0.0430   -0.0089
          41    0.0145    0.0118    0.0705   -0.0706    0.0495   -0.0536    0.0627    0.0129
          42    0.0000    0.0000    0.0002   -0.0002    0.0001   -0.0003    0.0001    0.0000
          43   -0.0543   -0.0608    0.0634    0.0012    0.0478    0.0670    0.0571    0.0624
          44   -0.0004    0.0173    0.0115   -0.0259   -0.0041   -0.0084    0.0458   -0.0019
          45    0.0002    0.0002   -0.0001   -0.0001   -0.0001   -0.0002   -0.0000   -0.0002
          46    0.0824    0.0111    0.0143   -0.0218    0.0174   -0.0195   -0.0055   -0.0072
          47   -0.1289   -0.0974   -0.0301    0.0551   -0.0153   -0.0311    0.0405   -0.0390
          48    0.0001    0.0001    0.0000   -0.0000    0.0000    0.0000   -0.0000    0.0000
          49   -0.0024   -0.0948   -0.0657   -0.1169   -0.0034    0.0195   -0.0146    0.0284
          50    0.0196    0.1711    0.0937    0.1373    0.0018   -0.0030    0.0037   -0.0098
          51   -0.0000   -0.0001   -0.0001   -0.0001    0.0000   -0.0000   -0.0000    0.0000
          52   -0.0042    0.0440    0.0494    0.1028    0.0054   -0.0353    0.0197   -0.0369
          53   -0.0089    0.0799    0.0945    0.1718    0.0126   -0.0453    0.0174   -0.0222
          54    0.0000   -0.0001   -0.0001   -0.0002   -0.0000    0.0001   -0.0000    0.0000
          55    0.1447    0.0116   -0.0510    0.0284   -0.0268   -0.0173    0.0284    0.0296
          56    0.0937    0.0076   -0.0328    0.0187   -0.0172   -0.0106    0.0164    0.0206
          57   -0.1023   -0.0095    0.0471   -0.0300    0.0312    0.0264   -0.0647   -0.0866
          58    0.1456    0.0117   -0.0514    0.0287   -0.0271   -0.0176    0.0290    0.0303
          59    0.0937    0.0076   -0.0328    0.0187   -0.0172   -0.0106    0.0164    0.0207
          60    0.1010    0.0094   -0.0466    0.0297   -0.0310   -0.0263    0.0645    0.0864


   Root No.      41        42        43        44        45        46        47        48

                41 A      42 A      43 A      44 A      45 A      46 A      47 A      48 A   

                1840.9    1857.2    1876.0    2246.5    2924.9    2988.7    3005.5    3026.7
  
           1   -0.0003   -0.0204    0.0220   -0.0008    0.0001    0.0079   -0.0295   -0.0001
           2   -0.0000    0.0274    0.0160   -0.0006    0.0002    0.0046   -0.0175    0.0000
           3    0.0000    0.0001    0.0000   -0.0000   -0.0609    0.0000   -0.0000    0.0000
           4    0.0337   -0.1491    0.1035   -0.0025    0.0000    0.0031    0.0013    0.0001
           5   -0.0370   -0.0837    0.0572    0.0042    0.0000    0.0014    0.0004   -0.0006
           6    0.0000    0.0000   -0.0000   -0.0000   -0.0003    0.0000    0.0000    0.0000
           7    0.0025   -0.0121   -0.0362   -0.1463   -0.0000    0.0006   -0.0001   -0.0005
           8    0.0052    0.0258   -0.0112   -0.0930   -0.0000    0.0006    0.0000    0.0003
           9   -0.0000    0.0001    0.0001    0.0006    0.0001   -0.0000    0.0000    0.0000
          10   -0.0035    0.1527   -0.1035    0.0052   -0.0000   -0.0025   -0.0012    0.0008
          11    0.0039    0.0510   -0.0381    0.0045   -0.0000   -0.0523   -0.0104   -0.0014
          12   -0.0000    0.0000   -0.0000    0.0000   -0.0000   -0.0000   -0.0000    0.0000
          13   -0.0088   -0.0940   -0.1170    0.0077   -0.0000   -0.0003    0.0030    0.0002
          14   -0.0069   -0.0799   -0.0933    0.0029   -0.0000    0.0006   -0.0021   -0.0000
          15   -0.0000   -0.0001   -0.0001   -0.0000   -0.0000    0.0000   -0.0000   -0.0000
          16    0.0091    0.1178    0.1436   -0.0008    0.0000   -0.0001    0.0002    0.0000
          17    0.0050    0.0417    0.0551   -0.0021    0.0000   -0.0001   -0.0000   -0.0000
          18   -0.0000   -0.0001   -0.0001   -0.0000   -0.0003   -0.0000   -0.0000   -0.0000
          19   -0.0603    0.0191   -0.0107    0.0004   -0.0000    0.0003    0.0000   -0.0571
          20    0.2277   -0.0014   -0.0113   -0.0015    0.0000    0.0009    0.0003   -0.0443
          21   -0.0002   -0.0000    0.0000    0.0000   -0.0001   -0.0000   -0.0000    0.0001
          22    0.0168   -0.0025    0.0010    0.0001   -0.0000   -0.0064   -0.0015    0.0038
          23   -0.1964   -0.0022    0.0114    0.0003   -0.0000   -0.0055   -0.0013    0.0023
          24    0.0002    0.0000   -0.0000   -0.0000    0.0000    0.0000    0.0000   -0.0000
          25   -0.0032   -0.0013    0.0085   -0.1320   -0.0000    0.0000   -0.0000   -0.0003
          26   -0.0020   -0.0010    0.0055   -0.0845   -0.0000    0.0000   -0.0000    0.0000
          27    0.0000    0.0000   -0.0000    0.0006   -0.0000   -0.0000    0.0000    0.0000
          28    0.0029   -0.0019   -0.0061    0.2795    0.0000   -0.0004    0.0001    0.0002
          29    0.0011    0.0056   -0.0034    0.1768    0.0000   -0.0002    0.0000    0.0004
          30   -0.0000    0.0000    0.0000   -0.0012   -0.0000    0.0000   -0.0000   -0.0000
          31   -0.0014   -0.0145    0.0106   -0.0002    0.2468   -0.0464    0.1764    0.0002
          32    0.0030    0.0201    0.0123   -0.0002    0.1450   -0.0305    0.1026   -0.0000
          33   -0.0014    0.0004    0.0017   -0.0017    0.3699   -0.0870    0.3161    0.0003
          34   -0.0014   -0.0146    0.0108   -0.0002   -0.2474   -0.0467    0.1780    0.0003
          35    0.0030    0.0202    0.0124   -0.0002   -0.1469   -0.0311    0.1050   -0.0000
          36    0.0015   -0.0003   -0.0015    0.0017    0.3670    0.0867   -0.3157   -0.0003
          37    0.0104   -0.0380    0.0415    0.0000    0.0000    0.0030   -0.0022    0.0007
          38    0.0037    0.0736   -0.0535    0.0107    0.0002    0.5999    0.1208    0.0145
          39    0.0000    0.0000    0.0000    0.0000   -0.0016    0.0001    0.0000    0.0000
          40   -0.0040   -0.0474   -0.0513    0.0104    0.0001    0.0006   -0.0378   -0.0017
          41    0.0056    0.0451    0.0748   -0.0049   -0.0000    0.0009    0.0181    0.0009
          42    0.0000    0.0002    0.0004   -0.0000   -0.0017    0.0000    0.0001    0.0000
          43   -0.0008   -0.0174   -0.0416   -0.0155   -0.0000   -0.0001    0.0005    0.0000
          44    0.0075    0.0626    0.0822   -0.0094    0.0000    0.0005    0.0039   -0.0002
          45    0.0000    0.0002    0.0004    0.0001   -0.0008    0.0000    0.0000   -0.0000
          46    0.1354    0.0352   -0.0307   -0.0018   -0.0000   -0.0105   -0.0025    0.6796
          47    0.0053   -0.0300    0.0173   -0.0040   -0.0000   -0.0058   -0.0014    0.4619
          48   -0.0001    0.0000   -0.0000   -0.0000    0.0000    0.0000    0.0000   -0.0008
          49   -0.1534   -0.0042    0.0099    0.0005    0.0000    0.0770    0.0186    0.0094
          50   -0.0098   -0.0011    0.0026    0.0004    0.0000    0.0602    0.0144    0.0103
          51    0.0001    0.0000   -0.0000    0.0000   -0.0000   -0.0001   -0.0000   -0.0000
          52    0.1479    0.0048   -0.0106   -0.0001   -0.0000   -0.0041   -0.0007   -0.0596
          53   -0.0239    0.0098   -0.0053   -0.0002   -0.0000   -0.0003   -0.0002    0.0279
          54   -0.0000   -0.0000    0.0000   -0.0000    0.0000    0.0000    0.0000    0.0000
          55   -0.0003   -0.0003    0.0003   -0.0593    0.0000    0.0004   -0.0000    0.0002
          56   -0.0003    0.0001    0.0005   -0.0379   -0.0000    0.0003   -0.0000   -0.0001
          57   -0.0029   -0.0012    0.0088   -0.1122   -0.0000    0.0007   -0.0001    0.0003
          58   -0.0003   -0.0003    0.0003   -0.0583   -0.0000    0.0004   -0.0000    0.0002
          59   -0.0003    0.0000    0.0004   -0.0379    0.0000    0.0003   -0.0000   -0.0001
          60    0.0029    0.0012   -0.0088    0.1127   -0.0000   -0.0007    0.0001   -0.0003


   Root No.      49        50        51        52        53        54

                49 A      50 A      51 A      52 A      53 A      54 A   

                3048.1    3067.7    3085.6    3112.5    3116.6    3152.9
  
           1   -0.0016    0.0024    0.0003    0.0000   -0.0000    0.0000
           2   -0.0008    0.0014    0.0002    0.0000   -0.0000    0.0000
           3    0.0000   -0.0000   -0.0000    0.0000   -0.0000    0.0000
           4   -0.0002   -0.0004   -0.0009    0.0001   -0.0000    0.0004
           5    0.0003    0.0002   -0.0008    0.0003   -0.0000   -0.0007
           6    0.0000    0.0000    0.0000   -0.0000   -0.0000    0.0000
           7   -0.0000   -0.0010   -0.0000    0.0005   -0.0000   -0.0000
           8    0.0000   -0.0003   -0.0001    0.0004   -0.0000    0.0001
           9    0.0000    0.0000    0.0000   -0.0000   -0.0002    0.0000
          10    0.0001   -0.0000    0.0007   -0.0001    0.0000    0.0001
          11   -0.0007    0.0010    0.0102   -0.0002    0.0000    0.0003
          12   -0.0000    0.0000    0.0000   -0.0000   -0.0000    0.0000
          13   -0.0305    0.0372    0.0005   -0.0004    0.0000    0.0000
          14    0.0173   -0.0149   -0.0002    0.0001   -0.0000    0.0000
          15    0.0001   -0.0001   -0.0000    0.0000   -0.0000   -0.0000
          16   -0.0005   -0.0053   -0.0001    0.0003   -0.0000   -0.0000
          17   -0.0382   -0.0375   -0.0003    0.0001   -0.0000   -0.0000
          18   -0.0001   -0.0001   -0.0000   -0.0000   -0.0000   -0.0000
          19   -0.0000    0.0001   -0.0000   -0.0000    0.0000   -0.0039
          20   -0.0000   -0.0000    0.0056   -0.0001    0.0000   -0.0083
          21   -0.0000   -0.0000   -0.0000    0.0000   -0.0000    0.0000
          22   -0.0001    0.0004   -0.0438   -0.0001    0.0000   -0.0618
          23   -0.0001    0.0003   -0.0414    0.0000   -0.0000    0.0357
          24    0.0000   -0.0000    0.0001    0.0000   -0.0000   -0.0000
          25   -0.0001    0.0001   -0.0000    0.0401   -0.0007   -0.0001
          26   -0.0001    0.0000   -0.0000    0.0257   -0.0003   -0.0000
          27    0.0000   -0.0000    0.0000   -0.0009   -0.0649    0.0000
          28    0.0003    0.0007    0.0001   -0.0072    0.0001    0.0000
[...]
 REDUCED MASS        0.4515         C  2 -- C  7          +9.1% ( 38.5%)     94.4%
 EFFECTIVE MASS      5.6705
 FORCE CONSTANT      0.4797

 VIBRATION         37   37A           ATOM PAIR      ENERGY CONTRIBUTION    RADIAL
 FREQUENCY          1371.34         C  1 -- H 11         +22.6% ( 57.4%)      6.8%
 TRANSITION DIPOLE   0.1352         C  1 -- H 12         +22.6% ( 57.4%)      6.8%
 TRAVEL (Ang.)       0.2622         C  1 -- C  4         +13.5% ( 44.4%)     55.4%
 REDUCED MASS        0.7153         C  1 -- C  5         +13.2% ( 43.8%)     62.6%
 EFFECTIVE MASS      4.6490
 FORCE CONSTANT      0.7925

 VIBRATION         38   38A           ATOM PAIR      ENERGY CONTRIBUTION    RADIAL
 FREQUENCY          1435.61         C  1 -- C  4         +19.5% ( 69.7%)     85.1%
 TRANSITION DIPOLE   0.0827         C  1 -- C  5         +17.6% ( 66.2%)     61.8%
 TRAVEL (Ang.)       0.1272         C  1 -- H 12         +14.4% ( 59.9%)      0.1%
 REDUCED MASS        2.9017         C  1 -- H 11         +14.4% ( 59.9%)      0.1%
 EFFECTIVE MASS     10.5120
 FORCE CONSTANT      3.5235

 VIBRATION         39   39A           ATOM PAIR      ENERGY CONTRIBUTION    RADIAL
 FREQUENCY          1518.81         C  3 -- C  6         +21.3% ( 71.6%)     99.9%
 TRANSITION DIPOLE   0.0470         C  2 -- C  3         +17.7% ( 65.2%)     32.2%
 TRAVEL (Ang.)       0.1330         C  3 -- C 10         +12.0% ( 53.7%)     31.6%
 REDUCED MASS        2.5116         C  1 -- C  5          +6.8% ( 40.4%)     99.9%
 EFFECTIVE MASS     11.4462
 FORCE CONSTANT      3.4135

 VIBRATION         40   40A           ATOM PAIR      ENERGY CONTRIBUTION    RADIAL
 FREQUENCY          1551.53         C  2 -- C  3         +27.2% ( 81.7%)     99.3%
 TRANSITION DIPOLE   0.0300         C  3 -- C  6         +14.5% ( 59.5%)      0.2%
 TRAVEL (Ang.)       0.1157         C  3 -- C 10         +12.5% ( 55.2%)     63.5%
 REDUCED MASS        3.2470         C  9 -- C 10          +9.1% ( 47.3%)     99.8%
 EFFECTIVE MASS     11.4505
 FORCE CONSTANT      4.6053

 VIBRATION         41   41A           ATOM PAIR      ENERGY CONTRIBUTION    RADIAL
 FREQUENCY          1840.92         C  7 -- C  8         +44.4% ( 98.5%)     98.7%
 TRANSITION DIPOLE   0.0502         C  2 -- C  7         +17.6% ( 62.1%)     56.5%
 TRAVEL (Ang.)       0.0836         C  7 -- H 16         +15.7% ( 58.6%)      3.6%
 REDUCED MASS        5.2435         C  8 -- H 17         +10.6% ( 48.3%)      9.5%
 EFFECTIVE MASS     11.8177         C  8 -- H 18         +10.2% ( 47.3%)     13.5%
 FORCE CONSTANT     10.4698

 VIBRATION         42   42A           ATOM PAIR      ENERGY CONTRIBUTION    RADIAL
 FREQUENCY          1857.19         C  2 -- C  4         +27.6% ( 78.0%)     99.1%
 TRANSITION DIPOLE   0.4178         C  5 -- C  6         +15.9% ( 59.1%)    100.0%
 TRAVEL (Ang.)       0.1105         C  2 -- C  3          +9.6% ( 46.0%)     40.1%
 REDUCED MASS        2.9740         C  2 -- C  7          +9.5% ( 45.9%)     32.4%
 EFFECTIVE MASS     11.9098
 FORCE CONSTANT      6.0438

 VIBRATION         43   43A           ATOM PAIR      ENERGY CONTRIBUTION    RADIAL
 FREQUENCY          1876.01         C  5 -- C  6         +27.8% ( 77.7%)    100.0%
 TRANSITION DIPOLE   0.7822         C  2 -- C  4         +15.3% ( 57.6%)     99.3%
 TRAVEL (Ang.)       0.1121         C  3 -- C  6          +9.9% ( 46.5%)     44.3%
 REDUCED MASS        2.8611         C  1 -- C  5          +8.7% ( 43.6%)     42.6%
 EFFECTIVE MASS     11.8629
 FORCE CONSTANT      5.9328

 VIBRATION         44   44A           ATOM PAIR      ENERGY CONTRIBUTION    RADIAL
 FREQUENCY          2246.51         C  3 -- C 10         +42.0% ( 85.5%)    100.0%
 TRANSITION DIPOLE   0.4489         C  9 -- C 10         +41.3% ( 84.8%)    100.0%
 TRAVEL (Ang.)       0.0720         C  2 -- C  3          +4.7% ( 28.7%)     32.4%
 REDUCED MASS        5.7910         C  3 -- C  6          +4.7% ( 28.6%)     24.9%
 EFFECTIVE MASS     11.9029
 FORCE CONSTANT     17.2195

 VIBRATION         45   45A           ATOM PAIR      ENERGY CONTRIBUTION    RADIAL
 FREQUENCY          2924.93         C  1 -- H 11         +49.1% ( 72.7%)     96.6%
 TRANSITION DIPOLE   0.0619         C  1 -- H 12         +48.8% ( 72.5%)     96.6%
 TRAVEL (Ang.)       0.2111         C  1 -- C  5          +1.1% ( 10.7%)      0.0%
 REDUCED MASS        0.5172         C  1 -- C  4          +1.1% ( 10.7%)      0.0%
 EFFECTIVE MASS      1.5329
 FORCE CONSTANT      2.6071

 VIBRATION         46   46A           ATOM PAIR      ENERGY CONTRIBUTION    RADIAL
 FREQUENCY          2988.65         C  4 -- H 13         +89.7% ( 96.1%)    100.0%
 TRANSITION DIPOLE   0.3064         C  8 -- H 17          +2.5% ( 16.1%)     99.7%
 TRAVEL (Ang.)       0.1686         C  1 -- H 12          +2.5% ( 15.9%)     98.0%
 REDUCED MASS        0.7933         C  1 -- H 11          +2.5% ( 15.9%)     98.0%
 EFFECTIVE MASS      1.5008
 FORCE CONSTANT      4.1749

 VIBRATION         47   47A           ATOM PAIR      ENERGY CONTRIBUTION    RADIAL
 FREQUENCY          3005.54         C  1 -- H 12         +46.4% ( 67.3%)     97.8%
 TRANSITION DIPOLE   0.2275         C  1 -- H 11         +46.1% ( 67.0%)     97.7%
 TRAVEL (Ang.)       0.2280         C  4 -- H 13          +5.1% ( 22.3%)    100.0%
 REDUCED MASS        0.4318         C  1 -- C  4          +0.7% (  8.3%)     57.4%
 EFFECTIVE MASS      1.2940
 FORCE CONSTANT      2.2979

 VIBRATION         48   48A           ATOM PAIR      ENERGY CONTRIBUTION    RADIAL
 FREQUENCY          3026.70         C  7 -- H 16         +96.4% ( 99.7%)    100.0%
 TRANSITION DIPOLE   0.2697         C  7 -- C  8          +1.5% ( 12.5%)     30.8%
 TRAVEL (Ang.)       0.1558         C  2 -- C  7          +1.4% ( 12.2%)     15.8%
 REDUCED MASS        0.9180         C  8 -- H 18          +0.6% (  7.9%)     94.1%
 EFFECTIVE MASS      1.5181
 FORCE CONSTANT      4.9549

 VIBRATION         49   49A           ATOM PAIR      ENERGY CONTRIBUTION    RADIAL
 FREQUENCY          3048.15         C  6 -- H 15         +52.3% ( 73.4%)    100.0%
 TRANSITION DIPOLE   0.3001         C  5 -- H 14         +45.1% ( 68.2%)    100.0%
 TRAVEL (Ang.)       0.2180         C  5 -- C  6          +1.1% ( 10.7%)      0.1%
 REDUCED MASS        0.4653         C  3 -- C  6          +0.7% (  8.6%)     21.0%
 EFFECTIVE MASS      1.4617
 FORCE CONSTANT      2.5472

 VIBRATION         50   50A           ATOM PAIR      ENERGY CONTRIBUTION    RADIAL
 FREQUENCY          3067.67         C  5 -- H 14         +51.3% ( 72.7%)     99.9%
 TRANSITION DIPOLE   0.3325         C  6 -- H 15         +44.7% ( 67.9%)     99.9%
 TRAVEL (Ang.)       0.2175         C  5 -- C  6          +2.0% ( 14.5%)     99.8%
 REDUCED MASS        0.4648         C  1 -- C  5          +0.8% (  9.3%)     14.7%
 EFFECTIVE MASS      1.5902
 FORCE CONSTANT      2.5771

 VIBRATION         51   51A           ATOM PAIR      ENERGY CONTRIBUTION    RADIAL
 FREQUENCY          3085.64         C  8 -- H 17         +94.7% ( 98.2%)     99.9%
 TRANSITION DIPOLE   0.1492         C  4 -- H 13          +2.4% ( 15.7%)    100.0%
 TRAVEL (Ang.)       0.1585         C  8 -- H 18          +1.4% ( 11.9%)      0.1%
 REDUCED MASS        0.8699         C  7 -- C  8          +1.4% ( 11.8%)     47.1%
 EFFECTIVE MASS      1.4776
 FORCE CONSTANT      4.8798

 VIBRATION         52   52A           ATOM PAIR      ENERGY CONTRIBUTION    RADIAL
 FREQUENCY          3112.50         C  9 -- H 20         +50.1% ( 70.9%)     95.4%
 TRANSITION DIPOLE   0.3867         C  9 -- H 19         +48.0% ( 69.4%)     95.0%
 TRAVEL (Ang.)       0.2111         C  9 -- C 10          +1.8% ( 13.3%)    100.0%
 REDUCED MASS        0.4861
 EFFECTIVE MASS      1.4125
 FORCE CONSTANT      2.7746

 VIBRATION         53   53A           ATOM PAIR      ENERGY CONTRIBUTION    RADIAL
 FREQUENCY          3116.62         C  9 -- H 19         +50.4% ( 72.7%)     97.2%
 TRANSITION DIPOLE   0.2311         C  9 -- H 20         +48.4% ( 71.2%)     97.0%
 TRAVEL (Ang.)       0.2014         C  9 -- C 10          +1.2% ( 11.2%)      0.0%
 REDUCED MASS        0.5333
 EFFECTIVE MASS      1.5933
 FORCE CONSTANT      3.0518

 VIBRATION         54   54A           ATOM PAIR      ENERGY CONTRIBUTION    RADIAL
 FREQUENCY          3152.86         C  8 -- H 18         +96.2% ( 99.5%)    100.0%
 TRANSITION DIPOLE   0.2896         C  8 -- H 17          +1.8% ( 13.7%)     32.8%
 TRAVEL (Ang.)       0.1530         C  7 -- C  8          +1.5% ( 12.4%)     43.0%
 REDUCED MASS        0.9140         C  7 -- H 16          +0.5% (  7.2%)     94.9%
 EFFECTIVE MASS      1.5267
 FORCE CONSTANT      5.3529

      SYMMETRY NUMBER FOR POINT-GROUP C1  =  1


          SYSTEM IS A GROUND STATE



 InChI=1S/C10H10/c1-3-9-7-5-6-8-10(9)4-2/h3,6-8H,1-2,5H2


          MOLECULE IS NOT LINEAR

          THERE ARE 54 GENUINE VIBRATIONS IN THIS SYSTEM
          THIS THERMODYNAMICS CALCULATION IS LIMITED TO
          MOLECULES WHICH HAVE NO INTERNAL ROTATIONS




                    CALCULATED THERMODYNAMIC PROPERTIES
                                          *
   TEMP. (K)   PARTITION FUNCTION   H.O.F.    ENTHALPY  HEAT CAPACITY ENTROPY
                                   KCAL/MOL   CAL/MOLE    CAL/K/MOL  CAL/K/MOL


 298.00  VIB.     0.3922D+03                  4158.5366    30.0657    25.8218
         ROT.     0.6773D+06                   888.2803     2.9808    29.6608
         INT.     0.2656D+09                  5046.8169    33.0465    55.4826
         TRA.     0.1436D+28                  1480.4672     4.9680    40.5022
         TOT.                       88.793    6527.2841    38.0145    95.9848

 200.00  VIB.     0.4147D+02                  1770.1947    18.7697    16.2530
         ROT.     0.3724D+06                   596.1613     2.9808    28.4722
         INT.     0.1544D+08                  2366.3559    21.7505    44.7252
         TRA.     0.7896D+27                   993.6021     4.9680    38.5210
         TOT.                       85.626    3359.9581    26.7185    83.2462

 210.00  VIB.     0.5184D+02                  1963.4378    19.8818    17.1956
         ROT.     0.4007D+06                   625.9693     2.9808    28.6176
         INT.     0.2077D+08                  2589.4071    22.8626    45.8132
         TRA.     0.8496D+27                  1043.2822     4.9680    38.7634
         TOT.                       85.899    3632.6893    27.8306    84.5766

 220.00  VIB.     0.6491D+02                  2167.8825    21.0096    18.1465
         ROT.     0.4296D+06                   655.7774     2.9808    28.7563
         INT.     0.2789D+08                  2823.6599    23.9904    46.9028
         TRA.     0.9110D+27                  1092.9623     4.9680    38.9945
         TOT.                       86.182    3916.6222    28.9584    85.8973

 230.00  VIB.     0.8137D+02                  2383.6751    22.1509    19.1056
         ROT.     0.4593D+06                   685.5855     2.9808    28.8888
         INT.     0.3737D+08                  3069.2605    25.1317    47.9943
         TRA.     0.9738D+27                  1142.6424     4.9680    39.2154
         TOT.                       86.478    4211.9030    30.0998    87.2097

 240.00  VIB.     0.1022D+03                  2610.9377    23.3032    20.0726
         ROT.     0.4895D+06                   715.3935     2.9808    29.0156
         INT.     0.5001D+08                  3326.3313    26.2840    49.0882
         TRA.     0.1038D+28                  1192.3226     4.9680    39.4268
         TOT.                       86.784    4518.6538    31.2520    88.5150

 250.00  VIB.     0.1284D+03                  2849.7667    24.4638    21.0474
         ROT.     0.5205D+06                   745.2016     2.9808    29.1373
         INT.     0.6683D+08                  3594.9683    27.4446    50.1847
         TRA.     0.1103D+28                  1242.0027     4.9680    39.6296
         TOT.                       87.103    4836.9710    32.4126    89.8143

 260.00  VIB.     0.1616D+03                  3100.2315    25.6299    22.0296
         ROT.     0.5520D+06                   775.0097     2.9808    29.2542
         INT.     0.8922D+08                  3875.2411    28.6107    51.2838
         TRA.     0.1170D+28                  1291.6828     4.9680    39.8245
         TOT.                       87.433    5166.9239    33.5787    91.1083

 270.00  VIB.     0.2037D+03                  3362.3742    26.7989    23.0188
         ROT.     0.5841D+06                   804.8177     2.9808    29.3667
         INT.     0.1190D+09                  4167.1919    29.7797    52.3855
         TRA.     0.1239D+28                  1341.3629     4.9680    40.0120
         TOT.                       87.774    5508.5548    34.7477    92.3974

 280.00  VIB.     0.2571D+03                  3636.2106    27.9682    24.0145
         ROT.     0.6169D+06                   834.6258     2.9808    29.4751
         INT.     0.1586D+09                  4470.8363    30.9490    53.4896
         TRA.     0.1308D+28                  1391.0430     4.9680    40.1926
         TOT.                       88.128    5861.8793    35.9170    93.6823

 290.00  VIB.     0.3249D+03                  3921.7306    29.1352    25.0163
         ROT.     0.6502D+06                   864.4339     2.9808    29.5797
         INT.     0.2113D+09                  4786.1644    32.1160    54.5961
         TRA.     0.1379D+28                  1440.7231     4.9680    40.3670
         TOT.                       88.493    6226.8875    37.0841    94.9630

 300.00  VIB.     0.4111D+03                  4218.9000    30.2977    26.0237
         ROT.     0.6842D+06                   894.2419     2.9808    29.6808
         INT.     0.2813D+09                  5113.1419    33.2785    55.7044
         TRA.     0.1451D+28                  1490.4032     4.9680    40.5354
         TOT.                       88.869    6603.5451    38.2465    96.2398

 310.00  VIB.     0.5208D+03                  4527.6622    31.4534    27.0360
         ROT.     0.7186D+06                   924.0500     2.9808    29.7785
         INT.     0.3743D+09                  5451.7121    34.4342    56.8145
         TRA.     0.1524D+28                  1540.0833     4.9680    40.6983
         TOT.                       89.258    6991.7954    39.4023    97.5128

 320.00  VIB.     0.6605D+03                  4847.9397    32.6005    28.0527
         ROT.     0.7537D+06                   953.8580     2.9808    29.8731
         INT.     0.4978D+09                  5801.7977    35.5813    57.9259
         TRA.     0.1598D+28                  1589.7634     4.9680    40.8560
         TOT.                       89.657    7391.5611    40.5493    98.7819

 330.00  VIB.     0.8387D+03                  5179.6367    33.7370    29.0733
         ROT.     0.7893D+06                   983.6661     2.9808    29.9649
         INT.     0.6620D+09                  6163.3028    36.7178    59.0382
         TRA.     0.1674D+28                  1639.4435     4.9680    41.0089
         TOT.                       90.069    7802.7463    41.6859   100.0471

 340.00  VIB.     0.1066D+04                  5522.6405    34.8616    30.0972
         ROT.     0.8255D+06                  1013.4742     2.9808    30.0539
         INT.     0.8799D+09                  6536.1147    37.8424    60.1511
         TRA.     0.1750D+28                  1689.1236     4.9680    41.1572
         TOT.                       90.491    8225.2383    42.8104   101.3083

 350.00  VIB.     0.1356D+04                  5876.8242    35.9728    31.1238
         ROT.     0.8621D+06                  1043.2822     2.9808    30.1403
         INT.     0.1169D+10                  6920.1065    38.9536    61.2641
         TRA.     0.1828D+28                  1738.8037     4.9680    41.3012
         TOT.                       90.925    8658.9102    43.9216   102.5653

 360.00  VIB.     0.1728D+04                  6242.0482    37.0695    32.1526
         ROT.     0.8993D+06                  1073.0903     2.9808    30.2242
         INT.     0.1554D+10                  7315.1385    40.0503    62.3769
         TRA.     0.1907D+28                  1788.4838     4.9680    41.4412
         TOT.                       91.369    9103.6224    45.0183   103.8180

 370.00  VIB.     0.2202D+04                  6618.1623    38.1507    33.1831
         ROT.     0.9371D+06                  1102.8984     2.9808    30.3059
         INT.     0.2064D+10                  7721.0606    41.1315    63.4890
         TRA.     0.1987D+28                  1838.1639     4.9680    41.5773
         TOT.                       91.825    9559.2246    46.0995   105.0663

 380.00  VIB.     0.2810D+04                  7005.0072    39.2156    34.2147
         ROT.     0.9753D+06                  1132.7064     2.9808    30.3854
         INT.     0.2741D+10                  8137.7137    42.1964    64.6001
         TRA.     0.2068D+28                  1887.8440     4.9680    41.7098
         TOT.                       92.291   10025.5577    47.1644   106.3098

 390.00  VIB.     0.3589D+04                  7402.4168    40.2635    35.2469
         ROT.     0.1014D+07                  1162.5145     2.9808    30.4628
         INT.     0.3639D+10                  8564.9313    43.2443    65.7097
         TRA.     0.2150D+28                  1937.5242     4.9680    41.8388
         TOT.                       92.768   10502.4555    48.2123   107.5485

 400.00  VIB.     0.4586D+04                  7810.2190    41.2940    36.2793
         ROT.     0.1053D+07                  1192.3226     2.9808    30.5383
         INT.     0.4831D+10                  9002.5416    44.2748    66.8176
         TRA.     0.2233D+28                  1987.2043     4.9680    41.9646
         TOT.                       93.256   10989.7458    49.2428   108.7822

   *: NOTE: HEATS OF FORMATION ARE RELATIVE TO THE
            ELEMENTS IN THEIR STANDARD STATE AT 298K
              (=  Standard Enthalpy of Formation).

            Hvib:  Zero-point energy is not included.
                   frequencies of less than zero cm-1 are not included.
            Hrot = (3/2)RT
            Htra = (3/2)RT + pV = (5/2)RT

            Heat capacity is Cp, not Cv

          For more information, see: HTTP://OpenMOPAC.net/Manual/thermochemistry.html


           FORCE CONSTANT IN CARTESIAN COORDINATES (Millidynes/A)

    ATOM   CHEMICAL       X               Y               Z
   NUMBER   SYMBOL  FORCE CONSTANT  FORCE CONSTANT  FORCE CONSTANT

      1       C        9.146485        9.391779        7.585909
      2       C       14.193001       11.898814        2.421904
      3       C       14.535270       11.825751        2.296746
      4       C       13.796156       10.877084        2.342477
      5       C       13.976412       10.856228        2.350869
      6       C       13.982713       11.458540        2.157767
      7       C        9.807701       15.330253        2.225206
      8       C        9.206158       15.069764        1.930409
      9       C       11.848285        5.940523        8.353205
     10       C       18.064438        8.480286        1.539884
     11       H        1.684920        1.014473        3.443086
     12       H        1.696890        1.028679        3.418821
     13       H        0.835091        4.923294        0.364299
     14       H        4.098343        1.806275        0.344355
     15       H        0.774808        5.132033        0.344765
     16       H        3.699704        2.148248        0.353272
     17       H        3.674159        2.293429        0.357022
     18       H        4.319352        1.819257        0.329263
     19       H        1.476747        0.775465        3.987513
     20       H        1.446011        0.774431        4.019111

 **********************
 *                    *
 * JOB ENDED NORMALLY *
 *                    *
 **********************



 TOTAL JOB TIME:             4.27 SECONDS

 == MOPAC DONE ==
