 *******************************************************************************
 **                                                                           **
 **                              MOPAC v23.1.2                                **
 **                                                                           **
 *******************************************************************************
 **          Digital Object Identifier (DOI): 10.5281/zenodo.6511958          **
 **    Visit the DOI location for information on how to cite this program.    **
 *******************************************************************************

                              PM3 CALCULATION RESULTS

 *******************************************************************************
 *  CALCULATION DONE: (MAX THREADS = 1)              Tue Jun  3 16:35:30 2025  *
 *  PM3        - The PM3 Hamiltonian to be used
 *  PRECISE    - TIGHTER CRITERIA TO BE USED
 *  NOSYM      - POINT-GROUP SYMMETRY SET TO C1
 *  THREADS=1  - MULTI-THREADING NOT USED
 *  T=         - A TIME OF 172800.0 SECONDS REQUESTED
 *  DUMP=N     - RESTART FILE WRITTEN EVERY 7200.0 SECONDS REQUESTED
 *******************************************************************************
pm3  precise nosym THREADS=1
 InChI=1S/C6H10/c1-5-3-4-6(5)2/h3-6H,1-2H3

   ATOM   CHEMICAL          X               Y               Z
  NUMBER   SYMBOL      (ANGSTROMS)     (ANGSTROMS)     (ANGSTROMS)

     1       C          0.58740000  *  -0.08490000  *   0.41900000  *
     2       C         -0.56170000  *  -0.06330000  *  -0.45640000  *
     3       C          1.92750000  *  -0.27400000  *  -0.29910000  *
     4       C         -1.71050000  *  -0.97650000  *  -0.01650000  *
     5       C          0.32660000  *   1.35030000  *   0.75620000  *
     6       C         -0.79750000  *   1.36410000  *  -0.07130000  *
     7       H          0.48950000  *  -0.74000000  *   1.31460000  *
     8       H         -0.33310000  *  -0.16180000  *  -1.54220000  *
     9       H         -1.41560000  *  -2.03810000  *  -0.15450000  *
    10       H          2.04120000  *   0.43940000  *  -1.14470000  *
    11       H          1.99660000  *  -1.31090000  *  -0.69050000  *
    12       H          2.75950000  *  -0.11100000  *   0.41800000  *
    13       H         -1.97660000  *  -0.81150000  *   1.05080000  *
    14       H         -2.60590000  *  -0.77440000  *  -0.64150000  *
    15       H          0.81000000  *   2.08130000  *   1.39540000  *
    16       H         -1.53730000  *   2.11130000  *  -0.33740000  *



          CARTESIAN COORDINATES 

    NO.       ATOM           X           Y           Z

     1         C          0.5874     -0.0849      0.4190
     2         C         -0.5617     -0.0633     -0.4564
     3         C          1.9275     -0.2740     -0.2991
     4         C         -1.7105     -0.9765     -0.0165
     5         C          0.3266      1.3503      0.7562
     6         C         -0.7975      1.3641     -0.0713
     7         H          0.4895     -0.7400      1.3146
     8         H         -0.3331     -0.1618     -1.5422
     9         H         -1.4156     -2.0381     -0.1545
    10         H          2.0412      0.4394     -1.1447
    11         H          1.9966     -1.3109     -0.6905
    12         H          2.7595     -0.1110      0.4180
    13         H         -1.9766     -0.8115      1.0508
    14         H         -2.6059     -0.7744     -0.6415
    15         H          0.8100      2.0813      1.3954
    16         H         -1.5373      2.1113     -0.3374

  H: (PM3): J. J. P. STEWART, J. COMP. CHEM. 10, 209 (1989).
  C: (PM3): J. J. P. STEWART, J. COMP. CHEM. 10, 209 (1989).

           Empirical Formula: C6 H10  =    16 atoms



      MOLECULAR POINT GROUP   :   C1  


      RHF CALCULATION, NO. OF DOUBLY OCCUPIED LEVELS = 17


          Geometry optimization using EF

          DIAGONAL MATRIX USED AS START HESSIAN

 CYCLE:     1 TIME:   0.008 TIME LEFT:  2.00D  GRAD.:   215.302 HEAT:  36.07606
 CYCLE:     2 TIME:   0.004 TIME LEFT:  2.00D  GRAD.:    66.378 HEAT:  26.78392
 CYCLE:     3 TIME:   0.008 TIME LEFT:  2.00D  GRAD.:    79.035 HEAT:  26.54809
 CYCLE:     4 TIME:   0.008 TIME LEFT:  2.00D  GRAD.:    39.092 HEAT:  25.49409
 CYCLE:     5 TIME:   0.008 TIME LEFT:  2.00D  GRAD.:    24.517 HEAT:  25.13750
 CYCLE:     6 TIME:   0.004 TIME LEFT:  2.00D  GRAD.:    16.391 HEAT:  24.95278
 CYCLE:     7 TIME:   0.008 TIME LEFT:  2.00D  GRAD.:    15.239 HEAT:  24.73754
 CYCLE:     8 TIME:   0.004 TIME LEFT:  2.00D  GRAD.:    21.825 HEAT:  24.57462
 CYCLE:     9 TIME:   0.008 TIME LEFT:  2.00D  GRAD.:    16.993 HEAT:  24.45078
 CYCLE:    10 TIME:   0.004 TIME LEFT:  2.00D  GRAD.:    11.872 HEAT:  24.39012
 CYCLE:    11 TIME:   0.008 TIME LEFT:  2.00D  GRAD.:    13.577 HEAT:  24.38725
 CYCLE:    12 TIME:   0.004 TIME LEFT:  2.00D  GRAD.:     8.001 HEAT:  24.33292
 CYCLE:    13 TIME:   0.008 TIME LEFT:  2.00D  GRAD.:     8.890 HEAT:  24.32113
 CYCLE:    14 TIME:   0.004 TIME LEFT:  2.00D  GRAD.:     8.631 HEAT:  24.30489
 CYCLE:    15 TIME:   0.004 TIME LEFT:  2.00D  GRAD.:     8.008 HEAT:  24.28789
 CYCLE:    16 TIME:   0.004 TIME LEFT:  2.00D  GRAD.:     6.236 HEAT:  24.26641
 CYCLE:    17 TIME:   0.008 TIME LEFT:  2.00D  GRAD.:     4.441 HEAT:  24.24832
 CYCLE:    18 TIME:   0.004 TIME LEFT:  2.00D  GRAD.:     5.338 HEAT:  24.23827
 CYCLE:    19 TIME:   0.004 TIME LEFT:  2.00D  GRAD.:     4.228 HEAT:  24.22651
 CYCLE:    20 TIME:   0.004 TIME LEFT:  2.00D  GRAD.:     4.582 HEAT:  24.22145
 CYCLE:    21 TIME:   0.008 TIME LEFT:  2.00D  GRAD.:     2.757 HEAT:  24.21383
 CYCLE:    22 TIME:   0.004 TIME LEFT:  2.00D  GRAD.:     2.030 HEAT:  24.20850
 CYCLE:    23 TIME:   0.004 TIME LEFT:  2.00D  GRAD.:     1.747 HEAT:  24.20372
 CYCLE:    24 TIME:   0.004 TIME LEFT:  2.00D  GRAD.:     2.010 HEAT:  24.19886
 CYCLE:    25 TIME:   0.004 TIME LEFT:  2.00D  GRAD.:     1.377 HEAT:  24.19535
 CYCLE:    26 TIME:   0.004 TIME LEFT:  2.00D  GRAD.:     1.717 HEAT:  24.19064
 CYCLE:    27 TIME:   0.004 TIME LEFT:  2.00D  GRAD.:     1.757 HEAT:  24.18818
 CYCLE:    28 TIME:   0.008 TIME LEFT:  2.00D  GRAD.:     0.625 HEAT:  24.18660
 CYCLE:    29 TIME:   0.004 TIME LEFT:  2.00D  GRAD.:     0.505 HEAT:  24.18592
 CYCLE:    30 TIME:   0.008 TIME LEFT:  2.00D  GRAD.:     0.614 HEAT:  24.18525
 CYCLE:    31 TIME:   0.004 TIME LEFT:  2.00D  GRAD.:     0.513 HEAT:  24.18464
 CYCLE:    32 TIME:   0.004 TIME LEFT:  2.00D  GRAD.:     0.493 HEAT:  24.18404
 CYCLE:    33 TIME:   0.008 TIME LEFT:  2.00D  GRAD.:     0.701 HEAT:  24.18306
 CYCLE:    34 TIME:   0.004 TIME LEFT:  2.00D  GRAD.:     0.958 HEAT:  24.18159
 CYCLE:    35 TIME:   0.004 TIME LEFT:  2.00D  GRAD.:     0.909 HEAT:  24.17978
 CYCLE:    36 TIME:   0.004 TIME LEFT:  2.00D  GRAD.:     0.565 HEAT:  24.17897
 CYCLE:    37 TIME:   0.004 TIME LEFT:  2.00D  GRAD.:     0.564 HEAT:  24.17833
 CYCLE:    38 TIME:   0.008 TIME LEFT:  2.00D  GRAD.:     0.286 HEAT:  24.17810
 CYCLE:    39 TIME:   0.004 TIME LEFT:  2.00D  GRAD.:     0.171 HEAT:  24.17794
 CYCLE:    40 TIME:   0.004 TIME LEFT:  2.00D  GRAD.:     0.237 HEAT:  24.17781
 CYCLE:    41 TIME:   0.004 TIME LEFT:  2.00D  GRAD.:     0.265 HEAT:  24.17771
 CYCLE:    42 TIME:   0.008 TIME LEFT:  2.00D  GRAD.:     0.271 HEAT:  24.17755
 CYCLE:    43 TIME:   0.004 TIME LEFT:  2.00D  GRAD.:     0.280 HEAT:  24.17739
 CYCLE:    44 TIME:   0.004 TIME LEFT:  2.00D  GRAD.:     0.362 HEAT:  24.17716
 CYCLE:    45 TIME:   0.004 TIME LEFT:  2.00D  GRAD.:     0.451 HEAT:  24.17687
 CYCLE:    46 TIME:   0.004 TIME LEFT:  2.00D  GRAD.:     0.555 HEAT:  24.17624
 CYCLE:    47 TIME:   0.008 TIME LEFT:  2.00D  GRAD.:     0.322 HEAT:  24.17559
 CYCLE:    48 TIME:   0.004 TIME LEFT:  2.00D  GRAD.:     0.215 HEAT:  24.17542
 CYCLE:    49 TIME:   0.004 TIME LEFT:  2.00D  GRAD.:     0.182 HEAT:  24.17534
 CYCLE:    50 TIME:   0.004 TIME LEFT:  2.00D  GRAD.:     0.151 HEAT:  24.17528
 CYCLE:    51 TIME:   0.008 TIME LEFT:  2.00D  GRAD.:     0.140 HEAT:  24.17526
 CYCLE:    52 TIME:   0.004 TIME LEFT:  2.00D  GRAD.:     0.069 HEAT:  24.17518
 CYCLE:    53 TIME:   0.004 TIME LEFT:  2.00D  GRAD.:     0.066 HEAT:  24.17516
 CYCLE:    54 TIME:   0.004 TIME LEFT:  2.00D  GRAD.:     0.059 HEAT:  24.17515
 CYCLE:    55 TIME:   0.008 TIME LEFT:  2.00D  GRAD.:     0.278 HEAT:  24.17546
 CYCLE:    56 TIME:   0.004 TIME LEFT:  2.00D  GRAD.:     0.047 HEAT:  24.17511

     GRADIENT =  0.04706 IS LESS THAN CUTOFF =  0.05000



 -------------------------------------------------------------------------------
 pm3  precise nosym THREADS=1
 InChI=1S/C6H10/c1-5-3-4-6(5)2/h3-6H,1-2H3



     GEOMETRY OPTIMISED USING EIGENVECTOR FOLLOWING (EF).     
     SCF FIELD WAS ACHIEVED                                   


                              PM3 CALCULATION
                                                       MOPAC v23.1.2 MacOS
                                                       Tue Jun  3 16:35:31 2025




          FINAL HEAT OF FORMATION =         24.17511 KCAL/MOL =     101.14865 KJ/MOL


          COSMO AREA              =        135.45 SQUARE ANGSTROMS
          COSMO VOLUME            =        127.55 CUBIC ANGSTROMS

          GRADIENT NORM           =          0.04706          =       0.01176 PER ATOM
          IONIZATION POTENTIAL    =          9.888911 EV
          HOMO LUMO ENERGIES (EV) =         -9.889  1.062
          NO. OF FILLED LEVELS    =         17
          MOLECULAR WEIGHT        =         82.1450         POINT GROUP:  C1  

          MOLECULAR DIMENSIONS (Angstroms)

            Atom       Atom       Distance
            H    14    H    12     5.60274
            H    11    H    15     4.12924
            H    10    H    13     2.85907


          SCF CALCULATIONS        =         64

          WALL-CLOCK TIME         =      0.305 SECONDS
          COMPUTATION TIME        =      0.155 SECONDS




   ATOM   CHEMICAL          X               Y               Z
  NUMBER   SYMBOL      (ANGSTROMS)     (ANGSTROMS)     (ANGSTROMS)

     1       C          0.65714352  *  -0.06417986  *   0.44242584  *
     2       C         -0.63597766  *  -0.05753589  *  -0.47299252  *
     3       C          1.95832954  *  -0.30085652  *  -0.27005811  *
     4       C         -1.73350163  *  -0.99516064  *  -0.05707553  *
     5       C          0.31516718  *   1.39352137  *   0.73006794  *
     6       C         -0.79825351  *   1.39142714  *  -0.02725077  *
     7       H          0.56053286  *  -0.72205427  *   1.33102152  *
     8       H         -0.40729117  *  -0.16205446  *  -1.55396460  *
     9       H         -1.45079549  *  -2.03876648  *  -0.24566657  *
    10       H          2.06615160  *   0.34092372  *  -1.15450756  *
    11       H          2.03760683  *  -1.34227787  *  -0.60731162  *
    12       H          2.81126289  *  -0.09724754  *   0.38994961  *
    13       H         -1.96890567  *  -0.90558538  *   1.01171014  *
    14       H         -2.65655056  *  -0.79259126  *  -0.61516012  *
    15       H          0.83794037  *   2.11885422  *   1.33840748  *
    16       H         -1.57095381  *   2.10726338  *  -0.27210388  *

                             CARTESIAN COORDINATES

   1    C        0.657143516    -0.064179864     0.442425841
   2    C       -0.635977664    -0.057535893    -0.472992523
   3    C        1.958329542    -0.300856516    -0.270058111
   4    C       -1.733501631    -0.995160640    -0.057075533
   5    C        0.315167178     1.393521365     0.730067936
   6    C       -0.798253506     1.391427139    -0.027250770
   7    H        0.560532858    -0.722054269     1.331021522
   8    H       -0.407291170    -0.162054463    -1.553964599
   9    H       -1.450795490    -2.038766481    -0.245666567
  10    H        2.066151599     0.340923724    -1.154507562
  11    H        2.037606826    -1.342277869    -0.607311624
  12    H        2.811262887    -0.097247543     0.389949613
  13    H       -1.968905669    -0.905585384     1.011710142
  14    H       -2.656550555    -0.792591264    -0.615160119
  15    H        0.837940372     2.118854220     1.338407485
  16    H       -1.570953809     2.107263380    -0.272103881


           Empirical Formula: C6 H10  =    16 atoms



      MOLECULAR POINT GROUP   :   C1  


                  EIGENVALUES  
 -40.45907 -30.83047 -28.94688 -22.03062 -21.91920 -17.76572 -16.98035 -15.56962
 -15.44551 -14.09499 -13.77817 -13.21664 -13.03926 -12.29030 -11.36476 -11.34192
  -9.88891   1.06182   3.18331   3.27268   3.37441   3.83424   3.96243   4.06977
   4.22991   4.32720   4.47420   4.56634   4.63786   4.79698   4.92323   5.20320
   5.23805   6.20230


              NET ATOMIC CHARGES AND DIPOLE CONTRIBUTIONS

  ATOM NO.   TYPE          CHARGE      No. of ELECS.   s-Pop       p-Pop       
    1          C          -0.068649        4.0686     1.18897     2.87968
    2          C          -0.068687        4.0687     1.18897     2.87971
    3          C          -0.097623        4.0976     1.13378     2.96384
    4          C          -0.097627        4.0976     1.13378     2.96385
    5          C          -0.158951        4.1590     1.22025     2.93871
    6          C          -0.158947        4.1589     1.22024     2.93871
    7          H           0.077870        0.9221     0.92213
    8          H           0.077860        0.9221     0.92214
    9          H           0.039825        0.9602     0.96017
   10          H           0.042305        0.9577     0.95769
   11          H           0.039817        0.9602     0.96018
   12          H           0.040474        0.9595     0.95953
   13          H           0.042312        0.9577     0.95769
   14          H           0.040460        0.9595     0.95954
   15          H           0.124783        0.8752     0.87522
   16          H           0.124777        0.8752     0.87522
 DIPOLE           X         Y         Z       TOTAL
 POINT-CHG.     0.037    -0.211    -0.053     0.220
 HYBRID        -0.011     0.063     0.016     0.065
 SUM            0.026    -0.148    -0.038     0.155


          ATOMIC ORBITAL ELECTRON POPULATIONS

     Atom    s        px        py        pz   
    1  C   1.18897   0.94570   0.95357   0.98041
    2  C   1.18897   0.95292   0.93788   0.98891
    3  C   1.13378   0.95984   1.00686   0.99715
    4  C   1.13378   0.97399   0.98175   1.00811
    5  C   1.22025   0.97822   0.96947   0.99102
    6  C   1.22024   0.98157   0.96867   0.98847
    7  H   0.92213
    8  H   0.92214
    9  H   0.96017
   10  H   0.95769
   11  H   0.96018
   12  H   0.95953
   13  H   0.95769
   14  H   0.95954
   15  H   0.87522
   16  H   0.87522
 *******************************************************************************
 **                                                                           **
 **                              MOPAC v23.1.2                                **
 **                                                                           **
 *******************************************************************************
 **          Digital Object Identifier (DOI): 10.5281/zenodo.6511958          **
 **    Visit the DOI location for information on how to cite this program.    **
 *******************************************************************************

                              PM3 CALCULATION RESULTS

 *******************************************************************************
 *  CALCULATION DONE: (MAX THREADS = 1)              Tue Jun  3 16:35:31 2025  *
 *  PM3        - The PM3 Hamiltonian to be used
 *  OLDGEO     - PREVIOUS GEOMETRY TO BE USED
 *  PRECISE    - TIGHTER CRITERIA TO BE USED
 *  NOSYM      - POINT-GROUP SYMMETRY SET TO C1
 *  THREADS=1  - MULTI-THREADING NOT USED
 *  T=         - A TIME OF 172800.0 SECONDS REQUESTED
 *  DUMP=N     - RESTART FILE WRITTEN EVERY 7200.0 SECONDS REQUESTED
 *  THERMO     - THERMODYNAMIC QUANTITIES TO BE CALCULATED
 *******************************************************************************
oldgeo thermo nosym precise THREADS=1  pm3
 InChI=1S/C6H10/c1-5-3-4-6(5)2/h3-6H,1-2H3

   ATOM   CHEMICAL          X               Y               Z
  NUMBER   SYMBOL      (ANGSTROMS)     (ANGSTROMS)     (ANGSTROMS)

     1       C          0.65714352  *  -0.06417986  *   0.44242584  *
     2       C         -0.63597766  *  -0.05753589  *  -0.47299252  *
     3       C          1.95832954  *  -0.30085652  *  -0.27005811  *
     4       C         -1.73350163  *  -0.99516064  *  -0.05707553  *
     5       C          0.31516718  *   1.39352137  *   0.73006794  *
     6       C         -0.79825351  *   1.39142714  *  -0.02725077  *
     7       H          0.56053286  *  -0.72205427  *   1.33102152  *
     8       H         -0.40729117  *  -0.16205446  *  -1.55396460  *
     9       H         -1.45079549  *  -2.03876648  *  -0.24566657  *
    10       H          2.06615160  *   0.34092372  *  -1.15450756  *
    11       H          2.03760683  *  -1.34227787  *  -0.60731162  *
    12       H          2.81126289  *  -0.09724754  *   0.38994961  *
    13       H         -1.96890567  *  -0.90558538  *   1.01171014  *
    14       H         -2.65655056  *  -0.79259126  *  -0.61516012  *
    15       H          0.83794037  *   2.11885422  *   1.33840748  *
    16       H         -1.57095381  *   2.10726338  *  -0.27210388  *



          CARTESIAN COORDINATES 

    NO.       ATOM           X           Y           Z

     1         C          0.6571     -0.0642      0.4424
     2         C         -0.6360     -0.0575     -0.4730
     3         C          1.9583     -0.3009     -0.2701
     4         C         -1.7335     -0.9952     -0.0571
     5         C          0.3152      1.3935      0.7301
     6         C         -0.7983      1.3914     -0.0273
     7         H          0.5605     -0.7221      1.3310
     8         H         -0.4073     -0.1621     -1.5540
     9         H         -1.4508     -2.0388     -0.2457
    10         H          2.0662      0.3409     -1.1545
    11         H          2.0376     -1.3423     -0.6073
    12         H          2.8113     -0.0972      0.3899
    13         H         -1.9689     -0.9056      1.0117
    14         H         -2.6566     -0.7926     -0.6152
    15         H          0.8379      2.1189      1.3384
    16         H         -1.5710      2.1073     -0.2721

  H: (PM3): J. J. P. STEWART, J. COMP. CHEM. 10, 209 (1989).
  C: (PM3): J. J. P. STEWART, J. COMP. CHEM. 10, 209 (1989).

           Empirical Formula: C6 H10  =    16 atoms



      MOLECULAR POINT GROUP   :   C1  


      RHF CALCULATION, NO. OF DOUBLY OCCUPIED LEVELS = 17



          HEAT OF FORMATION =      24.175109 KCALS/MOLE


          CARTESIAN COORDINATE DERIVATIVES

   NUMBER  ATOM         X            Y            Z

     1       C     -0.008469     0.002693     0.002178
     2       C     -0.002063     0.002073    -0.001509
     3       C     -0.000145     0.002811    -0.002490
     4       C      0.004023    -0.003533    -0.003981
     5       C      0.001647    -0.007177    -0.001389
     6       C      0.004920    -0.000470     0.001493
     7       H      0.013226    -0.009153     0.001677
     8       H      0.006868    -0.011058     0.010112
     9       H     -0.008831     0.007920    -0.010175
    10       H      0.003768    -0.003439     0.006871
    11       H      0.004756    -0.007596    -0.010917
    12       H     -0.010105     0.011599    -0.001370
    13       H      0.013656     0.002268     0.006627
    14       H     -0.013892     0.000703    -0.005876
    15       H     -0.002546     0.005056    -0.001284
    16       H     -0.006812     0.007304     0.010034



          GRADIENT NORM =   0.04714

          MOLECULAR WEIGHT =   82.15



          ROTATIONAL CONSTANTS IN CM(-1)

          A =    0.17935717   B =    0.10971036   C =    0.07941499



           PRINCIPAL MOMENTS OF INERTIA IN UNITS OF 10**(-40)*GRAM-CM**2

          A =      156.0727   B =      255.1514   C =      352.4870


          ORIENTATION OF MOLECULE IN FORCE CALCULATION

    NO.       ATOM         X         Y         Z

     1          C      -0.7922    0.1150    0.2260
     2          C       0.7921    0.1150    0.2260
     3          C      -1.4436    1.4687    0.2260
     4          C       1.4437   -0.6815    1.3205
     5          C      -0.6732   -0.5627   -1.1346
     6          C       0.6731   -0.5862   -1.1226
     7          H      -1.2295   -0.5410    1.0071
     8          H       1.2296    1.1325    0.1554
     9          H       1.3175   -0.1887    2.2930
    10          H      -1.0178    2.1304   -0.5399
    11          H      -1.3178    1.9650    1.1968
    12          H      -2.5202    1.3875    0.0289
    13          H       1.0186   -1.6904    1.4047
    14          H       2.5203   -0.7924    1.1388
    15          H      -1.4483   -0.8802   -1.8186
    16          H       1.4483   -0.9523   -1.7819


    FIRST DERIVATIVES WILL BE USED IN THE CALCULATION OF SECOND DERIVATIVES

          ESTIMATED TIME TO COMPLETE CALCULATION =        0.75 SECONDS

    FOR POINT-GROUP C1   THERE ARE   1 UNIQUE SYMMETRY FUNCTIONS.

 STEP:   1 TIME =     0.01 SECS, INTEGRAL =      0.01 TIME LEFT: 172799.98
 STEP:   2 TIME =     0.01 SECS, INTEGRAL =      0.02 TIME LEFT: 172799.97
 STEP:   3 TIME =     0.01 SECS, INTEGRAL =      0.03 TIME LEFT: 172799.96
 STEP:   4 TIME =     0.01 SECS, INTEGRAL =      0.04 TIME LEFT: 172799.96
 STEP:   5 TIME =     0.01 SECS, INTEGRAL =      0.05 TIME LEFT: 172799.95
 STEP:   6 TIME =     0.01 SECS, INTEGRAL =      0.06 TIME LEFT: 172799.93
 STEP:   7 TIME =     0.01 SECS, INTEGRAL =      0.07 TIME LEFT: 172799.92
 STEP:   8 TIME =     0.01 SECS, INTEGRAL =      0.09 TIME LEFT: 172799.91
 STEP:   9 TIME =     0.02 SECS, INTEGRAL =      0.10 TIME LEFT: 172799.89
 STEP:  10 TIME =     0.01 SECS, INTEGRAL =      0.11 TIME LEFT: 172799.88
 STEP:  11 TIME =     0.01 SECS, INTEGRAL =      0.12 TIME LEFT: 172799.87
 STEP:  12 TIME =     0.01 SECS, INTEGRAL =      0.14 TIME LEFT: 172799.86
 STEP:  13 TIME =     0.01 SECS, INTEGRAL =      0.15 TIME LEFT: 172799.85
 STEP:  14 TIME =     0.01 SECS, INTEGRAL =      0.16 TIME LEFT: 172799.84
 STEP:  15 TIME =     0.01 SECS, INTEGRAL =      0.17 TIME LEFT: 172799.83
 STEP:  16 TIME =     0.01 SECS, INTEGRAL =      0.18 TIME LEFT: 172799.82
 STEP:  17 TIME =     0.01 SECS, INTEGRAL =      0.19 TIME LEFT: 172799.80
 STEP:  18 TIME =     0.01 SECS, INTEGRAL =      0.20 TIME LEFT: 172799.80
 STEP:  19 TIME =     0.01 SECS, INTEGRAL =      0.21 TIME LEFT: 172799.79
 STEP:  20 TIME =     0.01 SECS, INTEGRAL =      0.22 TIME LEFT: 172799.77
 STEP:  21 TIME =     0.01 SECS, INTEGRAL =      0.23 TIME LEFT: 172799.76
 STEP:  22 TIME =     0.01 SECS, INTEGRAL =      0.25 TIME LEFT: 172799.75
 STEP:  23 TIME =     0.01 SECS, INTEGRAL =      0.26 TIME LEFT: 172799.74
 STEP:  24 TIME =     0.01 SECS, INTEGRAL =      0.27 TIME LEFT: 172799.73
 STEP:  25 TIME =     0.02 SECS, INTEGRAL =      0.29 TIME LEFT: 172799.71
 STEP:  26 TIME =     0.01 SECS, INTEGRAL =      0.30 TIME LEFT: 172799.70
 STEP:  27 TIME =     0.01 SECS, INTEGRAL =      0.30 TIME LEFT: 172799.69
 STEP:  28 TIME =     0.01 SECS, INTEGRAL =      0.32 TIME LEFT: 172799.68
 STEP:  29 TIME =     0.01 SECS, INTEGRAL =      0.33 TIME LEFT: 172799.67
 STEP:  30 TIME =     0.01 SECS, INTEGRAL =      0.34 TIME LEFT: 172799.66
 STEP:  31 TIME =     0.01 SECS, INTEGRAL =      0.35 TIME LEFT: 172799.64
 STEP:  32 TIME =     0.01 SECS, INTEGRAL =      0.36 TIME LEFT: 172799.63
 STEP:  33 TIME =     0.01 SECS, INTEGRAL =      0.37 TIME LEFT: 172799.62
 STEP:  34 TIME =     0.01 SECS, INTEGRAL =      0.38 TIME LEFT: 172799.62
 STEP:  35 TIME =     0.02 SECS, INTEGRAL =      0.39 TIME LEFT: 172799.60
 STEP:  36 TIME =     0.01 SECS, INTEGRAL =      0.41 TIME LEFT: 172799.59
 STEP:  37 TIME =     0.01 SECS, INTEGRAL =      0.42 TIME LEFT: 172799.58
 STEP:  38 TIME =     0.01 SECS, INTEGRAL =      0.43 TIME LEFT: 172799.57
 STEP:  39 TIME =     0.01 SECS, INTEGRAL =      0.44 TIME LEFT: 172799.56
 STEP:  40 TIME =     0.01 SECS, INTEGRAL =      0.45 TIME LEFT: 172799.55
 STEP:  41 TIME =     0.01 SECS, INTEGRAL =      0.46 TIME LEFT: 172799.54
 STEP:  42 TIME =     0.01 SECS, INTEGRAL =      0.47 TIME LEFT: 172799.53
 STEP:  43 TIME =     0.01 SECS, INTEGRAL =      0.48 TIME LEFT: 172799.52
 STEP:  44 TIME =     0.01 SECS, INTEGRAL =      0.49 TIME LEFT: 172799.50
 STEP:  45 TIME =     0.02 SECS, INTEGRAL =      0.51 TIME LEFT: 172799.49
 STEP:  46 TIME =     0.01 SECS, INTEGRAL =      0.52 TIME LEFT: 172799.48
 STEP:  47 TIME =     0.01 SECS, INTEGRAL =      0.53 TIME LEFT: 172799.46
 STEP:  48 TIME =     0.01 SECS, INTEGRAL =      0.54 TIME LEFT: 172799.45

(To convert to Hartree/Bohr^2, multiply by (10^(-21) x N x a0^2)/(4.184 x 627.51) =  0.0642)


           FORCE MATRIX IN MILLIDYNES/ANGSTROM


                  C  1       C  2       C  3       C  4       C  5       C  6
 ------------------------------------------------------------------------------
     C    1  14.390292
     C    2   2.618632  14.392129
     C    3   4.706094   0.498068  14.538967
     C    4   0.497961   4.707359   0.029654  14.533096
     C    5   3.912524   2.229350   0.561805   0.050322  18.371279
     C    6   2.229309   3.913192   0.050188   0.562250  10.395828  18.371766
     H    7   4.425172   0.422738   0.428804   0.026026   0.413882   0.043816
     H    8   0.422700   4.425154   0.026029   0.429063   0.043759   0.413889
     H    9   0.010300   0.453289   0.002233   4.743692   0.006186   0.048140
     H   10   0.469818   0.018966   4.731027   0.000921   0.013113   0.002876
     H   11   0.453227   0.010322   4.744572   0.002243   0.048183   0.006220
     H   12   0.453356   0.045379   4.745744   0.005607   0.011266   0.003895
     H   13   0.019026   0.469555   0.000935   4.731079   0.002841   0.013135
     H   14   0.045318   0.453288   0.005607   4.746132   0.003887   0.011247
     H   15   0.341043   0.117572   0.009007   0.017324   5.280251   0.423056
     H   16   0.116956   0.341134   0.017620   0.008949   0.423051   5.280682


                  H  7       H  8       H  9       H 10       H 11       H 12
 ------------------------------------------------------------------------------
     H    7   4.938769
     H    8   0.023180   4.939004
     H    9   0.003641   0.027683   5.468456
     H   10   0.045691   0.018898   0.000260   5.463686
     H   11   0.027582   0.003632   0.001052   0.572294   5.468955
     H   12   0.027482   0.002396   0.000475   0.572781   0.568193   5.470477
     H   13   0.018830   0.045485   0.571879   0.000442   0.000251   0.000367
     H   14   0.002386   0.027635   0.568101   0.000375   0.000477   0.001160
     H   15   0.005810   0.014965   0.002652   0.002220   0.001650   0.003113
     H   16   0.014953   0.005803   0.001643   0.001463   0.002684   0.001280


                  H 13       H 14       H 15       H 16
 ------------------------------------------------------
     H   13   5.464085
     H   14   0.572864   5.471057
     H   15   0.001427   0.001277   5.665454
     H   16   0.002210   0.003110   0.031311   5.665926


          HEAT OF FORMATION =      24.175109 KCALS/MOLE

          ZERO POINT ENERGY      89.147 KCAL/MOL


           NORMAL COORDINATE ANALYSIS (Total motion = 1 Angstrom)


   Root No.       1         2         3         4         5         6         7         8

                 1 A       2 A       3 A       4 A       5 A       6 A       7 A       8 A   

                 146.5     155.5     180.5     304.5     308.1     379.9     573.7     760.0
  
           1   -0.0006   -0.0037    0.0005    0.0030   -0.0366    0.0236    0.0081   -0.0165
           2   -0.0025   -0.0039   -0.0057   -0.0246   -0.0343   -0.0124   -0.0281   -0.0019
           3   -0.0010   -0.0037   -0.0253    0.0028    0.0003    0.0269    0.0302    0.0320
           4   -0.0012   -0.0035   -0.0007   -0.0034   -0.0366    0.0235   -0.0081   -0.0166
           5    0.0011    0.0008   -0.0171    0.0166   -0.0205   -0.0290    0.0410   -0.0270
           6    0.0007    0.0068   -0.0192   -0.0179    0.0277   -0.0058   -0.0050   -0.0173
           7    0.0070   -0.0064    0.0088    0.0470    0.0376    0.0009    0.0283   -0.0150
           8    0.0012   -0.0053   -0.0036   -0.0050    0.0034   -0.0260   -0.0358    0.0230
           9   -0.0010   -0.0003    0.0483    0.0167   -0.0157   -0.0257   -0.0069    0.0088
          10   -0.0094   -0.0015   -0.0091   -0.0467    0.0379    0.0008   -0.0284   -0.0151
          11   -0.0033   -0.0035    0.0410    0.0166    0.0146    0.0056    0.0155    0.0065
          12    0.0024    0.0027    0.0256    0.0058    0.0064    0.0362   -0.0329   -0.0238
          13    0.0020    0.0077    0.0006   -0.0013   -0.0112   -0.0209    0.0006    0.0326
          14   -0.0023    0.0047    0.0179   -0.0462    0.0050    0.0362    0.0332   -0.0147
          15   -0.0009   -0.0073   -0.0371    0.0124   -0.0181    0.0034    0.0017    0.0265
          16    0.0023    0.0076   -0.0002    0.0013   -0.0112   -0.0209   -0.0006    0.0326
          17    0.0055    0.0086   -0.0401    0.0374    0.0173    0.0186   -0.0182   -0.0301
          18   -0.0018    0.0021   -0.0073   -0.0299    0.0068   -0.0313    0.0278   -0.0037
          19    0.0009   -0.0076    0.0000    0.0093   -0.0727    0.0353    0.0311   -0.0237
          20    0.0002   -0.0088   -0.0353   -0.0118   -0.0328   -0.0083   -0.0481    0.0348
          21    0.0018   -0.0100   -0.0489    0.0168   -0.0223    0.0358    0.0255    0.0573
          22   -0.0045   -0.0061   -0.0004   -0.0101   -0.0726    0.0353   -0.0310   -0.0238
          23    0.0028    0.0024   -0.0186    0.0206   -0.0014   -0.0338    0.0489   -0.0258
          24    0.0083    0.0129   -0.0566    0.0009    0.0396   -0.0144   -0.0239   -0.0619
          25   -0.1113    0.1631   -0.0346   -0.0559    0.0612   -0.0323   -0.0191   -0.0254
          26   -0.0600    0.0842    0.0874    0.0458    0.0157    0.0547   -0.0233    0.0393
          27    0.0180   -0.0205   -0.0008   -0.0096    0.0089    0.0083   -0.0133   -0.0420
          28   -0.1201   -0.0791   -0.0081    0.0861    0.0910   -0.0028    0.0636    0.0046
          29   -0.0660   -0.0377    0.0285   -0.0040   -0.0303   -0.0535   -0.0818   -0.0038
          30   -0.1295   -0.0686    0.0669    0.0389   -0.0164   -0.0521   -0.0291   -0.0041
          31    0.1815    0.0854    0.0409    0.0578    0.0616   -0.0325    0.0192   -0.0254
          32    0.0788    0.0353   -0.0495   -0.0342    0.0027    0.0253    0.0031    0.0571
          33   -0.0631   -0.0329    0.0680    0.0309   -0.0185   -0.0489   -0.0267   -0.0070
          34   -0.0279   -0.0250    0.0025    0.0467    0.0352    0.0069    0.0331   -0.0142
          35   -0.0048   -0.0140    0.0137    0.0468    0.0758   -0.0674   -0.0237    0.0409
          36    0.1937    0.1051    0.0764    0.0015   -0.0284   -0.0450   -0.0334   -0.0051
          37    0.0613   -0.1253    0.0030   -0.0862    0.0922   -0.0032   -0.0637    0.0046
          38   -0.0395    0.0583    0.0397    0.0341   -0.0050    0.0109    0.0246    0.0011
          39   -0.0751    0.1209    0.0672    0.0208    0.0333    0.0742   -0.0830    0.0055
          40    0.0108   -0.0344   -0.0040   -0.0467    0.0356    0.0068   -0.0331   -0.0143
          41    0.0873   -0.1587    0.0473   -0.0270    0.0685   -0.0035   -0.0132    0.0282
          42    0.0681   -0.0992    0.0522    0.0373   -0.0444    0.0808   -0.0389   -0.0301
          43    0.0038    0.0138    0.0024   -0.0036    0.0046   -0.0478   -0.0038    0.0468
          44   -0.0067    0.0071    0.0569   -0.1115    0.0275    0.1017    0.1182    0.1832
          45   -0.0008   -0.0152   -0.0572    0.0454   -0.0464    0.0032   -0.0322   -0.0805
          46    0.0039    0.0138   -0.0017    0.0038    0.0046   -0.0478    0.0038    0.0467
          47    0.0122    0.0152   -0.0791    0.1027    0.0529    0.0576   -0.0957    0.1731
          48   -0.0036    0.0056    0.0126   -0.0631    0.0056   -0.0843    0.0767   -0.1009


   Root No.       9        10        11        12        13        14        15        16

                 9 A      10 A      11 A      12 A      13 A      14 A      15 A      16 A   

                 813.9     825.4     929.4     938.8     952.8     980.0    1028.0    1029.1
  
           1    0.0142   -0.0501   -0.0034    0.0001   -0.0042    0.0048    0.0098    0.0151
           2    0.0062   -0.0204   -0.0031   -0.0006    0.0055    0.0065    0.0065    0.0013
           3   -0.0312   -0.0013   -0.0100   -0.0057   -0.0106   -0.0017   -0.0196   -0.0025
           4    0.0137    0.0502   -0.0033   -0.0002    0.0042    0.0047    0.0096   -0.0153
           5    0.0288    0.0113    0.0063   -0.0042   -0.0118    0.0051    0.0196   -0.0032
           6    0.0135   -0.0171    0.0085   -0.0037   -0.0018   -0.0042    0.0063   -0.0005
           7    0.0092   -0.0256   -0.0065    0.0009    0.0078   -0.0216   -0.0052   -0.0161
           8   -0.0103    0.0026   -0.0073   -0.0028   -0.0190   -0.0127    0.0012    0.0022
           9   -0.0104   -0.0028   -0.0170   -0.0166   -0.0206   -0.0010    0.0171    0.0016
          10    0.0089    0.0256   -0.0065   -0.0010   -0.0076   -0.0215   -0.0051    0.0163
          11    0.0024   -0.0038    0.0097   -0.0115   -0.0055   -0.0068   -0.0131    0.0003
          12    0.0144    0.0006    0.0160   -0.0117   -0.0277    0.0108   -0.0110    0.0029
          13   -0.0250    0.0001    0.0164   -0.0019   -0.0007   -0.0024   -0.0017   -0.0038
          14   -0.0317    0.0048    0.0163   -0.0228    0.0357    0.0007   -0.0116   -0.0087
          15   -0.0068    0.0125    0.0332    0.0211    0.0159   -0.0063    0.0059   -0.0128
          16   -0.0250   -0.0003    0.0163    0.0024    0.0005   -0.0024   -0.0017    0.0039
          17   -0.0133    0.0071   -0.0182    0.0301   -0.0080    0.0054   -0.0115   -0.0050
          18    0.0295    0.0115   -0.0322   -0.0068    0.0385    0.0033    0.0057   -0.0147
          19    0.0313   -0.0440   -0.0513    0.0166   -0.0501    0.1121   -0.0049    0.0380
          20    0.0215   -0.0435   -0.0140    0.0536   -0.0048    0.0057   -0.0961   -0.0188
          21   -0.0073   -0.0211   -0.0448    0.0497   -0.0434    0.0582   -0.1140   -0.0065
          22    0.0309    0.0445   -0.0504   -0.0180    0.0499    0.1117   -0.0048   -0.0382
          23    0.0185    0.0086    0.0275    0.0093   -0.0322   -0.0436    0.0353    0.0052
          24   -0.0126   -0.0477    0.0355    0.0732   -0.0296   -0.0385    0.1438   -0.0219
          25    0.0330   -0.0457    0.0594   -0.0416   -0.0571    0.0541   -0.0300   -0.0161
          26   -0.0669    0.0063   -0.0739    0.0750    0.0924   -0.0153    0.0696   -0.0113
          27    0.0514   -0.0129    0.0652   -0.0586   -0.0828    0.0239   -0.0539    0.0051
          28   -0.0293    0.0644   -0.0022   -0.0317   -0.0234    0.0792    0.0451    0.0364
          29    0.0531   -0.0472    0.0354    0.0701    0.0477   -0.0698   -0.0802   -0.0311
          30    0.0250    0.0019    0.0232    0.0307    0.0226    0.0032   -0.0285   -0.0003
          31    0.0326    0.0462    0.0588    0.0431    0.0563    0.0546   -0.0298    0.0167
          32   -0.0809   -0.0147   -0.0946   -0.0940   -0.1203   -0.0289    0.0847    0.0091
          33    0.0239   -0.0024    0.0208    0.0267    0.0258   -0.0016   -0.0246   -0.0056
          34    0.0042   -0.0360   -0.0174   -0.0080   -0.0001   -0.0300    0.0019   -0.0203
          35   -0.0248    0.1576    0.0585    0.0105   -0.0164    0.1385    0.0178    0.0868
          36    0.0240   -0.0007    0.0218    0.0286    0.0245   -0.0010   -0.0274   -0.0036
          37   -0.0287   -0.0647   -0.0029    0.0315    0.0230    0.0794    0.0448   -0.0376
          38    0.0108    0.0293    0.0024   -0.0163   -0.0095   -0.0436   -0.0240    0.0187
          39   -0.0572   -0.0372   -0.0440    0.0735    0.0520    0.0547    0.0812   -0.0272
          40    0.0039    0.0360   -0.0176    0.0075    0.0004   -0.0299    0.0021    0.0204
          41   -0.0331   -0.0937    0.0166    0.0174    0.0289    0.0825    0.0322   -0.0550
          42    0.0047    0.1268   -0.0607    0.0238    0.0024   -0.1111    0.0023    0.0684
          43   -0.0156    0.0386   -0.0655   -0.0060   -0.0299    0.0127   -0.0479   -0.1835
          44    0.1464    0.0070    0.0520    0.1438   -0.0745   -0.0118    0.0556    0.0805
          45   -0.1012   -0.0333    0.1094   -0.0514    0.1016   -0.0176    0.0264    0.1481
          46   -0.0154   -0.0387   -0.0654    0.0044    0.0304    0.0132   -0.0450    0.1844
          47    0.1681   -0.0292   -0.0533   -0.1276    0.1264    0.0081    0.0119    0.0724
          48   -0.0587   -0.0145   -0.1088    0.0833    0.0005    0.0201   -0.0577    0.1533


   Root No.      17        18        19        20        21        22        23        24

                17 A      18 A      19 A      20 A      21 A      22 A      23 A      24 A   

                1039.6    1137.4    1151.3    1152.6    1190.3    1190.6    1228.1    1330.6
  
           1    0.0111    0.0130    0.0228   -0.0449   -0.0091   -0.0181   -0.0326    0.0098
           2   -0.0008    0.0346   -0.0209   -0.0211    0.0138   -0.0245    0.0155   -0.0332
           3    0.0077   -0.0111    0.0249   -0.0162   -0.0569   -0.0040   -0.0100   -0.0380
           4   -0.0111   -0.0130    0.0205    0.0460    0.0004   -0.0196   -0.0326    0.0098
           5    0.0069   -0.0293   -0.0325   -0.0023   -0.0552    0.0060    0.0172    0.0112
           6    0.0040    0.0214    0.0035   -0.0264   -0.0110    0.0274   -0.0066    0.0492
           7   -0.0110   -0.0071   -0.0122    0.0127    0.0036    0.0047    0.0122    0.0045
           8   -0.0008   -0.0331    0.0262    0.0022   -0.0020    0.0158   -0.0004   -0.0066
           9   -0.0077    0.0139   -0.0177    0.0102    0.0114   -0.0015   -0.0023    0.0065
          10    0.0111    0.0071   -0.0115   -0.0133   -0.0012    0.0055    0.0122    0.0046
          11   -0.0058    0.0306    0.0295    0.0085    0.0143    0.0067    0.0017   -0.0092
          12   -0.0053   -0.0185   -0.0112    0.0072   -0.0005   -0.0126    0.0017    0.0016
          13    0.0008    0.0012   -0.0103   -0.0051   -0.0030    0.0162   -0.0017   -0.0098
          14    0.0168   -0.0062   -0.0030    0.0090    0.0069   -0.0090    0.0154    0.0170
          15   -0.0219    0.0007   -0.0021   -0.0064    0.0363   -0.0261    0.0367    0.0293
          16   -0.0008   -0.0012   -0.0105    0.0046    0.0100    0.0142   -0.0017   -0.0098
          17   -0.0276    0.0042    0.0005   -0.0105    0.0305    0.0070   -0.0206   -0.0136
          18    0.0007   -0.0046    0.0036    0.0037    0.0351    0.0129   -0.0341   -0.0309
          19    0.1292   -0.1139    0.0474   -0.0184    0.2175    0.1082    0.1269    0.0093
          20    0.0682    0.1494   -0.1516    0.1173   -0.0564   -0.0176   -0.0971    0.0564
          21    0.1321    0.0133   -0.0693    0.1120    0.0136    0.0749   -0.0089    0.0368
          22   -0.1295    0.1135    0.0463    0.0208   -0.1542    0.1670    0.1272    0.0094
          23    0.0670   -0.0769   -0.0343    0.0199    0.0097   -0.0795   -0.0500    0.0034
          24    0.1339    0.1283    0.1557    0.1689   -0.0483   -0.0163    0.0837   -0.0673
          25   -0.0364   -0.0285   -0.0016    0.0422   -0.0029   -0.0277    0.0161   -0.0648
          26    0.0313    0.0067   -0.0075   -0.0291   -0.0178    0.0259   -0.0267    0.0816
          27   -0.0282   -0.0119    0.0066    0.0329    0.0117   -0.0265    0.0203   -0.0590
          28    0.0169    0.0804   -0.0486   -0.0232    0.0332   -0.0341    0.0114   -0.0471
          29    0.0101   -0.1206    0.0941    0.0038   -0.0583    0.0499   -0.0151    0.0458
          30    0.0164   -0.0124    0.0200   -0.0067   -0.0226    0.0068   -0.0124    0.0155
          31    0.0360    0.0285    0.0007   -0.0423   -0.0096   -0.0266    0.0160   -0.0646
          32   -0.0405   -0.0136   -0.0119    0.0433    0.0348    0.0280   -0.0321    0.0955
          33    0.0086   -0.0016    0.0024   -0.0041   -0.0093   -0.0027    0.0097   -0.0311
          34   -0.0182   -0.0050   -0.0227    0.0188    0.0137    0.0046    0.0220   -0.0079
          35    0.0752    0.0214    0.0651   -0.0731   -0.0317   -0.0203   -0.0882    0.0804
          36    0.0093   -0.0106    0.0196   -0.0051   -0.0241    0.0085   -0.0058    0.0052
          37   -0.0169   -0.0803   -0.0500    0.0208   -0.0460   -0.0217    0.0114   -0.0473
          38    0.0072    0.0607    0.0397   -0.0057    0.0254    0.0174    0.0011    0.0144
          39    0.0183   -0.1044   -0.0880   -0.0052   -0.0758   -0.0230    0.0196   -0.0465
          40    0.0184    0.0051   -0.0217   -0.0199   -0.0107    0.0084    0.0221   -0.0079
          41   -0.0369   -0.0214    0.0203    0.0400   -0.0094   -0.0172   -0.0471    0.0431
          42    0.0668    0.0113   -0.0609   -0.0652   -0.0316    0.0227    0.0748   -0.0683
          43    0.0343    0.0181    0.0338   -0.0657    0.0029   -0.1111    0.0858    0.0562
          44   -0.0800    0.0032   -0.0271    0.0135    0.0189    0.0408   -0.0154   -0.0210
          45   -0.0152   -0.0224   -0.0410    0.0573    0.0266    0.0946   -0.0473   -0.0289
          46   -0.0347   -0.0182    0.0303    0.0673   -0.0521   -0.1024    0.0858    0.0562
          47    0.0348   -0.0200    0.0152    0.0393   -0.0137   -0.0520    0.0291    0.0110
          48   -0.0740   -0.0107    0.0437    0.0468   -0.0107   -0.0918    0.0403    0.0340


   Root No.      25        26        27        28        29        30        31        32

                25 A      26 A      27 A      28 A      29 A      30 A      31 A      32 A   

                1353.9    1397.8    1398.2    1407.5    1407.7    1424.8    1454.3    1778.6
  
           1    0.0240    0.0023    0.0040   -0.0022    0.0016    0.0187   -0.0418   -0.0046
           2   -0.0209   -0.0054   -0.0066    0.0038   -0.0002   -0.0342    0.0533    0.0153
           3   -0.0178   -0.0024   -0.0023    0.0013    0.0006   -0.0178    0.0195    0.0181
           4   -0.0239    0.0038   -0.0026   -0.0015   -0.0024    0.0186    0.0419    0.0046
           5   -0.0021   -0.0020    0.0013    0.0009    0.0010   -0.0057   -0.0155    0.0056
           6   -0.0273    0.0082   -0.0037   -0.0037   -0.0014    0.0381    0.0548    0.0230
           7    0.0072   -0.0142   -0.0192   -0.0127    0.0105   -0.0230    0.0239    0.0017
           8   -0.0190    0.0009   -0.0054   -0.0124    0.0038    0.0452   -0.0466   -0.0058
           9    0.0015    0.0121    0.0176   -0.0182    0.0133   -0.0002   -0.0022   -0.0030
          10   -0.0073   -0.0212    0.0116   -0.0082   -0.0142   -0.0230   -0.0240   -0.0017
          11    0.0124   -0.0159    0.0120    0.0040    0.0105    0.0267    0.0257    0.0010
          12   -0.0146   -0.0096    0.0021    0.0156    0.0177   -0.0362   -0.0390   -0.0065
          13   -0.0040   -0.0007   -0.0008    0.0004   -0.0001   -0.0055    0.0090   -0.2105
          14    0.0106    0.0005    0.0015   -0.0002   -0.0001    0.0055   -0.0149    0.0032
          15    0.0165    0.0008    0.0020   -0.0003   -0.0000    0.0074   -0.0183   -0.0032
          16    0.0040   -0.0010    0.0004    0.0003    0.0003   -0.0055   -0.0090    0.2105
          17    0.0071   -0.0007    0.0005    0.0001    0.0001   -0.0027   -0.0060   -0.0045
          18    0.0182   -0.0018    0.0017    0.0004    0.0001   -0.0088   -0.0229    0.0007
          19   -0.0365    0.0015   -0.0109   -0.0043   -0.0040   -0.0162    0.0648   -0.0170
          20    0.0396    0.0040    0.0080   -0.0036    0.0043    0.0389   -0.0519   -0.0263
          21   -0.0022    0.0054    0.0019   -0.0064    0.0009    0.0226   -0.0080   -0.0142
          22    0.0365   -0.0034    0.0106   -0.0054    0.0024   -0.0161   -0.0648    0.0170
          23   -0.0251   -0.0004   -0.0037    0.0035   -0.0007    0.0046    0.0242    0.0040
          24    0.0304   -0.0091    0.0041    0.0049    0.0064   -0.0447   -0.0469   -0.0296
          25    0.0734    0.2267   -0.1360    0.0237    0.0325    0.0284    0.0246   -0.0038
          26   -0.0910    0.0832   -0.0644    0.0934    0.1203   -0.0735   -0.0623    0.0034
          27    0.0576   -0.0191    0.0180   -0.0380   -0.0488    0.0293    0.0204   -0.0080
          28   -0.0587   -0.0242   -0.0437    0.1657   -0.1265    0.0990   -0.0687   -0.0031
          29    0.0686    0.0411    0.0805    0.0796   -0.0447   -0.0863    0.0715    0.0050
          30    0.0306    0.0275    0.0549    0.1611   -0.1074   -0.0295    0.0348    0.0029
          31   -0.0733    0.1464    0.2168    0.0342   -0.0225    0.0283   -0.0244    0.0038
          32    0.1001    0.0354    0.0736    0.1190   -0.0726   -0.0678    0.0533   -0.0085
          33   -0.0397   -0.0325   -0.0603   -0.0739    0.0452    0.0427   -0.0384   -0.0020
          34   -0.0151    0.0231    0.0338   -0.0226    0.0167   -0.0068    0.0078   -0.0003
          35    0.1224   -0.0370   -0.0407   -0.0842    0.0709   -0.1083    0.0731    0.0027
          36    0.0205   -0.1363   -0.2027    0.1335   -0.1001    0.0263   -0.0057    0.0010
          37    0.0587   -0.0406    0.0292    0.1115    0.1772    0.0994    0.0690    0.0031
          38   -0.0156    0.0029   -0.0016   -0.0570   -0.0861   -0.0272   -0.0140   -0.0006
          39    0.0738   -0.0877    0.0684   -0.1141   -0.1497    0.0862    0.0783    0.0057
          40    0.0151    0.0354   -0.0210   -0.0154   -0.0236   -0.0069   -0.0078    0.0003
          41   -0.0553    0.1407   -0.0900   -0.1052   -0.1707   -0.0854   -0.0478   -0.0008
          42    0.1112    0.1656   -0.0923   -0.0094   -0.0058    0.0718    0.0559    0.0028
          43    0.0185    0.0017    0.0024   -0.0008    0.0002    0.0126   -0.0186   -0.1134
          44   -0.0028   -0.0017   -0.0009    0.0006    0.0003   -0.0096    0.0037   -0.0765
          45   -0.0003   -0.0012   -0.0004    0.0007   -0.0006   -0.0071    0.0014   -0.1532
          46   -0.0184    0.0026   -0.0014   -0.0007   -0.0006    0.0126    0.0187    0.1134
          47    0.0015   -0.0001    0.0002    0.0000   -0.0007    0.0001   -0.0011   -0.0789
          48   -0.0023    0.0023   -0.0000   -0.0008   -0.0005    0.0120    0.0039   -0.1520


   Root No.      33        34        35        36        37        38        39        40

                33 A      34 A      35 A      36 A      37 A      38 A      39 A      40 A   

                2954.4    2961.4    3080.0    3080.0    3083.7    3083.8    3178.7    3178.8
  
           1    0.0133   -0.0144   -0.0004    0.0005   -0.0002    0.0001   -0.0002   -0.0001
           2    0.0202   -0.0204   -0.0007    0.0005   -0.0001   -0.0002    0.0002    0.0001
           3   -0.0250    0.0245    0.0009   -0.0007   -0.0001    0.0003    0.0001    0.0001
           4   -0.0132   -0.0145   -0.0004   -0.0006    0.0001   -0.0002    0.0001   -0.0002
           5   -0.0320   -0.0319   -0.0010   -0.0011   -0.0003    0.0001   -0.0001   -0.0000
           6    0.0016    0.0021    0.0000    0.0000   -0.0000    0.0002    0.0001   -0.0002
           7   -0.0012    0.0010   -0.0157    0.0133   -0.0386    0.0013   -0.0065   -0.0047
           8   -0.0003    0.0004   -0.0080    0.0068   -0.0186    0.0006    0.0128    0.0093
           9    0.0014   -0.0012    0.0210   -0.0179   -0.0359    0.0010    0.0003    0.0002
          10    0.0012    0.0010   -0.0132   -0.0154   -0.0011   -0.0388    0.0048   -0.0065
          11    0.0014    0.0012   -0.0185   -0.0218    0.0007    0.0174   -0.0054    0.0073
          12    0.0006    0.0004   -0.0052   -0.0061    0.0011    0.0359    0.0076   -0.0104
          13    0.0008   -0.0001    0.0000   -0.0000   -0.0002    0.0000    0.0000   -0.0000
          14   -0.0001   -0.0001   -0.0001    0.0001    0.0002   -0.0000   -0.0000   -0.0000
          15   -0.0001    0.0006   -0.0000    0.0000    0.0001   -0.0000   -0.0000   -0.0001
          16   -0.0008   -0.0001    0.0000    0.0000   -0.0000   -0.0002   -0.0001   -0.0000
          17    0.0000   -0.0005   -0.0000   -0.0000    0.0000    0.0000    0.0000    0.0000
          18   -0.0001   -0.0003    0.0001    0.0001    0.0000   -0.0002   -0.0000    0.0001
          19   -0.1702    0.1730    0.0047   -0.0033   -0.0007    0.0012    0.0003    0.0003
          20   -0.2500    0.2473    0.0093   -0.0087   -0.0001    0.0010    0.0008    0.0015
          21    0.3013   -0.2987   -0.0091    0.0081   -0.0012   -0.0010   -0.0004   -0.0014
          22    0.1694    0.1738    0.0041    0.0040    0.0011   -0.0007   -0.0001    0.0004
          23    0.3889    0.3889    0.0108    0.0136    0.0014    0.0011   -0.0002    0.0022
          24   -0.0247   -0.0243   -0.0018   -0.0026   -0.0001    0.0007    0.0002   -0.0005
          25    0.0026    0.0021   -0.0216   -0.0254    0.0014    0.0383    0.0197   -0.0270
          26   -0.0055   -0.0052    0.0448    0.0531   -0.0066   -0.2033   -0.0670    0.0918
          27   -0.0074   -0.0069    0.0988    0.1170   -0.0123   -0.3777   -0.1173    0.1607
          28    0.0069   -0.0073    0.0981   -0.0834   -0.0147   -0.0001   -0.0784   -0.0568
          29    0.0079   -0.0064    0.1498   -0.1272   -0.0021   -0.0008   -0.1038   -0.0752
          30   -0.0118    0.0101   -0.1751    0.1487   -0.0272    0.0019    0.1323    0.0959
          31   -0.0025    0.0021   -0.0252    0.0215    0.0388   -0.0010   -0.0271   -0.0197
          32   -0.0028    0.0025   -0.0619    0.0531    0.1875   -0.0055   -0.0763   -0.0554
          33   -0.0088    0.0082   -0.1088    0.0935    0.3901   -0.0115   -0.1697   -0.1233
          34    0.0067   -0.0100    0.1141   -0.0963    0.4372   -0.0140    0.1842    0.1337
          35    0.0025   -0.0026    0.0083   -0.0070    0.0373   -0.0012    0.0247    0.0179
          36    0.0017   -0.0023    0.0334   -0.0283    0.0662   -0.0022    0.0346    0.0251
          37   -0.0069   -0.0074    0.0835    0.0978   -0.0010   -0.0121    0.0571   -0.0779
          38   -0.0141   -0.0120    0.1956    0.2290   -0.0005    0.0265    0.1226   -0.1674
          39   -0.0005   -0.0008   -0.0154   -0.0181    0.0006    0.0173   -0.0044    0.0060
          40   -0.0067   -0.0100    0.0953    0.1108    0.0131    0.4376   -0.1344    0.1839
          41   -0.0001    0.0003   -0.0187   -0.0218   -0.0009   -0.0317    0.0097   -0.0132
          42    0.0031    0.0035   -0.0221   -0.0258   -0.0020   -0.0694    0.0294   -0.0402
          43    0.0028    0.0025    0.0001    0.0003   -0.0001    0.0003   -0.0003    0.0006
          44    0.0014    0.0003    0.0000    0.0001    0.0002    0.0000   -0.0001    0.0003
          45    0.0025    0.0025    0.0002    0.0002    0.0001    0.0002   -0.0002    0.0006
          46   -0.0028    0.0025    0.0002   -0.0002    0.0002   -0.0002    0.0004    0.0005
          47    0.0012   -0.0019   -0.0001    0.0000   -0.0001    0.0000   -0.0002   -0.0002
          48    0.0026   -0.0017   -0.0002    0.0002   -0.0001   -0.0002   -0.0003   -0.0005


   Root No.      41        42

                41 A      42 A   

                3194.3    3214.7
  
           1    0.0004    0.0014
           2   -0.0001   -0.0006
           3   -0.0005   -0.0014
           4    0.0005   -0.0014
           5    0.0004   -0.0008
           6    0.0004   -0.0013
           7    0.0000    0.0000
           8   -0.0000    0.0000
           9   -0.0000    0.0000
          10    0.0000   -0.0000
          11    0.0000   -0.0000
          12    0.0000    0.0000
          13   -0.0278    0.0354
          14   -0.0113    0.0115
          15   -0.0243    0.0251
          16   -0.0275   -0.0356
          17    0.0129    0.0136
          18    0.0233    0.0242
          19   -0.0014   -0.0006
          20   -0.0016   -0.0015
          21    0.0019    0.0018
          22   -0.0014    0.0006
          23   -0.0025    0.0023
          24    0.0002   -0.0002
          25    0.0001   -0.0001
          26   -0.0004    0.0001
          27   -0.0007    0.0004
          28    0.0003    0.0002
          29    0.0003    0.0000
          30   -0.0004   -0.0002
          31    0.0001    0.0001
          32    0.0003    0.0003
          33    0.0007    0.0003
          34   -0.0010   -0.0007
          35   -0.0002    0.0001
          36   -0.0003   -0.0000
          37    0.0003   -0.0002
          38    0.0006   -0.0002
          39    0.0000   -0.0001
          40   -0.0011    0.0007
          41    0.0001   -0.0001
          42    0.0003    0.0001
          43    0.3272   -0.3207
          44    0.1345   -0.1314
          45    0.2891   -0.2830
          46    0.3251    0.3229
          47   -0.1535   -0.1525
          48   -0.2770   -0.2747


           MASS-WEIGHTED COORDINATE ANALYSIS (NORMAL COORDINATES)


   Root No.       1         2         3         4         5         6         7         8

                 1 A       2 A       3 A       4 A       5 A       6 A       7 A       8 A   

                 146.5     155.5     180.5     304.5     308.1     379.9     573.7     760.0
  
           1   -0.0049   -0.0336    0.0043    0.0233   -0.3033    0.1966    0.0647   -0.1261
           2   -0.0214   -0.0355   -0.0473   -0.1913   -0.2838   -0.1034   -0.2239   -0.0145
           3   -0.0088   -0.0339   -0.2098    0.0219    0.0021    0.2242    0.2403    0.2443
           4   -0.0108   -0.0318   -0.0057   -0.0266   -0.3030    0.1965   -0.0646   -0.1265
           5    0.0095    0.0076   -0.1414    0.1296   -0.1698   -0.2420    0.3260   -0.2062
           6    0.0062    0.0618   -0.1592   -0.1393    0.2293   -0.0486   -0.0396   -0.1318
           7    0.0606   -0.0585    0.0731    0.3662    0.3110    0.0074    0.2257   -0.1148
           8    0.0102   -0.0480   -0.0301   -0.0393    0.0283   -0.2166   -0.2847    0.1755
           9   -0.0083   -0.0030    0.3996    0.1301   -0.1297   -0.2147   -0.0545    0.0669
          10   -0.0814   -0.0136   -0.0750   -0.3640    0.3137    0.0066   -0.2260   -0.1152
          11   -0.0287   -0.0316    0.3396    0.1289    0.1206    0.0466    0.1234    0.0495
          12    0.0211    0.0242    0.2123    0.0448    0.0532    0.3017   -0.2622   -0.1813
          13    0.0174    0.0697    0.0049   -0.0101   -0.0928   -0.1748    0.0046    0.2490
          14   -0.0198    0.0427    0.1481   -0.3597    0.0414    0.3018    0.2645   -0.1125
          15   -0.0079   -0.0662   -0.3072    0.0967   -0.1495    0.0285    0.0136    0.2020
          16    0.0203    0.0690   -0.0016    0.0102   -0.0929   -0.1748   -0.0045    0.2490
          17    0.0471    0.0776   -0.3320    0.2915    0.1427    0.1551   -0.1445   -0.2299
          18   -0.0151    0.0186   -0.0607   -0.2326    0.0564   -0.2613    0.2215   -0.0280
          19    0.0023   -0.0200    0.0000    0.0210   -0.1742    0.0854    0.0717   -0.0523
          20    0.0005   -0.0231   -0.0847   -0.0265   -0.0787   -0.0201   -0.1110    0.0770
          21    0.0046   -0.0262   -0.1174    0.0380   -0.0535    0.0865    0.0588    0.1266
          22   -0.0111   -0.0161   -0.0009   -0.0227   -0.1740    0.0853   -0.0714   -0.0526
          23    0.0071    0.0063   -0.0447    0.0466   -0.0034   -0.0817    0.1127   -0.0570
          24    0.0209    0.0340   -0.1358    0.0021    0.0949   -0.0348   -0.0551   -0.1367
          25   -0.2787    0.4287   -0.0829   -0.1261    0.1467   -0.0781   -0.0440   -0.0562
          26   -0.1503    0.2212    0.2095    0.1033    0.0377    0.1323   -0.0538    0.0869
          27    0.0452   -0.0539   -0.0018   -0.0217    0.0213    0.0200   -0.0306   -0.0929
          28   -0.3007   -0.2079   -0.0195    0.1943    0.2182   -0.0068    0.1467    0.0102
          29   -0.1653   -0.0991    0.0683   -0.0089   -0.0726   -0.1293   -0.1886   -0.0083
          30   -0.3242   -0.1802    0.1605    0.0877   -0.0394   -0.1261   -0.0671   -0.0090
          31    0.4544    0.2245    0.0980    0.1304    0.1477   -0.0785    0.0444   -0.0562
          32    0.1972    0.0927   -0.1187   -0.0773    0.0066    0.0611    0.0071    0.1262
          33   -0.1579   -0.0865    0.1630    0.0696   -0.0443   -0.1182   -0.0617   -0.0155
          34   -0.0697   -0.0656    0.0060    0.1054    0.0843    0.0168    0.0762   -0.0313
          35   -0.0120   -0.0368    0.0329    0.1056    0.1817   -0.1629   -0.0547    0.0903
          36    0.4848    0.2762    0.1833    0.0033   -0.0681   -0.1089   -0.0770   -0.0112
          37    0.1536   -0.3293    0.0071   -0.1946    0.2210   -0.0077   -0.1469    0.0102
          38   -0.0989    0.1531    0.0951    0.0768   -0.0120    0.0263    0.0567    0.0025
          39   -0.1880    0.3177    0.1612    0.0470    0.0799    0.1795   -0.1915    0.0120
          40    0.0270   -0.0904   -0.0097   -0.1053    0.0854    0.0164   -0.0763   -0.0315
          41    0.2186   -0.4170    0.1134   -0.0609    0.1642   -0.0086   -0.0304    0.0623
          42    0.1705   -0.2608    0.1252    0.0842   -0.1064    0.1955   -0.0897   -0.0666
          43    0.0094    0.0361    0.0057   -0.0081    0.0111   -0.1155   -0.0087    0.1035
          44   -0.0167    0.0186    0.1366   -0.2515    0.0659    0.2458    0.2725    0.4049
          45   -0.0020   -0.0400   -0.1373    0.1024   -0.1113    0.0076   -0.0742   -0.1780
          46    0.0099    0.0362   -0.0040    0.0087    0.0110   -0.1156    0.0088    0.1032
          47    0.0305    0.0398   -0.1898    0.2317    0.1267    0.1392   -0.2206    0.3825
          48   -0.0089    0.0146    0.0303   -0.1423    0.0134   -0.2038    0.1768   -0.2230


   Root No.       9        10        11        12        13        14        15        16

                 9 A      10 A      11 A      12 A      13 A      14 A      15 A      16 A   

                 813.9     825.4     929.4     938.8     952.8     980.0    1028.0    1029.1
  
           1    0.1190   -0.4149   -0.0313    0.0012   -0.0377    0.0481    0.0990    0.1268
           2    0.0518   -0.1688   -0.0292   -0.0062    0.0494    0.0648    0.0652    0.0111
           3   -0.2617   -0.0106   -0.0935   -0.0558   -0.0946   -0.0174   -0.1972   -0.0211
           4    0.1151    0.4161   -0.0308   -0.0023    0.0376    0.0470    0.0966   -0.1287
           5    0.2414    0.0933    0.0588   -0.0407   -0.1061    0.0510    0.1969   -0.0271
           6    0.1135   -0.1418    0.0794   -0.0361   -0.0162   -0.0418    0.0633   -0.0044
           7    0.0770   -0.2117   -0.0607    0.0083    0.0697   -0.2143   -0.0525   -0.1353
           8   -0.0862    0.0216   -0.0685   -0.0277   -0.1705   -0.1266    0.0122    0.0183
           9   -0.0872   -0.0230   -0.1584   -0.1618   -0.1841   -0.0098    0.1721    0.0136
          10    0.0747    0.2118   -0.0610   -0.0098   -0.0680   -0.2140   -0.0508    0.1367
          11    0.0202   -0.0314    0.0901   -0.1120   -0.0491   -0.0672   -0.1321    0.0028
          12    0.1207    0.0051    0.1494   -0.1136   -0.2480    0.1069   -0.1106    0.0246
          13   -0.2095    0.0009    0.1527   -0.0188   -0.0060   -0.0240   -0.0175   -0.0323
          14   -0.2656    0.0397    0.1522   -0.2215    0.3198    0.0065   -0.1170   -0.0735
          15   -0.0567    0.1035    0.3102    0.2055    0.1425   -0.0627    0.0591   -0.1075
          16   -0.2095   -0.0027    0.1522    0.0231    0.0047   -0.0238   -0.0168    0.0327
          17   -0.1111    0.0591   -0.1696    0.2924   -0.0718    0.0534   -0.1153   -0.0420
          18    0.2472    0.0954   -0.3009   -0.0664    0.3449    0.0330    0.0573   -0.1238
          19    0.0760   -0.1056   -0.1387    0.0468   -0.1300    0.3226   -0.0144    0.0925
          20    0.0521   -0.1044   -0.0378    0.1511   -0.0125    0.0164   -0.2803   -0.0457
          21   -0.0178   -0.0507   -0.1212    0.1400   -0.1126    0.1674   -0.3324   -0.0158
          22    0.0750    0.1069   -0.1363   -0.0508    0.1294    0.3214   -0.0141   -0.0931
          23    0.0449    0.0207    0.0745    0.0261   -0.0836   -0.1256    0.1029    0.0127
          24   -0.0306   -0.1145    0.0961    0.2062   -0.0767   -0.1109    0.4191   -0.0533
          25    0.0802   -0.1095    0.1606   -0.1172   -0.1482    0.1557   -0.0874   -0.0392
          26   -0.1623    0.0151   -0.1997    0.2114    0.2398   -0.0439    0.2028   -0.0275
          27    0.1247   -0.0309    0.1763   -0.1652   -0.2148    0.0687   -0.1570    0.0124
          28   -0.0711    0.1545   -0.0060   -0.0892   -0.0606    0.2279    0.1314    0.0886
          29    0.1289   -0.1132    0.0958    0.1975    0.1237   -0.2008   -0.2337   -0.0758
          30    0.0606    0.0045    0.0628    0.0866    0.0588    0.0092   -0.0830   -0.0008
          31    0.0792    0.1107    0.1589    0.1214    0.1461    0.1572   -0.0870    0.0406
          32   -0.1964   -0.0352   -0.2559   -0.2649   -0.3121   -0.0832    0.2468    0.0220
          33    0.0580   -0.0057    0.0562    0.0752    0.0670   -0.0046   -0.0718   -0.0136
          34    0.0102   -0.0863   -0.0471   -0.0225   -0.0003   -0.0863    0.0056   -0.0494
          35   -0.0602    0.3781    0.1583    0.0296   -0.0424    0.3985    0.0519    0.2115
          36    0.0583   -0.0018    0.0589    0.0806    0.0636   -0.0030   -0.0798   -0.0088
          37   -0.0697   -0.1551   -0.0077    0.0888    0.0597    0.2284    0.1305   -0.0917
          38    0.0262    0.0702    0.0065   -0.0458   -0.0247   -0.1255   -0.0699    0.0454
          39   -0.1388   -0.0892   -0.1188    0.2071    0.1349    0.1573    0.2368   -0.0662
          40    0.0094    0.0863   -0.0476    0.0213    0.0012   -0.0862    0.0061    0.0496
          41   -0.0804   -0.2247    0.0448    0.0489    0.0749    0.2375    0.0939   -0.1341
          42    0.0115    0.3042   -0.1643    0.0672    0.0061   -0.3196    0.0068    0.1665
          43   -0.0377    0.0926   -0.1771   -0.0168   -0.0775    0.0366   -0.1396   -0.4469
          44    0.3552    0.0169    0.1406    0.4051   -0.1933   -0.0341    0.1620    0.1960
          45   -0.2456   -0.0798    0.2957   -0.1450    0.2636   -0.0506    0.0771    0.3608
          46   -0.0373   -0.0928   -0.1769    0.0123    0.0790    0.0379   -0.1313    0.4492
          47    0.4078   -0.0701   -0.1440   -0.3596    0.3280    0.0232    0.0348    0.1763
          48   -0.1424   -0.0349   -0.2942    0.2347    0.0013    0.0577   -0.1682    0.3734


   Root No.      17        18        19        20        21        22        23        24

                17 A      18 A      19 A      20 A      21 A      22 A      23 A      24 A   

                1039.6    1137.4    1151.3    1152.6    1190.3    1190.6    1228.1    1330.6
  
           1    0.1024    0.1042    0.1942   -0.3772   -0.0662   -0.1585   -0.2757    0.0837
           2   -0.0077    0.2771   -0.1777   -0.1774    0.1001   -0.2144    0.1308   -0.2826
           3    0.0712   -0.0891    0.2119   -0.1359   -0.4129   -0.0349   -0.0848   -0.3240
           4   -0.1024   -0.1044    0.1749    0.3865    0.0027   -0.1716   -0.2759    0.0834
           5    0.0636   -0.2343   -0.2766   -0.0190   -0.4006    0.0527    0.1457    0.0954
           6    0.0366    0.1710    0.0302   -0.2219   -0.0797    0.2401   -0.0556    0.4191
           7   -0.1017   -0.0565   -0.1039    0.1068    0.0263    0.0416    0.1035    0.0387
           8   -0.0078   -0.2648    0.2233    0.0183   -0.0146    0.1382   -0.0034   -0.0564
           9   -0.0709    0.1114   -0.1510    0.0861    0.0824   -0.0136   -0.0199    0.0555
          10    0.1024    0.0566   -0.0983   -0.1118   -0.0088    0.0482    0.1034    0.0391
          11   -0.0536    0.2451    0.2511    0.0712    0.1036    0.0586    0.0141   -0.0782
          12   -0.0491   -0.1482   -0.0953    0.0606   -0.0039   -0.1102    0.0143    0.0136
          13    0.0070    0.0095   -0.0875   -0.0428   -0.0217    0.1422   -0.0140   -0.0837
          14    0.1546   -0.0496   -0.0258    0.0756    0.0502   -0.0788    0.1299    0.1444
          15   -0.2016    0.0057   -0.0182   -0.0538    0.2633   -0.2288    0.3109    0.2493
          16   -0.0071   -0.0093   -0.0894    0.0383    0.0727    0.1242   -0.0140   -0.0836
          17   -0.2547    0.0339    0.0043   -0.0881    0.2212    0.0618   -0.1746   -0.1163
          18    0.0066   -0.0367    0.0306    0.0311    0.2545    0.1127   -0.2884   -0.2636
          19    0.3449   -0.2642    0.1170   -0.0447    0.4570    0.2748    0.3112    0.0230
          20    0.1821    0.3463   -0.3742    0.2853   -0.1184   -0.0447   -0.2380    0.1393
          21    0.3526    0.0308   -0.1711    0.2726    0.0286    0.1902   -0.0219    0.0907
          22   -0.3457    0.2632    0.1143    0.0506   -0.3241    0.4241    0.3119    0.0232
          23    0.1788   -0.1783   -0.0846    0.0483    0.0203   -0.2020   -0.1227    0.0085
          24    0.3575    0.2974    0.3843    0.4111   -0.1015   -0.0415    0.2053   -0.1661
          25   -0.0971   -0.0660   -0.0039    0.1027   -0.0061   -0.0702    0.0394   -0.1600
          26    0.0837    0.0156   -0.0185   -0.0709   -0.0374    0.0659   -0.0656    0.2015
          27   -0.0753   -0.0276    0.0162    0.0801    0.0246   -0.0672    0.0497   -0.1457
          28    0.0450    0.1865   -0.1200   -0.0565    0.0698   -0.0866    0.0280   -0.1163
          29    0.0270   -0.2796    0.2323    0.0094   -0.1225    0.1267   -0.0369    0.1130
          30    0.0437   -0.0288    0.0495   -0.0164   -0.0476    0.0173   -0.0303    0.0383
          31    0.0961    0.0661    0.0016   -0.1030   -0.0203   -0.0675    0.0392   -0.1596
          32   -0.1081   -0.0315   -0.0293    0.1054    0.0731    0.0711   -0.0788    0.2358
          33    0.0228   -0.0036    0.0058   -0.0100   -0.0196   -0.0070    0.0238   -0.0769
          34   -0.0486   -0.0116   -0.0560    0.0457    0.0289    0.0116    0.0540   -0.0195
          35    0.2007    0.0497    0.1606   -0.1778   -0.0665   -0.0515   -0.2164    0.1985
          36    0.0248   -0.0246    0.0484   -0.0123   -0.0506    0.0215   -0.0143    0.0130
          37   -0.0450   -0.1861   -0.1234    0.0507   -0.0967   -0.0552    0.0280   -0.1167
          38    0.0193    0.1408    0.0979   -0.0139    0.0534    0.0442    0.0027    0.0356
          39    0.0488   -0.2421   -0.2173   -0.0127   -0.1592   -0.0583    0.0480   -0.1149
          40    0.0491    0.0118   -0.0536   -0.0484   -0.0224    0.0213    0.0541   -0.0196
          41   -0.0985   -0.0497    0.0501    0.0974   -0.0198   -0.0436   -0.1156    0.1063
          42    0.1782    0.0262   -0.1505   -0.1587   -0.0664    0.0575    0.1834   -0.1687
          43    0.0917    0.0420    0.0833   -0.1599    0.0061   -0.2821    0.2104    0.1388
          44   -0.2136    0.0074   -0.0670    0.0329    0.0396    0.1035   -0.0376   -0.0518
          45   -0.0405   -0.0519   -0.1011    0.1393    0.0559    0.2403   -0.1160   -0.0713
          46   -0.0927   -0.0422    0.0749    0.1638   -0.1094   -0.2601    0.2104    0.1388
          47    0.0929   -0.0464    0.0377    0.0957   -0.0287   -0.1322    0.0715    0.0271
          48   -0.1976   -0.0248    0.1079    0.1139   -0.0225   -0.2330    0.0988    0.0839


   Root No.      25        26        27        28        29        30        31        32

                25 A      26 A      27 A      28 A      29 A      30 A      31 A      32 A   

                1353.9    1397.8    1398.2    1407.5    1407.7    1424.8    1454.3    1778.6
  
           1    0.2202    0.0188    0.0333   -0.0182    0.0134    0.1488   -0.2846   -0.0148
           2   -0.1924   -0.0439   -0.0553    0.0316   -0.0020   -0.2720    0.3627    0.0490
           3   -0.1639   -0.0199   -0.0196    0.0110    0.0049   -0.1418    0.1331    0.0579
           4   -0.2198    0.0312   -0.0221   -0.0128   -0.0198    0.1484    0.2852    0.0148
           5   -0.0192   -0.0160    0.0111    0.0075    0.0086   -0.0452   -0.1058    0.0180
           6   -0.2507    0.0666   -0.0306   -0.0309   -0.0120    0.3030    0.3730    0.0737
           7    0.0664   -0.1155   -0.1609   -0.1069    0.0869   -0.1831    0.1628    0.0055
           8   -0.1749    0.0075   -0.0450   -0.1043    0.0314    0.3597   -0.3170   -0.0187
           9    0.0139    0.0984    0.1475   -0.1526    0.1102   -0.0016   -0.0149   -0.0095
          10   -0.0668   -0.1728    0.0969   -0.0693   -0.1179   -0.1832   -0.1634   -0.0055
          11    0.1141   -0.1297    0.1002    0.0336    0.0872    0.2124    0.1748    0.0033
          12   -0.1341   -0.0786    0.0179    0.1311    0.1471   -0.2884   -0.2657   -0.0207
          13   -0.0370   -0.0061   -0.0068    0.0031   -0.0012   -0.0438    0.0611   -0.6751
          14    0.0974    0.0040    0.0122   -0.0021   -0.0005    0.0438   -0.1018    0.0102
          15    0.1516    0.0067    0.0165   -0.0028   -0.0002    0.0588   -0.1243   -0.0103
          16    0.0368   -0.0084    0.0035    0.0026    0.0025   -0.0437   -0.0613    0.6751
          17    0.0651   -0.0054    0.0042    0.0010    0.0006   -0.0217   -0.0407   -0.0143
          18    0.1675   -0.0149    0.0146    0.0037    0.0012   -0.0700   -0.1560    0.0022
          19   -0.0971    0.0036   -0.0265   -0.0106   -0.0097   -0.0373    0.1277   -0.0158
          20    0.1054    0.0095    0.0193   -0.0087    0.0104    0.0896   -0.1024   -0.0244
          21   -0.0058    0.0127    0.0046   -0.0155    0.0021    0.0522   -0.0157   -0.0132
          22    0.0971   -0.0080    0.0256   -0.0130    0.0057   -0.0372   -0.1279    0.0158
          23   -0.0668   -0.0010   -0.0089    0.0084   -0.0016    0.0105    0.0477    0.0037
          24    0.0811   -0.0214    0.0100    0.0119    0.0154   -0.1031   -0.0924   -0.0275
          25    0.1956    0.5357   -0.3297    0.0576    0.0783    0.0656    0.0484   -0.0036
          26   -0.2424    0.1966   -0.1561    0.2273    0.2893   -0.1695   -0.1228    0.0031
          27    0.1534   -0.0452    0.0435   -0.0924   -0.1173    0.0676    0.0403   -0.0075
          28   -0.1564   -0.0572   -0.1059    0.4031   -0.3043    0.2283   -0.1355   -0.0029
          29    0.1827    0.0972    0.1951    0.1937   -0.1074   -0.1990    0.1409    0.0046
          30    0.0814    0.0649    0.1331    0.3918   -0.2583   -0.0680    0.0687    0.0027
          31   -0.1951    0.3459    0.5254    0.0833   -0.0540    0.0653   -0.0482    0.0036
          32    0.2665    0.0837    0.1784    0.2894   -0.1746   -0.1564    0.1051   -0.0079
          33   -0.1056   -0.0769   -0.1462   -0.1797    0.1086    0.0985   -0.0757   -0.0018
          34   -0.0401    0.0546    0.0820   -0.0551    0.0402   -0.0158    0.0153   -0.0003
          35    0.3261   -0.0873   -0.0986   -0.2048    0.1705   -0.2498    0.1442    0.0025
          36    0.0545   -0.3221   -0.4913    0.3247   -0.2408    0.0608   -0.0112    0.0009
          37    0.1562   -0.0960    0.0709    0.2713    0.4264    0.2293    0.1361    0.0029
          38   -0.0414    0.0069   -0.0040   -0.1386   -0.2072   -0.0626   -0.0276   -0.0006
          39    0.1965   -0.2071    0.1658   -0.2776   -0.3602    0.1987    0.1545    0.0053
          40    0.0403    0.0838   -0.0509   -0.0374   -0.0567   -0.0158   -0.0153    0.0003
          41   -0.1472    0.3324   -0.2180   -0.2560   -0.4107   -0.1969   -0.0943   -0.0007
          42    0.2961    0.3914   -0.2238   -0.0229   -0.0138    0.1655    0.1102    0.0026
          43    0.0493    0.0040    0.0058   -0.0020    0.0006    0.0291   -0.0367   -0.1054
          44   -0.0074   -0.0041   -0.0022    0.0015    0.0007   -0.0222    0.0073   -0.0711
          45   -0.0007   -0.0029   -0.0009    0.0018   -0.0015   -0.0164    0.0027   -0.1424
          46   -0.0491    0.0061   -0.0035   -0.0018   -0.0015    0.0290    0.0369    0.1054
          47    0.0039   -0.0003    0.0006    0.0001   -0.0018    0.0002   -0.0022   -0.0733
          48   -0.0063    0.0055   -0.0000   -0.0020   -0.0013    0.0276    0.0077   -0.1412


   Root No.      33        34        35        36        37        38        39        40

                33 A      34 A      35 A      36 A      37 A      38 A      39 A      40 A   

                2954.4    2961.4    3080.0    3080.0    3083.7    3083.8    3178.7    3178.8
  
           1    0.0733   -0.0793   -0.0037    0.0041   -0.0009    0.0007   -0.0015   -0.0010
           2    0.1115   -0.1123   -0.0057    0.0044   -0.0005   -0.0009    0.0017    0.0006
           3   -0.1380    0.1347    0.0073   -0.0058   -0.0007    0.0015    0.0005    0.0012
           4   -0.0729   -0.0797   -0.0030   -0.0046    0.0007   -0.0010    0.0011   -0.0014
           5   -0.1763   -0.1759   -0.0080   -0.0087   -0.0018    0.0003   -0.0008   -0.0004
           6    0.0088    0.0115    0.0003    0.0002   -0.0001    0.0008    0.0012   -0.0016
           7   -0.0065    0.0056   -0.1290    0.1091   -0.2044    0.0068   -0.0552   -0.0402
           8   -0.0019    0.0021   -0.0658    0.0557   -0.0987    0.0034    0.1086    0.0791
           9    0.0079   -0.0067    0.1722   -0.1474   -0.1900    0.0052    0.0022    0.0018
          10    0.0064    0.0057   -0.1084   -0.1264   -0.0059   -0.2062    0.0404   -0.0555
          11    0.0074    0.0067   -0.1522   -0.1792    0.0036    0.0926   -0.0455    0.0622
          12    0.0031    0.0023   -0.0424   -0.0505    0.0060    0.1910    0.0646   -0.0889
          13    0.0042   -0.0004    0.0003   -0.0002   -0.0008    0.0000    0.0004   -0.0004
          14   -0.0007   -0.0004   -0.0009    0.0007    0.0011   -0.0001   -0.0002   -0.0003
          15   -0.0003    0.0033   -0.0002    0.0004    0.0006   -0.0002   -0.0002   -0.0006
          16   -0.0042   -0.0004    0.0003    0.0003   -0.0000   -0.0008   -0.0004   -0.0002
          17    0.0001   -0.0029   -0.0003   -0.0001    0.0001    0.0002    0.0001    0.0003
          18   -0.0008   -0.0017    0.0007    0.0009    0.0001   -0.0012   -0.0001    0.0006
          19   -0.2717    0.2761    0.0111   -0.0079   -0.0011    0.0018    0.0006    0.0008
          20   -0.3991    0.3948    0.0221   -0.0207   -0.0001    0.0015    0.0019    0.0038
          21    0.4809   -0.4768   -0.0217    0.0194   -0.0018   -0.0015   -0.0011   -0.0033
          22    0.2704    0.2775    0.0097    0.0096    0.0017   -0.0011   -0.0004    0.0010
          23    0.6207    0.6208    0.0257    0.0324    0.0022    0.0017   -0.0004    0.0053
          24   -0.0394   -0.0387   -0.0043   -0.0061   -0.0002    0.0011    0.0006   -0.0013
          25    0.0041    0.0033   -0.0514   -0.0606    0.0021    0.0590    0.0485   -0.0668
          26   -0.0088   -0.0083    0.1066    0.1266   -0.0101   -0.3133   -0.1648    0.2266
          27   -0.0118   -0.0110    0.2351    0.2789   -0.0188   -0.5819   -0.2886    0.3968
          28    0.0110   -0.0117    0.2335   -0.1989   -0.0225   -0.0002   -0.1929   -0.1403
          29    0.0127   -0.0102    0.3564   -0.3032   -0.0032   -0.0012   -0.2554   -0.1857
          30   -0.0188    0.0161   -0.4166    0.3543   -0.0418    0.0029    0.3255    0.2367
          31   -0.0041    0.0033   -0.0599    0.0512    0.0595   -0.0016   -0.0665   -0.0486
          32   -0.0044    0.0039   -0.1472    0.1266    0.2878   -0.0085   -0.1877   -0.1369
          33   -0.0141    0.0131   -0.2589    0.2229    0.5989   -0.0177   -0.4173   -0.3044
          34    0.0107   -0.0160    0.2715   -0.2294    0.6712   -0.0216    0.4532    0.3301
          35    0.0040   -0.0041    0.0197   -0.0166    0.0573   -0.0018    0.0608    0.0443
          36    0.0028   -0.0036    0.0794   -0.0673    0.1017   -0.0034    0.0851    0.0620
          37   -0.0109   -0.0118    0.1986    0.2331   -0.0015   -0.0187    0.1404   -0.1924
          38   -0.0226   -0.0192    0.4654    0.5457   -0.0008    0.0409    0.3015   -0.4134
          39   -0.0008   -0.0013   -0.0367   -0.0431    0.0009    0.0266   -0.0109    0.0149
          40   -0.0107   -0.0160    0.2268    0.2641    0.0201    0.6743   -0.3307    0.4540
          41   -0.0002    0.0005   -0.0444   -0.0520   -0.0013   -0.0488    0.0238   -0.0327
          42    0.0049    0.0055   -0.0527   -0.0615   -0.0031   -0.1069    0.0724   -0.0994
          43    0.0045    0.0040    0.0003    0.0006   -0.0002    0.0004   -0.0007    0.0015
          44    0.0022    0.0004    0.0001    0.0004    0.0002    0.0001   -0.0001    0.0008
          45    0.0040    0.0040    0.0004    0.0004    0.0002    0.0003   -0.0005    0.0015
          46   -0.0045    0.0039    0.0004   -0.0005    0.0004   -0.0002    0.0011    0.0012
          47    0.0019   -0.0030   -0.0003    0.0001   -0.0002    0.0000   -0.0004   -0.0006
          48    0.0042   -0.0027   -0.0004    0.0005   -0.0002   -0.0003   -0.0008   -0.0013


   Root No.      41        42

                41 A      42 A   

                3194.3    3214.7
  
           1    0.0023    0.0071
           2   -0.0005   -0.0030
           3   -0.0028   -0.0074
           4    0.0023   -0.0070
           5    0.0020   -0.0042
           6    0.0021   -0.0067
           7    0.0000    0.0002
           8   -0.0000    0.0001
           9   -0.0001    0.0001
          10    0.0001   -0.0002
          11    0.0000   -0.0000
          12    0.0001    0.0001
          13   -0.1429    0.1820
          14   -0.0582    0.0592
          15   -0.1252    0.1289
          16   -0.1417   -0.1829
          17    0.0665    0.0698
          18    0.1199    0.1245
          19   -0.0021   -0.0009
          20   -0.0024   -0.0022
          21    0.0028    0.0027
          22   -0.0021    0.0009
          23   -0.0037    0.0035
          24    0.0003   -0.0002
          25    0.0002   -0.0001
          26   -0.0006    0.0001
          27   -0.0010    0.0006
          28    0.0004    0.0003
          29    0.0005    0.0001
          30   -0.0006   -0.0002
          31    0.0002    0.0001
          32    0.0004    0.0004
          33    0.0010    0.0005
          34   -0.0016   -0.0010
          35   -0.0003    0.0001
          36   -0.0004   -0.0000
          37    0.0004   -0.0003
          38    0.0008   -0.0002
          39    0.0000   -0.0001
          40   -0.0016    0.0010
          41    0.0002   -0.0001
          42    0.0005    0.0001
          43    0.4878   -0.4772
          44    0.2004   -0.1956
          45    0.4309   -0.4211
          46    0.4846    0.4805
          47   -0.2289   -0.2269
          48   -0.4129   -0.4087


          DESCRIPTION OF VIBRATIONS


 VIBRATION          1    1A           ATOM PAIR      ENERGY CONTRIBUTION    RADIAL
 FREQUENCY           146.46         C  3 -- H 11         +24.9% (364.6%)      0.0%
 TRANSITION DIPOLE   0.0114         C  3 -- H 12         +24.0% (357.6%)      0.6%
 TRAVEL (Ang.)       0.0000         C  3 -- H 10         +23.1% (351.1%)      0.2%
 REDUCED MASS        0.2042         C  4 -- H  9          +9.2% (221.6%)      0.2%
 EFFECTIVE MASS      5.4449
 FORCE CONSTANT      0.0026

 VIBRATION          2    2A           ATOM PAIR      ENERGY CONTRIBUTION    RADIAL
 FREQUENCY           155.51         C  4 -- H 14         +23.0% (337.1%)      0.0%
 TRANSITION DIPOLE   0.0093         C  4 -- H  9         +22.8% (335.1%)      0.0%
 TRAVEL (Ang.)       0.0000         C  4 -- H 13         +21.7% (327.1%)      0.3%
 REDUCED MASS        0.1961         C  3 -- H 12          +7.8% (196.2%)      2.5%
 EFFECTIVE MASS      5.5431
 FORCE CONSTANT      0.0028

 VIBRATION          3    3A           ATOM PAIR      ENERGY CONTRIBUTION    RADIAL
 FREQUENCY           180.45         C  1 -- C  3         +11.4% (289.6%)      0.1%
 TRANSITION DIPOLE   0.0336         C  2 -- C  4         +11.4% (289.0%)      0.1%
 TRAVEL (Ang.)       0.5984         C  3 -- H 12          +7.5% (234.5%)     18.1%
 REDUCED MASS        1.0435         C  4 -- H 14          +7.4% (232.7%)     16.3%
 EFFECTIVE MASS    108.4102
 FORCE CONSTANT      0.0200

 VIBRATION          4    4A           ATOM PAIR      ENERGY CONTRIBUTION    RADIAL
 FREQUENCY           304.51         C  1 -- C  3          +9.4% (142.9%)      0.1%
 TRANSITION DIPOLE   0.0177         C  2 -- C  4          +9.3% (141.8%)      0.1%
[...]
 REDUCED MASS        1.1030         C  1 -- C  6          +7.7% ( 42.6%)     74.3%
 EFFECTIVE MASS      6.9928
 FORCE CONSTANT      1.1506

 VIBRATION         25   25A           ATOM PAIR      ENERGY CONTRIBUTION    RADIAL
 FREQUENCY          1353.88         C  1 -- C  2         +10.5% ( 43.0%)     83.8%
 TRANSITION DIPOLE   0.0409         C  1 -- C  5          +7.6% ( 36.5%)     74.2%
 TRAVEL (Ang.)       0.3437         C  2 -- C  6          +7.5% ( 36.4%)     74.2%
 REDUCED MASS        0.4217         C  4 -- H  9          +6.8% ( 34.7%)      1.5%
 EFFECTIVE MASS      4.5169
 FORCE CONSTANT      0.4555

 VIBRATION         26   26A           ATOM PAIR      ENERGY CONTRIBUTION    RADIAL
 FREQUENCY          1397.82         C  4 -- H  9         +31.3% ( 50.1%)      1.5%
 TRANSITION DIPOLE   0.0574         C  4 -- H 14         +26.1% ( 45.7%)      3.2%
 TRAVEL (Ang.)       0.4337         C  3 -- H 11         +12.8% ( 32.0%)      1.8%
 REDUCED MASS        0.2564         C  3 -- H 12         +11.1% ( 29.9%)      3.3%
 EFFECTIVE MASS      1.7776
 FORCE CONSTANT      0.2952

 VIBRATION         27   27A           ATOM PAIR      ENERGY CONTRIBUTION    RADIAL
 FREQUENCY          1398.18         C  3 -- H 11         +32.1% ( 50.0%)      1.1%
 TRANSITION DIPOLE   0.0400         C  3 -- H 12         +25.4% ( 44.5%)      3.0%
 TRAVEL (Ang.)       0.4437         C  4 -- H  9         +13.2% ( 32.0%)      0.8%
 REDUCED MASS        0.2449         C  4 -- H 14          +9.9% ( 27.7%)      2.9%
 EFFECTIVE MASS      1.6815
 FORCE CONSTANT      0.2821

 VIBRATION         28   28A           ATOM PAIR      ENERGY CONTRIBUTION    RADIAL
 FREQUENCY          1407.46         C  3 -- H 10         +34.8% ( 51.6%)      0.0%
 TRANSITION DIPOLE   0.0244         C  4 -- H 13         +16.8% ( 35.9%)      0.0%
 TRAVEL (Ang.)       0.4533         C  3 -- H 12         +15.3% ( 34.3%)      6.9%
 REDUCED MASS        0.2332         C  3 -- H 11         +12.5% ( 31.0%)     16.1%
 EFFECTIVE MASS      1.6322
 FORCE CONSTANT      0.2721

 VIBRATION         29   29A           ATOM PAIR      ENERGY CONTRIBUTION    RADIAL
 FREQUENCY          1407.74         C  4 -- H 13         +35.5% ( 51.5%)      0.1%
 TRANSITION DIPOLE   0.0573         C  4 -- H 14         +17.5% ( 36.1%)      6.8%
 TRAVEL (Ang.)       0.4523         C  3 -- H 10         +17.1% ( 35.7%)      0.2%
 REDUCED MASS        0.2342         C  4 -- H  9         +10.8% ( 28.4%)     18.5%
 EFFECTIVE MASS      1.5588
 FORCE CONSTANT      0.2734

 VIBRATION         30   30A           ATOM PAIR      ENERGY CONTRIBUTION    RADIAL
 FREQUENCY          1424.83         C  1 -- C  3         +11.7% ( 50.2%)     96.2%
 TRANSITION DIPOLE   0.1003         C  2 -- C  4         +11.6% ( 50.1%)     96.2%
 TRAVEL (Ang.)       0.2188         C  3 -- H 10          +8.5% ( 42.9%)      3.5%
 REDUCED MASS        0.9888         C  4 -- H 13          +8.5% ( 42.8%)      3.5%
 EFFECTIVE MASS      6.9925
 FORCE CONSTANT      1.1827

 VIBRATION         31   31A           ATOM PAIR      ENERGY CONTRIBUTION    RADIAL
 FREQUENCY          1454.29         C  1 -- C  2         +12.0% ( 57.2%)     53.9%
 TRANSITION DIPOLE   0.0819         C  2 -- C  4         +11.7% ( 56.4%)     95.1%
 TRAVEL (Ang.)       0.1651         C  1 -- C  3         +11.6% ( 56.2%)     95.1%
 REDUCED MASS        1.7001         C  2 -- C  6          +7.0% ( 43.7%)     53.5%
 EFFECTIVE MASS      9.3716
 FORCE CONSTANT      2.1185

 VIBRATION         32   32A           ATOM PAIR      ENERGY CONTRIBUTION    RADIAL
 FREQUENCY          1778.59         C  5 -- C  6         +36.2% (102.1%)    100.0%
 TRANSITION DIPOLE   0.0818         C  1 -- C  6         +11.1% ( 56.6%)     59.4%
 TRAVEL (Ang.)       0.0871         C  2 -- C  5         +11.1% ( 56.6%)     59.4%
 REDUCED MASS        4.9986         C  2 -- C  6         +10.9% ( 56.0%)      0.2%
 EFFECTIVE MASS     12.0065         C  1 -- C  5         +10.9% ( 56.0%)      0.2%
 FORCE CONSTANT      9.3164

 VIBRATION         33   33A           ATOM PAIR      ENERGY CONTRIBUTION    RADIAL
 FREQUENCY          2954.36         C  1 -- H  7         +48.0% ( 70.9%)    100.0%
 TRANSITION DIPOLE   0.0639         C  2 -- H  8         +47.5% ( 70.5%)    100.0%
 TRAVEL (Ang.)       0.2221         C  1 -- C  2          +1.1% ( 11.0%)     17.0%
 REDUCED MASS        0.4629         C  1 -- C  3          +0.5% (  7.4%)     11.3%
 EFFECTIVE MASS      1.4456
 FORCE CONSTANT      2.3804

 VIBRATION         34   34A           ATOM PAIR      ENERGY CONTRIBUTION    RADIAL
 FREQUENCY          2961.35         C  2 -- H  8         +48.1% ( 70.7%)    100.0%
 TRANSITION DIPOLE   0.1359         C  1 -- H  7         +47.7% ( 70.4%)    100.0%
 TRAVEL (Ang.)       0.2218         C  1 -- C  2          +0.9% (  9.6%)      0.0%
 REDUCED MASS        0.4629         C  2 -- C  4          +0.5% (  7.4%)     10.9%
 EFFECTIVE MASS      1.4332
 FORCE CONSTANT      2.3919

 VIBRATION         35   35A           ATOM PAIR      ENERGY CONTRIBUTION    RADIAL
 FREQUENCY          3079.97         C  3 -- H 10         +38.0% ( 63.6%)     98.9%
 TRANSITION DIPOLE   0.0270         C  4 -- H 13         +27.6% ( 54.2%)     98.9%
 TRAVEL (Ang.)       0.2880         C  3 -- H 11         +10.2% ( 33.0%)     85.3%
 REDUCED MASS        0.2640         C  3 -- H 12          +9.0% ( 30.9%)     83.0%
 EFFECTIVE MASS      1.5055
 FORCE CONSTANT      1.4755

 VIBRATION         36   36A           ATOM PAIR      ENERGY CONTRIBUTION    RADIAL
 FREQUENCY          3080.02         C  4 -- H 13         +37.9% ( 63.5%)     98.9%
 TRANSITION DIPOLE   0.0185         C  3 -- H 10         +27.5% ( 54.1%)     98.9%
 TRAVEL (Ang.)       0.2884         C  4 -- H  9         +10.8% ( 33.9%)     86.1%
 REDUCED MASS        0.2633         C  4 -- H 14          +8.5% ( 30.2%)     82.0%
 EFFECTIVE MASS      1.5053
 FORCE CONSTANT      1.4716

 VIBRATION         37   37A           ATOM PAIR      ENERGY CONTRIBUTION    RADIAL
 FREQUENCY          3083.75         C  3 -- H 12         +50.0% ( 72.9%)     97.2%
 TRANSITION DIPOLE   0.0254         C  3 -- H 11         +47.9% ( 71.4%)     96.9%
 TRAVEL (Ang.)       0.2073         C  1 -- C  3          +1.0% ( 10.4%)      0.0%
 REDUCED MASS        0.5089         C  3 -- H 10          +1.0% ( 10.3%)      0.9%
 EFFECTIVE MASS      1.5070
 FORCE CONSTANT      2.8514

 VIBRATION         38   38A           ATOM PAIR      ENERGY CONTRIBUTION    RADIAL
 FREQUENCY          3083.78         C  4 -- H 14         +50.5% ( 73.3%)     97.3%
 TRANSITION DIPOLE   0.0241         C  4 -- H  9         +47.4% ( 71.0%)     96.8%
 TRAVEL (Ang.)       0.2073         C  4 -- H 13          +1.0% ( 10.5%)      2.2%
 REDUCED MASS        0.5087         C  2 -- C  4          +1.0% ( 10.4%)      0.0%
 EFFECTIVE MASS      1.5069
 FORCE CONSTANT      2.8502

 VIBRATION         39   39A           ATOM PAIR      ENERGY CONTRIBUTION    RADIAL
 FREQUENCY          3178.73         C  3 -- H 12         +22.1% ( 45.3%)     97.2%
 TRANSITION DIPOLE   0.0180         C  3 -- H 11         +21.8% ( 45.0%)     97.2%
 TRAVEL (Ang.)       0.3443         C  3 -- H 10         +21.2% ( 44.3%)     97.0%
 REDUCED MASS        0.1790         C  4 -- H 14         +11.8% ( 33.0%)     97.2%
 EFFECTIVE MASS      1.1365         C  4 -- H  9         +11.5% ( 32.7%)     97.1%
 FORCE CONSTANT      1.0654         C  4 -- H 13         +11.3% ( 32.3%)     97.0%

 VIBRATION         40   40A           ATOM PAIR      ENERGY CONTRIBUTION    RADIAL
 FREQUENCY          3178.80         C  4 -- H 14         +22.2% ( 45.3%)     97.2%
 TRANSITION DIPOLE   0.0448         C  4 -- H  9         +21.8% ( 44.9%)     97.1%
 TRAVEL (Ang.)       0.3443         C  4 -- H 13         +21.2% ( 44.3%)     97.0%
 REDUCED MASS        0.1790         C  3 -- H 12         +11.7% ( 33.0%)     97.2%
 EFFECTIVE MASS      1.1366         C  3 -- H 11         +11.6% ( 32.8%)     97.2%
 FORCE CONSTANT      1.0654         C  3 -- H 10         +11.2% ( 32.2%)     97.0%

 VIBRATION         41   41A           ATOM PAIR      ENERGY CONTRIBUTION    RADIAL
 FREQUENCY          3194.29         C  5 -- H 15         +48.2% ( 71.1%)    100.0%
 TRANSITION DIPOLE   0.4715         C  6 -- H 16         +47.6% ( 70.7%)    100.0%
 TRAVEL (Ang.)       0.2131         C  5 -- C  6          +1.1% ( 10.5%)      0.0%
 REDUCED MASS        0.4649         C  2 -- C  5          +0.8% (  9.2%)     99.9%
 EFFECTIVE MASS      1.4626
 FORCE CONSTANT      2.7948

 VIBRATION         42   42A           ATOM PAIR      ENERGY CONTRIBUTION    RADIAL
 FREQUENCY          3214.74         C  6 -- H 16         +46.6% ( 70.7%)     99.9%
 TRANSITION DIPOLE   0.3722         C  5 -- H 15         +46.0% ( 70.2%)     99.9%
 TRAVEL (Ang.)       0.2112         C  5 -- C  6          +3.0% ( 18.0%)    100.0%
 REDUCED MASS        0.4704         C  1 -- C  6          +1.1% ( 10.9%)     98.2%
 EFFECTIVE MASS      1.7368
 FORCE CONSTANT      2.8645

      SYMMETRY NUMBER FOR POINT-GROUP C1  =  1


          SYSTEM IS A GROUND STATE



 InChI=1S/C6H10/c1-5-3-4-6(5)2/h3-6H,1-2H3


          MOLECULE IS NOT LINEAR

          THERE ARE 42 GENUINE VIBRATIONS IN THIS SYSTEM
          THIS THERMODYNAMICS CALCULATION IS LIMITED TO
          MOLECULES WHICH HAVE NO INTERNAL ROTATIONS




                    CALCULATED THERMODYNAMIC PROPERTIES
                                          *
   TEMP. (K)   PARTITION FUNCTION   H.O.F.    ENTHALPY  HEAT CAPACITY ENTROPY
                                   KCAL/MOL   CAL/MOLE    CAL/K/MOL  CAL/K/MOL


 298.00  VIB.     0.1601D+02                  2439.4623    18.5365    13.6965
         ROT.     0.1337D+06                   888.2803     2.9808    26.4358
         INT.     0.2139D+07                  3327.7426    21.5173    40.1323
         TRA.     0.7198D+27                  1480.4672     4.9680    39.1295
         TOT.                       24.175    4808.2098    26.4853    79.2618

 200.00  VIB.     0.4386D+01                   998.5625    11.1853     7.9305
         ROT.     0.7348D+05                   596.1613     2.9808    25.2471
         INT.     0.3223D+06                  1594.7238    14.1661    33.1776
         TRA.     0.3957D+27                   993.6021     4.9680    37.1484
         TOT.                       21.955    2588.3259    19.1341    70.3260

 210.00  VIB.     0.4976D+01                  1113.6682    11.8398     8.4920
         ROT.     0.7906D+05                   625.9693     2.9808    25.3925
         INT.     0.3934D+06                  1739.6376    14.8206    33.8845
         TRA.     0.4258D+27                  1043.2822     4.9680    37.3907
         TOT.                       22.150    2782.9198    19.7887    71.2753

 220.00  VIB.     0.5654D+01                  1235.4407    12.5187     9.0583
         ROT.     0.8478D+05                   655.7774     2.9808    25.5312
         INT.     0.4794D+06                  1891.2181    15.4995    34.5895
         TRA.     0.4566D+27                  1092.9623     4.9680    37.6219
         TOT.                       22.351    2984.1804    20.4676    72.2114

 230.00  VIB.     0.6434D+01                  1364.1245    13.2220     9.6303
         ROT.     0.9062D+05                   685.5855     2.9808    25.6637
         INT.     0.5830D+06                  2049.7099    16.2029    35.2939
         TRA.     0.4880D+27                  1142.6424     4.9680    37.8427
         TOT.                       22.559    3192.3524    21.1709    73.1366

 240.00  VIB.     0.7330D+01                  1499.9605    13.9490    10.2083
         ROT.     0.9660D+05                   715.3935     2.9808    25.7906
         INT.     0.7080D+06                  2215.3541    16.9298    35.9988
         TRA.     0.5202D+27                  1192.3226     4.9680    38.0541
         TOT.                       22.775    3407.6766    21.8978    74.0529

 250.00  VIB.     0.8361D+01                  1643.1789    14.6982    10.7928
         ROT.     0.1027D+06                   745.2016     2.9808    25.9122
         INT.     0.8587D+06                  2388.3805    17.6790    36.7050
         TRA.     0.5531D+27                  1242.0027     4.9680    38.2569
         TOT.                       22.997    3630.3831    22.6470    74.9620

 260.00  VIB.     0.9550D+01                  1793.9930    15.4678    11.3842
         ROT.     0.1089D+06                   775.0097     2.9808    26.0291
         INT.     0.1040D+07                  2569.0026    18.4486    37.4134
         TRA.     0.5866D+27                  1291.6828     4.9680    38.4518
         TOT.                       23.228    3860.6854    23.4166    75.8651

 270.00  VIB.     0.1092D+02                  1952.5956    16.2555    11.9827
         ROT.     0.1153D+06                   804.8177     2.9808    26.1416
         INT.     0.1259D+07                  2757.4133    19.2363    38.1243
         TRA.     0.6208D+27                  1341.3629     4.9680    38.6393
         TOT.                       23.466    4098.7762    24.2044    76.7636

 280.00  VIB.     0.1250D+02                  2119.1560    17.0590    12.5883
         ROT.     0.1217D+06                   834.6258     2.9808    26.2500
         INT.     0.1522D+07                  2953.7818    20.0398    38.8384
         TRA.     0.6556D+27                  1391.0430     4.9680    38.8200
         TOT.                       23.712    4344.8248    25.0078    77.6583

 290.00  VIB.     0.1434D+02                  2293.8185    17.8755    13.2012
         ROT.     0.1283D+06                   864.4339     2.9808    26.3546
         INT.     0.1839D+07                  3158.2524    20.8563    39.5558
         TRA.     0.6910D+27                  1440.7231     4.9680    38.9943
         TOT.                       23.966    4598.9754    25.8243    78.5501

 300.00  VIB.     0.1645D+02                  2476.7013    18.7026    13.8211
         ROT.     0.1350D+06                   894.2419     2.9808    26.4557
         INT.     0.2221D+07                  3370.9432    21.6834    40.2768
         TRA.     0.7270D+27                  1490.4032     4.9680    39.1627
         TOT.                       24.228    4861.3464    26.6514    79.4395

 310.00  VIB.     0.1891D+02                  2667.8967    19.5376    14.4479
         ROT.     0.1418D+06                   924.0500     2.9808    26.5534
         INT.     0.2682D+07                  3591.9467    22.5184    41.0014
         TRA.     0.7637D+27                  1540.0833     4.9680    39.3256
         TOT.                       24.499    5132.0300    27.4864    80.3270

 320.00  VIB.     0.2176D+02                  2867.4719    20.3781    15.0815
         ROT.     0.1487D+06                   953.8580     2.9808    26.6481
         INT.     0.3236D+07                  3821.3299    23.3589    41.7296
         TRA.     0.8009D+27                  1589.7634     4.9680    39.4834
         TOT.                       24.778    5411.0933    28.3269    81.2129

 330.00  VIB.     0.2507D+02                  3075.4697    21.2218    15.7215
         ROT.     0.1557D+06                   983.6661     2.9808    26.7398
         INT.     0.3904D+07                  4059.1358    24.2026    42.4613
         TRA.     0.8388D+27                  1639.4435     4.9680    39.6362
         TOT.                       25.065    5698.5793    29.1706    82.0975

 340.00  VIB.     0.2891D+02                  3291.9102    22.0663    16.3675
         ROT.     0.1629D+06                  1013.4742     2.9808    26.8288
         INT.     0.4709D+07                  4305.3844    25.0471    43.1963
         TRA.     0.8772D+27                  1689.1236     4.9680    39.7845
         TOT.                       25.361    5994.5080    30.0151    82.9809

 350.00  VIB.     0.3339D+02                  3516.7924    22.9098    17.0194
         ROT.     0.1701D+06                  1043.2822     2.9808    26.9152
         INT.     0.5680D+07                  4560.0746    25.8906    43.9346
         TRA.     0.9162D+27                  1738.8037     4.9680    39.9285
         TOT.                       25.666    6298.8784    30.8586    83.8631

 360.00  VIB.     0.3860D+02                  3750.0958    23.7503    17.6765
         ROT.     0.1775D+06                  1073.0903     2.9808    26.9992
         INT.     0.6850D+07                  4823.1861    26.7311    44.6757
         TRA.     0.9557D+27                  1788.4838     4.9680    40.0685
         TOT.                       25.979    6611.6699    31.6991    84.7442

 370.00  VIB.     0.4467D+02                  3991.7822    24.5861    18.3387
         ROT.     0.1849D+06                  1102.8984     2.9808    27.0808
         INT.     0.8260D+07                  5094.6806    27.5669    45.4195
         TRA.     0.9958D+27                  1838.1639     4.9680    40.2046
         TOT.                       26.300    6932.8445    32.5350    85.6241

 380.00  VIB.     0.5176D+02                  4241.7982    25.4159    19.0054
         ROT.     0.1925D+06                  1132.7064     2.9808    27.1603
         INT.     0.9962D+07                  5374.5046    28.3967    46.1657
         TRA.     0.1036D+28                  1887.8440     4.9680    40.3371
         TOT.                       26.629    7262.3486    33.3647    86.5028

 390.00  VIB.     0.6004D+02                  4500.0760    26.2383    19.6762
         ROT.     0.2001D+06                  1162.5145     2.9808    27.2378
         INT.     0.1201D+08                  5662.5905    29.2191    46.9140
         TRA.     0.1078D+28                  1937.5242     4.9680    40.4662
         TOT.                       26.967    7600.1146    34.1871    87.3801

 400.00  VIB.     0.6971D+02                  4766.5361    27.0522    20.3508
         ROT.     0.2078D+06                  1192.3226     2.9808    27.3132
         INT.     0.1449D+08                  5958.8586    30.0330    47.6640
         TRA.     0.1119D+28                  1987.2043     4.9680    40.5919
         TOT.                       27.313    7946.0629    35.0010    88.2560

   *: NOTE: HEATS OF FORMATION ARE RELATIVE TO THE
            ELEMENTS IN THEIR STANDARD STATE AT 298K
              (=  Standard Enthalpy of Formation).

            Hvib:  Zero-point energy is not included.
                   frequencies of less than zero cm-1 are not included.
            Hrot = (3/2)RT
            Htra = (3/2)RT + pV = (5/2)RT

            Heat capacity is Cp, not Cv

          For more information, see: HTTP://OpenMOPAC.net/Manual/thermochemistry.html


           FORCE CONSTANT IN CARTESIAN COORDINATES (Millidynes/A)

    ATOM   CHEMICAL       X               Y               Z
   NUMBER   SYMBOL  FORCE CONSTANT  FORCE CONSTANT  FORCE CONSTANT

      1       C        7.284104        8.684806        8.312895
      2       C        7.285451        8.549085        8.450030
      3       C        8.382750        8.491215        8.305154
      4       C        8.381775        8.322681        8.464452
      5       C       15.246632        3.591431        7.706027
      6       C       15.247135        3.705401        7.591963
      7       H        1.379837        2.125734        2.713145
      8       H        1.380325        4.150661        0.688619
      9       H        0.733586        1.711408        4.295173
     10       H        1.446320        2.314011        3.000620
     11       H        0.733363        1.583247        4.424458
     12       H        5.188097        0.741667        0.812467
     13       H        1.444175        4.610642        0.708051
     14       H        5.189159        0.717286        0.836531
     15       H        3.192037        0.823695        2.567684
     16       H        3.192393        0.970093        2.421255

 **********************
 *                    *
 * JOB ENDED NORMALLY *
 *                    *
 **********************



 TOTAL JOB TIME:             1.25 SECONDS

 == MOPAC DONE ==
