 *******************************************************************************
 **                                                                           **
 **                              MOPAC v23.1.2                                **
 **                                                                           **
 *******************************************************************************
 **          Digital Object Identifier (DOI): 10.5281/zenodo.6511958          **
 **    Visit the DOI location for information on how to cite this program.    **
 *******************************************************************************

                              PM3 CALCULATION RESULTS

 *******************************************************************************
 *  CALCULATION DONE: (MAX THREADS = 1)              Tue Jun  3 16:33:54 2025  *
 *  PM3        - The PM3 Hamiltonian to be used
 *  PRECISE    - TIGHTER CRITERIA TO BE USED
 *  NOSYM      - POINT-GROUP SYMMETRY SET TO C1
 *  THREADS=1  - MULTI-THREADING NOT USED
 *  T=         - A TIME OF 172800.0 SECONDS REQUESTED
 *  DUMP=N     - RESTART FILE WRITTEN EVERY 7200.0 SECONDS REQUESTED
 *******************************************************************************
pm3  precise nosym THREADS=1
 InChI=1S/C10H10/c1-8-6-9-4-2-3-5-10(9)7-8/h2,4-7H,3H2,1H3

   ATOM   CHEMICAL          X               Y               Z
  NUMBER   SYMBOL      (ANGSTROMS)     (ANGSTROMS)     (ANGSTROMS)

     1       C          2.67470000  *  -0.17230000  *  -0.79770000  *
     2       C         -3.37490000  *  -0.06220000  *   0.19520000  *
     3       C         -1.88420000  *  -0.09740000  *   0.11120000  *
     4       C          0.21060000  *  -0.26370000  *  -0.64460000  *
     5       C          0.26410000  *   0.24960000  *   0.69470000  *
     6       C          1.30160000  *  -0.47060000  *  -1.37700000  *
     7       C          2.66680000  *   0.37730000  *   0.62790000  *
     8       C         -1.19190000  *  -0.45880000  *  -0.97080000  *
     9       C         -0.96680000  *   0.36530000  *   1.16710000  *
    10       C          1.53920000  *   0.57460000  *   1.32830000  *
    11       H          3.27200000  *  -1.10780000  *  -0.81030000  *
    12       H          3.18040000  *   0.56510000  *  -1.45540000  *
    13       H         -3.81100000  *  -0.92490000  *  -0.35170000  *
    14       H         -3.69640000  *  -0.11420000  *   1.25650000  *
    15       H         -3.74880000  *   0.88230000  *  -0.25200000  *
    16       H          1.21510000  *  -0.85340000  *  -2.38600000  *
    17       H          3.61650000  *   0.61510000  *   1.09010000  *
    18       H         -1.60380000  *  -0.80660000  *  -1.90960000  *
    19       H         -1.23800000  *   0.73680000  *   2.14680000  *
    20       H          1.57470000  *   0.96580000  *   2.33720000  *



          CARTESIAN COORDINATES 

    NO.       ATOM           X           Y           Z

     1         C          2.6747     -0.1723     -0.7977
     2         C         -3.3749     -0.0622      0.1952
     3         C         -1.8842     -0.0974      0.1112
     4         C          0.2106     -0.2637     -0.6446
     5         C          0.2641      0.2496      0.6947
     6         C          1.3016     -0.4706     -1.3770
     7         C          2.6668      0.3773      0.6279
     8         C         -1.1919     -0.4588     -0.9708
     9         C         -0.9668      0.3653      1.1671
    10         C          1.5392      0.5746      1.3283
    11         H          3.2720     -1.1078     -0.8103
    12         H          3.1804      0.5651     -1.4554
    13         H         -3.8110     -0.9249     -0.3517
    14         H         -3.6964     -0.1142      1.2565
    15         H         -3.7488      0.8823     -0.2520
    16         H          1.2151     -0.8534     -2.3860
    17         H          3.6165      0.6151      1.0901
    18         H         -1.6038     -0.8066     -1.9096
    19         H         -1.2380      0.7368      2.1468
    20         H          1.5747      0.9658      2.3372

  H: (PM3): J. J. P. STEWART, J. COMP. CHEM. 10, 209 (1989).
  C: (PM3): J. J. P. STEWART, J. COMP. CHEM. 10, 209 (1989).

           Empirical Formula: C10 H10  =    20 atoms



      MOLECULAR POINT GROUP   :   C1  


      RHF CALCULATION, NO. OF DOUBLY OCCUPIED LEVELS = 25


          Geometry optimization using EF

          DIAGONAL MATRIX USED AS START HESSIAN

 CYCLE:     1 TIME:   0.008 TIME LEFT:  2.00D  GRAD.:   155.090 HEAT:  61.35609
 CYCLE:     2 TIME:   0.012 TIME LEFT:  2.00D  GRAD.:   161.887 HEAT:  60.23421
 CYCLE:     3 TIME:   0.012 TIME LEFT:  2.00D  GRAD.:    56.492 HEAT:  56.59744
 CYCLE:     4 TIME:   0.012 TIME LEFT:  2.00D  GRAD.:    44.906 HEAT:  56.14084
 CYCLE:     5 TIME:   0.008 TIME LEFT:  2.00D  GRAD.:    49.156 HEAT:  55.99855
 CYCLE:     6 TIME:   0.008 TIME LEFT:  2.00D  GRAD.:    46.742 HEAT:  55.74355
 CYCLE:     7 TIME:   0.004 TIME LEFT:  2.00D  GRAD.:    46.163 HEAT:  55.63028
 CYCLE:     8 TIME:   0.008 TIME LEFT:  2.00D  GRAD.:    35.150 HEAT:  55.25314
 CYCLE:     9 TIME:   0.012 TIME LEFT:  2.00D  GRAD.:    38.945 HEAT:  55.19416
 CYCLE:    10 TIME:   0.008 TIME LEFT:  2.00D  GRAD.:    33.894 HEAT:  55.08065
 CYCLE:    11 TIME:   0.008 TIME LEFT:  2.00D  GRAD.:    28.960 HEAT:  54.95645
 CYCLE:    12 TIME:   0.004 TIME LEFT:  2.00D  GRAD.:    34.757 HEAT:  54.93518
 CYCLE:    13 TIME:   0.012 TIME LEFT:  2.00D  GRAD.:    13.725 HEAT:  54.73729
 CYCLE:    14 TIME:   0.012 TIME LEFT:  2.00D  GRAD.:     7.367 HEAT:  54.69008
 CYCLE:    15 TIME:   0.004 TIME LEFT:  2.00D  GRAD.:     4.748 HEAT:  54.64893
 CYCLE:    16 TIME:   0.008 TIME LEFT:  2.00D  GRAD.:     5.153 HEAT:  54.60971
 CYCLE:    17 TIME:   0.008 TIME LEFT:  2.00D  GRAD.:     7.748 HEAT:  54.57902
 CYCLE:    18 TIME:   0.004 TIME LEFT:  2.00D  GRAD.:     8.264 HEAT:  54.55526
 CYCLE:    19 TIME:   0.008 TIME LEFT:  2.00D  GRAD.:     5.981 HEAT:  54.54223
 CYCLE:    20 TIME:   0.012 TIME LEFT:  2.00D  GRAD.:     7.194 HEAT:  54.53949
 CYCLE:    21 TIME:   0.008 TIME LEFT:  2.00D  GRAD.:     5.501 HEAT:  54.53191
 CYCLE:    22 TIME:   0.008 TIME LEFT:  2.00D  GRAD.:     5.710 HEAT:  54.52664
 CYCLE:    23 TIME:   0.008 TIME LEFT:  2.00D  GRAD.:     3.981 HEAT:  54.51943
 CYCLE:    24 TIME:   0.008 TIME LEFT:  2.00D  GRAD.:     6.804 HEAT:  54.51876
 CYCLE:    25 TIME:   0.004 TIME LEFT:  2.00D  GRAD.:     2.790 HEAT:  54.50692
 CYCLE:    26 TIME:   0.008 TIME LEFT:  2.00D  GRAD.:     3.977 HEAT:  54.50259
 CYCLE:    27 TIME:   0.004 TIME LEFT:  2.00D  GRAD.:     2.237 HEAT:  54.49524
 CYCLE:    28 TIME:   0.008 TIME LEFT:  2.00D  GRAD.:     3.371 HEAT:  54.49256
 CYCLE:    29 TIME:   0.008 TIME LEFT:  2.00D  GRAD.:     2.074 HEAT:  54.48810
 CYCLE:    30 TIME:   0.004 TIME LEFT:  2.00D  GRAD.:     1.954 HEAT:  54.48598
 CYCLE:    31 TIME:   0.008 TIME LEFT:  2.00D  GRAD.:     1.794 HEAT:  54.48320
 CYCLE:    32 TIME:   0.008 TIME LEFT:  2.00D  GRAD.:     1.727 HEAT:  54.47909
 CYCLE:    33 TIME:   0.004 TIME LEFT:  2.00D  GRAD.:     1.892 HEAT:  54.47722
 CYCLE:    34 TIME:   0.008 TIME LEFT:  2.00D  GRAD.:     1.323 HEAT:  54.47413
 CYCLE:    35 TIME:   0.008 TIME LEFT:  2.00D  GRAD.:     1.053 HEAT:  54.47123
 CYCLE:    36 TIME:   0.008 TIME LEFT:  2.00D  GRAD.:     1.014 HEAT:  54.46971
 CYCLE:    37 TIME:   0.004 TIME LEFT:  2.00D  GRAD.:     1.068 HEAT:  54.46855
 CYCLE:    38 TIME:   0.008 TIME LEFT:  2.00D  GRAD.:     0.929 HEAT:  54.46678
 CYCLE:    39 TIME:   0.008 TIME LEFT:  2.00D  GRAD.:     1.564 HEAT:  54.46241
 CYCLE:    40 TIME:   0.008 TIME LEFT:  2.00D  GRAD.:     1.694 HEAT:  54.45953
 CYCLE:    41 TIME:   0.004 TIME LEFT:  2.00D  GRAD.:     1.603 HEAT:  54.45396
 CYCLE:    42 TIME:   0.008 TIME LEFT:  2.00D  GRAD.:     1.505 HEAT:  54.44841
 CYCLE:    43 TIME:   0.008 TIME LEFT:  2.00D  GRAD.:     1.277 HEAT:  54.44428
 CYCLE:    44 TIME:   0.004 TIME LEFT:  2.00D  GRAD.:     1.324 HEAT:  54.44118
 CYCLE:    45 TIME:   0.008 TIME LEFT:  2.00D  GRAD.:     1.595 HEAT:  54.43816
 CYCLE:    46 TIME:   0.008 TIME LEFT:  2.00D  GRAD.:     1.616 HEAT:  54.43452
 CYCLE:    47 TIME:   0.008 TIME LEFT:  2.00D  GRAD.:     1.620 HEAT:  54.42924
 CYCLE:    48 TIME:   0.004 TIME LEFT:  2.00D  GRAD.:     1.857 HEAT:  54.42246
 CYCLE:    49 TIME:   0.008 TIME LEFT:  2.00D  GRAD.:     1.376 HEAT:  54.41817
 CYCLE:    50 TIME:   0.008 TIME LEFT:  2.00D  GRAD.:     2.180 HEAT:  54.41417
 CYCLE:    51 TIME:   0.008 TIME LEFT:  2.00D  GRAD.:     1.276 HEAT:  54.41028
 CYCLE:    52 TIME:   0.004 TIME LEFT:  2.00D  GRAD.:     1.381 HEAT:  54.40582
 CYCLE:    53 TIME:   0.008 TIME LEFT:  2.00D  GRAD.:     3.094 HEAT:  54.39595
 CYCLE:    54 TIME:   0.008 TIME LEFT:  2.00D  GRAD.:     2.762 HEAT:  54.38670
 CYCLE:    55 TIME:   0.008 TIME LEFT:  2.00D  GRAD.:     2.719 HEAT:  54.37362
 CYCLE:    56 TIME:   0.004 TIME LEFT:  2.00D  GRAD.:     2.806 HEAT:  54.36038
 CYCLE:    57 TIME:   0.008 TIME LEFT:  2.00D  GRAD.:     2.247 HEAT:  54.35652
 CYCLE:    58 TIME:   0.008 TIME LEFT:  2.00D  GRAD.:     1.822 HEAT:  54.34842
 CYCLE:    59 TIME:   0.008 TIME LEFT:  2.00D  GRAD.:     2.324 HEAT:  54.33999
 CYCLE:    60 TIME:   0.004 TIME LEFT:  2.00D  GRAD.:     1.539 HEAT:  54.33539
 CYCLE:    61 TIME:   0.008 TIME LEFT:  2.00D  GRAD.:     1.278 HEAT:  54.33216
 CYCLE:    62 TIME:   0.008 TIME LEFT:  2.00D  GRAD.:     0.740 HEAT:  54.32955
 CYCLE:    63 TIME:   0.008 TIME LEFT:  2.00D  GRAD.:     1.025 HEAT:  54.32783
 CYCLE:    64 TIME:   0.008 TIME LEFT:  2.00D  GRAD.:     1.126 HEAT:  54.32607
 CYCLE:    65 TIME:   0.004 TIME LEFT:  2.00D  GRAD.:     1.219 HEAT:  54.32511
 CYCLE:    66 TIME:   0.008 TIME LEFT:  2.00D  GRAD.:     1.178 HEAT:  54.32377
 CYCLE:    67 TIME:   0.008 TIME LEFT:  2.00D  GRAD.:     1.245 HEAT:  54.32244
 CYCLE:    68 TIME:   0.004 TIME LEFT:  2.00D  GRAD.:     1.290 HEAT:  54.31907
 CYCLE:    69 TIME:   0.008 TIME LEFT:  2.00D  GRAD.:     1.126 HEAT:  54.31679
 CYCLE:    70 TIME:   0.008 TIME LEFT:  2.00D  GRAD.:     1.650 HEAT:  54.31446
 CYCLE:    71 TIME:   0.008 TIME LEFT:  2.00D  GRAD.:     2.843 HEAT:  54.31500
 CYCLE:    72 TIME:   0.008 TIME LEFT:  2.00D  GRAD.:     1.009 HEAT:  54.31001
 CYCLE:    73 TIME:   0.004 TIME LEFT:  2.00D  GRAD.:     0.652 HEAT:  54.30900
 CYCLE:    74 TIME:   0.008 TIME LEFT:  2.00D  GRAD.:     0.956 HEAT:  54.30765
 CYCLE:    75 TIME:   0.008 TIME LEFT:  2.00D  GRAD.:     0.667 HEAT:  54.30693
 CYCLE:    76 TIME:   0.008 TIME LEFT:  2.00D  GRAD.:     0.353 HEAT:  54.30586
 CYCLE:    77 TIME:   0.004 TIME LEFT:  2.00D  GRAD.:     0.587 HEAT:  54.30560
 CYCLE:    78 TIME:   0.008 TIME LEFT:  2.00D  GRAD.:     0.276 HEAT:  54.30536
 CYCLE:    79 TIME:   0.008 TIME LEFT:  2.00D  GRAD.:     0.207 HEAT:  54.30521
 CYCLE:    80 TIME:   0.004 TIME LEFT:  2.00D  GRAD.:     0.245 HEAT:  54.30506
 CYCLE:    81 TIME:   0.008 TIME LEFT:  2.00D  GRAD.:     0.198 HEAT:  54.30497
 CYCLE:    82 TIME:   0.008 TIME LEFT:  2.00D  GRAD.:     0.104 HEAT:  54.30496
 CYCLE:    83 TIME:   0.008 TIME LEFT:  2.00D  GRAD.:     0.054 HEAT:  54.30493
 CYCLE:    84 TIME:   0.004 TIME LEFT:  2.00D  GRAD.:     0.032 HEAT:  54.30492

     GRADIENT =  0.03225 IS LESS THAN CUTOFF =  0.05000



 -------------------------------------------------------------------------------
 pm3  precise nosym THREADS=1
 InChI=1S/C10H10/c1-8-6-9-4-2-3-5-10(9)7-8/h2,4-7H,3H2,1H3



     GEOMETRY OPTIMISED USING EIGENVECTOR FOLLOWING (EF).     
     SCF FIELD WAS ACHIEVED                                   


                              PM3 CALCULATION
                                                       MOPAC v23.1.2 MacOS
                                                       Tue Jun  3 16:33:54 2025




          FINAL HEAT OF FORMATION =         54.30492 KCAL/MOL =     227.21180 KJ/MOL


          COSMO AREA              =        175.16 SQUARE ANGSTROMS
          COSMO VOLUME            =        173.08 CUBIC ANGSTROMS

          GRADIENT NORM           =          0.03225          =       0.00721 PER ATOM
          IONIZATION POTENTIAL    =          8.449478 EV
          HOMO LUMO ENERGIES (EV) =         -8.449 -0.749
          NO. OF FILLED LEVELS    =         25
          MOLECULAR WEIGHT        =        130.1890         POINT GROUP:  C1  

          MOLECULAR DIMENSIONS (Angstroms)

            Atom       Atom       Distance
            H    17    H    13     7.78171
            H    19    H    16     5.32628
            H    15    H    11     1.78211


          SCF CALCULATIONS        =         92

          WALL-CLOCK TIME         =      0.621 SECONDS
          COMPUTATION TIME        =      0.389 SECONDS




   ATOM   CHEMICAL          X               Y               Z
  NUMBER   SYMBOL      (ANGSTROMS)     (ANGSTROMS)     (ANGSTROMS)

     1       C          2.68128612  *  -0.19782082  *  -0.77509707  *
     2       C         -3.38162831  *  -0.07933105  *   0.23612402  *
     3       C         -1.91728337  *  -0.06531331  *   0.09524846  *
     4       C          0.23205435  *  -0.27382432  *  -0.66145139  *
     5       C          0.26307913  *   0.29781669  *   0.70313815  *
     6       C          1.34962542  *  -0.50859047  *  -1.35950434  *
     7       C          2.66360077  *   0.37473554  *   0.59859101  *
     8       C         -1.18346943  *  -0.47755399  *  -0.97840759  *
     9       C         -1.01651053  *   0.42085310  *   1.15026372  *
    10       C          1.53845146  *   0.60810759  *   1.29307157  *
    11       H          3.29033559  *  -1.12602708  *  -0.76833979  *
    12       H          3.20875237  *   0.50790674  *  -1.45057840  *
    13       H         -3.87390085  *  -0.48537733  *  -0.65663652  *
    14       H         -3.68390699  *  -0.69170332  *   1.09629763  *
    15       H         -3.76597644  *   0.93623552  *   0.40104992  *
    16       H          1.32463642  *  -0.93103839  *  -2.36964889  *
    17       H          3.64429072  *   0.60403350  *   1.03006339  *
    18       H         -1.54722258  *  -0.88884015  *  -1.91727320  *
    19       H         -1.35687193  *   0.80486448  *   2.10931416  *
    20       H          1.55506513  *   1.03041450  *   2.30293484  *

                             CARTESIAN COORDINATES

   1    C        2.681286119    -0.197820820    -0.775097071
   2    C       -3.381628312    -0.079331049     0.236124022
   3    C       -1.917283369    -0.065313306     0.095248463
   4    C        0.232054346    -0.273824322    -0.661451387
   5    C        0.263079133     0.297816689     0.703138147
   6    C        1.349625424    -0.508590471    -1.359504342
   7    C        2.663600769     0.374735536     0.598591014
   8    C       -1.183469433    -0.477553993    -0.978407585
   9    C       -1.016510532     0.420853099     1.150263718
  10    C        1.538451462     0.608107591     1.293071572
  11    H        3.290335589    -1.126027081    -0.768339791
  12    H        3.208752372     0.507906742    -1.450578397
  13    H       -3.873900846    -0.485377334    -0.656636517
  14    H       -3.683906986    -0.691703315     1.096297632
  15    H       -3.765976442     0.936235520     0.401049919
  16    H        1.324636419    -0.931038392    -2.369648894
  17    H        3.644290717     0.604033499     1.030063387
  18    H       -1.547222578    -0.888840151    -1.917273204
  19    H       -1.356871933     0.804864477     2.109314159
  20    H        1.555065131     1.030414495     2.302934837


           Empirical Formula: C10 H10  =    20 atoms



      MOLECULAR POINT GROUP   :   C1  


                  EIGENVALUES  
 -41.04829 -36.01014 -30.71638 -30.28097 -25.68432 -25.14888 -20.59235 -20.27090
 -18.79438 -17.33742 -16.07235 -15.93873 -15.18202 -14.89154 -14.35656 -14.31883
 -13.83642 -13.38233 -13.03282 -12.56658 -12.48359 -11.79870 -10.85488  -9.20135
  -8.44948  -0.74888   0.79086   2.12238   2.60088   3.01603   3.21064   3.30719
   3.50579   3.52226   3.70255   3.99370   4.13285   4.18036   4.25251   4.30135
   4.46356   4.61664   4.76332   4.98244   5.20821   5.23881   5.72316   6.23455
   6.38190   6.45887


              NET ATOMIC CHARGES AND DIPOLE CONTRIBUTIONS

  ATOM NO.   TYPE          CHARGE      No. of ELECS.   s-Pop       p-Pop       
    1          C          -0.036301        4.0363     1.13461     2.90169
    2          C          -0.049121        4.0491     1.11658     2.93254
    3          C          -0.084823        4.0848     1.19433     2.89049
    4          C          -0.076346        4.0763     1.17943     2.89691
    5          C          -0.076851        4.0769     1.17516     2.90169
    6          C          -0.048090        4.0481     1.19009     2.85800
    7          C          -0.149486        4.1495     1.19596     2.95353
    8          C          -0.130956        4.1310     1.18505     2.94590
    9          C          -0.104008        4.1040     1.18696     2.91705
   10          C          -0.063724        4.0637     1.16757     2.89616
   11          H           0.072524        0.9275     0.92748
   12          H           0.072519        0.9275     0.92748
   13          H           0.041530        0.9585     0.95847
   14          H           0.045931        0.9541     0.95407
   15          H           0.045980        0.9540     0.95402
   16          H           0.101627        0.8984     0.89837
   17          H           0.099467        0.9005     0.90053
   18          H           0.118868        0.8811     0.88113
   19          H           0.117296        0.8827     0.88270
   20          H           0.103966        0.8960     0.89603
 DIPOLE           X         Y         Z       TOTAL
 POINT-CHG.     0.849    -0.141    -0.441     0.968
 HYBRID         0.091    -0.018    -0.056     0.108
 SUM            0.940    -0.159    -0.497     1.076


          ATOMIC ORBITAL ELECTRON POPULATIONS

     Atom    s        px        py        pz   
    1  C   1.13461   0.95454   0.99707   0.95008
    2  C   1.11658   0.92037   1.00484   1.00733
    3  C   1.19433   0.94963   0.98951   0.95135
    4  C   1.17943   0.94045   1.00337   0.95309
    5  C   1.17516   0.94105   1.01279   0.94785
    6  C   1.19009   0.94268   0.94272   0.97260
    7  C   1.19596   0.98017   1.01036   0.96300
    8  C   1.18505   0.92173   1.04259   0.98159
    9  C   1.18696   0.92824   1.01448   0.97432
   10  C   1.16757   0.92245   0.99457   0.97913
   11  H   0.92748
   12  H   0.92748
   13  H   0.95847
   14  H   0.95407
   15  H   0.95402
   16  H   0.89837
   17  H   0.90053
   18  H   0.88113
   19  H   0.88270
   20  H   0.89603
 *******************************************************************************
 **                                                                           **
 **                              MOPAC v23.1.2                                **
 **                                                                           **
 *******************************************************************************
 **          Digital Object Identifier (DOI): 10.5281/zenodo.6511958          **
 **    Visit the DOI location for information on how to cite this program.    **
 *******************************************************************************

                              PM3 CALCULATION RESULTS

 *******************************************************************************
 *  CALCULATION DONE: (MAX THREADS = 1)              Tue Jun  3 16:33:54 2025  *
 *  PM3        - The PM3 Hamiltonian to be used
 *  OLDGEO     - PREVIOUS GEOMETRY TO BE USED
 *  PRECISE    - TIGHTER CRITERIA TO BE USED
 *  NOSYM      - POINT-GROUP SYMMETRY SET TO C1
 *  THREADS=1  - MULTI-THREADING NOT USED
 *  T=         - A TIME OF 172800.0 SECONDS REQUESTED
 *  DUMP=N     - RESTART FILE WRITTEN EVERY 7200.0 SECONDS REQUESTED
 *  THERMO     - THERMODYNAMIC QUANTITIES TO BE CALCULATED
 *******************************************************************************
oldgeo thermo nosym precise THREADS=1  pm3
 InChI=1S/C10H10/c1-8-6-9-4-2-3-5-10(9)7-8/h2,4-7H,3H2,1H3

   ATOM   CHEMICAL          X               Y               Z
  NUMBER   SYMBOL      (ANGSTROMS)     (ANGSTROMS)     (ANGSTROMS)

     1       C          2.68128612  *  -0.19782082  *  -0.77509707  *
     2       C         -3.38162831  *  -0.07933105  *   0.23612402  *
     3       C         -1.91728337  *  -0.06531331  *   0.09524846  *
     4       C          0.23205435  *  -0.27382432  *  -0.66145139  *
     5       C          0.26307913  *   0.29781669  *   0.70313815  *
     6       C          1.34962542  *  -0.50859047  *  -1.35950434  *
     7       C          2.66360077  *   0.37473554  *   0.59859101  *
     8       C         -1.18346943  *  -0.47755399  *  -0.97840759  *
     9       C         -1.01651053  *   0.42085310  *   1.15026372  *
    10       C          1.53845146  *   0.60810759  *   1.29307157  *
    11       H          3.29033559  *  -1.12602708  *  -0.76833979  *
    12       H          3.20875237  *   0.50790674  *  -1.45057840  *
    13       H         -3.87390085  *  -0.48537733  *  -0.65663652  *
    14       H         -3.68390699  *  -0.69170332  *   1.09629763  *
    15       H         -3.76597644  *   0.93623552  *   0.40104992  *
    16       H          1.32463642  *  -0.93103839  *  -2.36964889  *
    17       H          3.64429072  *   0.60403350  *   1.03006339  *
    18       H         -1.54722258  *  -0.88884015  *  -1.91727320  *
    19       H         -1.35687193  *   0.80486448  *   2.10931416  *
    20       H          1.55506513  *   1.03041450  *   2.30293484  *



          CARTESIAN COORDINATES 

    NO.       ATOM           X           Y           Z

     1         C          2.6813     -0.1978     -0.7751
     2         C         -3.3816     -0.0793      0.2361
     3         C         -1.9173     -0.0653      0.0952
     4         C          0.2321     -0.2738     -0.6615
     5         C          0.2631      0.2978      0.7031
     6         C          1.3496     -0.5086     -1.3595
     7         C          2.6636      0.3747      0.5986
     8         C         -1.1835     -0.4776     -0.9784
     9         C         -1.0165      0.4209      1.1503
    10         C          1.5385      0.6081      1.2931
    11         H          3.2903     -1.1260     -0.7683
    12         H          3.2088      0.5079     -1.4506
    13         H         -3.8739     -0.4854     -0.6566
    14         H         -3.6839     -0.6917      1.0963
    15         H         -3.7660      0.9362      0.4010
    16         H          1.3246     -0.9310     -2.3696
    17         H          3.6443      0.6040      1.0301
    18         H         -1.5472     -0.8888     -1.9173
    19         H         -1.3569      0.8049      2.1093
    20         H          1.5551      1.0304      2.3029

  H: (PM3): J. J. P. STEWART, J. COMP. CHEM. 10, 209 (1989).
  C: (PM3): J. J. P. STEWART, J. COMP. CHEM. 10, 209 (1989).

           Empirical Formula: C10 H10  =    20 atoms



      MOLECULAR POINT GROUP   :   C1  


      RHF CALCULATION, NO. OF DOUBLY OCCUPIED LEVELS = 25



          HEAT OF FORMATION =      54.304923 KCALS/MOLE


          CARTESIAN COORDINATE DERIVATIVES

   NUMBER  ATOM         X            Y            Z

     1       C     -0.000057     0.000060     0.003129
     2       C      0.000999     0.001698     0.011237
     3       C     -0.001822    -0.002162    -0.001901
     4       C      0.001944     0.001595    -0.001823
     5       C     -0.003727    -0.001612    -0.004331
     6       C      0.001947     0.000205     0.007422
     7       C     -0.001987     0.000275     0.001560
     8       C     -0.001667     0.001257    -0.000676
     9       C     -0.002848     0.001681     0.000825
    10       C      0.000745     0.002148    -0.004890
    11       H      0.009312     0.001359     0.000355
    12       H     -0.004707    -0.002141    -0.002674
    13       H      0.005068    -0.001789    -0.005212
    14       H      0.000815     0.001385     0.003220
    15       H     -0.008418    -0.002074    -0.005464
    16       H      0.001329     0.002294     0.013196
    17       H      0.002130     0.000335    -0.002070
    18       H     -0.000747    -0.003146    -0.015244
    19       H      0.002057    -0.000131     0.006649
    20       H     -0.000366    -0.001238    -0.003306



          GRADIENT NORM =   0.03313

          MOLECULAR WEIGHT =  130.19



          ROTATIONAL CONSTANTS IN CM(-1)

          A =    0.12055722   B =    0.03219068   C =    0.02565148



           PRINCIPAL MOMENTS OF INERTIA IN UNITS OF 10**(-40)*GRAM-CM**2

          A =      232.1947   B =      869.5919   C =     1091.2724


          ORIENTATION OF MOLECULE IN FORCE CALCULATION

    NO.       ATOM         X         Y         Z

     1          C      -2.6774   -0.3972   -0.0014
     2          C       3.4704   -0.3972   -0.0014
     3          C       2.0034   -0.2868   -0.0014
     4          C      -0.2447   -0.7129   -0.0035
     5          C      -0.0399    0.7526    0.0032
     6          C      -1.4662   -1.2600   -0.0052
     7          C      -2.4229    1.0692    0.0048
     8          C       1.0952   -1.3048   -0.0065
     9          C       1.2980    1.0028    0.0047
    10          C      -1.1946    1.6113    0.0070
    11          H      -3.2948   -0.6497   -0.8889
    12          H      -3.2951   -0.6574    0.8836
    13          H       3.8012   -1.4434   -0.0139
    14          H       3.8982    0.1027   -0.8809
    15          H       3.8962    0.0808    0.8911
    16          H      -1.6159   -2.3450   -0.0094
    17          H      -3.3147    1.7058    0.0076
    18          H       1.2916   -2.3745   -0.0121
    19          H       1.7988    1.9683    0.0094
    20          H      -1.0367    2.6946    0.0115


    FIRST DERIVATIVES WILL BE USED IN THE CALCULATION OF SECOND DERIVATIVES

          ESTIMATED TIME TO COMPLETE CALCULATION =        1.88 SECONDS

    FOR POINT-GROUP C1   THERE ARE   1 UNIQUE SYMMETRY FUNCTIONS.

 STEP:   1 TIME =     0.02 SECS, INTEGRAL =      0.02 TIME LEFT: 172799.97
 STEP:   2 TIME =     0.02 SECS, INTEGRAL =      0.04 TIME LEFT: 172799.95
 STEP:   3 TIME =     0.02 SECS, INTEGRAL =      0.06 TIME LEFT: 172799.93
 STEP:   4 TIME =     0.02 SECS, INTEGRAL =      0.08 TIME LEFT: 172799.91
 STEP:   5 TIME =     0.02 SECS, INTEGRAL =      0.10 TIME LEFT: 172799.89
 STEP:   6 TIME =     0.02 SECS, INTEGRAL =      0.12 TIME LEFT: 172799.87
 STEP:   7 TIME =     0.02 SECS, INTEGRAL =      0.14 TIME LEFT: 172799.85
 STEP:   8 TIME =     0.02 SECS, INTEGRAL =      0.16 TIME LEFT: 172799.83
 STEP:   9 TIME =     0.02 SECS, INTEGRAL =      0.18 TIME LEFT: 172799.81
 STEP:  10 TIME =     0.02 SECS, INTEGRAL =      0.20 TIME LEFT: 172799.79
 STEP:  11 TIME =     0.02 SECS, INTEGRAL =      0.23 TIME LEFT: 172799.77
 STEP:  12 TIME =     0.02 SECS, INTEGRAL =      0.25 TIME LEFT: 172799.74
 STEP:  13 TIME =     0.02 SECS, INTEGRAL =      0.27 TIME LEFT: 172799.72
 STEP:  14 TIME =     0.02 SECS, INTEGRAL =      0.29 TIME LEFT: 172799.70
 STEP:  15 TIME =     0.02 SECS, INTEGRAL =      0.32 TIME LEFT: 172799.68
 STEP:  16 TIME =     0.02 SECS, INTEGRAL =      0.34 TIME LEFT: 172799.66
 STEP:  17 TIME =     0.02 SECS, INTEGRAL =      0.36 TIME LEFT: 172799.64
 STEP:  18 TIME =     0.02 SECS, INTEGRAL =      0.38 TIME LEFT: 172799.62
 STEP:  19 TIME =     0.02 SECS, INTEGRAL =      0.39 TIME LEFT: 172799.60
 STEP:  20 TIME =     0.02 SECS, INTEGRAL =      0.41 TIME LEFT: 172799.58
 STEP:  21 TIME =     0.02 SECS, INTEGRAL =      0.43 TIME LEFT: 172799.56
 STEP:  22 TIME =     0.02 SECS, INTEGRAL =      0.45 TIME LEFT: 172799.54
 STEP:  23 TIME =     0.02 SECS, INTEGRAL =      0.47 TIME LEFT: 172799.52
 STEP:  24 TIME =     0.02 SECS, INTEGRAL =      0.50 TIME LEFT: 172799.50
 STEP:  25 TIME =     0.02 SECS, INTEGRAL =      0.52 TIME LEFT: 172799.47
 STEP:  26 TIME =     0.02 SECS, INTEGRAL =      0.54 TIME LEFT: 172799.45
 STEP:  27 TIME =     0.02 SECS, INTEGRAL =      0.57 TIME LEFT: 172799.43
 STEP:  28 TIME =     0.02 SECS, INTEGRAL =      0.59 TIME LEFT: 172799.40
 STEP:  29 TIME =     0.02 SECS, INTEGRAL =      0.61 TIME LEFT: 172799.38
 STEP:  30 TIME =     0.02 SECS, INTEGRAL =      0.63 TIME LEFT: 172799.36
 STEP:  31 TIME =     0.02 SECS, INTEGRAL =      0.65 TIME LEFT: 172799.34
 STEP:  32 TIME =     0.02 SECS, INTEGRAL =      0.67 TIME LEFT: 172799.32
 STEP:  33 TIME =     0.02 SECS, INTEGRAL =      0.69 TIME LEFT: 172799.30
 STEP:  34 TIME =     0.02 SECS, INTEGRAL =      0.71 TIME LEFT: 172799.28
 STEP:  35 TIME =     0.02 SECS, INTEGRAL =      0.73 TIME LEFT: 172799.26
 STEP:  36 TIME =     0.02 SECS, INTEGRAL =      0.75 TIME LEFT: 172799.24
 STEP:  37 TIME =     0.02 SECS, INTEGRAL =      0.77 TIME LEFT: 172799.22
 STEP:  38 TIME =     0.02 SECS, INTEGRAL =      0.79 TIME LEFT: 172799.20
 STEP:  39 TIME =     0.02 SECS, INTEGRAL =      0.82 TIME LEFT: 172799.18
 STEP:  40 TIME =     0.02 SECS, INTEGRAL =      0.84 TIME LEFT: 172799.16
 STEP:  41 TIME =     0.02 SECS, INTEGRAL =      0.86 TIME LEFT: 172799.14
 STEP:  42 TIME =     0.02 SECS, INTEGRAL =      0.88 TIME LEFT: 172799.12
 STEP:  43 TIME =     0.02 SECS, INTEGRAL =      0.89 TIME LEFT: 172799.10
 STEP:  44 TIME =     0.02 SECS, INTEGRAL =      0.91 TIME LEFT: 172799.08
 STEP:  45 TIME =     0.02 SECS, INTEGRAL =      0.93 TIME LEFT: 172799.06
 STEP:  46 TIME =     0.02 SECS, INTEGRAL =      0.96 TIME LEFT: 172799.04
 STEP:  47 TIME =     0.02 SECS, INTEGRAL =      0.98 TIME LEFT: 172799.02
 STEP:  48 TIME =     0.02 SECS, INTEGRAL =      1.00 TIME LEFT: 172799.00
 STEP:  49 TIME =     0.02 SECS, INTEGRAL =      1.02 TIME LEFT: 172798.98
 STEP:  50 TIME =     0.02 SECS, INTEGRAL =      1.04 TIME LEFT: 172798.96
 STEP:  51 TIME =     0.02 SECS, INTEGRAL =      1.06 TIME LEFT: 172798.93
 STEP:  52 TIME =     0.02 SECS, INTEGRAL =      1.08 TIME LEFT: 172798.91
 STEP:  53 TIME =     0.02 SECS, INTEGRAL =      1.10 TIME LEFT: 172798.89
 STEP:  54 TIME =     0.02 SECS, INTEGRAL =      1.12 TIME LEFT: 172798.87
 STEP:  55 TIME =     0.02 SECS, INTEGRAL =      1.14 TIME LEFT: 172798.85
 STEP:  56 TIME =     0.02 SECS, INTEGRAL =      1.16 TIME LEFT: 172798.83
 STEP:  57 TIME =     0.02 SECS, INTEGRAL =      1.18 TIME LEFT: 172798.81
 STEP:  58 TIME =     0.02 SECS, INTEGRAL =      1.20 TIME LEFT: 172798.79
 STEP:  59 TIME =     0.02 SECS, INTEGRAL =      1.22 TIME LEFT: 172798.77
 STEP:  60 TIME =     0.02 SECS, INTEGRAL =      1.24 TIME LEFT: 172798.75

(To convert to Hartree/Bohr^2, multiply by (10^(-21) x N x a0^2)/(4.184 x 627.51) =  0.0642)


           FORCE MATRIX IN MILLIDYNES/ANGSTROM


                  C  1       C  2       C  3       C  4       C  5       C  6
 ------------------------------------------------------------------------------
     C    1  14.919125
     C    2   0.011830  14.885688
     C    3   0.073680   5.522944  18.507258
     C    4   0.977256   0.124040   1.633425  19.731569
     C    5   0.206671   0.053007   1.732145   4.628228  19.467495
     C    6   4.887561   0.013780   0.250149  10.018505   0.952053  17.922844
     C    7   4.879495   0.003944   0.116757   0.085008   1.303819   0.684842
     C    8   0.152630   0.676535   8.896380   4.965554   1.175056   0.916999
     C    9   0.092041   0.549424   4.764674   1.447048   8.868437   0.212774
     C   10   0.823436   0.012006   0.247753   0.695091   5.923190   0.088910
     H   11   4.360944   0.001971   0.008227   0.043930   0.018402   0.407191
     H   12   4.360565   0.001963   0.008239   0.043983   0.018425   0.407369
     H   13   0.000211   4.751973   0.469996   0.003352   0.007925   0.001191
     H   14   0.001855   4.705435   0.451386   0.017840   0.004519   0.001174
     H   15   0.001864   4.704648   0.450939   0.017917   0.004535   0.001168
     H   16   0.423032   0.003216   0.018977   0.458908   0.121508   4.850597
     H   17   0.422687   0.000741   0.010104   0.007831   0.125163   0.048705
     H   18   0.004412   0.047035   0.452539   0.420461   0.037551   0.015023
     H   19   0.003534   0.008036   0.424408   0.099881   0.452350   0.009332
     H   20   0.123277   0.000620   0.003057   0.040376   0.441505   0.004782


                  C  7       C  8       C  9       C 10       H 11       H 12
 ------------------------------------------------------------------------------
     C    7  17.839801
     C    8   0.080545  17.935157
     C    9   0.202194   1.545769  17.855536
     C   10  10.064401   0.142935   0.968600  18.431015
     H   11   0.411504   0.022118   0.010199   0.037798   4.949341
     H   12   0.411599   0.022118   0.010217   0.037856   0.564343   4.949331
     H   13   0.000753   0.023556   0.044899   0.002187   0.000107   0.000105
     H   14   0.000622   0.030001   0.015477   0.001384   0.000227   0.000459
     H   15   0.000626   0.029630   0.015350   0.001390   0.000462   0.000228
     H   16   0.046087   0.074689   0.023381   0.007667   0.026297   0.026308
     H   17   4.829336   0.004140   0.006081   0.439882   0.029308   0.029305
     H   18   0.002078   5.075661   0.090116   0.011074   0.001081   0.001080
     H   19   0.006023   0.046966   5.079290   0.048290   0.001041   0.001040
     H   20   0.442630   0.007071   0.011153   4.856828   0.016216   0.016218


                  H 13       H 14       H 15       H 16       H 17       H 18
 ------------------------------------------------------------------------------
     H   13   5.453940
     H   14   0.558188   5.415407
     H   15   0.558425   0.573310   5.414727
     H   16   0.000212   0.000514   0.000518   5.219838
     H   17   0.000171   0.000169   0.000170   0.007451   5.204586
     H   18   0.010554   0.005738   0.005803   0.007393   0.000517   5.483370
     H   19   0.001680   0.003446   0.003310   0.007462   0.003224   0.004869
     H   20   0.000123   0.000166   0.000165   0.001174   0.066629   0.001389


                  H 19       H 20
 ------------------------------
     H   19   5.479481
     H   20   0.005542   5.222586


          HEAT OF FORMATION =      54.304923 KCALS/MOLE

          ZERO POINT ENERGY     105.101 KCAL/MOL


           NORMAL COORDINATE ANALYSIS (Total motion = 1 Angstrom)


   Root No.       1         2         3         4         5         6         7         8

                 1 A       2 A       3 A       4 A       5 A       6 A       7 A       8 A   

                  89.3     109.3     157.3     258.2     263.3     298.6     436.3     457.1
  
           1   -0.0000    0.0000   -0.0000   -0.0047    0.0000   -0.0000   -0.0000   -0.0018
           2    0.0001   -0.0002   -0.0001    0.0274    0.0002   -0.0000   -0.0000   -0.0272
           3   -0.0127    0.0569    0.0259    0.0002   -0.0230    0.0055    0.0036   -0.0001
           4   -0.0000   -0.0000    0.0000    0.0037   -0.0000   -0.0000    0.0000   -0.0105
           5    0.0001   -0.0003    0.0002    0.0749    0.0002   -0.0000    0.0000    0.0204
           6   -0.0082    0.0597   -0.0340    0.0003    0.0124    0.0223   -0.0043    0.0001
           7   -0.0000   -0.0000   -0.0000   -0.0032   -0.0000    0.0000   -0.0000   -0.0118
           8   -0.0001    0.0000   -0.0001   -0.0253   -0.0000    0.0002   -0.0001   -0.0461
           9    0.0022   -0.0040    0.0152   -0.0000   -0.0195   -0.0470    0.0204   -0.0002
          10   -0.0000   -0.0000   -0.0000   -0.0058   -0.0000   -0.0000   -0.0000   -0.0085
          11   -0.0000    0.0002   -0.0000   -0.0328   -0.0001   -0.0002    0.0003    0.0480
          12    0.0005   -0.0466    0.0021   -0.0002   -0.0059    0.0355   -0.0554    0.0002
          13    0.0000   -0.0000    0.0000   -0.0020   -0.0000    0.0000    0.0000    0.0245
          14   -0.0001    0.0001   -0.0001   -0.0331   -0.0001   -0.0003    0.0002    0.0436
          15    0.0072   -0.0307    0.0303   -0.0002   -0.0052    0.0539   -0.0417    0.0002
          16   -0.0000    0.0000   -0.0000   -0.0211   -0.0000   -0.0000    0.0000    0.0124
          17    0.0000    0.0000   -0.0000   -0.0018   -0.0003   -0.0000   -0.0000    0.0100
          18   -0.0095   -0.0084    0.0032   -0.0003    0.0813   -0.0021    0.0116    0.0000
          19    0.0000    0.0000   -0.0000    0.0128    0.0000    0.0000   -0.0000    0.0079
          20    0.0000   -0.0001    0.0002    0.0241    0.0001    0.0002    0.0002   -0.0280
          21    0.0040    0.0198   -0.0491    0.0002   -0.0098   -0.0456   -0.0391   -0.0001
          22   -0.0000    0.0000   -0.0000    0.0017    0.0000   -0.0000   -0.0000   -0.0414
          23   -0.0001    0.0002    0.0001   -0.0313    0.0001    0.0001   -0.0001   -0.0149
          24    0.0020   -0.0498   -0.0191    0.0001   -0.0556   -0.0225    0.0214   -0.0001
          25    0.0000   -0.0000   -0.0000   -0.0062   -0.0000    0.0000    0.0000    0.0362
          26   -0.0001    0.0000   -0.0003   -0.0307   -0.0002    0.0002    0.0000   -0.0153
          27    0.0065   -0.0033    0.0658   -0.0002    0.0192   -0.0371   -0.0070   -0.0001
          28    0.0000   -0.0000    0.0000    0.0232    0.0001    0.0000   -0.0000   -0.0047
          29   -0.0001    0.0001    0.0001   -0.0034   -0.0000   -0.0002   -0.0002    0.0098
          30    0.0129   -0.0239   -0.0276   -0.0001    0.0049    0.0385    0.0591   -0.0000
          31    0.0088   -0.0616   -0.0498   -0.0097    0.1044   -0.0371   -0.0473    0.0009
          32    0.0089   -0.0136   -0.0420    0.0388   -0.0026   -0.0380   -0.0548   -0.0347
          33   -0.0214    0.1039    0.0730    0.0005   -0.0963    0.0430    0.0540    0.0001
          34   -0.0089    0.0617    0.0499   -0.0090   -0.1045    0.0372    0.0474    0.0009
          35   -0.0086    0.0127    0.0414    0.0387    0.0037    0.0377    0.0543   -0.0348
          36   -0.0215    0.1041    0.0735    0.0005   -0.0964    0.0434    0.0545   -0.0005
          37   -0.0001    0.0003   -0.0003    0.0898    0.0005    0.0005   -0.0001    0.0639
          38   -0.0030   -0.0008    0.0002    0.1034    0.0002   -0.0003    0.0002    0.0457
          39    0.2562    0.1165   -0.0465   -0.0001    0.0302    0.0560   -0.0205    0.0001
          40   -0.0289    0.0372   -0.0340   -0.0382    0.0233    0.0551   -0.0263   -0.0484
          41   -0.2334   -0.0365   -0.0007    0.1134   -0.0071   -0.0097    0.0047    0.0554
          42   -0.1554    0.0573   -0.0513    0.0011    0.0197    0.0443   -0.0149    0.0008
          43    0.0290   -0.0377    0.0343   -0.0370   -0.0239   -0.0557    0.0265   -0.0474
          44    0.2375    0.0364    0.0012    0.1125    0.0078    0.0095   -0.0045    0.0552
          45   -0.1495    0.0581   -0.0512    0.0001    0.0198    0.0444   -0.0149   -0.0002
          46   -0.0001    0.0000   -0.0000   -0.0529   -0.0001   -0.0001    0.0001    0.0618
          47    0.0001    0.0000    0.0000    0.0026   -0.0007    0.0002   -0.0004    0.0032
          48   -0.0164   -0.0106   -0.0083   -0.0006    0.1826   -0.0505    0.1022   -0.0001
          49    0.0000    0.0000   -0.0000    0.0242    0.0001    0.0000   -0.0000   -0.0007
          50    0.0000   -0.0001    0.0005    0.0397    0.0002    0.0006    0.0003   -0.0392
          51    0.0083    0.0319   -0.1152    0.0003   -0.0161   -0.1309   -0.0791   -0.0001
          52   -0.0000    0.0000   -0.0000    0.0053    0.0000   -0.0000   -0.0000   -0.1034
          53   -0.0001    0.0003    0.0003   -0.0303    0.0004    0.0001   -0.0004   -0.0260
          54    0.0035   -0.0682   -0.0628    0.0002   -0.1077   -0.0233    0.0648   -0.0001
          55   -0.0000   -0.0000   -0.0000   -0.0085   -0.0000    0.0001    0.0000    0.0970
          56   -0.0001   -0.0001   -0.0005   -0.0293   -0.0004    0.0004   -0.0002   -0.0466
          57    0.0116    0.0199    0.1061   -0.0003    0.0588   -0.0956    0.0371   -0.0002
          58    0.0001   -0.0000    0.0000    0.0545    0.0002    0.0001   -0.0000   -0.0518
          59   -0.0001    0.0002    0.0003   -0.0080   -0.0001   -0.0002   -0.0008    0.0166
          60    0.0248   -0.0507   -0.0696   -0.0002    0.0203    0.0535    0.1906   -0.0001


   Root No.       9        10        11        12        13        14        15        16

                 9 A      10 A      11 A      12 A      13 A      14 A      15 A      16 A   

                 493.7     553.7     585.3     664.3     668.9     763.8     819.1     846.8
  
           1    0.0692    0.0000   -0.0587    0.0000    0.0067   -0.0000   -0.0000   -0.0561
           2   -0.0069   -0.0000   -0.0199    0.0000   -0.0129    0.0001    0.0001   -0.0268
           3   -0.0000    0.0006   -0.0001   -0.0206    0.0001   -0.0348   -0.0267   -0.0001
           4   -0.0682    0.0000   -0.0117    0.0003    0.0728    0.0000   -0.0000   -0.0053
           5    0.0020   -0.0000    0.0082   -0.0000   -0.0031   -0.0000    0.0000    0.0001
           6   -0.0000    0.0046    0.0000   -0.0010    0.0000   -0.0007   -0.0033   -0.0000
           7   -0.0493   -0.0000   -0.0053    0.0002    0.0367    0.0000    0.0000   -0.0022
           8    0.0140   -0.0005    0.0353   -0.0000   -0.0080    0.0000    0.0000   -0.0022
           9    0.0000    0.0957    0.0002   -0.0081   -0.0001   -0.0033   -0.0023   -0.0000
          10   -0.0041   -0.0000   -0.0394   -0.0002   -0.0493   -0.0000    0.0000    0.0263
          11   -0.0095   -0.0001   -0.0023   -0.0003    0.0069    0.0001   -0.0000   -0.0057
          12   -0.0000    0.0134   -0.0000    0.0721   -0.0004   -0.0227    0.0058   -0.0000
          13   -0.0138   -0.0000    0.0428   -0.0001   -0.0309   -0.0000   -0.0000   -0.0266
          14   -0.0002   -0.0000   -0.0140    0.0003    0.0099   -0.0002    0.0000    0.0112
          15   -0.0000    0.0044   -0.0002   -0.0565    0.0004    0.0459   -0.0046    0.0001
          16    0.0243   -0.0000   -0.0500   -0.0001   -0.0261    0.0000   -0.0000   -0.0003
          17   -0.0544   -0.0001   -0.0111   -0.0002   -0.0609   -0.0000    0.0001    0.0520
          18   -0.0002    0.0047   -0.0000   -0.0009   -0.0002    0.0019   -0.0177    0.0002
          19    0.0562    0.0000    0.0600    0.0001    0.0244    0.0000    0.0000    0.0544
          20    0.0018    0.0000   -0.0423    0.0000   -0.0022    0.0000   -0.0001   -0.0408
          21   -0.0000   -0.0044   -0.0002   -0.0121    0.0001   -0.0071    0.0246   -0.0002
          22   -0.0213   -0.0000   -0.0216   -0.0001   -0.0225   -0.0000    0.0000    0.0441
          23   -0.0060    0.0002    0.0413    0.0002    0.0388    0.0000   -0.0001   -0.0381
          24    0.0000   -0.0382    0.0002   -0.0042    0.0002   -0.0025    0.0217   -0.0002
          25   -0.0253   -0.0000    0.0315   -0.0001   -0.0188   -0.0000   -0.0000   -0.0355
          26    0.0171    0.0002    0.0385   -0.0002   -0.0293   -0.0001    0.0000   -0.0164
          27    0.0001   -0.0382    0.0002    0.0109   -0.0002    0.0104   -0.0092   -0.0000
          28    0.0335    0.0000    0.0584   -0.0000   -0.0016   -0.0000    0.0000    0.0089
          29    0.0434    0.0000   -0.0401    0.0003    0.0604    0.0001   -0.0000    0.0697
          30    0.0002    0.0070   -0.0002   -0.0075    0.0003   -0.0247    0.0210    0.0003
          31    0.0667    0.0082   -0.0778   -0.0776   -0.0042   -0.0973   -0.0828   -0.0742
          32    0.0085   -0.0051    0.0132   -0.0371    0.0151   -0.0453    0.0198   -0.0216
          33   -0.0021   -0.0038    0.0031    0.0471   -0.0003    0.0494    0.0276    0.0085
          34    0.0668   -0.0082   -0.0777    0.0777   -0.0052    0.0974    0.0828   -0.0745
          35    0.0085    0.0052    0.0134    0.0368    0.0146    0.0449   -0.0199   -0.0215
          36    0.0022   -0.0038   -0.0029    0.0476   -0.0002    0.0500    0.0275   -0.0088
          37   -0.0855   -0.0008   -0.0411    0.0005    0.0884    0.0001    0.0001   -0.0310
          38   -0.0034    0.0003   -0.0010   -0.0001    0.0013   -0.0000   -0.0001   -0.0091
          39   -0.0000   -0.0464   -0.0000    0.0114    0.0000    0.0018    0.0094   -0.0000
          40   -0.0674   -0.1025    0.0006    0.0226    0.0821    0.0044    0.0230    0.0059
          41   -0.0025    0.0081   -0.0031   -0.0026   -0.0032   -0.0005   -0.0021   -0.0127
          42   -0.0016   -0.0423   -0.0003    0.0089    0.0034    0.0011    0.0073   -0.0011
          43   -0.0677    0.1035    0.0001   -0.0221    0.0825   -0.0044   -0.0233    0.0056
          44   -0.0026   -0.0077   -0.0031    0.0025   -0.0031    0.0005    0.0020   -0.0127
          45    0.0016   -0.0423    0.0003    0.0089   -0.0035    0.0011    0.0073    0.0010
          46    0.0258   -0.0000   -0.0422   -0.0001   -0.0231    0.0001    0.0001    0.0285
          47   -0.0538    0.0000   -0.0125   -0.0001   -0.0612   -0.0006   -0.0007    0.0487
          48   -0.0003   -0.0284    0.0001   -0.0435   -0.0000    0.1606    0.1763   -0.0001
          49    0.0364    0.0000    0.0996   -0.0000    0.0009    0.0000    0.0000    0.0493
          50   -0.0265    0.0000    0.0131   -0.0007   -0.0342   -0.0010    0.0004   -0.0480
          51   -0.0001   -0.0092    0.0001    0.1338   -0.0010    0.2226   -0.1054   -0.0002
          52   -0.0052   -0.0000    0.0033   -0.0003   -0.0641    0.0000    0.0000    0.0971
          53   -0.0028    0.0012    0.0462    0.0008    0.0311   -0.0002    0.0008   -0.0293
          54    0.0002   -0.2214    0.0001   -0.1267    0.0012    0.0397   -0.1478   -0.0000
          55   -0.0302    0.0000    0.0112   -0.0002   -0.0380    0.0000   -0.0000   -0.0520
          56    0.0192    0.0010    0.0493   -0.0006   -0.0192    0.0006   -0.0002   -0.0087
          57    0.0002   -0.2166    0.0004    0.0937   -0.0004   -0.1259    0.0417   -0.0003
          58    0.0462    0.0000    0.0519   -0.0001   -0.0153    0.0000   -0.0001   -0.0451
          59    0.0409   -0.0000   -0.0391   -0.0004    0.0623   -0.0002    0.0007    0.0786
          60    0.0002    0.0226   -0.0000    0.1522   -0.0007    0.0496   -0.1546    0.0005


   Root No.      17        18        19        20        21        22        23        24

                17 A      18 A      19 A      20 A      21 A      22 A      23 A      24 A   

                 874.0     901.8     904.3     951.1     967.6     992.6    1004.7    1009.2
  
           1   -0.0000    0.0120   -0.0001    0.0000   -0.0041   -0.0444    0.0000   -0.0001
           2    0.0001   -0.0028   -0.0000   -0.0001   -0.0004   -0.0310   -0.0001   -0.0000
           3   -0.0257    0.0001    0.0142    0.0252    0.0000   -0.0001    0.0356   -0.0074
           4   -0.0000    0.0132   -0.0001   -0.0000    0.0007   -0.0090   -0.0000   -0.0000
           5   -0.0001   -0.0003    0.0000   -0.0000   -0.0583   -0.0006   -0.0000   -0.0002
           6    0.0186    0.0000    0.0057    0.0108   -0.0003   -0.0001    0.0074    0.0469
           7   -0.0000    0.0024   -0.0000   -0.0000    0.0037    0.0027   -0.0000   -0.0001
           8   -0.0001   -0.0033    0.0000    0.0000   -0.0051    0.0008    0.0000    0.0003
           9    0.0113   -0.0000    0.0040   -0.0044   -0.0000    0.0001   -0.0086   -0.0590
          10    0.0000    0.0036   -0.0000    0.0000    0.0032    0.0022    0.0000    0.0000
          11   -0.0001    0.0335   -0.0002   -0.0001   -0.0043    0.0093   -0.0001    0.0000
          12    0.0214   -0.0000   -0.0236    0.0204   -0.0000    0.0001    0.0202   -0.0109
          13   -0.0000   -0.0228    0.0002   -0.0000   -0.0007    0.0001    0.0000    0.0000
          14   -0.0000   -0.0312    0.0001   -0.0000   -0.0004   -0.0025    0.0001    0.0001
          15    0.0012    0.0002    0.0449    0.0103    0.0000   -0.0000   -0.0206   -0.0053
          16    0.0000    0.0190   -0.0002   -0.0000    0.0007    0.0190   -0.0000    0.0000
          17    0.0000    0.0464   -0.0004    0.0002   -0.0017   -0.0321    0.0002   -0.0001
          18    0.0082    0.0002    0.0020   -0.0396   -0.0000   -0.0002   -0.0390    0.0117
          19    0.0000    0.0162   -0.0001    0.0000    0.0027   -0.0210   -0.0000   -0.0000
          20   -0.0001   -0.0092    0.0002   -0.0000   -0.0009    0.0519    0.0002    0.0001
          21    0.0087   -0.0002   -0.0238    0.0057   -0.0000    0.0002   -0.0486    0.0080
          22   -0.0000   -0.0278    0.0002   -0.0000    0.0068    0.0088   -0.0000   -0.0000
          23    0.0002    0.0162   -0.0003    0.0000    0.0079    0.0035    0.0000   -0.0003
          24   -0.0466    0.0004    0.0311   -0.0108    0.0001   -0.0000   -0.0051    0.0301
          25   -0.0000   -0.0399    0.0003   -0.0000   -0.0081    0.0046   -0.0000    0.0000
          26    0.0001   -0.0159    0.0004    0.0001    0.0329   -0.0071   -0.0000    0.0001
          27   -0.0263   -0.0005   -0.0630   -0.0073    0.0001   -0.0001    0.0134    0.0219
          28    0.0000    0.0201   -0.0002   -0.0000   -0.0004    0.0114    0.0000    0.0000
          29   -0.0001   -0.0311    0.0003    0.0001    0.0030    0.0165   -0.0002    0.0000
          30    0.0124   -0.0002   -0.0090   -0.0329    0.0000    0.0001    0.0422   -0.0024
          31   -0.0596    0.0309    0.0425    0.0208   -0.0090   -0.0443    0.0787   -0.0076
          32   -0.0182   -0.0362   -0.0180    0.0936    0.0078   -0.0827    0.0054   -0.0223
          33    0.0229   -0.0028   -0.0113   -0.0173    0.0010    0.0147   -0.0225    0.0045
          34    0.0597    0.0302   -0.0431   -0.0208   -0.0090   -0.0443   -0.0788    0.0075
          35    0.0181   -0.0360    0.0186   -0.0933    0.0077   -0.0826   -0.0053    0.0220
          36    0.0231    0.0023   -0.0113   -0.0182   -0.0009   -0.0154   -0.0227    0.0046
          37   -0.0008    0.0154   -0.0005   -0.0004    0.3125   -0.0106   -0.0002   -0.0016
          38    0.0003    0.0001    0.0001    0.0001    0.0453   -0.0006    0.0001    0.0005
          39   -0.0361   -0.0000   -0.0091   -0.0160    0.0002    0.0000   -0.0096   -0.0606
          40   -0.1032    0.0197   -0.0288   -0.0517   -0.1581   -0.0181   -0.0329   -0.2085
          41    0.0084   -0.0025    0.0026    0.0037    0.0856    0.0031    0.0021    0.0139
          42   -0.0289    0.0015   -0.0071   -0.0132    0.0023   -0.0019   -0.0081   -0.0504
          43    0.1042    0.0201    0.0289    0.0523   -0.1540   -0.0185    0.0333    0.2109
          44   -0.0083   -0.0025   -0.0026   -0.0037    0.0852    0.0030   -0.0021   -0.0138
          45   -0.0289   -0.0016   -0.0071   -0.0132   -0.0014    0.0020   -0.0080   -0.0504
          46    0.0000    0.0975   -0.0008    0.0001   -0.0052    0.1915    0.0000    0.0002
          47    0.0000    0.0375   -0.0002   -0.0007   -0.0008   -0.0563   -0.0005    0.0001
          48    0.0052   -0.0001   -0.0240    0.1874    0.0000   -0.0002    0.1207   -0.0559
          49    0.0001    0.0384   -0.0003   -0.0000    0.0051    0.0329    0.0000    0.0001
          50    0.0000    0.0180   -0.0008    0.0004    0.0026    0.1269   -0.0008    0.0003
          51    0.0005    0.0011    0.1438   -0.0827    0.0000    0.0006    0.1751   -0.0228
          52   -0.0000   -0.1471    0.0012   -0.0000    0.0489    0.0223   -0.0000   -0.0001
          53   -0.0011   -0.0046    0.0008   -0.0002    0.0160    0.0062   -0.0001    0.0004
          54    0.1971   -0.0014   -0.1553    0.0293   -0.0000    0.0002    0.0171   -0.1025
          55   -0.0001   -0.1571    0.0013   -0.0000   -0.0845    0.0249   -0.0000    0.0001
          56   -0.0006    0.0423   -0.0017   -0.0002    0.0731   -0.0175    0.0003    0.0005
          57    0.1389    0.0020    0.2802    0.0353    0.0005    0.0000   -0.0460   -0.0707
          58    0.0001    0.1009   -0.0008    0.0000   -0.0005    0.1686   -0.0000    0.0002
          59    0.0004   -0.0440    0.0003   -0.0008    0.0032   -0.0036    0.0007   -0.0000
          60   -0.0931   -0.0000    0.0108    0.1795    0.0000   -0.0001   -0.1582    0.0041


   Root No.      25        26        27        28        29        30        31        32

                25 A      26 A      27 A      28 A      29 A      30 A      31 A      32 A   

                1043.7    1051.3    1065.9    1139.5    1148.7    1151.2    1193.3    1298.8
  
           1   -0.0125    0.0000   -0.0058   -0.0016   -0.0042    0.0111   -0.0044   -0.0005
           2   -0.0001    0.0001    0.0163   -0.0028   -0.0053    0.0034    0.0148    0.0053
           3    0.0000    0.0009    0.0001   -0.0000   -0.0000    0.0000    0.0001    0.0000
           4    0.0260   -0.0001   -0.0103    0.0013    0.0023    0.0230    0.0026    0.0033
           5    0.0077   -0.0000   -0.0012   -0.0016   -0.0088   -0.0018   -0.0041    0.0005
           6   -0.0001    0.0009    0.0000   -0.0000   -0.0001   -0.0000   -0.0000    0.0000
           7   -0.0163    0.0001    0.0073   -0.0015   -0.0004   -0.0293   -0.0030    0.0173
           8   -0.0144    0.0001    0.0007    0.0034    0.0152   -0.0033    0.0142   -0.0028
           9    0.0000   -0.0018   -0.0000    0.0000    0.0001   -0.0000    0.0001   -0.0000
          10    0.0097   -0.0000    0.0063    0.0041    0.0191   -0.0124   -0.0037   -0.0228
          11   -0.0081    0.0002    0.0172    0.0002   -0.0111    0.0067   -0.0299    0.0001
          12   -0.0001   -0.0111    0.0001    0.0000   -0.0001    0.0000   -0.0001   -0.0000
          13    0.0118   -0.0001   -0.0088   -0.0020   -0.0218   -0.0131    0.0021   -0.0002
          14    0.0118   -0.0000    0.0025   -0.0075    0.0016    0.0081   -0.0308    0.0141
          15    0.0001   -0.0018    0.0000   -0.0000    0.0000    0.0000   -0.0001    0.0001
          16    0.0079    0.0001    0.0212   -0.0010    0.0123   -0.0051   -0.0157   -0.0360
          17   -0.0230   -0.0002   -0.0204    0.0051   -0.0011    0.0092    0.0130    0.0031
          18   -0.0000    0.0400   -0.0002    0.0000   -0.0000    0.0000    0.0001    0.0000
          19   -0.0026    0.0000    0.0057   -0.0058    0.0063    0.0058    0.0074   -0.0013
          20    0.0066    0.0001   -0.0140   -0.0082   -0.0094   -0.0091    0.0136   -0.0220
          21   -0.0001   -0.0398    0.0001   -0.0000   -0.0000   -0.0000    0.0001   -0.0001
          22   -0.0047    0.0001    0.0100    0.0034    0.0146   -0.0212   -0.0025    0.0331
          23   -0.0554    0.0002    0.0122   -0.0023    0.0092   -0.0187    0.0065   -0.0129
          24   -0.0003    0.0028    0.0001   -0.0000    0.0000   -0.0001    0.0000   -0.0001
          25   -0.0031   -0.0000   -0.0093    0.0016   -0.0254   -0.0221   -0.0003    0.0034
          26    0.0638   -0.0003   -0.0236    0.0124    0.0140    0.0214    0.0129    0.0068
          27    0.0003    0.0018   -0.0001    0.0001    0.0001    0.0001    0.0001    0.0000
          28   -0.0033   -0.0000   -0.0074   -0.0029   -0.0037   -0.0007    0.0115   -0.0178
          29    0.0018   -0.0002   -0.0208    0.0102   -0.0026   -0.0154    0.0061    0.0034
          30    0.0000    0.0133   -0.0001    0.0000   -0.0000   -0.0001    0.0000    0.0000
          31   -0.0406   -0.1278   -0.0737   -0.0505   -0.0118    0.0260    0.0254    0.1286
          32    0.0531    0.3208    0.1891    0.0957   -0.0031    0.0101   -0.0438    0.0250
          33    0.0046   -0.0013   -0.0002    0.0037    0.0040   -0.0100   -0.0032   -0.0818
          34   -0.0401    0.1271   -0.0745   -0.0506   -0.0118    0.0260    0.0254    0.1285
          35    0.0518   -0.3188    0.1912    0.0960   -0.0031    0.0100   -0.0439    0.0242
          36   -0.0042   -0.0040    0.0018   -0.0029   -0.0040    0.0101    0.0028    0.0820
          37    0.0066   -0.0002   -0.0165    0.0110    0.0406    0.0759    0.0280   -0.0610
          38   -0.0011   -0.0000   -0.0024    0.0015    0.0039    0.0113    0.0042   -0.0167
          39    0.0002   -0.0011   -0.0001    0.0000    0.0001    0.0003    0.0001   -0.0004
          40    0.0802   -0.0044   -0.0266    0.0006   -0.0143    0.0728    0.0005   -0.0601
          41   -0.0219    0.0004    0.0044    0.0011    0.0077   -0.0123    0.0042    0.0062
          42    0.0076   -0.0010   -0.0037    0.0009    0.0009    0.0142    0.0028   -0.0220
          43    0.0787    0.0037   -0.0263    0.0006   -0.0139    0.0724    0.0007   -0.0601
          44   -0.0216   -0.0002    0.0043    0.0011    0.0077   -0.0120    0.0042    0.0057
          45   -0.0076   -0.0009    0.0037   -0.0008   -0.0008   -0.0143   -0.0027    0.0220
          46    0.0305    0.0007    0.1428    0.0324   -0.1232    0.0793    0.2163    0.0924
          47   -0.0265    0.0002   -0.0345    0.0017    0.0167   -0.0011   -0.0178   -0.0150
          48   -0.0002   -0.0780    0.0000    0.0000    0.0001   -0.0000   -0.0002   -0.0001
          49    0.0197    0.0002    0.0483   -0.1735    0.0876    0.0460   -0.0652    0.0509
          50    0.0394   -0.0002    0.0476   -0.2397    0.1017    0.0445   -0.0861    0.0490
          51    0.0003    0.0670    0.0000   -0.0010    0.0004    0.0002   -0.0004    0.0002
          52   -0.1541    0.0005    0.0065   -0.0434   -0.2024    0.1917   -0.0891   -0.0438
          53   -0.0866    0.0004    0.0125   -0.0111   -0.0302    0.0196   -0.0094   -0.0291
          54   -0.0003   -0.0074    0.0000   -0.0001   -0.0001    0.0001   -0.0000   -0.0001
          55   -0.1028    0.0004    0.0041    0.0727    0.2211    0.1231    0.1001   -0.0059
          56    0.1179   -0.0005   -0.0321   -0.0234   -0.1133   -0.0535   -0.0383    0.0133
          57    0.0006   -0.0102   -0.0001   -0.0001   -0.0005   -0.0002   -0.0001    0.0001
          58   -0.0315   -0.0003   -0.0890    0.2546    0.0394    0.0490   -0.1706    0.0849
          59    0.0066    0.0000   -0.0105   -0.0274   -0.0088   -0.0235    0.0320   -0.0112
          60   -0.0000   -0.0252    0.0000   -0.0001   -0.0000   -0.0001    0.0001   -0.0001


   Root No.      33        34        35        36        37        38        39        40

                33 A      34 A      35 A      36 A      37 A      38 A      39 A      40 A   

                1334.5    1357.9    1373.1    1389.4    1392.3    1419.7    1479.5    1515.2
  
           1   -0.0009   -0.0299    0.0321    0.0000   -0.0041   -0.0621    0.0025    0.0168
           2    0.0339   -0.0038    0.0238   -0.0001   -0.0023    0.1091   -0.0164   -0.0476
           3    0.0001   -0.0000    0.0001    0.0000   -0.0000    0.0005   -0.0001   -0.0002
           4    0.0083   -0.0334   -0.0263    0.0001    0.0105    0.0077    0.0748   -0.0251
           5   -0.0001   -0.0066   -0.0073    0.0013   -0.0353    0.0032   -0.0186    0.0064
           6    0.0000   -0.0002   -0.0002   -0.0443   -0.0010    0.0000   -0.0001    0.0000
           7    0.0079   -0.0127   -0.0023    0.0000    0.0078   -0.0028   -0.0690    0.0294
           8   -0.0074    0.0179    0.0165   -0.0001   -0.0107   -0.0138    0.1095   -0.0541
           9   -0.0000    0.0001    0.0001   -0.0007   -0.0001   -0.0001    0.0005   -0.0003
          10   -0.0254    0.0005   -0.0115    0.0000    0.0010    0.0453    0.0099    0.0179
          11    0.0567    0.0184   -0.0077   -0.0001    0.0027   -0.0421   -0.0226   -0.0853
          12    0.0003    0.0001   -0.0000   -0.0001    0.0000   -0.0002   -0.0001   -0.0004
          13   -0.0086    0.0024    0.0027    0.0000   -0.0025   -0.0053    0.0035    0.0057
          14    0.0213    0.0066    0.0146   -0.0001   -0.0035    0.0409    0.0611    0.1216
          15    0.0001    0.0000    0.0001   -0.0001   -0.0000    0.0002    0.0003    0.0006
          16   -0.0080    0.0064   -0.0241   -0.0000    0.0040    0.0428   -0.0064   -0.0322
          17   -0.0281   -0.0125    0.0028    0.0001   -0.0008   -0.0384    0.0035    0.0226
          18   -0.0001   -0.0001    0.0000    0.0000   -0.0000   -0.0002    0.0000    0.0001
          19    0.0166    0.0018   -0.0022   -0.0000    0.0018    0.0185   -0.0032    0.0094
          20    0.0161    0.0109   -0.0221    0.0000    0.0039   -0.0455    0.0145    0.0426
          21    0.0001    0.0000   -0.0001    0.0000    0.0000   -0.0002    0.0001    0.0002
          22    0.0469    0.0194    0.0212   -0.0001   -0.0057   -0.0400   -0.0192    0.0015
          23   -0.0252   -0.0037   -0.0043    0.0001   -0.0008    0.0239   -0.0410    0.0423
          24   -0.0001   -0.0000   -0.0000   -0.0003   -0.0000    0.0001   -0.0002    0.0002
          25   -0.0368    0.0003    0.0157    0.0000   -0.0081   -0.0011    0.0172   -0.0575
          26    0.0076   -0.0207   -0.0163    0.0000    0.0110   -0.0073   -0.0684   -0.0004
          27    0.0000   -0.0001   -0.0001    0.0002    0.0000   -0.0000   -0.0003   -0.0000
          28    0.0269    0.0135   -0.0180   -0.0000    0.0031   -0.0190    0.0205    0.0352
          29   -0.0387   -0.0079    0.0023    0.0000   -0.0016   -0.0048   -0.0200   -0.0474
          30   -0.0002   -0.0000    0.0000   -0.0000   -0.0000   -0.0000   -0.0001   -0.0002
          31   -0.0366    0.0923   -0.0771   -0.0000    0.0068    0.0580   -0.0036   -0.0128
          32   -0.0911    0.0250   -0.0518    0.0001    0.0035   -0.1077    0.0159    0.0300
          33    0.0522   -0.0804    0.0841    0.0000   -0.0079   -0.0189   -0.0047   -0.0011
          34   -0.0364    0.0921   -0.0769   -0.0001    0.0068    0.0579   -0.0036   -0.0128
          35   -0.0907    0.0242   -0.0510    0.0001    0.0034   -0.1080    0.0159    0.0300
          36   -0.0529    0.0806   -0.0845   -0.0000    0.0079    0.0180    0.0049    0.0014
          37   -0.0378    0.1232    0.0676    0.0020   -0.1910   -0.0205   -0.0280    0.0010
          38   -0.0136    0.0369    0.0205   -0.0043   -0.0721   -0.0050   -0.0394    0.0105
          39   -0.0003    0.0013    0.0012    0.4330    0.0045    0.0000   -0.0002    0.0000
          40   -0.0501    0.1108    0.0735   -0.1200    0.0344   -0.0061   -0.1017    0.0335
          41   -0.0068    0.0014    0.0219    0.2197    0.2572   -0.0015    0.0519   -0.0170
          42   -0.0266    0.0613    0.0551    0.0520    0.1666   -0.0079   -0.0348    0.0118
          43   -0.0502    0.1115    0.0742    0.1170    0.0378   -0.0062   -0.1008    0.0332
          44   -0.0074    0.0021    0.0224   -0.2304    0.2554   -0.0018    0.0505   -0.0165
          45    0.0263   -0.0608   -0.0542    0.0536   -0.1588    0.0078    0.0357   -0.0121
          46   -0.0314   -0.0402    0.0677    0.0000   -0.0105    0.0311    0.0128    0.0622
          47   -0.0262   -0.0074   -0.0097    0.0000    0.0013   -0.0383   -0.0006    0.0089
          48   -0.0001   -0.0000   -0.0001   -0.0001    0.0000   -0.0002   -0.0000   -0.0000
          49   -0.0647   -0.0354    0.0420    0.0001   -0.0067    0.0087   -0.0251   -0.0472
          50   -0.0991   -0.0395    0.0370    0.0001   -0.0079   -0.0627   -0.0151   -0.0370
          51   -0.0004   -0.0002    0.0002    0.0000   -0.0000   -0.0003   -0.0001   -0.0001
          52    0.0049   -0.0304   -0.0466    0.0000    0.0209    0.0133   -0.0500   -0.0246
          53   -0.0351   -0.0122   -0.0172    0.0001    0.0034    0.0355   -0.0502    0.0395
          54   -0.0002   -0.0001   -0.0001    0.0007    0.0000    0.0002   -0.0003    0.0002
          55    0.0301   -0.0220   -0.0333    0.0000    0.0162   -0.0352   -0.0682   -0.0418
          56   -0.0285   -0.0111    0.0093    0.0000   -0.0010    0.0098   -0.0282   -0.0126
          57   -0.0001   -0.0001    0.0000    0.0002    0.0000    0.0000   -0.0002   -0.0001
          58   -0.0497   -0.0239    0.0591   -0.0000   -0.0110    0.0901    0.0026   -0.0028
          59   -0.0313   -0.0028   -0.0090    0.0000    0.0003   -0.0218   -0.0177   -0.0441
          60   -0.0001   -0.0000   -0.0000   -0.0000    0.0000   -0.0001   -0.0001   -0.0002


   Root No.      41        42        43        44        45        46        47        48

                41 A      42 A      43 A      44 A      45 A      46 A      47 A      48 A   

                1779.9    1813.5    1858.5    1920.8    2925.3    3003.7    3051.4    3063.8
  
           1   -0.0015    0.0060    0.0084    0.0196    0.0000   -0.0361   -0.0020   -0.0031
           2   -0.0141    0.0187    0.0152   -0.0083    0.0003   -0.0149   -0.0007   -0.0013
           3   -0.0001    0.0001    0.0001   -0.0000   -0.0609   -0.0001   -0.0000   -0.0000
           4   -0.0437   -0.0293    0.0074    0.0147    0.0000   -0.0000   -0.0000   -0.0000
           5    0.0014   -0.0021    0.0029    0.0001   -0.0000   -0.0000   -0.0000   -0.0002
           6    0.0000   -0.0000    0.0000    0.0000    0.0000    0.0000   -0.0000   -0.0000
           7    0.1275    0.0997   -0.0333   -0.0494   -0.0000   -0.0000    0.0000   -0.0002
           8    0.0579    0.0573   -0.0404   -0.0244   -0.0000    0.0001   -0.0001    0.0001
           9    0.0003    0.0003   -0.0002   -0.0001    0.0000    0.0000   -0.0000    0.0000
          10    0.0393    0.0033    0.0174    0.2376   -0.0000    0.0007   -0.0004    0.0055
          11    0.0111    0.0064   -0.0013    0.0967    0.0000    0.0000    0.0001    0.0020
          12    0.0000    0.0000   -0.0000    0.0003   -0.0003    0.0000    0.0000    0.0000
          13   -0.1166    0.0839   -0.1504    0.0322    0.0000   -0.0003    0.0001    0.0003
          14    0.0149    0.0056    0.0202   -0.0315   -0.0000   -0.0001    0.0002    0.0003
          15    0.0000    0.0000    0.0001   -0.0001    0.0001   -0.0000    0.0000    0.0000
          16   -0.0280   -0.0026   -0.0130   -0.1983   -0.0000   -0.0002    0.0008   -0.0132
          17   -0.0058   -0.0078   -0.0014   -0.0580    0.0000    0.0037    0.0030   -0.0634
          18   -0.0000   -0.0000    0.0000   -0.0002   -0.0001    0.0000    0.0000   -0.0002
          19    0.0556   -0.0950   -0.1101   -0.0028   -0.0000    0.0031   -0.0352    0.0009
          20    0.0382   -0.0608   -0.0686    0.0007   -0.0000   -0.0029    0.0241    0.0003
          21    0.0002   -0.0002   -0.0003    0.0000   -0.0001   -0.0000    0.0001    0.0000
          22   -0.0797   -0.0641    0.0294   -0.0161    0.0000   -0.0001    0.0001   -0.0003
          23   -0.0725   -0.0543    0.0215    0.0331    0.0000    0.0000    0.0001   -0.0002
          24   -0.0004   -0.0003    0.0001    0.0002   -0.0001    0.0000    0.0000   -0.0000
          25    0.0618   -0.0879    0.0862   -0.0307   -0.0000    0.0001   -0.0001    0.0000
          26    0.0160   -0.0045    0.0193   -0.0101    0.0000   -0.0001   -0.0001   -0.0000
          27    0.0001   -0.0000    0.0001   -0.0001   -0.0000    0.0000   -0.0000   -0.0000
          28   -0.0243    0.0819    0.1637   -0.0112   -0.0000    0.0003   -0.0026   -0.0016
          29   -0.0358    0.0397    0.0126    0.0109    0.0000    0.0000   -0.0275   -0.0080
          30   -0.0001    0.0002    0.0000    0.0000   -0.0003    0.0000   -0.0001   -0.0000
          31    0.0011    0.0023    0.0023    0.0154    0.2652    0.2168    0.0118    0.0189
          32   -0.0071    0.0108    0.0155   -0.0112    0.1082    0.0882    0.0077    0.0041
          33   -0.0040    0.0021   -0.0007   -0.0033    0.3692    0.3616    0.0205    0.0283
          34    0.0011    0.0023    0.0023    0.0154   -0.2652    0.2171    0.0118    0.0190
          35   -0.0071    0.0109    0.0156   -0.0113   -0.1113    0.0914    0.0079    0.0044
          36    0.0039   -0.0020    0.0008    0.0033    0.3680   -0.3608   -0.0205   -0.0283
          37    0.0231    0.0237   -0.0149   -0.0056   -0.0000   -0.0000    0.0000   -0.0004
          38    0.0213    0.0132   -0.0037   -0.0060   -0.0000    0.0000    0.0000    0.0013
          39    0.0002    0.0001   -0.0000   -0.0001   -0.0000    0.0000    0.0000    0.0000
          40   -0.0074   -0.0084    0.0057    0.0038   -0.0000    0.0000   -0.0000    0.0005
          41   -0.0077   -0.0047    0.0003    0.0014   -0.0000    0.0000   -0.0000    0.0005
          42    0.0068    0.0047   -0.0008   -0.0030    0.0000   -0.0001    0.0000   -0.0010
          43   -0.0072   -0.0081    0.0056    0.0037    0.0000    0.0000   -0.0000    0.0005
          44   -0.0075   -0.0045    0.0002    0.0013    0.0000    0.0000   -0.0000    0.0005
          45   -0.0070   -0.0048    0.0009    0.0031    0.0000    0.0001   -0.0000    0.0011
          46    0.0044    0.0036    0.0162    0.0284    0.0000   -0.0081   -0.0051    0.0968
          47   -0.0155   -0.0104   -0.0061   -0.1313    0.0000   -0.0386   -0.0386    0.7304
          48   -0.0001   -0.0000   -0.0000   -0.0006   -0.0014   -0.0001   -0.0002    0.0028
          49    0.0117   -0.0280   -0.0423    0.0067   -0.0000   -0.0388    0.4050   -0.0070
          50   -0.0415    0.0625    0.0578    0.0146    0.0000    0.0240   -0.2950    0.0046
          51   -0.0002    0.0003    0.0002    0.0001   -0.0015    0.0001   -0.0013    0.0000
          52    0.0553    0.0385   -0.0096    0.0070    0.0000    0.0001    0.0001   -0.0011
          53   -0.0673   -0.0499    0.0193    0.0535   -0.0000   -0.0001   -0.0006    0.0027
          54   -0.0003   -0.0002    0.0001    0.0002    0.0000   -0.0000   -0.0000    0.0000
          55    0.0435    0.0219    0.0059   -0.0185    0.0000    0.0005    0.0005   -0.0007
          56    0.0456   -0.0747    0.0822   -0.0332   -0.0000    0.0009    0.0005   -0.0015
          57    0.0002   -0.0003    0.0004   -0.0002   -0.0000    0.0000    0.0000   -0.0000
          58   -0.0117   -0.0006   -0.0397   -0.0050   -0.0000    0.0009    0.0446    0.0133
          59   -0.0490    0.0694    0.0579    0.0126    0.0000    0.0029    0.3295    0.0926
          60   -0.0002    0.0003    0.0002    0.0001   -0.0008    0.0000    0.0014    0.0004


   Root No.      49        50        51        52        53        54

                49 A      50 A      51 A      52 A      53 A      54 A   

                3068.2    3071.8    3078.7    3143.8    3148.2    3166.9
  
           1    0.0000    0.0022    0.0000    0.0001   -0.0001   -0.0000
           2    0.0000    0.0010    0.0000    0.0000   -0.0000   -0.0000
           3    0.0000    0.0000    0.0000    0.0000   -0.0000    0.0000
           4    0.0000    0.0000   -0.0039    0.0001    0.0002    0.0244
           5    0.0003    0.0001   -0.0510    0.0000    0.0005   -0.0033
           6   -0.0579   -0.0000   -0.0003    0.0000    0.0000   -0.0000
           7   -0.0000    0.0001   -0.0004    0.0015    0.0033    0.0002
           8   -0.0000    0.0000   -0.0003    0.0020    0.0015   -0.0000
           9   -0.0001    0.0000   -0.0000    0.0000    0.0000   -0.0000
          10   -0.0000   -0.0008   -0.0001   -0.0001   -0.0018    0.0001
          11    0.0000    0.0002    0.0000    0.0006   -0.0007   -0.0000
          12   -0.0001    0.0000    0.0000    0.0000   -0.0000    0.0000
          13   -0.0000   -0.0015   -0.0000    0.0031   -0.0033    0.0001
          14   -0.0000    0.0003    0.0000    0.0007    0.0007    0.0000
          15   -0.0000    0.0000    0.0000    0.0000    0.0000   -0.0000
          16    0.0000    0.0011    0.0000   -0.0000    0.0006   -0.0000
          17    0.0000    0.0057    0.0002   -0.0001    0.0003   -0.0000
          18    0.0000    0.0000    0.0000   -0.0000    0.0000   -0.0000
          19   -0.0000    0.0269    0.0000   -0.0002    0.0001   -0.0000
          20    0.0000   -0.0136   -0.0000   -0.0000    0.0001    0.0000
          21   -0.0000   -0.0001   -0.0000   -0.0000    0.0000   -0.0000
          22    0.0000    0.0001    0.0006    0.0053    0.0061   -0.0003
          23   -0.0000   -0.0001   -0.0003   -0.0362   -0.0432    0.0006
          24   -0.0002   -0.0000   -0.0000   -0.0002   -0.0002    0.0000
          25    0.0000    0.0003   -0.0002   -0.0220    0.0182   -0.0004
          26    0.0000   -0.0002    0.0002   -0.0375    0.0326   -0.0003
          27   -0.0000   -0.0000   -0.0000   -0.0002    0.0002   -0.0000
          28    0.0000   -0.0099    0.0000   -0.0001    0.0001   -0.0000
          29    0.0000   -0.0429   -0.0001    0.0002   -0.0002    0.0000
          30   -0.0000   -0.0002   -0.0000    0.0000   -0.0000   -0.0000
          31    0.0000   -0.0110   -0.0001   -0.0002    0.0003    0.0000
          32   -0.0000   -0.0057   -0.0000   -0.0001    0.0001    0.0000
          33   -0.0000   -0.0184   -0.0002   -0.0003    0.0004    0.0001
          34   -0.0000   -0.0110   -0.0001   -0.0002    0.0003    0.0000
          35    0.0000   -0.0059   -0.0000   -0.0001    0.0001    0.0000
          36   -0.0000    0.0183    0.0002    0.0003   -0.0004   -0.0001
          37   -0.0010    0.0002   -0.1324   -0.0000   -0.0011   -0.0838
          38    0.0037   -0.0006    0.4283   -0.0008    0.0022    0.3257
          39   -0.0290   -0.0000    0.0053   -0.0000    0.0000    0.0039
          40   -0.1738   -0.0002    0.0915   -0.0008   -0.0033   -0.1040
          41   -0.2201   -0.0002    0.0936   -0.0011   -0.0038   -0.1461
          42    0.3566    0.0005   -0.2096    0.0018    0.0073    0.2553
          43    0.1746   -0.0002    0.0888   -0.0008   -0.0033   -0.1032
          44    0.2128   -0.0002    0.0856   -0.0010   -0.0037   -0.1396
          45    0.3662   -0.0004    0.2074   -0.0018   -0.0075   -0.2588
          46   -0.0000   -0.0083   -0.0002    0.0002   -0.0000    0.0001
          47   -0.0001   -0.0621   -0.0017   -0.0005   -0.0024    0.0004
          48   -0.0000   -0.0002   -0.0000   -0.0000   -0.0000    0.0000
          49    0.0000   -0.2622   -0.0004    0.0005    0.0004    0.0000
          50   -0.0000    0.1861    0.0003   -0.0003   -0.0004   -0.0000
          51   -0.0000    0.0008    0.0000   -0.0000   -0.0000   -0.0000
          52   -0.0000   -0.0000   -0.0003   -0.0750   -0.0863    0.0019
          53    0.0001    0.0005    0.0054    0.4096    0.4694   -0.0080
          54    0.0004    0.0000    0.0000    0.0021    0.0025   -0.0000
          55   -0.0000    0.0010   -0.0011    0.2241   -0.1865    0.0024
          56   -0.0000    0.0012   -0.0015    0.4337   -0.3611    0.0042
          57   -0.0002    0.0000   -0.0000    0.0021   -0.0018    0.0000
          58   -0.0000    0.0702    0.0001   -0.0004    0.0003   -0.0000
          59   -0.0000    0.4773    0.0006   -0.0013    0.0005   -0.0001
          60   -0.0000    0.0020    0.0000   -0.0000    0.0000   -0.0000


           MASS-WEIGHTED COORDINATE ANALYSIS (NORMAL COORDINATES)


   Root No.       1         2         3         4         5         6         7         8

                 1 A       2 A       3 A       4 A       5 A       6 A       7 A       8 A   

                  89.3     109.3     157.3     258.2     263.3     298.6     436.3     457.1
  
           1   -0.0001    0.0001   -0.0000   -0.0349    0.0001   -0.0001   -0.0000   -0.0139
           2    0.0006   -0.0018   -0.0008    0.2040    0.0015   -0.0001   -0.0003   -0.2063
           3   -0.0905    0.4143    0.2042    0.0016   -0.1665    0.0420    0.0276   -0.0009
           4   -0.0000   -0.0002    0.0001    0.0273   -0.0001   -0.0002    0.0001   -0.0797
           5    0.0010   -0.0020    0.0012    0.5582    0.0016   -0.0003    0.0002    0.1552
           6   -0.0582    0.4352   -0.2681    0.0021    0.0895    0.1711   -0.0327    0.0007
           7   -0.0001   -0.0001   -0.0000   -0.0241   -0.0002    0.0000   -0.0001   -0.0899
           8   -0.0005    0.0001   -0.0006   -0.1887   -0.0001    0.0015   -0.0010   -0.3498
           9    0.0156   -0.0294    0.1197   -0.0002   -0.1412   -0.3610    0.1549   -0.0016
          10   -0.0001   -0.0000   -0.0000   -0.0432   -0.0001   -0.0000   -0.0001   -0.0641
          11   -0.0003    0.0015   -0.0001   -0.2445   -0.0007   -0.0014    0.0021    0.3644
          12    0.0037   -0.3399    0.0169   -0.0012   -0.0429    0.2725   -0.4198    0.0019
          13    0.0001   -0.0000    0.0000   -0.0146   -0.0001    0.0001    0.0000    0.1863
          14   -0.0005    0.0010   -0.0011   -0.2470   -0.0007   -0.0020    0.0017    0.3313
          15    0.0512   -0.2240    0.2393   -0.0013   -0.0375    0.4141   -0.3163    0.0017
          16   -0.0002    0.0002   -0.0000   -0.1568   -0.0003   -0.0002    0.0003    0.0938
          17    0.0003    0.0003   -0.0001   -0.0135   -0.0025   -0.0000   -0.0001    0.0759
          18   -0.0675   -0.0613    0.0255   -0.0021    0.5887   -0.0163    0.0878    0.0003
          19    0.0002    0.0001   -0.0000    0.0956    0.0003    0.0001   -0.0002    0.0599
          20    0.0001   -0.0006    0.0017    0.1799    0.0010    0.0016    0.0012   -0.2127
          21    0.0283    0.1444   -0.3872    0.0014   -0.0712   -0.3504   -0.2966   -0.0007
          22   -0.0001    0.0000   -0.0000    0.0125    0.0000   -0.0001   -0.0001   -0.3141
          23   -0.0004    0.0017    0.0008   -0.2331    0.0010    0.0007   -0.0010   -0.1129
          24    0.0146   -0.3628   -0.1508    0.0005   -0.4026   -0.1726    0.1625   -0.0005
          25    0.0000   -0.0001   -0.0000   -0.0458   -0.0002    0.0002    0.0001    0.2746
          26   -0.0006    0.0000   -0.0025   -0.2284   -0.0016    0.0012    0.0000   -0.1162
          27    0.0466   -0.0239    0.5186   -0.0014    0.1393   -0.2846   -0.0530   -0.0005
          28    0.0003   -0.0000    0.0000    0.1726    0.0006    0.0002   -0.0001   -0.0357
          29   -0.0004    0.0008    0.0009   -0.0256   -0.0002   -0.0014   -0.0018    0.0744
          30    0.0920   -0.1741   -0.2173   -0.0005    0.0352    0.2953    0.4478   -0.0001
          31    0.0182   -0.1301   -0.1138   -0.0210    0.2190   -0.0826   -0.1040    0.0021
          32    0.0184   -0.0287   -0.0959    0.0838   -0.0056   -0.0846   -0.1204   -0.0763
          33   -0.0442    0.2193    0.1668    0.0010   -0.2021    0.0956    0.1185    0.0002
          34   -0.0183    0.1303    0.1140   -0.0194   -0.2192    0.0826    0.1042    0.0019
          35   -0.0178    0.0268    0.0945    0.0836    0.0078    0.0839    0.1192   -0.0765
          36   -0.0444    0.2197    0.1678    0.0012   -0.2023    0.0965    0.1198   -0.0011
          37   -0.0002    0.0006   -0.0006    0.1939    0.0011    0.0011   -0.0003    0.1406
          38   -0.0063   -0.0018    0.0005    0.2231    0.0004   -0.0006    0.0004    0.1005
          39    0.5295    0.2460   -0.1063   -0.0001    0.0633    0.1245   -0.0450    0.0003
          40   -0.0596    0.0785   -0.0775   -0.0825    0.0489    0.1225   -0.0578   -0.1063
          41   -0.4823   -0.0771   -0.0017    0.2448   -0.0149   -0.0215    0.0102    0.1219
          42   -0.3211    0.1209   -0.1172    0.0025    0.0414    0.0985   -0.0327    0.0017
          43    0.0598   -0.0795    0.0783   -0.0798   -0.0501   -0.1240    0.0583   -0.1043
          44    0.4907    0.0768    0.0029    0.2428    0.0164    0.0212   -0.0099    0.1213
          45   -0.3089    0.1226   -0.1170    0.0003    0.0416    0.0987   -0.0328   -0.0004
          46   -0.0001    0.0001   -0.0000   -0.1142   -0.0003   -0.0002    0.0003    0.1359
          47    0.0001    0.0001    0.0001    0.0056   -0.0015    0.0004   -0.0008    0.0071
          48   -0.0339   -0.0224   -0.0191   -0.0012    0.3831   -0.1123    0.2245   -0.0002
          49    0.0001    0.0000   -0.0000    0.0523    0.0002    0.0000   -0.0001   -0.0016
          50    0.0000   -0.0003    0.0011    0.0858    0.0004    0.0013    0.0007   -0.0863
          51    0.0172    0.0674   -0.2631    0.0007   -0.0337   -0.2911   -0.1737   -0.0003
          52   -0.0000    0.0000   -0.0000    0.0115    0.0000   -0.0001   -0.0001   -0.2273
          53   -0.0001    0.0007    0.0007   -0.0654    0.0009    0.0002   -0.0008   -0.0572
          54    0.0072   -0.1439   -0.1433    0.0005   -0.2260   -0.0517    0.1424   -0.0002
          55   -0.0000   -0.0000   -0.0000   -0.0184   -0.0001    0.0001    0.0001    0.2133
          56   -0.0002   -0.0002   -0.0012   -0.0631   -0.0008    0.0010   -0.0005   -0.1025
          57    0.0240    0.0420    0.2423   -0.0006    0.1233   -0.2125    0.0816   -0.0005
          58    0.0002   -0.0000    0.0000    0.1176    0.0004    0.0001   -0.0001   -0.1139
          59   -0.0002    0.0005    0.0007   -0.0173   -0.0002   -0.0005   -0.0017    0.0365
          60    0.0512   -0.1071   -0.1590   -0.0003    0.0425    0.1190    0.4185   -0.0002


[...]
 EFFECTIVE MASS      1.5791
 FORCE CONSTANT      0.4865

 VIBRATION         37   37A           ATOM PAIR      ENERGY CONTRIBUTION    RADIAL
 FREQUENCY          1392.28         C  2 -- H 14         +35.6% ( 53.7%)      0.7%
 TRANSITION DIPOLE   0.1396         C  2 -- H 15         +34.5% ( 52.9%)      0.9%
 TRAVEL (Ang.)       0.3686         C  2 -- H 13         +15.7% ( 35.7%)     24.8%
 REDUCED MASS        0.3564         C  2 -- C  3          +4.9% ( 19.9%)      3.4%
 EFFECTIVE MASS      1.7863
 FORCE CONSTANT      0.4070

 VIBRATION         38   38A           ATOM PAIR      ENERGY CONTRIBUTION    RADIAL
 FREQUENCY          1419.72         C  1 -- C  6         +18.5% ( 70.7%)     89.3%
 TRANSITION DIPOLE   0.2389         C  1 -- C  7         +16.2% ( 66.3%)     63.1%
 TRAVEL (Ang.)       0.1260         C  1 -- H 12         +13.3% ( 60.0%)      0.2%
 REDUCED MASS        2.9918         C  1 -- H 11         +13.3% ( 60.0%)      0.2%
 EFFECTIVE MASS     10.6195
 FORCE CONSTANT      3.5529

 VIBRATION         39   39A           ATOM PAIR      ENERGY CONTRIBUTION    RADIAL
 FREQUENCY          1479.48         C  3 -- C  9         +16.6% ( 70.9%)     99.8%
 TRANSITION DIPOLE   1.0170         C  2 -- C  3         +16.0% ( 69.6%)     63.2%
 TRAVEL (Ang.)       0.1267         C  3 -- C  8         +12.5% ( 61.6%)     24.9%
 REDUCED MASS        2.8393         C  3 -- C  5         +11.3% ( 58.4%)     98.6%
 EFFECTIVE MASS     11.1163
 FORCE CONSTANT      3.6617

 VIBRATION         40   40A           ATOM PAIR      ENERGY CONTRIBUTION    RADIAL
 FREQUENCY          1515.24         C  4 -- C  5         +15.6% ( 67.1%)     96.1%
 TRANSITION DIPOLE   1.2586         C  5 -- C 10         +12.1% ( 59.1%)     52.7%
 TRAVEL (Ang.)       0.1440         C  5 -- C  9         +11.0% ( 56.3%)     37.9%
 REDUCED MASS        2.1459         C  3 -- C  5          +9.8% ( 53.0%)     32.3%
 EFFECTIVE MASS     11.7231
 FORCE CONSTANT      2.9028

 VIBRATION         41   41A           ATOM PAIR      ENERGY CONTRIBUTION    RADIAL
 FREQUENCY          1779.89         C  3 -- C  8         +17.0% ( 71.1%)     92.3%
 TRANSITION DIPOLE   0.9183         C  3 -- C  5         +13.2% ( 62.8%)     63.9%
 TRAVEL (Ang.)       0.1257         C  5 -- C  9          +9.9% ( 54.3%)     96.8%
 REDUCED MASS        2.3992         C  2 -- C  3          +9.1% ( 52.1%)     85.3%
 EFFECTIVE MASS     11.9390
 FORCE CONSTANT      4.4782

 VIBRATION         42   42A           ATOM PAIR      ENERGY CONTRIBUTION    RADIAL
 FREQUENCY          1813.49         C  7 -- C 10         +14.0% ( 60.8%)     99.0%
 TRANSITION DIPOLE   0.0471         C  3 -- C  8         +12.5% ( 57.4%)     94.2%
 TRAVEL (Ang.)       0.1385         C  5 -- C  9          +9.4% ( 49.7%)     98.4%
 REDUCED MASS        1.9387         C  3 -- C  9          +9.1% ( 49.0%)      3.3%
 EFFECTIVE MASS     11.8707
 FORCE CONSTANT      3.7565

 VIBRATION         43   43A           ATOM PAIR      ENERGY CONTRIBUTION    RADIAL
 FREQUENCY          1858.54         C  7 -- C 10         +20.4% ( 71.7%)     98.4%
 TRANSITION DIPOLE   0.8811         C  5 -- C 10         +19.1% ( 69.2%)     66.7%
 TRAVEL (Ang.)       0.1110         C  5 -- C  9         +14.2% ( 59.7%)     96.5%
 REDUCED MASS        2.9431         C  3 -- C  5          +8.4% ( 45.9%)    100.0%
 EFFECTIVE MASS     11.9151
 FORCE CONSTANT      5.9896

 VIBRATION         44   44A           ATOM PAIR      ENERGY CONTRIBUTION    RADIAL
 FREQUENCY          1920.78         C  4 -- C  6         +30.2% ( 95.0%)     99.4%
 TRANSITION DIPOLE   2.2275         C  3 -- C  4         +13.2% ( 63.0%)     95.6%
 TRAVEL (Ang.)       0.0818         C  4 -- C  8         +12.9% ( 62.2%)     62.3%
 REDUCED MASS        5.2441         C  4 -- C  5         +12.8% ( 61.9%)     41.2%
 EFFECTIVE MASS     11.9366         C  4 -- C  9         +12.7% ( 61.6%)     80.3%
 FORCE CONSTANT     11.3994

 VIBRATION         45   45A           ATOM PAIR      ENERGY CONTRIBUTION    RADIAL
 FREQUENCY          2925.34         C  1 -- H 11         +48.9% ( 72.6%)     96.6%
 TRANSITION DIPOLE   0.1207         C  1 -- H 12         +48.9% ( 72.5%)     96.6%
 TRAVEL (Ang.)       0.2111         C  1 -- C  7          +1.1% ( 10.7%)      0.0%
 REDUCED MASS        0.5171         C  1 -- C  6          +1.1% ( 10.7%)      0.0%
 EFFECTIVE MASS      1.5322
 FORCE CONSTANT      2.6073

 VIBRATION         46   46A           ATOM PAIR      ENERGY CONTRIBUTION    RADIAL
 FREQUENCY          3003.72         C  1 -- H 12         +48.8% ( 68.9%)     97.7%
 TRANSITION DIPOLE   0.2464         C  1 -- H 11         +48.8% ( 68.9%)     97.7%
 TRAVEL (Ang.)       0.2175         C  1 -- C  7          +0.7% (  8.0%)     20.4%
 REDUCED MASS        0.4744         C  1 -- C  6          +0.7% (  8.0%)     20.8%
 EFFECTIVE MASS      1.2804
 FORCE CONSTANT      2.5216

 VIBRATION         47   47A           ATOM PAIR      ENERGY CONTRIBUTION    RADIAL
 FREQUENCY          3051.38         C  7 -- H 17         +67.2% ( 83.2%)    100.0%
 TRANSITION DIPOLE   0.3095         C 10 -- H 20         +29.6% ( 55.2%)    100.0%
 TRAVEL (Ang.)       0.2046         C  7 -- C 10          +1.1% ( 10.8%)      2.2%
 REDUCED MASS        0.5279         C  1 -- C  7          +0.9% (  9.7%)     20.5%
 EFFECTIVE MASS      1.4653
 FORCE CONSTANT      2.8957

 VIBRATION         48   48A           ATOM PAIR      ENERGY CONTRIBUTION    RADIAL
 FREQUENCY          3063.76         C  6 -- H 16         +95.0% ( 98.9%)    100.0%
 TRANSITION DIPOLE   0.3634         C  4 -- C  6          +1.6% ( 12.7%)     41.4%
 TRAVEL (Ang.)       0.1570         C 10 -- H 20          +1.5% ( 12.6%)    100.0%
 REDUCED MASS        0.8926         C  1 -- C  6          +1.4% ( 12.1%)     19.4%
 EFFECTIVE MASS      1.5270
 FORCE CONSTANT      4.9365

 VIBRATION         49   49A           ATOM PAIR      ENERGY CONTRIBUTION    RADIAL
 FREQUENCY          3068.16         C  2 -- H 15         +49.5% ( 72.6%)     97.1%
 TRANSITION DIPOLE   0.0330         C  2 -- H 14         +48.6% ( 71.9%)     97.0%
 TRAVEL (Ang.)       0.2076         C  2 -- C  3          +1.0% ( 10.2%)      0.0%
 REDUCED MASS        0.5098         C  2 -- H 13          +0.9% (  9.9%)      0.1%
 EFFECTIVE MASS      1.5032
 FORCE CONSTANT      2.8275

 VIBRATION         50   50A           ATOM PAIR      ENERGY CONTRIBUTION    RADIAL
 FREQUENCY          3071.82         C 10 -- H 20         +65.8% ( 82.4%)    100.0%
 TRANSITION DIPOLE   0.3144         C  7 -- H 17         +29.2% ( 54.8%)     99.8%
 TRAVEL (Ang.)       0.2056         C  7 -- C 10          +2.0% ( 14.2%)     93.6%
 REDUCED MASS        0.5193         C  6 -- H 16          +1.1% ( 10.7%)    100.0%
 EFFECTIVE MASS      1.5875
 FORCE CONSTANT      2.8869

 VIBRATION         51   51A           ATOM PAIR      ENERGY CONTRIBUTION    RADIAL
 FREQUENCY          3078.65         C  2 -- H 13         +61.8% ( 81.1%)     98.8%
 TRANSITION DIPOLE   0.0601         C  2 -- H 14         +19.0% ( 45.0%)     85.9%
 TRAVEL (Ang.)       0.2132         C  2 -- H 15         +18.2% ( 44.0%)     85.2%
 REDUCED MASS        0.4820         C  2 -- C  3          +1.0% ( 10.5%)      0.0%
 EFFECTIVE MASS      1.5136
 FORCE CONSTANT      2.6918

 VIBRATION         52   52A           ATOM PAIR      ENERGY CONTRIBUTION    RADIAL
 FREQUENCY          3143.85         C  9 -- H 19         +55.4% ( 76.1%)    100.0%
 TRANSITION DIPOLE   0.5312         C  8 -- H 18         +40.2% ( 64.9%)    100.0%
 TRAVEL (Ang.)       0.2121         C  5 -- C  9          +1.0% ( 10.4%)     48.2%
 REDUCED MASS        0.4767         C  3 -- C  9          +1.0% ( 10.1%)     25.9%
 EFFECTIVE MASS      1.5360
 FORCE CONSTANT      2.7758

 VIBRATION         53   53A           ATOM PAIR      ENERGY CONTRIBUTION    RADIAL
 FREQUENCY          3148.19         C  8 -- H 18         +55.4% ( 76.0%)    100.0%
 TRANSITION DIPOLE   0.3006         C  9 -- H 19         +40.2% ( 64.7%)    100.0%
 TRAVEL (Ang.)       0.2120         C  3 -- C  8          +1.1% ( 10.6%)     49.3%
 REDUCED MASS        0.4767         C  4 -- C  8          +1.0% ( 10.3%)     32.0%
 EFFECTIVE MASS      1.5883
 FORCE CONSTANT      2.7837

 VIBRATION         54   54A           ATOM PAIR      ENERGY CONTRIBUTION    RADIAL
 FREQUENCY          3166.94         C  2 -- H 13         +37.0% ( 58.6%)     97.6%
 TRANSITION DIPOLE   0.0876         C  2 -- H 14         +31.4% ( 54.0%)     96.8%
 TRAVEL (Ang.)       0.2546         C  2 -- H 15         +31.3% ( 53.9%)     96.8%
 REDUCED MASS        0.3286         C  2 -- C  3          +0.3% (  5.5%)     99.6%
 EFFECTIVE MASS      1.1397
 FORCE CONSTANT      1.9415

      SYMMETRY NUMBER FOR POINT-GROUP C1  =  1


          SYSTEM IS A GROUND STATE



 InChI=1S/C10H10/c1-8-6-9-4-2-3-5-10(9)7-8/h2,4-7H,3H2,1H3


          MOLECULE IS NOT LINEAR

          THERE ARE 54 GENUINE VIBRATIONS IN THIS SYSTEM
          THIS THERMODYNAMICS CALCULATION IS LIMITED TO
          MOLECULES WHICH HAVE NO INTERNAL ROTATIONS




                    CALCULATED THERMODYNAMIC PROPERTIES
                                          *
   TEMP. (K)   PARTITION FUNCTION   H.O.F.    ENTHALPY  HEAT CAPACITY ENTROPY
                                   KCAL/MOL   CAL/MOLE    CAL/K/MOL  CAL/K/MOL


 298.00  VIB.     0.7067D+02                  3556.7665    27.3144    20.3971
         ROT.     0.5295D+06                   888.2803     2.9808    29.1717
         INT.     0.3742D+08                  4445.0468    30.2952    49.5687
         TRA.     0.1436D+28                  1480.4672     4.9680    40.5022
         TOT.                       54.305    5925.5139    35.2632    90.0709

 200.00  VIB.     0.1085D+02                  1432.3576    16.2508    11.8992
         ROT.     0.2911D+06                   596.1613     2.9808    27.9830
         INT.     0.3158D+07                  2028.5188    19.2317    39.8821
         TRA.     0.7896D+27                   993.6021     4.9680    38.5210
         TOT.                       51.402    3022.1210    24.1997    78.4032

 210.00  VIB.     0.1301D+02                  1600.1208    17.3059    12.7175
         ROT.     0.3133D+06                   625.9693     2.9808    28.1284
         INT.     0.4074D+07                  2226.0902    20.2867    40.8459
         TRA.     0.8496D+27                  1043.2822     4.9680    38.7634
         TOT.                       51.649    3269.3724    25.2547    79.6093

 220.00  VIB.     0.1563D+02                  1778.5552    18.3847    13.5474
         ROT.     0.3359D+06                   655.7774     2.9808    28.2671
         INT.     0.5250D+07                  2434.3326    21.3655    41.8144
         TRA.     0.9110D+27                  1092.9623     4.9680    38.9945
         TOT.                       51.907    3527.2949    26.3335    80.8090

 230.00  VIB.     0.1882D+02                  1967.8867    19.4849    14.3888
         ROT.     0.3591D+06                   685.5855     2.9808    28.3996
         INT.     0.6759D+07                  2653.4721    22.4658    42.7884
         TRA.     0.9738D+27                  1142.6424     4.9680    39.2154
         TOT.                       52.176    3796.1146    27.4338    82.0037

 240.00  VIB.     0.2273D+02                  2168.3168    20.6040    15.2416
         ROT.     0.3827D+06                   715.3935     2.9808    28.5264
         INT.     0.8697D+07                  2883.7104    23.5848    43.7681
         TRA.     0.1038D+28                  1192.3226     4.9680    39.4268
         TOT.                       52.455    4076.0329    28.5528    83.1949

 250.00  VIB.     0.2750D+02                  2380.0196    21.7390    16.1057
         ROT.     0.4069D+06                   745.2016     2.9808    28.6481
         INT.     0.1119D+08                  3125.2212    24.7198    44.7538
         TRA.     0.1103D+28                  1242.0027     4.9680    39.6296
         TOT.                       52.747    4367.2238    29.6878    84.3834

 260.00  VIB.     0.3334D+02                  2603.1395    22.8869    16.9806
         ROT.     0.4315D+06                   775.0097     2.9808    28.7650
         INT.     0.1439D+08                  3378.1491    25.8677    45.7457
         TRA.     0.1170D+28                  1291.6828     4.9680    39.8245
         TOT.                       53.049    4669.8319    30.8357    85.5701

 270.00  VIB.     0.4051D+02                  2837.7909    24.0448    17.8661
         ROT.     0.4567D+06                   804.8177     2.9808    28.8775
         INT.     0.1850D+08                  3642.6086    27.0256    46.7436
         TRA.     0.1239D+28                  1341.3629     4.9680    40.0120
         TOT.                       53.363    4983.9715    31.9936    86.7556

 280.00  VIB.     0.4933D+02                  3084.0580    25.2096    18.7616
         ROT.     0.4823D+06                   834.6258     2.9808    28.9859
         INT.     0.2379D+08                  3918.6838    28.1904    47.7475
         TRA.     0.1308D+28                  1391.0430     4.9680    40.1926
         TOT.                       53.689    5309.7268    33.1584    87.9402

 290.00  VIB.     0.6019D+02                  3341.9954    26.3784    19.6666
         ROT.     0.5084D+06                   864.4339     2.9808    29.0905
         INT.     0.3060D+08                  4206.4293    29.3592    48.7571
         TRA.     0.1379D+28                  1440.7231     4.9680    40.3670
         TOT.                       54.027    5647.1524    34.3272    89.1241

 300.00  VIB.     0.7358D+02                  3611.6293    27.5484    20.5806
         ROT.     0.5349D+06                   894.2419     2.9808    29.1916
         INT.     0.3936D+08                  4505.8712    30.5292    49.7722
         TRA.     0.1451D+28                  1490.4032     4.9680    40.5354
         TOT.                       54.376    5996.2744    35.4972    90.3076

 310.00  VIB.     0.9014D+02                  3892.9590    28.7171    21.5030
         ROT.     0.5618D+06                   924.0500     2.9808    29.2893
         INT.     0.5064D+08                  4817.0089    31.6979    50.7923
         TRA.     0.1524D+28                  1540.0833     4.9680    40.6983
         TOT.                       54.737    6357.0922    36.6659    91.4906

 320.00  VIB.     0.1106D+03                  4185.9586    29.8820    22.4331
         ROT.     0.5892D+06                   953.8580     2.9808    29.3840
         INT.     0.6518D+08                  5139.8166    32.8628    51.8171
         TRA.     0.1598D+28                  1589.7634     4.9680    40.8560
         TOT.                       55.109    6729.5801    37.8308    92.6731

 330.00  VIB.     0.1360D+03                  4490.5794    31.0410    23.3704
         ROT.     0.6171D+06                   983.6661     2.9808    29.4757
         INT.     0.8393D+08                  5474.2455    34.0218    52.8461
         TRA.     0.1674D+28                  1639.4435     4.9680    41.0089
         TOT.                       55.493    7113.6890    38.9898    93.8550

 340.00  VIB.     0.1675D+03                  4806.7516    32.1920    24.3141
         ROT.     0.6453D+06                  1013.4742     2.9808    29.5647
         INT.     0.1081D+09                  5820.2257    35.1728    53.8788
         TRA.     0.1750D+28                  1689.1236     4.9680    41.1572
         TOT.                       55.889    7509.3494    40.1408    95.0360

 350.00  VIB.     0.2067D+03                  5134.3864    33.3332    25.2638
         ROT.     0.6740D+06                  1043.2822     2.9808    29.6511
         INT.     0.1393D+09                  6177.6686    36.3140    54.9149
         TRA.     0.1828D+28                  1738.8037     4.9680    41.3012
         TOT.                       56.296    7916.4723    41.2820    96.2161

 360.00  VIB.     0.2554D+03                  5473.3784    34.4632    26.2187
         ROT.     0.7031D+06                  1073.0903     2.9808    29.7351
         INT.     0.1796D+09                  6546.4687    37.4440    55.9538
         TRA.     0.1907D+28                  1788.4838     4.9680    41.4412
         TOT.                       56.714    8334.9526    42.4120    97.3949

 370.00  VIB.     0.3161D+03                  5823.6077    35.5805    27.1782
         ROT.     0.7326D+06                  1102.8984     2.9808    29.8167
         INT.     0.2316D+09                  6926.5060    38.5613    56.9949
         TRA.     0.1987D+28                  1838.1639     4.9680    41.5773
         TOT.                       57.144    8764.6700    43.5293    98.5722

 380.00  VIB.     0.3919D+03                  6184.9413    36.6839    28.1418
         ROT.     0.7625D+06                  1132.7064     2.9808    29.8962
         INT.     0.2988D+09                  7317.6477    39.6647    58.0380
         TRA.     0.2068D+28                  1887.8440     4.9680    41.7098
         TOT.                       57.585    9205.4917    44.6327    99.7478

 390.00  VIB.     0.4865D+03                  6557.2355    37.7724    29.1088
         ROT.     0.7928D+06                  1162.5145     2.9808    29.9737
         INT.     0.3857D+09                  7719.7500    40.7532    59.0824
         TRA.     0.2150D+28                  1937.5242     4.9680    41.8388
         TOT.                       58.037    9657.2742    45.7213   100.9212

 400.00  VIB.     0.6048D+03                  6940.3377    38.8453    30.0786
         ROT.     0.8235D+06                  1192.3226     2.9808    30.0491
         INT.     0.4980D+09                  8132.6603    41.8261    60.1278
         TRA.     0.2233D+28                  1987.2043     4.9680    41.9646
         TOT.                       58.499   10119.8645    46.7941   102.0924

   *: NOTE: HEATS OF FORMATION ARE RELATIVE TO THE
            ELEMENTS IN THEIR STANDARD STATE AT 298K
              (=  Standard Enthalpy of Formation).

            Hvib:  Zero-point energy is not included.
                   frequencies of less than zero cm-1 are not included.
            Hrot = (3/2)RT
            Htra = (3/2)RT + pV = (5/2)RT

            Heat capacity is Cp, not Cv

          For more information, see: HTTP://OpenMOPAC.net/Manual/thermochemistry.html


           FORCE CONSTANT IN CARTESIAN COORDINATES (Millidynes/A)

    ATOM   CHEMICAL       X               Y               Z
   NUMBER   SYMBOL  FORCE CONSTANT  FORCE CONSTANT  FORCE CONSTANT

      1       C        8.936375        9.237505        7.570532
      2       C        9.319589        8.447212        7.957777
      3       C       14.733749       10.638565        2.565169
      4       C       16.293534       10.180463        2.285433
      5       C       16.118619       10.508942        2.314992
      6       C       13.748706       10.770148        2.408155
      7       C       14.281912       10.130254        2.354126
      8       C       10.381123       14.375945        2.113957
      9       C       13.029633       11.478869        2.117978
     10       C       14.120193       11.430943        2.215567
     11       H        1.835951        0.851073        3.434274
     12       H        1.837178        0.864632        3.418684
     13       H        1.074457        5.001207        0.653325
     14       H        1.284519        1.639675        3.712202
     15       H        1.277253        1.554377        3.803279
     16       H        0.810000        5.079885        0.351190
     17       H        3.638355        2.267190        0.339477
     18       H        0.844067        5.275452        0.322757
     19       H        1.682189        4.427595        0.330641
     20       H        0.820780        5.069942        0.347981

 **********************
 *                    *
 * JOB ENDED NORMALLY *
 *                    *
 **********************



 TOTAL JOB TIME:             2.59 SECONDS

 == MOPAC DONE ==
