 *******************************************************************************
 **                                                                           **
 **                              MOPAC v23.1.2                                **
 **                                                                           **
 *******************************************************************************
 **          Digital Object Identifier (DOI): 10.5281/zenodo.6511958          **
 **    Visit the DOI location for information on how to cite this program.    **
 *******************************************************************************

                              PM3 CALCULATION RESULTS

 *******************************************************************************
 *  CALCULATION DONE: (MAX THREADS = 1)              Tue Jun  3 16:42:27 2025  *
 *  PM3        - The PM3 Hamiltonian to be used
 *  PRECISE    - TIGHTER CRITERIA TO BE USED
 *  NOSYM      - POINT-GROUP SYMMETRY SET TO C1
 *  THREADS=1  - MULTI-THREADING NOT USED
 *  T=         - A TIME OF 172800.0 SECONDS REQUESTED
 *  DUMP=N     - RESTART FILE WRITTEN EVERY 7200.0 SECONDS REQUESTED
 *******************************************************************************
pm3  precise nosym THREADS=1
 InChI=1S/C12H20/c1-4-6-7-10(3)12-9-8-11(12)5-2/h4,6,8-12H,5,7H2,1-3H3

   ATOM   CHEMICAL          X               Y               Z
  NUMBER   SYMBOL      (ANGSTROMS)     (ANGSTROMS)     (ANGSTROMS)

     1       C         -0.23470000  *  -0.66960000  *   0.55820000  *
     2       C          1.25930000  *  -0.34140000  *   0.82460000  *
     3       C          1.61600000  *   1.05890000  *   0.68760000  *
     4       C          2.87590000  *   1.33570000  *  -0.15460000  *
     5       C         -0.55770000  *  -0.52450000  *  -0.94800000  *
     6       C         -0.55700000  *  -2.09550000  *   1.04100000  *
     7       C          2.59440000  *   1.20880000  *  -1.64900000  *
     8       C         -4.38110000  *   0.04440000  *  -1.17180000  *
     9       C          1.92270000  *   1.10170000  *   2.15110000  *
    10       C          1.57580000  *  -0.24140000  *   2.28920000  *
    11       C         -2.02510000  *  -0.69390000  *  -1.24190000  *
    12       C         -2.92700000  *   0.22290000  *  -0.86470000  *
    13       H         -0.87160000  *   0.03950000  *   1.13490000  *
    14       H          0.77420000  *   1.74670000  *   0.44520000  *
    15       H          1.95150000  *  -1.05050000  *   0.31500000  *
    16       H          3.70080000  *   0.64190000  *   0.12300000  *
    17       H          3.22250000  *   2.37200000  *   0.05020000  *
    18       H         -0.24680000  *   0.47460000  *  -1.31850000  *
    19       H          0.01500000  *  -1.28340000  *  -1.52460000  *
    20       H         -1.62940000  *  -2.33170000  *   0.87700000  *
    21       H         -0.36180000  *  -2.19340000  *   2.12910000  *
    22       H          0.06160000  *  -2.84190000  *   0.49780000  *
    23       H          2.29370000  *   0.17020000  *  -1.90080000  *
    24       H          1.78810000  *   1.91060000  *  -1.95060000  *
    25       H          3.51260000  *   1.45740000  *  -2.22170000  *
    26       H         -4.75720000  *  -0.88540000  *  -0.69520000  *
    27       H         -4.95610000  *   0.90810000  *  -0.77720000  *
    28       H         -4.53190000  *  -0.01570000  *  -2.27040000  *
    29       H         -2.60890000  *   1.11310000  *  -0.32870000  *
    30       H         -2.34650000  *  -1.57260000  *  -1.79500000  *
    31       H          2.27370000  *   1.86990000  *   2.83170000  *
    32       H          1.55510000  *  -0.93550000  *   3.12230000  *



          CARTESIAN COORDINATES 

    NO.       ATOM           X           Y           Z

     1         C         -0.2347     -0.6696      0.5582
     2         C          1.2593     -0.3414      0.8246
     3         C          1.6160      1.0589      0.6876
     4         C          2.8759      1.3357     -0.1546
     5         C         -0.5577     -0.5245     -0.9480
     6         C         -0.5570     -2.0955      1.0410
     7         C          2.5944      1.2088     -1.6490
     8         C         -4.3811      0.0444     -1.1718
     9         C          1.9227      1.1017      2.1511
    10         C          1.5758     -0.2414      2.2892
    11         C         -2.0251     -0.6939     -1.2419
    12         C         -2.9270      0.2229     -0.8647
    13         H         -0.8716      0.0395      1.1349
    14         H          0.7742      1.7467      0.4452
    15         H          1.9515     -1.0505      0.3150
    16         H          3.7008      0.6419      0.1230
    17         H          3.2225      2.3720      0.0502
    18         H         -0.2468      0.4746     -1.3185
    19         H          0.0150     -1.2834     -1.5246
    20         H         -1.6294     -2.3317      0.8770
    21         H         -0.3618     -2.1934      2.1291
    22         H          0.0616     -2.8419      0.4978
    23         H          2.2937      0.1702     -1.9008
    24         H          1.7881      1.9106     -1.9506
    25         H          3.5126      1.4574     -2.2217
    26         H         -4.7572     -0.8854     -0.6952
    27         H         -4.9561      0.9081     -0.7772
    28         H         -4.5319     -0.0157     -2.2704
    29         H         -2.6089      1.1131     -0.3287
    30         H         -2.3465     -1.5726     -1.7950
    31         H          2.2737      1.8699      2.8317
    32         H          1.5551     -0.9355      3.1223

  H: (PM3): J. J. P. STEWART, J. COMP. CHEM. 10, 209 (1989).
  C: (PM3): J. J. P. STEWART, J. COMP. CHEM. 10, 209 (1989).

           Empirical Formula: C12 H20  =    32 atoms



      MOLECULAR POINT GROUP   :   C1  


      RHF CALCULATION, NO. OF DOUBLY OCCUPIED LEVELS = 34


          Geometry optimization using EF

          DIAGONAL MATRIX USED AS START HESSIAN

 CYCLE:     1 TIME:   0.012 TIME LEFT:  2.00D  GRAD.:   211.290 HEAT:  32.32029
 CYCLE:     2 TIME:   0.020 TIME LEFT:  2.00D  GRAD.:    64.396 HEAT:  22.75002
 CYCLE:     3 TIME:   0.016 TIME LEFT:  2.00D  GRAD.:    83.809 HEAT:  22.16154
 CYCLE:     4 TIME:   0.020 TIME LEFT:  2.00D  GRAD.:    45.262 HEAT:  21.26898
 CYCLE:     5 TIME:   0.012 TIME LEFT:  2.00D  GRAD.:    49.120 HEAT:  21.20893
 CYCLE:     6 TIME:   0.008 TIME LEFT:  2.00D  GRAD.:    55.079 HEAT:  21.05785
 CYCLE:     7 TIME:   0.012 TIME LEFT:  2.00D  GRAD.:    49.812 HEAT:  20.83899
 CYCLE:     8 TIME:   0.020 TIME LEFT:  2.00D  GRAD.:    15.963 HEAT:  20.25486
 CYCLE:     9 TIME:   0.020 TIME LEFT:  2.00D  GRAD.:    11.841 HEAT:  20.15528
 CYCLE:    10 TIME:   0.012 TIME LEFT:  2.00D  GRAD.:    23.576 HEAT:  20.13468
 CYCLE:    11 TIME:   0.012 TIME LEFT:  2.00D  GRAD.:    14.754 HEAT:  20.01131
 CYCLE:    12 TIME:   0.020 TIME LEFT:  2.00D  GRAD.:    11.923 HEAT:  19.96405
 CYCLE:    13 TIME:   0.008 TIME LEFT:  2.00D  GRAD.:    12.572 HEAT:  19.94334
 CYCLE:    14 TIME:   0.012 TIME LEFT:  2.00D  GRAD.:    12.059 HEAT:  19.91857
 CYCLE:    15 TIME:   0.012 TIME LEFT:  2.00D  GRAD.:     8.907 HEAT:  19.88545
 CYCLE:    16 TIME:   0.020 TIME LEFT:  2.00D  GRAD.:    10.031 HEAT:  19.87796
 CYCLE:    17 TIME:   0.012 TIME LEFT:  2.00D  GRAD.:     7.762 HEAT:  19.85772
 CYCLE:    18 TIME:   0.008 TIME LEFT:  2.00D  GRAD.:     9.022 HEAT:  19.85044
 CYCLE:    19 TIME:   0.020 TIME LEFT:  2.00D  GRAD.:     6.617 HEAT:  19.83154
 CYCLE:    20 TIME:   0.020 TIME LEFT:  2.00D  GRAD.:     5.203 HEAT:  19.82309
 CYCLE:    21 TIME:   0.012 TIME LEFT:  2.00D  GRAD.:     3.763 HEAT:  19.81546
 CYCLE:    22 TIME:   0.008 TIME LEFT:  2.00D  GRAD.:     5.519 HEAT:  19.81048
 CYCLE:    23 TIME:   0.012 TIME LEFT:  2.00D  GRAD.:     3.784 HEAT:  19.79977
 CYCLE:    24 TIME:   0.012 TIME LEFT:  2.00D  GRAD.:     6.151 HEAT:  19.79693
 CYCLE:    25 TIME:   0.012 TIME LEFT:  2.00D  GRAD.:     4.715 HEAT:  19.78474
 CYCLE:    26 TIME:   0.012 TIME LEFT:  2.00D  GRAD.:     4.535 HEAT:  19.77653
 CYCLE:    27 TIME:   0.012 TIME LEFT:  2.00D  GRAD.:     4.260 HEAT:  19.76952
 CYCLE:    28 TIME:   0.012 TIME LEFT:  2.00D  GRAD.:     3.529 HEAT:  19.76280
 CYCLE:    29 TIME:   0.012 TIME LEFT:  2.00D  GRAD.:     4.256 HEAT:  19.75918
 CYCLE:    30 TIME:   0.012 TIME LEFT:  2.00D  GRAD.:     2.623 HEAT:  19.74836
 CYCLE:    31 TIME:   0.008 TIME LEFT:  2.00D  GRAD.:     3.132 HEAT:  19.73508
 CYCLE:    32 TIME:   0.012 TIME LEFT:  2.00D  GRAD.:     4.391 HEAT:  19.72370
 CYCLE:    33 TIME:   0.012 TIME LEFT:  2.00D  GRAD.:     3.358 HEAT:  19.71594
 CYCLE:    34 TIME:   0.012 TIME LEFT:  2.00D  GRAD.:     2.903 HEAT:  19.70938
 CYCLE:    35 TIME:   0.012 TIME LEFT:  2.00D  GRAD.:     2.662 HEAT:  19.70272
 CYCLE:    36 TIME:   0.008 TIME LEFT:  2.00D  GRAD.:     2.595 HEAT:  19.69629
 CYCLE:    37 TIME:   0.012 TIME LEFT:  2.00D  GRAD.:     3.034 HEAT:  19.69194
 CYCLE:    38 TIME:   0.012 TIME LEFT:  2.00D  GRAD.:     2.066 HEAT:  19.68673
 CYCLE:    39 TIME:   0.012 TIME LEFT:  2.00D  GRAD.:     2.478 HEAT:  19.68240
 CYCLE:    40 TIME:   0.012 TIME LEFT:  2.00D  GRAD.:     2.683 HEAT:  19.67743
 CYCLE:    41 TIME:   0.008 TIME LEFT:  2.00D  GRAD.:     2.105 HEAT:  19.67084
 CYCLE:    42 TIME:   0.012 TIME LEFT:  2.00D  GRAD.:     2.787 HEAT:  19.66399
 CYCLE:    43 TIME:   0.016 TIME LEFT:  2.00D  GRAD.:     3.137 HEAT:  19.65214
 CYCLE:    44 TIME:   0.012 TIME LEFT:  2.00D  GRAD.:     3.143 HEAT:  19.63611
 CYCLE:    45 TIME:   0.012 TIME LEFT:  2.00D  GRAD.:     3.197 HEAT:  19.62435
 CYCLE:    46 TIME:   0.012 TIME LEFT:  2.00D  GRAD.:     3.386 HEAT:  19.61212
 CYCLE:    47 TIME:   0.016 TIME LEFT:  2.00D  GRAD.:     4.202 HEAT:  19.59275
 CYCLE:    48 TIME:   0.012 TIME LEFT:  2.00D  GRAD.:     3.993 HEAT:  19.57175
 CYCLE:    49 TIME:   0.012 TIME LEFT:  2.00D  GRAD.:     3.306 HEAT:  19.55057
 CYCLE:    50 TIME:   0.012 TIME LEFT:  2.00D  GRAD.:     5.227 HEAT:  19.53094
 CYCLE:    51 TIME:   0.012 TIME LEFT:  2.00D  GRAD.:     4.474 HEAT:  19.50829
 CYCLE:    52 TIME:   0.012 TIME LEFT:  2.00D  GRAD.:     5.441 HEAT:  19.48756
 CYCLE:    53 TIME:   0.012 TIME LEFT:  2.00D  GRAD.:     4.545 HEAT:  19.45159
 CYCLE:    54 TIME:   0.012 TIME LEFT:  2.00D  GRAD.:     4.431 HEAT:  19.40973
 CYCLE:    55 TIME:   0.012 TIME LEFT:  2.00D  GRAD.:     8.788 HEAT:  19.38826
 CYCLE:    56 TIME:   0.008 TIME LEFT:  2.00D  GRAD.:     5.426 HEAT:  19.33448
 CYCLE:    57 TIME:   0.012 TIME LEFT:  2.00D  GRAD.:     4.577 HEAT:  19.28803
 CYCLE:    58 TIME:   0.016 TIME LEFT:  2.00D  GRAD.:    11.053 HEAT:  19.24014
 CYCLE:    59 TIME:   0.012 TIME LEFT:  2.00D  GRAD.:     6.384 HEAT:  19.18795
 CYCLE:    60 TIME:   0.008 TIME LEFT:  2.00D  GRAD.:     4.083 HEAT:  19.14475
 CYCLE:    61 TIME:   0.016 TIME LEFT:  2.00D  GRAD.:    10.714 HEAT:  19.08779
 CYCLE:    62 TIME:   0.012 TIME LEFT:  2.00D  GRAD.:     6.062 HEAT:  19.03012
 CYCLE:    63 TIME:   0.008 TIME LEFT:  2.00D  GRAD.:     5.179 HEAT:  18.95559
 CYCLE:    64 TIME:   0.016 TIME LEFT:  2.00D  GRAD.:     5.087 HEAT:  18.87851
 CYCLE:    65 TIME:   0.012 TIME LEFT:  2.00D  GRAD.:     4.310 HEAT:  18.84312
 CYCLE:    66 TIME:   0.008 TIME LEFT:  2.00D  GRAD.:     4.986 HEAT:  18.80344
 CYCLE:    67 TIME:   0.012 TIME LEFT:  2.00D  GRAD.:     5.480 HEAT:  18.76818
 CYCLE:    68 TIME:   0.012 TIME LEFT:  2.00D  GRAD.:     5.414 HEAT:  18.73691
 CYCLE:    69 TIME:   0.012 TIME LEFT:  2.00D  GRAD.:     5.506 HEAT:  18.71236
 CYCLE:    70 TIME:   0.016 TIME LEFT:  2.00D  GRAD.:     4.342 HEAT:  18.68189
 CYCLE:    71 TIME:   0.012 TIME LEFT:  2.00D  GRAD.:     3.464 HEAT:  18.66443
 CYCLE:    72 TIME:   0.012 TIME LEFT:  2.00D  GRAD.:     2.775 HEAT:  18.64658
 CYCLE:    73 TIME:   0.012 TIME LEFT:  2.00D  GRAD.:     2.450 HEAT:  18.63522
 CYCLE:    74 TIME:   0.012 TIME LEFT:  2.00D  GRAD.:     2.231 HEAT:  18.62522
 CYCLE:    75 TIME:   0.012 TIME LEFT:  2.00D  GRAD.:     1.989 HEAT:  18.61397
 CYCLE:    76 TIME:   0.012 TIME LEFT:  2.00D  GRAD.:     1.902 HEAT:  18.60403
 CYCLE:    77 TIME:   0.008 TIME LEFT:  2.00D  GRAD.:     1.928 HEAT:  18.59753
 CYCLE:    78 TIME:   0.012 TIME LEFT:  2.00D  GRAD.:     1.491 HEAT:  18.59283
 CYCLE:    79 TIME:   0.012 TIME LEFT:  2.00D  GRAD.:     1.512 HEAT:  18.58863
 CYCLE:    80 TIME:   0.012 TIME LEFT:  2.00D  GRAD.:     1.352 HEAT:  18.58401
 CYCLE:    81 TIME:   0.012 TIME LEFT:  2.00D  GRAD.:     1.337 HEAT:  18.58005
 CYCLE:    82 TIME:   0.012 TIME LEFT:  2.00D  GRAD.:     1.327 HEAT:  18.57609
 CYCLE:    83 TIME:   0.012 TIME LEFT:  2.00D  GRAD.:     1.353 HEAT:  18.57279
 CYCLE:    84 TIME:   0.012 TIME LEFT:  2.00D  GRAD.:     1.308 HEAT:  18.56951
 CYCLE:    85 TIME:   0.012 TIME LEFT:  2.00D  GRAD.:     1.224 HEAT:  18.56656
 CYCLE:    86 TIME:   0.012 TIME LEFT:  2.00D  GRAD.:     1.185 HEAT:  18.56354
 CYCLE:    87 TIME:   0.012 TIME LEFT:  2.00D  GRAD.:     1.075 HEAT:  18.56060
 CYCLE:    88 TIME:   0.012 TIME LEFT:  2.00D  GRAD.:     1.051 HEAT:  18.55786
 CYCLE:    89 TIME:   0.012 TIME LEFT:  2.00D  GRAD.:     1.156 HEAT:  18.55557
 CYCLE:    90 TIME:   0.012 TIME LEFT:  2.00D  GRAD.:     1.131 HEAT:  18.55324
 CYCLE:    91 TIME:   0.012 TIME LEFT:  2.00D  GRAD.:     1.158 HEAT:  18.55038
 CYCLE:    92 TIME:   0.012 TIME LEFT:  2.00D  GRAD.:     1.352 HEAT:  18.54625
 CYCLE:    93 TIME:   0.012 TIME LEFT:  2.00D  GRAD.:     1.567 HEAT:  18.54164
 CYCLE:    94 TIME:   0.012 TIME LEFT:  2.00D  GRAD.:     1.601 HEAT:  18.53740
 CYCLE:    95 TIME:   0.012 TIME LEFT:  2.00D  GRAD.:     1.386 HEAT:  18.53213
 CYCLE:    96 TIME:   0.016 TIME LEFT:  2.00D  GRAD.:     1.138 HEAT:  18.52941
 CYCLE:    97 TIME:   0.012 TIME LEFT:  2.00D  GRAD.:     1.509 HEAT:  18.52446
 CYCLE:    98 TIME:   0.012 TIME LEFT:  2.00D  GRAD.:     1.130 HEAT:  18.52229
 CYCLE:    99 TIME:   0.012 TIME LEFT:  2.00D  GRAD.:     1.581 HEAT:  18.51629
 CYCLE:   100 TIME:   0.016 TIME LEFT:  2.00D  GRAD.:     1.271 HEAT:  18.51433
 CYCLE:   101 TIME:   0.012 TIME LEFT:  2.00D  GRAD.:     0.844 HEAT:  18.51272
 CYCLE:   102 TIME:   0.012 TIME LEFT:  2.00D  GRAD.:     0.850 HEAT:  18.51113
 CYCLE:   103 TIME:   0.012 TIME LEFT:  2.00D  GRAD.:     1.022 HEAT:  18.50867
 CYCLE:   104 TIME:   0.012 TIME LEFT:  2.00D  GRAD.:     0.932 HEAT:  18.50710
 CYCLE:   105 TIME:   0.012 TIME LEFT:  2.00D  GRAD.:     0.809 HEAT:  18.50495
 CYCLE:   106 TIME:   0.012 TIME LEFT:  2.00D  GRAD.:     0.721 HEAT:  18.50401
 CYCLE:   107 TIME:   0.012 TIME LEFT:  2.00D  GRAD.:     1.125 HEAT:  18.50116
 CYCLE:   108 TIME:   0.012 TIME LEFT:  2.00D  GRAD.:     1.074 HEAT:  18.49957
 CYCLE:   109 TIME:   0.016 TIME LEFT:  2.00D  GRAD.:     1.945 HEAT:  18.49616
 CYCLE:   110 TIME:   0.012 TIME LEFT:  2.00D  GRAD.:     1.158 HEAT:  18.49223
 CYCLE:   111 TIME:   0.012 TIME LEFT:  2.00D  GRAD.:     0.958 HEAT:  18.49017
 CYCLE:   112 TIME:   0.012 TIME LEFT:  2.00D  GRAD.:     1.116 HEAT:  18.48436
 CYCLE:   113 TIME:   0.008 TIME LEFT:  2.00D  GRAD.:     1.303 HEAT:  18.48168
 CYCLE:   114 TIME:   0.012 TIME LEFT:  2.00D  GRAD.:     1.414 HEAT:  18.47858
 CYCLE:   115 TIME:   0.012 TIME LEFT:  2.00D  GRAD.:     1.220 HEAT:  18.47545
 CYCLE:   116 TIME:   0.012 TIME LEFT:  2.00D  GRAD.:     1.283 HEAT:  18.47257
 CYCLE:   117 TIME:   0.012 TIME LEFT:  2.00D  GRAD.:     1.447 HEAT:  18.47010
 CYCLE:   118 TIME:   0.012 TIME LEFT:  2.00D  GRAD.:     1.458 HEAT:  18.46719
 CYCLE:   119 TIME:   0.012 TIME LEFT:  2.00D  GRAD.:     1.614 HEAT:  18.46294
 CYCLE:   120 TIME:   0.012 TIME LEFT:  2.00D  GRAD.:     1.571 HEAT:  18.45876
 CYCLE:   121 TIME:   0.012 TIME LEFT:  2.00D  GRAD.:     1.334 HEAT:  18.45434
 CYCLE:   122 TIME:   0.012 TIME LEFT:  2.00D  GRAD.:     1.229 HEAT:  18.45186
 CYCLE:   123 TIME:   0.012 TIME LEFT:  2.00D  GRAD.:     0.881 HEAT:  18.44915
 CYCLE:   124 TIME:   0.008 TIME LEFT:  2.00D  GRAD.:     1.265 HEAT:  18.44813
 CYCLE:   125 TIME:   0.016 TIME LEFT:  2.00D  GRAD.:     1.032 HEAT:  18.44701
 CYCLE:   126 TIME:   0.008 TIME LEFT:  2.00D  GRAD.:     0.833 HEAT:  18.44589
 CYCLE:   127 TIME:   0.012 TIME LEFT:  2.00D  GRAD.:     0.833 HEAT:  18.44457
 CYCLE:   128 TIME:   0.012 TIME LEFT:  2.00D  GRAD.:     0.953 HEAT:  18.44324
 CYCLE:   129 TIME:   0.012 TIME LEFT:  2.00D  GRAD.:     1.194 HEAT:  18.44147
 CYCLE:   130 TIME:   0.016 TIME LEFT:  2.00D  GRAD.:     1.430 HEAT:  18.43822
 CYCLE:   131 TIME:   0.012 TIME LEFT:  2.00D  GRAD.:     1.434 HEAT:  18.43513
 CYCLE:   132 TIME:   0.012 TIME LEFT:  2.00D  GRAD.:     2.614 HEAT:  18.42803
 CYCLE:   133 TIME:   0.012 TIME LEFT:  2.00D  GRAD.:     1.816 HEAT:  18.42417
 CYCLE:   134 TIME:   0.012 TIME LEFT:  2.00D  GRAD.:     1.418 HEAT:  18.41591
 CYCLE:   135 TIME:   0.016 TIME LEFT:  2.00D  GRAD.:     2.632 HEAT:  18.40145
 CYCLE:   136 TIME:   0.012 TIME LEFT:  2.00D  GRAD.:     1.452 HEAT:  18.39723
 CYCLE:   137 TIME:   0.012 TIME LEFT:  2.00D  GRAD.:     1.732 HEAT:  18.39449
 CYCLE:   138 TIME:   0.012 TIME LEFT:  2.00D  GRAD.:     1.497 HEAT:  18.39190
 CYCLE:   139 TIME:   0.012 TIME LEFT:  2.00D  GRAD.:     0.853 HEAT:  18.39073
 CYCLE:   140 TIME:   0.012 TIME LEFT:  2.00D  GRAD.:     0.679 HEAT:  18.38886
 CYCLE:   141 TIME:   0.012 TIME LEFT:  2.00D  GRAD.:     1.117 HEAT:  18.38688
 CYCLE:   142 TIME:   0.012 TIME LEFT:  2.00D  GRAD.:     1.107 HEAT:  18.38590
 CYCLE:   143 TIME:   0.012 TIME LEFT:  2.00D  GRAD.:     1.222 HEAT:  18.38406
 CYCLE:   144 TIME:   0.012 TIME LEFT:  2.00D  GRAD.:     1.038 HEAT:  18.38309
 CYCLE:   145 TIME:   0.016 TIME LEFT:  2.00D  GRAD.:     0.780 HEAT:  18.38161
 CYCLE:   146 TIME:   0.012 TIME LEFT:  2.00D  GRAD.:     1.193 HEAT:  18.38034
 CYCLE:   147 TIME:   0.012 TIME LEFT:  2.00D  GRAD.:     0.758 HEAT:  18.37946
 CYCLE:   148 TIME:   0.012 TIME LEFT:  2.00D  GRAD.:     0.700 HEAT:  18.37798
 CYCLE:   149 TIME:   0.012 TIME LEFT:  2.00D  GRAD.:     1.092 HEAT:  18.37642
 CYCLE:   150 TIME:   0.012 TIME LEFT:  2.00D  GRAD.:     0.887 HEAT:  18.37503
 CYCLE:   151 TIME:   0.012 TIME LEFT:  2.00D  GRAD.:     0.784 HEAT:  18.37327
 CYCLE:   152 TIME:   0.012 TIME LEFT:  2.00D  GRAD.:     0.767 HEAT:  18.37180
 CYCLE:   153 TIME:   0.012 TIME LEFT:  2.00D  GRAD.:     1.071 HEAT:  18.37111
 CYCLE:   154 TIME:   0.012 TIME LEFT:  2.00D  GRAD.:     0.837 HEAT:  18.37041
 CYCLE:   155 TIME:   0.012 TIME LEFT:  2.00D  GRAD.:     0.378 HEAT:  18.36978
 CYCLE:   156 TIME:   0.012 TIME LEFT:  2.00D  GRAD.:     0.257 HEAT:  18.36956
 CYCLE:   157 TIME:   0.012 TIME LEFT:  2.00D  GRAD.:     0.214 HEAT:  18.36938
 CYCLE:   158 TIME:   0.012 TIME LEFT:  2.00D  GRAD.:     0.254 HEAT:  18.36926
 CYCLE:   159 TIME:   0.012 TIME LEFT:  2.00D  GRAD.:     0.282 HEAT:  18.36903
 CYCLE:   160 TIME:   0.012 TIME LEFT:  2.00D  GRAD.:     0.289 HEAT:  18.36887
 CYCLE:   161 TIME:   0.012 TIME LEFT:  2.00D  GRAD.:     0.470 HEAT:  18.36852
 CYCLE:   162 TIME:   0.012 TIME LEFT:  2.00D  GRAD.:     0.487 HEAT:  18.36834
 CYCLE:   163 TIME:   0.012 TIME LEFT:  2.00D  GRAD.:     0.668 HEAT:  18.36783
 CYCLE:   164 TIME:   0.012 TIME LEFT:  2.00D  GRAD.:     0.573 HEAT:  18.36724
 CYCLE:   165 TIME:   0.012 TIME LEFT:  2.00D  GRAD.:     0.512 HEAT:  18.36603
 CYCLE:   166 TIME:   0.016 TIME LEFT:  2.00D  GRAD.:     0.758 HEAT:  18.36525
 CYCLE:   167 TIME:   0.012 TIME LEFT:  2.00D  GRAD.:     0.752 HEAT:  18.36439
 CYCLE:   168 TIME:   0.012 TIME LEFT:  2.00D  GRAD.:     0.631 HEAT:  18.36305
 CYCLE:   169 TIME:   0.012 TIME LEFT:  2.00D  GRAD.:     0.380 HEAT:  18.36254
 CYCLE:   170 TIME:   0.012 TIME LEFT:  2.00D  GRAD.:     0.305 HEAT:  18.36232
 CYCLE:   171 TIME:   0.012 TIME LEFT:  2.00D  GRAD.:     0.344 HEAT:  18.36214
 CYCLE:   172 TIME:   0.012 TIME LEFT:  2.00D  GRAD.:     0.460 HEAT:  18.36187
 CYCLE:   173 TIME:   0.012 TIME LEFT:  2.00D  GRAD.:     0.861 HEAT:  18.36114
 CYCLE:   174 TIME:   0.012 TIME LEFT:  2.00D  GRAD.:     0.863 HEAT:  18.35977
 CYCLE:   175 TIME:   0.012 TIME LEFT:  2.00D  GRAD.:     1.183 HEAT:  18.35741
 CYCLE:   176 TIME:   0.012 TIME LEFT:  2.00D  GRAD.:     2.152 HEAT:  18.34897
 CYCLE:   177 TIME:   0.016 TIME LEFT:  2.00D  GRAD.:     3.556 HEAT:  18.32325
 CYCLE:   178 TIME:   0.012 TIME LEFT:  2.00D  GRAD.:     3.309 HEAT:  18.30828
 CYCLE:   179 TIME:   0.012 TIME LEFT:  2.00D  GRAD.:     4.196 HEAT:  18.27982
 CYCLE:   180 TIME:   0.012 TIME LEFT:  2.00D  GRAD.:     3.818 HEAT:  18.24959
 CYCLE:   181 TIME:   0.012 TIME LEFT:  2.00D  GRAD.:     3.913 HEAT:  18.21513
 CYCLE:   182 TIME:   0.012 TIME LEFT:  2.00D  GRAD.:     3.736 HEAT:  18.18214
 CYCLE:   183 TIME:   0.012 TIME LEFT:  2.00D  GRAD.:     3.325 HEAT:  18.16013
 CYCLE:   184 TIME:   0.012 TIME LEFT:  2.00D  GRAD.:     3.165 HEAT:  18.14518
 CYCLE:   185 TIME:   0.012 TIME LEFT:  2.00D  GRAD.:     2.307 HEAT:  18.13487
 CYCLE:   186 TIME:   0.012 TIME LEFT:  2.00D  GRAD.:     2.138 HEAT:  18.12671
 CYCLE:   187 TIME:   0.012 TIME LEFT:  2.00D  GRAD.:     2.105 HEAT:  18.11720
 CYCLE:   188 TIME:   0.012 TIME LEFT:  2.00D  GRAD.:     2.740 HEAT:  18.10795
 CYCLE:   189 TIME:   0.012 TIME LEFT:  2.00D  GRAD.:     2.159 HEAT:  18.09764
 CYCLE:   190 TIME:   0.012 TIME LEFT:  2.00D  GRAD.:     1.952 HEAT:  18.08761
 CYCLE:   191 TIME:   0.012 TIME LEFT:  2.00D  GRAD.:     1.856 HEAT:  18.07975
 CYCLE:   192 TIME:   0.012 TIME LEFT:  2.00D  GRAD.:     1.548 HEAT:  18.07477
 CYCLE:   193 TIME:   0.012 TIME LEFT:  2.00D  GRAD.:     1.031 HEAT:  18.07119
 CYCLE:   194 TIME:   0.012 TIME LEFT:  2.00D  GRAD.:     0.749 HEAT:  18.06904
 CYCLE:   195 TIME:   0.012 TIME LEFT:  2.00D  GRAD.:     0.689 HEAT:  18.06832
 CYCLE:   196 TIME:   0.012 TIME LEFT:  2.00D  GRAD.:     0.539 HEAT:  18.06771
 CYCLE:   197 TIME:   0.012 TIME LEFT:  2.00D  GRAD.:     0.459 HEAT:  18.06733
 CYCLE:   198 TIME:   0.012 TIME LEFT:  2.00D  GRAD.:     0.446 HEAT:  18.06688
 CYCLE:   199 TIME:   0.012 TIME LEFT:  2.00D  GRAD.:     0.527 HEAT:  18.06640
 CYCLE:   200 TIME:   0.012 TIME LEFT:  2.00D  GRAD.:     0.774 HEAT:  18.06563
 CYCLE:   201 TIME:   0.012 TIME LEFT:  2.00D  GRAD.:     0.915 HEAT:  18.06465
 CYCLE:   202 TIME:   0.012 TIME LEFT:  2.00D  GRAD.:     1.422 HEAT:  18.06197
 CYCLE:   203 TIME:   0.012 TIME LEFT:  2.00D  GRAD.:     1.401 HEAT:  18.05900
 CYCLE:   204 TIME:   0.016 TIME LEFT:  2.00D  GRAD.:     3.840 HEAT:  18.05883
 CYCLE:   205 TIME:   0.012 TIME LEFT:  2.00D  GRAD.:     2.702 HEAT:  18.05228
 CYCLE:   206 TIME:   0.012 TIME LEFT:  2.00D  GRAD.:     1.204 HEAT:  18.04881
 CYCLE:   207 TIME:   0.012 TIME LEFT:  2.00D  GRAD.:     0.593 HEAT:  18.04664
 CYCLE:   208 TIME:   0.016 TIME LEFT:  2.00D  GRAD.:     0.740 HEAT:  18.04580
 CYCLE:   209 TIME:   0.012 TIME LEFT:  2.00D  GRAD.:     0.391 HEAT:  18.04531
 CYCLE:   210 TIME:   0.012 TIME LEFT:  2.00D  GRAD.:     0.228 HEAT:  18.04506
 CYCLE:   211 TIME:   0.012 TIME LEFT:  2.00D  GRAD.:     0.187 HEAT:  18.04496
 CYCLE:   212 TIME:   0.027 TIME LEFT:  2.00D  GRAD.:     1.604 HEAT:  18.04796
 CYCLE:   213 TIME:   0.016 TIME LEFT:  2.00D  GRAD.:     0.295 HEAT:  18.04481
 CYCLE:   214 TIME:   0.012 TIME LEFT:  2.00D  GRAD.:     0.164 HEAT:  18.04474
 CYCLE:   215 TIME:   0.012 TIME LEFT:  2.00D  GRAD.:     0.193 HEAT:  18.04468
 CYCLE:   216 TIME:   0.012 TIME LEFT:  2.00D  GRAD.:     0.251 HEAT:  18.04456
 CYCLE:   217 TIME:   0.012 TIME LEFT:  2.00D  GRAD.:     0.670 HEAT:  18.04419
 CYCLE:   218 TIME:   0.012 TIME LEFT:  2.00D  GRAD.:     0.851 HEAT:  18.04441
 CYCLE:   219 TIME:   0.012 TIME LEFT:  2.00D  GRAD.:     0.561 HEAT:  18.04379
 CYCLE:   220 TIME:   0.012 TIME LEFT:  2.00D  GRAD.:     0.316 HEAT:  18.04389
 CYCLE:   221 TIME:   0.012 TIME LEFT:  2.00D  GRAD.:     0.385 HEAT:  18.04357
 CYCLE:   222 TIME:   0.012 TIME LEFT:  2.00D  GRAD.:     0.710 HEAT:  18.04450
 CYCLE:   223 TIME:   0.012 TIME LEFT:  2.00D  GRAD.:     0.414 HEAT:  18.04331
 CYCLE:   224 TIME:   0.016 TIME LEFT:  2.00D  GRAD.:     0.380 HEAT:  18.04322
 CYCLE:   225 TIME:   0.016 TIME LEFT:  2.00D  GRAD.:     2.168 HEAT:  18.05163
 CYCLE:   226 TIME:   0.012 TIME LEFT:  2.00D  GRAD.:     0.539 HEAT:  18.04328
 CYCLE:   227 TIME:   0.016 TIME LEFT:  2.00D  GRAD.:     0.334 HEAT:  18.04292
 CYCLE:   228 TIME:   0.012 TIME LEFT:  2.00D  GRAD.:     0.279 HEAT:  18.04281
 CYCLE:   229 TIME:   0.012 TIME LEFT:  2.00D  GRAD.:     0.112 HEAT:  18.04292
 CYCLE:   230 TIME:   0.012 TIME LEFT:  2.00D  GRAD.:     0.220 HEAT:  18.04263
 CYCLE:   231 TIME:   0.012 TIME LEFT:  2.00D  GRAD.:     0.296 HEAT:  18.04256
 CYCLE:   232 TIME:   0.012 TIME LEFT:  2.00D  GRAD.:     0.319 HEAT:  18.04251
 CYCLE:   233 TIME:   0.016 TIME LEFT:  2.00D  GRAD.:     0.433 HEAT:  18.04246
 CYCLE:   234 TIME:   0.012 TIME LEFT:  2.00D  GRAD.:     0.210 HEAT:  18.04218
 CYCLE:   235 TIME:   0.012 TIME LEFT:  2.00D  GRAD.:     0.533 HEAT:  18.04390
 CYCLE:   236 TIME:   0.012 TIME LEFT:  2.00D  GRAD.:     0.154 HEAT:  18.04214
 CYCLE:   237 TIME:   0.016 TIME LEFT:  2.00D  GRAD.:     0.083 HEAT:  18.04210
 CYCLE:   238 TIME:   0.012 TIME LEFT:  2.00D  GRAD.:     0.161 HEAT:  18.04214
 CYCLE:   239 TIME:   0.012 TIME LEFT:  2.00D  GRAD.:     0.156 HEAT:  18.04215
 CYCLE:   240 TIME:   0.012 TIME LEFT:  2.00D  GRAD.:     0.303 HEAT:  18.04214
 CYCLE:   241 TIME:   0.008 TIME LEFT:  2.00D  GRAD.:     0.110 HEAT:  18.04209
 CYCLE:   242 TIME:   0.012 TIME LEFT:  2.00D  GRAD.:     0.075 HEAT:  18.04208
 CYCLE:   243 TIME:   0.008 TIME LEFT:  2.00D  GRAD.:     0.052 HEAT:  18.04207
 CYCLE:   244 TIME:   0.012 TIME LEFT:  2.00D  GRAD.:     0.185 HEAT:  18.04205
 CYCLE:   245 TIME:   0.012 TIME LEFT:  2.00D  GRAD.:     0.251 HEAT:  18.04200
 CYCLE:   246 TIME:   0.008 TIME LEFT:  2.00D  GRAD.:     0.238 HEAT:  18.04195
 CYCLE:   247 TIME:   0.012 TIME LEFT:  2.00D  GRAD.:     0.203 HEAT:  18.04191
 CYCLE:   248 TIME:   0.012 TIME LEFT:  2.00D  GRAD.:     0.237 HEAT:  18.04188
 CYCLE:   249 TIME:   0.012 TIME LEFT:  2.00D  GRAD.:     0.069 HEAT:  18.04183
 CYCLE:   250 TIME:   0.012 TIME LEFT:  2.00D  GRAD.:     0.060 HEAT:  18.04180
 CYCLE:   251 TIME:   0.008 TIME LEFT:  2.00D  GRAD.:     0.042 HEAT:  18.04178

     GRADIENT =  0.04217 IS LESS THAN CUTOFF =  0.05000



 -------------------------------------------------------------------------------
 pm3  precise nosym THREADS=1
 InChI=1S/C12H20/c1-4-6-7-10(3)12-9-8-11(12)5-2/h4,6,8-12H,5,7H2,1-3H3



     GEOMETRY OPTIMISED USING EIGENVECTOR FOLLOWING (EF).     
     SCF FIELD WAS ACHIEVED                                   


                              PM3 CALCULATION
                                                       MOPAC v23.1.2 MacOS
                                                       Tue Jun  3 16:42:30 2025




          FINAL HEAT OF FORMATION =         18.04178 KCAL/MOL =      75.48679 KJ/MOL


          COSMO AREA              =        235.13 SQUARE ANGSTROMS
          COSMO VOLUME            =        250.83 CUBIC ANGSTROMS

          GRADIENT NORM           =          0.04217          =       0.00745 PER ATOM
          IONIZATION POTENTIAL    =          9.647877 EV
          HOMO LUMO ENERGIES (EV) =         -9.648  1.026
          NO. OF FILLED LEVELS    =         34
          MOLECULAR WEIGHT        =        164.2900         POINT GROUP:  C1  

          MOLECULAR DIMENSIONS (Angstroms)

            Atom       Atom       Distance
            H    31    H    28     9.44593
            H    25    H    21     6.92797
            H    22    H    27     4.65575


          SCF CALCULATIONS        =        263

          WALL-CLOCK TIME         =      3.063 SECONDS
          COMPUTATION TIME        =      2.223 SECONDS




   ATOM   CHEMICAL          X               Y               Z
  NUMBER   SYMBOL      (ANGSTROMS)     (ANGSTROMS)     (ANGSTROMS)

     1       C         -0.19848271  *  -0.71086813  *   0.76297578  *
     2       C          1.29549779  *  -0.44759391  *   0.86656555  *
     3       C          1.74778463  *   1.07139864  *   0.79759550  *
     4       C          2.81657493  *   1.40443994  *  -0.21844435  *
     5       C         -0.68759518  *  -0.43904031  *  -0.66339181  *
     6       C         -0.50832288  *  -2.14297234  *   1.17192750  *
     7       C          2.26011687  *   1.46911698  *  -1.62302959  *
     8       C         -4.38878714  *   0.03779254  *  -1.64826478  *
     9       C          2.25930737  *   0.85990490  *   2.21759725  *
    10       C          1.85619533  *  -0.42278514  *   2.28496284  *
    11       C         -2.16326815  *  -0.59128550  *  -0.77201716  *
    12       C         -2.92400359  *   0.20412808  *  -1.52457482  *
    13       H         -0.73538081  *  -0.01743235  *   1.45594635  *
    14       H          0.89705266  *   1.78229130  *   0.73226401  *
    15       H          1.86305700  *  -1.10562635  *   0.17452967  *
    16       H          3.63554320  *   0.65934646  *  -0.16995291  *
    17       H          3.27821730  *   2.37402987  *   0.05424354  *
    18       H         -0.36402711  *   0.57512150  *  -0.98057702  *
    19       H         -0.20316647  *  -1.14318221  *  -1.37159495  *
    20       H         -1.57886216  *  -2.35987045  *   1.01992688  *
    21       H         -0.27091244  *  -2.31936130  *   2.22849029  *
    22       H          0.06200944  *  -2.86930961  *   0.57779606  *
    23       H          1.84622803  *   0.49932329  *  -1.93533601  *
    24       H          1.45163843  *   2.20833947  *  -1.70656230  *
    25       H          3.03665057  *   1.74551619  *  -2.34716860  *
    26       H         -4.77732307  *  -0.79597564  *  -1.04832392  *
    27       H         -4.90872890  *   0.94953845  *  -1.32462569  *
    28       H         -4.66806199  *  -0.14804657  *  -2.69418516  *
    29       H         -2.48330819  *   1.03067165  *  -2.09598173  *
    30       H         -2.58982838  *  -1.42224841  *  -0.18484292  *
    31       H          2.76814149  *   1.54891658  *   2.87795736  *
    32       H          1.87710352  *  -1.20507342  *   3.03202963  *

                             CARTESIAN COORDINATES

   1    C       -0.198482712    -0.710868128     0.762975780
   2    C        1.295497785    -0.447593914     0.866565547
   3    C        1.747784627     1.071398638     0.797595503
   4    C        2.816574927     1.404439944    -0.218444348
   5    C       -0.687595180    -0.439040307    -0.663391813
   6    C       -0.508322879    -2.142972343     1.171927496
   7    C        2.260116872     1.469116985    -1.623029591
   8    C       -4.388787138     0.037792541    -1.648264779
   9    C        2.259307371     0.859904904     2.217597246
  10    C        1.856195328    -0.422785138     2.284962844
  11    C       -2.163268145    -0.591285498    -0.772017161
  12    C       -2.924003589     0.204128078    -1.524574815
  13    H       -0.735380813    -0.017432349     1.455946345
  14    H        0.897052657     1.782291304     0.732264007
  15    H        1.863056996    -1.105626353     0.174529667
  16    H        3.635543198     0.659346463    -0.169952915
  17    H        3.278217303     2.374029875     0.054243542
  18    H       -0.364027113     0.575121503    -0.980577017
  19    H       -0.203166475    -1.143182211    -1.371594947
  20    H       -1.578862158    -2.359870447     1.019926882
  21    H       -0.270912435    -2.319361302     2.228490286
  22    H        0.062009443    -2.869309610     0.577796063
  23    H        1.846228028     0.499323292    -1.935336010
  24    H        1.451638425     2.208339469    -1.706562297
  25    H        3.036650572     1.745516189    -2.347168605
  26    H       -4.777323073    -0.795975640    -1.048323921
  27    H       -4.908728904     0.949538445    -1.324625691
  28    H       -4.668061994    -0.148046569    -2.694185159
  29    H       -2.483308191     1.030671652    -2.095981731
  30    H       -2.589828384    -1.422248414    -0.184842921
  31    H        2.768141493     1.548916582     2.877957356
  32    H        1.877103516    -1.205073418     3.032029631


           Empirical Formula: C12 H20  =    32 atoms



      MOLECULAR POINT GROUP   :   C1  


                  EIGENVALUES  
 -42.02017 -37.30264 -34.17501 -32.54570 -28.32907 -25.41005 -24.69520 -22.95756
 -20.91869 -20.02772 -19.45131 -18.10212 -17.35519 -16.13193 -15.70602 -15.68428
 -14.92295 -14.75559 -14.60679 -14.28581 -14.07602 -13.54300 -13.25643 -13.17123
 -12.68270 -12.66089 -12.32228 -12.12902 -11.97512 -11.69150 -11.37516 -11.20531
  -9.90099  -9.64788   1.02578   1.13236   3.12560   3.15094   3.25442   3.48052
   3.68651   3.75513   3.79715   3.80337   3.90625   3.93535   3.99711   4.07309
   4.17826   4.25701   4.30644   4.36797   4.38917   4.43066   4.52240   4.53119
   4.57846   4.60200   4.77154   4.91941   4.94623   4.99787   5.11506   5.22618
   5.31993   5.72706   6.00683   6.18455


              NET ATOMIC CHARGES AND DIPOLE CONTRIBUTIONS

  ATOM NO.   TYPE          CHARGE      No. of ELECS.   s-Pop       p-Pop       
    1          C          -0.063221        4.0632     1.17327     2.88995
    2          C          -0.069899        4.0699     1.19518     2.87472
    3          C          -0.070477        4.0705     1.19251     2.87797
    4          C          -0.085818        4.0858     1.15415     2.93166
    5          C          -0.073653        4.0737     1.15400     2.91965
    6          C          -0.119181        4.1192     1.14373     2.97546
    7          C          -0.114292        4.1143     1.13953     2.97476
    8          C          -0.072502        4.0725     1.12489     2.94762
    9          C          -0.159775        4.1598     1.22009     2.93968
   10          C          -0.156219        4.1562     1.21984     2.93638
   11          C          -0.160417        4.1604     1.19928     2.96114
   12          C          -0.149647        4.1496     1.19248     2.95717
   13          H           0.070246        0.9298     0.92975
   14          H           0.082837        0.9172     0.91716
   15          H           0.082843        0.9172     0.91716
   16          H           0.053588        0.9464     0.94641
   17          H           0.050756        0.9492     0.94924
   18          H           0.061823        0.9382     0.93818
   19          H           0.058478        0.9415     0.94152
   20          H           0.045696        0.9543     0.95430
   21          H           0.042631        0.9574     0.95737
   22          H           0.040955        0.9590     0.95905
   23          H           0.042091        0.9579     0.95791
   24          H           0.038688        0.9613     0.96131
   25          H           0.038477        0.9615     0.96152
   26          H           0.040221        0.9598     0.95978
   27          H           0.043278        0.9567     0.95672
   28          H           0.043078        0.9569     0.95692
   29          H           0.097920        0.9021     0.90208
   30          H           0.110091        0.8899     0.88991
   31          H           0.125358        0.8746     0.87464
   32          H           0.126045        0.8740     0.87395
 DIPOLE           X         Y         Z       TOTAL
 POINT-CHG.    -0.073     0.040    -0.153     0.174
 HYBRID         0.025    -0.037     0.029     0.053
 SUM           -0.048     0.003    -0.124     0.133


          ATOMIC ORBITAL ELECTRON POPULATIONS

     Atom    s        px        py        pz   
    1  C   1.17327   0.94779   0.97350   0.96865
    2  C   1.19518   0.95548   0.96148   0.95777
    3  C   1.19251   0.98071   0.96189   0.93538
    4  C   1.15415   0.97159   1.01505   0.94502
    5  C   1.15400   0.93829   1.01906   0.96230
    6  C   1.14373   1.01044   0.95761   1.00741
    7  C   1.13953   1.00308   1.01156   0.96012
    8  C   1.12489   0.93624   1.00603   1.00534
    9  C   1.22009   1.00149   0.96897   0.96922
   10  C   1.21984   0.99502   0.96975   0.97161
   11  C   1.19928   0.96182   0.99860   1.00072
   12  C   1.19248   0.96232   0.99546   0.99938
   13  H   0.92975
   14  H   0.91716
   15  H   0.91716
   16  H   0.94641
   17  H   0.94924
   18  H   0.93818
   19  H   0.94152
   20  H   0.95430
   21  H   0.95737
   22  H   0.95905
   23  H   0.95791
   24  H   0.96131
   25  H   0.96152
   26  H   0.95978
   27  H   0.95672
   28  H   0.95692
   29  H   0.90208
   30  H   0.88991
   31  H   0.87464
   32  H   0.87395
 *******************************************************************************
 **                                                                           **
 **                              MOPAC v23.1.2                                **
 **                                                                           **
 *******************************************************************************
 **          Digital Object Identifier (DOI): 10.5281/zenodo.6511958          **
 **    Visit the DOI location for information on how to cite this program.    **
 *******************************************************************************

                              PM3 CALCULATION RESULTS

 *******************************************************************************
 *  CALCULATION DONE: (MAX THREADS = 1)              Tue Jun  3 16:42:30 2025  *
 *  PM3        - The PM3 Hamiltonian to be used
 *  OLDGEO     - PREVIOUS GEOMETRY TO BE USED
 *  PRECISE    - TIGHTER CRITERIA TO BE USED
 *  NOSYM      - POINT-GROUP SYMMETRY SET TO C1
 *  THREADS=1  - MULTI-THREADING NOT USED
 *  T=         - A TIME OF 172800.0 SECONDS REQUESTED
 *  DUMP=N     - RESTART FILE WRITTEN EVERY 7200.0 SECONDS REQUESTED
 *  THERMO     - THERMODYNAMIC QUANTITIES TO BE CALCULATED
 *******************************************************************************
oldgeo thermo nosym precise THREADS=1  pm3
 InChI=1S/C12H20/c1-4-6-7-10(3)12-9-8-11(12)5-2/h4,6,8-12H,5,7H2,1-3H3

   ATOM   CHEMICAL          X               Y               Z
  NUMBER   SYMBOL      (ANGSTROMS)     (ANGSTROMS)     (ANGSTROMS)

     1       C         -0.19848271  *  -0.71086813  *   0.76297578  *
     2       C          1.29549779  *  -0.44759391  *   0.86656555  *
     3       C          1.74778463  *   1.07139864  *   0.79759550  *
     4       C          2.81657493  *   1.40443994  *  -0.21844435  *
     5       C         -0.68759518  *  -0.43904031  *  -0.66339181  *
     6       C         -0.50832288  *  -2.14297234  *   1.17192750  *
     7       C          2.26011687  *   1.46911698  *  -1.62302959  *
     8       C         -4.38878714  *   0.03779254  *  -1.64826478  *
     9       C          2.25930737  *   0.85990490  *   2.21759725  *
    10       C          1.85619533  *  -0.42278514  *   2.28496284  *
    11       C         -2.16326815  *  -0.59128550  *  -0.77201716  *
    12       C         -2.92400359  *   0.20412808  *  -1.52457482  *
    13       H         -0.73538081  *  -0.01743235  *   1.45594635  *
    14       H          0.89705266  *   1.78229130  *   0.73226401  *
    15       H          1.86305700  *  -1.10562635  *   0.17452967  *
    16       H          3.63554320  *   0.65934646  *  -0.16995291  *
    17       H          3.27821730  *   2.37402987  *   0.05424354  *
    18       H         -0.36402711  *   0.57512150  *  -0.98057702  *
    19       H         -0.20316647  *  -1.14318221  *  -1.37159495  *
    20       H         -1.57886216  *  -2.35987045  *   1.01992688  *
    21       H         -0.27091244  *  -2.31936130  *   2.22849029  *
    22       H          0.06200944  *  -2.86930961  *   0.57779606  *
    23       H          1.84622803  *   0.49932329  *  -1.93533601  *
    24       H          1.45163843  *   2.20833947  *  -1.70656230  *
    25       H          3.03665057  *   1.74551619  *  -2.34716860  *
    26       H         -4.77732307  *  -0.79597564  *  -1.04832392  *
    27       H         -4.90872890  *   0.94953845  *  -1.32462569  *
    28       H         -4.66806199  *  -0.14804657  *  -2.69418516  *
    29       H         -2.48330819  *   1.03067165  *  -2.09598173  *
    30       H         -2.58982838  *  -1.42224841  *  -0.18484292  *
    31       H          2.76814149  *   1.54891658  *   2.87795736  *
    32       H          1.87710352  *  -1.20507342  *   3.03202963  *



          CARTESIAN COORDINATES 

    NO.       ATOM           X           Y           Z

     1         C         -0.1985     -0.7109      0.7630
     2         C          1.2955     -0.4476      0.8666
     3         C          1.7478      1.0714      0.7976
     4         C          2.8166      1.4044     -0.2184
     5         C         -0.6876     -0.4390     -0.6634
     6         C         -0.5083     -2.1430      1.1719
     7         C          2.2601      1.4691     -1.6230
     8         C         -4.3888      0.0378     -1.6483
     9         C          2.2593      0.8599      2.2176
    10         C          1.8562     -0.4228      2.2850
    11         C         -2.1633     -0.5913     -0.7720
    12         C         -2.9240      0.2041     -1.5246
    13         H         -0.7354     -0.0174      1.4559
    14         H          0.8971      1.7823      0.7323
    15         H          1.8631     -1.1056      0.1745
    16         H          3.6355      0.6593     -0.1700
    17         H          3.2782      2.3740      0.0542
    18         H         -0.3640      0.5751     -0.9806
    19         H         -0.2032     -1.1432     -1.3716
    20         H         -1.5789     -2.3599      1.0199
    21         H         -0.2709     -2.3194      2.2285
    22         H          0.0620     -2.8693      0.5778
    23         H          1.8462      0.4993     -1.9353
    24         H          1.4516      2.2083     -1.7066
    25         H          3.0367      1.7455     -2.3472
    26         H         -4.7773     -0.7960     -1.0483
    27         H         -4.9087      0.9495     -1.3246
    28         H         -4.6681     -0.1480     -2.6942
    29         H         -2.4833      1.0307     -2.0960
    30         H         -2.5898     -1.4222     -0.1848
    31         H          2.7681      1.5489      2.8780
    32         H          1.8771     -1.2051      3.0320

  H: (PM3): J. J. P. STEWART, J. COMP. CHEM. 10, 209 (1989).
  C: (PM3): J. J. P. STEWART, J. COMP. CHEM. 10, 209 (1989).

           Empirical Formula: C12 H20  =    32 atoms



      MOLECULAR POINT GROUP   :   C1  


      RHF CALCULATION, NO. OF DOUBLY OCCUPIED LEVELS = 34



          HEAT OF FORMATION =      18.041776 KCALS/MOLE


          CARTESIAN COORDINATE DERIVATIVES

   NUMBER  ATOM         X            Y            Z

     1       C     -0.001099    -0.000142    -0.000194
     2       C     -0.000110    -0.004468    -0.003801
     3       C     -0.000497    -0.003478     0.000279
     4       C      0.000387     0.001003     0.002347
     5       C     -0.000254     0.001256     0.002061
     6       C     -0.001666    -0.000409     0.000968
     7       C     -0.000563     0.001105    -0.000482
     8       C      0.012734     0.009571    -0.008832
     9       C     -0.002027    -0.000341    -0.000217
    10       C      0.000817    -0.003077    -0.003567
    11       C      0.005946    -0.009959     0.003902
    12       C     -0.010160     0.007800    -0.004322
    13       H      0.000621     0.000608     0.001239
    14       H     -0.000087     0.002505     0.001912
    15       H     -0.001185     0.003540     0.003265
    16       H      0.002081     0.001096    -0.000953
    17       H     -0.002031    -0.000074     0.000379
    18       H     -0.003313    -0.000307     0.000766
    19       H      0.000053     0.000115    -0.001279
    20       H     -0.004866     0.000206     0.000931
    21       H      0.008435    -0.004340    -0.001342
    22       H      0.000605    -0.001188    -0.001144
    23       H     -0.001449     0.000569     0.001666
    24       H      0.001330    -0.000582    -0.001449
    25       H      0.002905    -0.004113    -0.000780
    26       H     -0.008612    -0.013222     0.016583
    27       H     -0.001346     0.010581    -0.000241
    28       H     -0.002797    -0.006109    -0.010487
    29       H      0.000778     0.006140    -0.000506
    30       H      0.002047    -0.000181     0.000114
    31       H      0.003286     0.004087     0.003622
    32       H      0.000036     0.001808    -0.000441



          GRADIENT NORM =   0.04305

          MOLECULAR WEIGHT =  164.29



          ROTATIONAL CONSTANTS IN CM(-1)

          A =    0.04456095   B =    0.01596272   C =    0.01291211



           PRINCIPAL MOMENTS OF INERTIA IN UNITS OF 10**(-40)*GRAM-CM**2

          A =      628.1903   B =     1753.6327   C =     2167.9450


          ORIENTATION OF MOLECULE IN FORCE CALCULATION

    NO.       ATOM         X         Y         Z

     1          C      -0.3633   -0.7259    0.6337
     2          C       1.1572   -0.7259    0.6337
     3          C       1.8599    0.6964    0.6337
     4          C       2.8985    0.9281   -0.4402
     5          C      -0.8940   -0.2598   -0.7260
     6          C      -0.8878   -2.1146    0.9662
     7          C       2.2673    1.2002   -1.7871
     8          C      -4.5151    0.9093   -1.3718
     9          C       2.4226    0.2863    1.9894
    10          C       1.8091   -0.9119    2.0002
    11          C      -2.3776   -0.1533   -0.7248
    12          C      -3.0386    0.8173   -1.3562
    13          H      -0.7235   -0.0117    1.4143
    14          H       1.1427    1.5426    0.6870
    15          H       1.5538   -1.4106   -0.1461
    16          H       3.5775    0.0550   -0.5101
    17          H       3.5385    1.7810   -0.1393
    18          H      -0.4221    0.7085   -0.9973
    19          H      -0.5882   -0.9745   -1.5183
    20          H      -1.9876   -2.1360    0.8869
    21          H      -0.6131   -2.4144    1.9852
    22          H      -0.4937   -2.8749    0.2788
    23          H       1.6714    0.3424   -2.1313
    24          H       1.5952    2.0687   -1.7533
    25          H       3.0288    1.4012   -2.5510
    26          H      -5.0003    0.1059   -0.8016
    27          H      -4.8460    1.8655   -0.9447
    28          H      -4.8929    0.8594   -2.4020
    29          H      -2.5015    1.6025   -1.9028
    30          H      -2.9006   -0.9465   -0.1640
    31          H       3.0869    0.8238    2.6524
    32          H       1.7451   -1.7454    2.6871


    FIRST DERIVATIVES WILL BE USED IN THE CALCULATION OF SECOND DERIVATIVES

          ESTIMATED TIME TO COMPLETE CALCULATION =        4.50 SECONDS

    FOR POINT-GROUP C1   THERE ARE   1 UNIQUE SYMMETRY FUNCTIONS.

 STEP:   1 TIME =     0.04 SECS, INTEGRAL =      0.04 TIME LEFT: 172799.95
 STEP:   2 TIME =     0.04 SECS, INTEGRAL =      0.07 TIME LEFT: 172799.92
 STEP:   3 TIME =     0.04 SECS, INTEGRAL =      0.11 TIME LEFT: 172799.88
 STEP:   4 TIME =     0.04 SECS, INTEGRAL =      0.15 TIME LEFT: 172799.84
 STEP:   5 TIME =     0.04 SECS, INTEGRAL =      0.19 TIME LEFT: 172799.80
 STEP:   6 TIME =     0.04 SECS, INTEGRAL =      0.23 TIME LEFT: 172799.76
 STEP:   7 TIME =     0.04 SECS, INTEGRAL =      0.26 TIME LEFT: 172799.73
 STEP:   8 TIME =     0.04 SECS, INTEGRAL =      0.30 TIME LEFT: 172799.69
 STEP:   9 TIME =     0.04 SECS, INTEGRAL =      0.33 TIME LEFT: 172799.66
 STEP:  10 TIME =     0.04 SECS, INTEGRAL =      0.37 TIME LEFT: 172799.62
 STEP:  11 TIME =     0.04 SECS, INTEGRAL =      0.41 TIME LEFT: 172799.58
 STEP:  12 TIME =     0.04 SECS, INTEGRAL =      0.44 TIME LEFT: 172799.55
 STEP:  13 TIME =     0.04 SECS, INTEGRAL =      0.48 TIME LEFT: 172799.51
 STEP:  14 TIME =     0.04 SECS, INTEGRAL =      0.52 TIME LEFT: 172799.47
 STEP:  15 TIME =     0.04 SECS, INTEGRAL =      0.55 TIME LEFT: 172799.43
 STEP:  16 TIME =     0.04 SECS, INTEGRAL =      0.59 TIME LEFT: 172799.39
 STEP:  17 TIME =     0.04 SECS, INTEGRAL =      0.63 TIME LEFT: 172799.36
 STEP:  18 TIME =     0.04 SECS, INTEGRAL =      0.67 TIME LEFT: 172799.32
 STEP:  19 TIME =     0.04 SECS, INTEGRAL =      0.71 TIME LEFT: 172799.28
 STEP:  20 TIME =     0.04 SECS, INTEGRAL =      0.75 TIME LEFT: 172799.23
 STEP:  21 TIME =     0.04 SECS, INTEGRAL =      0.79 TIME LEFT: 172799.20
 STEP:  22 TIME =     0.04 SECS, INTEGRAL =      0.83 TIME LEFT: 172799.16
 STEP:  23 TIME =     0.04 SECS, INTEGRAL =      0.87 TIME LEFT: 172799.12
 STEP:  24 TIME =     0.04 SECS, INTEGRAL =      0.91 TIME LEFT: 172799.08
 STEP:  25 TIME =     0.04 SECS, INTEGRAL =      0.95 TIME LEFT: 172799.04
 STEP:  26 TIME =     0.04 SECS, INTEGRAL =      0.98 TIME LEFT: 172799.00
 STEP:  27 TIME =     0.04 SECS, INTEGRAL =      1.02 TIME LEFT: 172798.96
 STEP:  28 TIME =     0.04 SECS, INTEGRAL =      1.06 TIME LEFT: 172798.93
 STEP:  29 TIME =     0.04 SECS, INTEGRAL =      1.10 TIME LEFT: 172798.89
 STEP:  30 TIME =     0.04 SECS, INTEGRAL =      1.14 TIME LEFT: 172798.85
 STEP:  31 TIME =     0.04 SECS, INTEGRAL =      1.17 TIME LEFT: 172798.82
 STEP:  32 TIME =     0.04 SECS, INTEGRAL =      1.21 TIME LEFT: 172798.78
 STEP:  33 TIME =     0.04 SECS, INTEGRAL =      1.25 TIME LEFT: 172798.74
 STEP:  34 TIME =     0.04 SECS, INTEGRAL =      1.29 TIME LEFT: 172798.70
 STEP:  35 TIME =     0.04 SECS, INTEGRAL =      1.32 TIME LEFT: 172798.67
 STEP:  36 TIME =     0.04 SECS, INTEGRAL =      1.36 TIME LEFT: 172798.63
 STEP:  37 TIME =     0.04 SECS, INTEGRAL =      1.39 TIME LEFT: 172798.59
 STEP:  38 TIME =     0.04 SECS, INTEGRAL =      1.43 TIME LEFT: 172798.55
 STEP:  39 TIME =     0.04 SECS, INTEGRAL =      1.47 TIME LEFT: 172798.52
 STEP:  40 TIME =     0.04 SECS, INTEGRAL =      1.51 TIME LEFT: 172798.48
 STEP:  41 TIME =     0.04 SECS, INTEGRAL =      1.55 TIME LEFT: 172798.44
 STEP:  42 TIME =     0.04 SECS, INTEGRAL =      1.59 TIME LEFT: 172798.40
 STEP:  43 TIME =     0.04 SECS, INTEGRAL =      1.62 TIME LEFT: 172798.36
 STEP:  44 TIME =     0.04 SECS, INTEGRAL =      1.66 TIME LEFT: 172798.32
 STEP:  45 TIME =     0.04 SECS, INTEGRAL =      1.70 TIME LEFT: 172798.29
 STEP:  46 TIME =     0.04 SECS, INTEGRAL =      1.74 TIME LEFT: 172798.25
 STEP:  47 TIME =     0.04 SECS, INTEGRAL =      1.78 TIME LEFT: 172798.21
 STEP:  48 TIME =     0.04 SECS, INTEGRAL =      1.82 TIME LEFT: 172798.17
 STEP:  49 TIME =     0.04 SECS, INTEGRAL =      1.86 TIME LEFT: 172798.13
 STEP:  50 TIME =     0.04 SECS, INTEGRAL =      1.89 TIME LEFT: 172798.09
 STEP:  51 TIME =     0.04 SECS, INTEGRAL =      1.93 TIME LEFT: 172798.05
 STEP:  52 TIME =     0.04 SECS, INTEGRAL =      1.97 TIME LEFT: 172798.02
 STEP:  53 TIME =     0.04 SECS, INTEGRAL =      2.00 TIME LEFT: 172797.98
 STEP:  54 TIME =     0.04 SECS, INTEGRAL =      2.05 TIME LEFT: 172797.94
 STEP:  55 TIME =     0.04 SECS, INTEGRAL =      2.09 TIME LEFT: 172797.90
 STEP:  56 TIME =     0.04 SECS, INTEGRAL =      2.12 TIME LEFT: 172797.87
 STEP:  57 TIME =     0.04 SECS, INTEGRAL =      2.16 TIME LEFT: 172797.83
 STEP:  58 TIME =     0.04 SECS, INTEGRAL =      2.20 TIME LEFT: 172797.79
 STEP:  59 TIME =     0.04 SECS, INTEGRAL =      2.23 TIME LEFT: 172797.75
 STEP:  60 TIME =     0.04 SECS, INTEGRAL =      2.27 TIME LEFT: 172797.71
 STEP:  61 TIME =     0.04 SECS, INTEGRAL =      2.31 TIME LEFT: 172797.68
 STEP:  62 TIME =     0.04 SECS, INTEGRAL =      2.35 TIME LEFT: 172797.64
 STEP:  63 TIME =     0.04 SECS, INTEGRAL =      2.38 TIME LEFT: 172797.61
 STEP:  64 TIME =     0.04 SECS, INTEGRAL =      2.42 TIME LEFT: 172797.57
 STEP:  65 TIME =     0.04 SECS, INTEGRAL =      2.46 TIME LEFT: 172797.53
 STEP:  66 TIME =     0.04 SECS, INTEGRAL =      2.50 TIME LEFT: 172797.49
 STEP:  67 TIME =     0.04 SECS, INTEGRAL =      2.54 TIME LEFT: 172797.45
 STEP:  68 TIME =     0.04 SECS, INTEGRAL =      2.57 TIME LEFT: 172797.41
 STEP:  69 TIME =     0.04 SECS, INTEGRAL =      2.61 TIME LEFT: 172797.38
 STEP:  70 TIME =     0.04 SECS, INTEGRAL =      2.65 TIME LEFT: 172797.34
 STEP:  71 TIME =     0.04 SECS, INTEGRAL =      2.69 TIME LEFT: 172797.30
 STEP:  72 TIME =     0.04 SECS, INTEGRAL =      2.73 TIME LEFT: 172797.25
 STEP:  73 TIME =     0.04 SECS, INTEGRAL =      2.77 TIME LEFT: 172797.21
 STEP:  74 TIME =     0.04 SECS, INTEGRAL =      2.82 TIME LEFT: 172797.17
 STEP:  75 TIME =     0.04 SECS, INTEGRAL =      2.86 TIME LEFT: 172797.13
 STEP:  76 TIME =     0.04 SECS, INTEGRAL =      2.89 TIME LEFT: 172797.09
 STEP:  77 TIME =     0.04 SECS, INTEGRAL =      2.93 TIME LEFT: 172797.05
 STEP:  78 TIME =     0.04 SECS, INTEGRAL =      2.97 TIME LEFT: 172797.02
 STEP:  79 TIME =     0.04 SECS, INTEGRAL =      3.01 TIME LEFT: 172796.98
 STEP:  80 TIME =     0.04 SECS, INTEGRAL =      3.05 TIME LEFT: 172796.94
 STEP:  81 TIME =     0.04 SECS, INTEGRAL =      3.09 TIME LEFT: 172796.90
 STEP:  82 TIME =     0.04 SECS, INTEGRAL =      3.12 TIME LEFT: 172796.86
 STEP:  83 TIME =     0.04 SECS, INTEGRAL =      3.17 TIME LEFT: 172796.82
 STEP:  84 TIME =     0.03 SECS, INTEGRAL =      3.20 TIME LEFT: 172796.79
 STEP:  85 TIME =     0.04 SECS, INTEGRAL =      3.23 TIME LEFT: 172796.75
 STEP:  86 TIME =     0.04 SECS, INTEGRAL =      3.27 TIME LEFT: 172796.71
 STEP:  87 TIME =     0.04 SECS, INTEGRAL =      3.31 TIME LEFT: 172796.68
 STEP:  88 TIME =     0.04 SECS, INTEGRAL =      3.35 TIME LEFT: 172796.64
 STEP:  89 TIME =     0.04 SECS, INTEGRAL =      3.39 TIME LEFT: 172796.60
 STEP:  90 TIME =     0.04 SECS, INTEGRAL =      3.43 TIME LEFT: 172796.56
 STEP:  91 TIME =     0.04 SECS, INTEGRAL =      3.46 TIME LEFT: 172796.52
 STEP:  92 TIME =     0.04 SECS, INTEGRAL =      3.50 TIME LEFT: 172796.48
 STEP:  93 TIME =     0.04 SECS, INTEGRAL =      3.54 TIME LEFT: 172796.45
 STEP:  94 TIME =     0.04 SECS, INTEGRAL =      3.59 TIME LEFT: 172796.40
 STEP:  95 TIME =     0.04 SECS, INTEGRAL =      3.62 TIME LEFT: 172796.36
 STEP:  96 TIME =     0.04 SECS, INTEGRAL =      3.66 TIME LEFT: 172796.32

(To convert to Hartree/Bohr^2, multiply by (10^(-21) x N x a0^2)/(4.184 x 627.51) =  0.0642)


           FORCE MATRIX IN MILLIDYNES/ANGSTROM


                  C  1       C  2       C  3       C  4       C  5       C  6
 ------------------------------------------------------------------------------
     C    1  14.389491
     C    2   4.078403  14.242240
     C    3   0.461572   2.578619  14.305079
     C    4   0.028957   0.479850   4.367630  14.505495
     C    5   3.789660   0.642056   0.039426   0.002043  14.583093
     C    6   4.151748   0.663385   0.045902   0.006881   0.647650  14.318906
     C    7   0.001684   0.026284   0.663706   4.466746   0.022700   0.000425
     C    8   0.017230   0.003500   0.000452   0.000379   0.147413   0.000701
     C    9   0.047546   2.226231   3.933077   0.556339   0.007693   0.006482
     C   10   0.534313   3.888408   2.231225   0.048998   0.047612   0.045863
     C   11   0.673721   0.054295   0.002361   0.000982   4.953868   0.092668
     C   12   0.046056   0.008469   0.001042   0.000364   0.823266   0.007697
     H   13   4.216834   0.432409   0.021862   0.001054   0.424386   0.419514
     H   14   0.024807   0.421220   4.400517   0.435361   0.012024   0.002387
     H   15   0.439833   4.390654   0.421272   0.024914   0.024201   0.023217
     H   16   0.001369   0.020979   0.450561   4.453891   0.000401   0.000645
     H   17   0.005662   0.043887   0.431979   4.460018   0.000587   0.001699
     H   18   0.437983   0.037770   0.013368   0.004264   4.367603   0.049713
     H   19   0.456845   0.023383   0.002536   0.000777   4.378873   0.022731
     H   20   0.456850   0.051247   0.008057   0.001490   0.033157   4.567938
     H   21   0.455566   0.021315   0.001931   0.000429   0.051481   4.754413
     H   22   0.468923   0.027760   0.001793   0.000557   0.017798   4.723817
     H   23   0.002441   0.005769   0.018358   0.462610   0.008729   0.000455
     H   24   0.000734   0.002283   0.025340   0.464232   0.006918   0.000273
     H   25   0.000485   0.001817   0.052778   0.451022   0.001505   0.000356
     H   26   0.000578   0.000162   0.000075   0.000085   0.002363   0.000193
     H   27   0.003003   0.000809   0.000137   0.000114   0.019660   0.000243
     H   28   0.001960   0.000201   0.000093   0.000083   0.020325   0.000259
     H   29   0.006785   0.001654   0.000384   0.000464   0.084921   0.001069
     H   30   0.042487   0.002584   0.000757   0.000298   0.434299   0.088425
     H   31   0.016614   0.117752   0.341432   0.010795   0.002508   0.001221
     H   32   0.009780   0.340709   0.117332   0.016820   0.002272   0.008329


                  C  7       C  8       C  9       C 10       C 11       C 12
 ------------------------------------------------------------------------------
     C    7  14.350750
     C    8   0.000346  14.720375
     C    9   0.050063   0.000429  18.391263
     C   10   0.008442   0.001051  10.410336  18.372402
     C   11   0.002026   0.850457   0.001820   0.011002  18.206087
     C   12   0.000407   5.271408   0.000612   0.001285  10.692469  18.193804
     H   13   0.000393   0.000840   0.003428   0.017010   0.024075   0.002222
     H   14   0.027022   0.000229   0.413210   0.042925   0.001050   0.000389
     H   15   0.007176   0.000199   0.042748   0.414548   0.001728   0.000654
     H   16   0.436500   0.000114   0.016230   0.003148   0.000282   0.000115
     H   17   0.440439   0.000117   0.016754   0.003515   0.000423   0.000111
     H   18   0.008331   0.005491   0.001271   0.002064   0.453721   0.045820
     H   19   0.004894   0.020739   0.000766   0.001475   0.408872   0.028017
     H   20   0.000113   0.000569   0.000886   0.003053   0.096376   0.002508
     H   21   0.000094   0.000242   0.000562   0.007913   0.006244   0.000987
     H   22   0.000121   0.000252   0.000806   0.003119   0.004024   0.000705
     H   23   4.676717   0.000245   0.001539   0.000961   0.000841   0.000203
     H   24   4.707902   0.000154   0.001478   0.000845   0.000621   0.000225
     H   25   4.758954   0.000097   0.009085   0.001420   0.000489   0.000095
     H   26   0.000061   4.722955   0.000077   0.000147   0.041322   0.480672
     H   27   0.000104   4.706203   0.000169   0.000304   0.036426   0.438986
     H   28   0.000104   4.704752   0.000127   0.000156   0.034471   0.439255
     H   29   0.000513   0.424879   0.000481   0.000626   0.472434   4.775621
     H   30   0.000432   0.085182   0.000522   0.001269   4.579208   0.464834
     H   31   0.002369   0.000214   5.276539   0.422987   0.001204   0.000157
     H   32   0.002628   0.000225   0.422576   5.263950   0.001170   0.000437


                  H 13       H 14       H 15       H 16       H 17       H 18
 ------------------------------------------------------------------------------
     H   13   4.690084
     H   14   0.020799   4.921199
     H   15   0.040909   0.022674   4.911906
     H   16   0.000493   0.043281   0.021874   5.064595
     H   17   0.000390   0.024448   0.002465   0.571048   5.065129
     H   18   0.026019   0.023239   0.002260   0.000445   0.000428   4.988516
     H   19   0.044034   0.000611   0.016585   0.000241   0.000217   0.562279
     H   20   0.027220   0.000584   0.001734   0.000156   0.000412   0.002489
     H   21   0.032254   0.000440   0.001622   0.000091   0.000126   0.008698
     H   22   0.045543   0.000578   0.019426   0.000168   0.000118   0.001887
     H   23   0.000266   0.001986   0.007944   0.025849   0.049136   0.023064
     H   24   0.000212   0.020921   0.000558   0.048284   0.022954   0.012692
     H   25   0.000154   0.002031   0.000529   0.029289   0.029936   0.000882
     H   26   0.000154   0.000063   0.000046   0.000023   0.000026   0.000435
     H   27   0.000242   0.000092   0.000073   0.000032   0.000031   0.000424
     H   28   0.000195   0.000077   0.000059   0.000026   0.000025   0.001175
     H   29   0.000555   0.000348   0.000191   0.000135   0.000134   0.029206
     H   30   0.004904   0.000484   0.000776   0.000070   0.000121   0.036883
     H   31   0.001328   0.005734   0.014581   0.002117   0.004213   0.000600
     H   32   0.002301   0.014750   0.005861   0.001343   0.001193   0.000699


                  H 19       H 20       H 21       H 22       H 23       H 24
 ------------------------------------------------------------------------------
     H   19   4.982888
     H   20   0.002435   5.322070
     H   21   0.002356   0.542409   5.473704
     H   22   0.013821   0.562329   0.569328   5.458904
     H   23   0.007840   0.000118   0.000161   0.000101   5.410612
     H   24   0.000282   0.000059   0.000102   0.000076   0.577811   5.450761
     H   25   0.000336   0.000091   0.000121   0.000066   0.567019   0.570278
     H   26   0.000457   0.000280   0.000063   0.000061   0.000031   0.000037
     H   27   0.002500   0.000205   0.000080   0.000101   0.000082   0.000044
     H   28   0.003349   0.000182   0.000073   0.000078   0.000092   0.000055
     H   29   0.010907   0.000682   0.000361   0.000211   0.000259   0.000237
     H   30   0.012924   0.086042   0.002623   0.001472   0.000305   0.000208
     H   31   0.000239   0.000286   0.000551   0.000281   0.000616   0.000664
     H   32   0.000656   0.000750   0.014799   0.000656   0.000426   0.000206


                  H 25       H 26       H 27       H 28       H 29       H 30
 ------------------------------------------------------------------------------
     H   25   5.490124
     H   26   0.000019   5.449435
     H   27   0.000028   0.565714   5.425297
     H   28   0.000029   0.565066   0.576161   5.423488
     H   29   0.000122   0.042084   0.023969   0.023063   5.154466
     H   30   0.000170   0.029095   0.009710   0.009747   0.106774   5.001501
     H   31   0.000600   0.000043   0.000075   0.000066   0.000197   0.000319
     H   32   0.000643   0.000056   0.000075   0.000070   0.000212   0.000627


                  H 31       H 32
 ------------------------------
     H   31   5.662567
     H   32   0.031184   5.651777


          HEAT OF FORMATION =      18.041776 KCALS/MOLE

          ZERO POINT ENERGY     179.972 KCAL/MOL


           NORMAL COORDINATE ANALYSIS (Total motion = 1 Angstrom)


   Root No.       1         2         3         4         5         6         7         8

                 1 A       2 A       3 A       4 A       5 A       6 A       7 A       8 A   

                  39.5      62.6      78.0      87.9      94.1     129.5     160.4     201.7
  
           1    0.0001    0.0005   -0.0045    0.0019   -0.0007    0.0018    0.0017    0.0037
           2   -0.0120    0.0098    0.0146    0.0051   -0.0097   -0.0059    0.0100   -0.0037
           3   -0.0120    0.0020   -0.0066   -0.0114   -0.0001    0.0041   -0.0122    0.0022
           4   -0.0001    0.0007   -0.0042    0.0020   -0.0009    0.0020    0.0005    0.0034
           5    0.0009    0.0065    0.0035    0.0056   -0.0064   -0.0017    0.0039   -0.0184
           6    0.0016    0.0029   -0.0050   -0.0158    0.0046   -0.0034    0.0116   -0.0019
           7   -0.0118    0.0099    0.0087   -0.0009   -0.0007   -0.0030    0.0115   -0.0098
           8    0.0066    0.0016   -0.0030    0.0072   -0.0064    0.0011   -0.0027   -0.0118
           9   -0.0057    0.0028   -0.0037    0.0037   -0.0125   -0.0039    0.0102   -0.0106
          10   -0.0010    0.0129    0.0169    0.0122    0.0091    0.0040   -0.0028   -0.0052
          11    0.0020   -0.0106   -0.0138    0.0169   -0.0245    0.0010   -0.0089    0.0038
          12    0.0037    0.0029    0.0018    0.0182   -0.0072    0.0026   -0.0042   -0.0023
          13    0.0054   -0.0008   -0.0010   -0.0081   -0.0028   -0.0088    0.0143    0.0128
          14   -0.0132    0.0442   -0.0040   -0.0082   -0.0006   -0.0014    0.0054    0.0089
          15   -0.0145    0.0143   -0.0146   -0.0121    0.0040    0.0101   -0.0201    0.0033
          16    0.0087    0.0042   -0.0114    0.0030    0.0026    0.0056   -0.0034   -0.0222
          17   -0.0174   -0.0001    0.0228    0.0084   -0.0142   -0.0085    0.0110    0.0075
          18   -0.0204   -0.0320    0.0180    0.0047   -0.0128   -0.0006   -0.0150    0.0050
          19    0.0127    0.0151    0.0264    0.0296    0.0204    0.0140   -0.0282    0.0070
          20   -0.0262   -0.0318    0.0207   -0.0148    0.0290    0.0023   -0.0049    0.0056
          21   -0.0084   -0.0024    0.0044    0.0039   -0.0016   -0.0017    0.0079   -0.0079
          22    0.0067   -0.0227   -0.0116   -0.0116   -0.0030   -0.0032   -0.0004    0.0062
          23    0.0167   -0.0329   -0.0175    0.0013    0.0015    0.0085   -0.0050   -0.0170
          24    0.0297   -0.0058    0.0131    0.0181    0.0073   -0.0043    0.0355    0.0062
          25   -0.0240    0.0053    0.0003   -0.0102   -0.0113   -0.0057    0.0108   -0.0157
          26    0.0261   -0.0007   -0.0070   -0.0050    0.0153    0.0057   -0.0060    0.0055
          27    0.0053    0.0040   -0.0014    0.0039   -0.0016   -0.0014    0.0095   -0.0032
          28   -0.0132   -0.0023   -0.0093   -0.0013   -0.0102    0.0035   -0.0121    0.0005
          29    0.0206    0.0032   -0.0020   -0.0097    0.0149    0.0010    0.0057   -0.0028
          30    0.0106    0.0040   -0.0032   -0.0161    0.0122   -0.0036    0.0183    0.0015
          31    0.0054   -0.0031   -0.0020   -0.0075   -0.0025   -0.0082    0.0145    0.0144
          32   -0.0122    0.0147   -0.0163    0.0046    0.0066    0.0126    0.0055    0.0126
          33   -0.0140    0.0050   -0.0210    0.0082    0.0133    0.0245   -0.0167    0.0031
          34    0.0065   -0.0203   -0.0103   -0.0119   -0.0033   -0.0046    0.0002    0.0080
          35    0.0133    0.0048   -0.0004   -0.0111   -0.0057   -0.0163   -0.0142    0.0072
          36    0.0243    0.0078    0.0125   -0.0112   -0.0046   -0.0238   -0.0314    0.0022
          37   -0.0122    0.0009   -0.0007    0.0055   -0.0034    0.0051   -0.0071    0.0157
          38   -0.0170   -0.0100    0.0299    0.0123   -0.0171   -0.0108    0.0131    0.0012
          39   -0.0131    0.0202   -0.0190   -0.0161    0.0056    0.0101   -0.0190    0.0039
          40   -0.0188    0.0165    0.0162   -0.0029   -0.0000   -0.0055    0.0170   -0.0206
          41    0.0017    0.0072    0.0036    0.0054   -0.0047   -0.0008    0.0019   -0.0196
          42   -0.0235    0.0002   -0.0080    0.0021   -0.0307   -0.0099    0.0176   -0.0187
          43    0.0131   -0.0014   -0.0086    0.0019    0.0031    0.0013    0.0072    0.0017
          44   -0.0036    0.0045   -0.0003    0.0157   -0.0176   -0.0002   -0.0033   -0.0239
          45    0.0124    0.0034   -0.0039   -0.0244    0.0166   -0.0048    0.0209    0.0031
          46    0.0097    0.0148   -0.0042    0.0324   -0.0242    0.0039   -0.0093    0.0074
          47    0.0086   -0.0103   -0.0293    0.0309   -0.0489    0.0006   -0.0128    0.0137
          48    0.0257    0.0171   -0.0088    0.0412   -0.0251    0.0068   -0.0168   -0.0008
          49   -0.0143    0.0105    0.0370   -0.0117    0.0416    0.0026    0.0075   -0.0202
          50    0.0139   -0.0051   -0.0336    0.0348   -0.0553    0.0004   -0.0128    0.0111
          51   -0.0016   -0.0078    0.0152    0.0184    0.0113    0.0075   -0.0154    0.0099
          52    0.0070   -0.0177   -0.0056   -0.0022    0.0002   -0.0031    0.0128    0.0176
          53   -0.0142    0.0618   -0.0040   -0.0165   -0.0016   -0.0059    0.0059    0.0082
          54   -0.0153    0.0481   -0.0223   -0.0308    0.0058    0.0041   -0.0196    0.0091
          55    0.0059    0.0188    0.0069   -0.0244   -0.0096   -0.0232    0.0193    0.0117
          56   -0.0147    0.0758   -0.0105   -0.0219    0.0016   -0.0045    0.0035    0.0127
          57   -0.0129   -0.0069   -0.0055   -0.0059   -0.0004    0.0073   -0.0160   -0.0006
          58    0.0097    0.0036   -0.0109    0.0022    0.0020    0.0042   -0.0042   -0.0267
          59   -0.0266   -0.0009    0.0223    0.0098   -0.0131   -0.0039    0.0160    0.0424
          60   -0.0327   -0.0231    0.0120    0.0149   -0.0048    0.0173   -0.0034    0.0586
          61    0.0002    0.0133   -0.0185    0.0112    0.0102    0.0218    0.0052    0.0194
          62   -0.0170   -0.0276    0.0427    0.0162   -0.0265   -0.0192    0.0037   -0.0176
          63   -0.0181   -0.0425    0.0258    0.0048   -0.0185   -0.0081   -0.0194   -0.0136
          64    0.0227   -0.0004   -0.0088   -0.0041   -0.0024   -0.0075   -0.0141   -0.0802
          65   -0.0126    0.0194    0.0079    0.0024   -0.0058   -0.0024    0.0131    0.0070
          66   -0.0176   -0.0563    0.0358    0.0074   -0.0250   -0.0147   -0.0235   -0.0276
          67    0.0232    0.0048    0.0071    0.0493   -0.0136    0.0110   -0.0261    0.0930
          68   -0.0367   -0.0323    0.0396   -0.0301    0.0600    0.0052   -0.0079   -0.0321
          69   -0.0005    0.0164   -0.0092    0.0079   -0.0196   -0.0036    0.0116   -0.0614
          70    0.0057    0.0244    0.0464    0.0142    0.0548    0.0187   -0.0349   -0.0720
          71   -0.0307   -0.0239    0.0356   -0.0258    0.0549    0.0061   -0.0106   -0.0558
          72   -0.0313   -0.0196    0.0156   -0.0202    0.0163   -0.0072    0.0252    0.0105
          73    0.0201    0.0165    0.0328    0.0386    0.0287    0.0200   -0.0433    0.0104
          74   -0.0337   -0.0560    0.0141   -0.0138    0.0148   -0.0034    0.0071    0.1081
          75   -0.0030   -0.0073    0.0090    0.0131    0.0028    0.0027   -0.0039    0.0223
          76    0.0059   -0.0076   -0.0037   -0.0055   -0.0007   -0.0132    0.0203    0.0213
          77   -0.0047   -0.0492   -0.0563    0.0402    0.0384   -0.0667   -0.0077   -0.0273
          78   -0.0010   -0.0160   -0.0349    0.0780    0.0612   -0.1189    0.0497    0.0049
          79    0.0090   -0.0518   -0.0242    0.0069    0.0066    0.0193    0.0290   -0.0100
          80    0.0006   -0.0443   -0.0462    0.0301    0.0289   -0.0481   -0.0076   -0.0243
          81    0.0674   -0.0028    0.0676   -0.0319   -0.0466    0.1410    0.0645    0.0098
          82    0.0053   -0.0111   -0.0081   -0.0363   -0.0150   -0.0137   -0.0521    0.0048
          83    0.0575   -0.0359    0.0376   -0.0575   -0.0586    0.1689    0.0113   -0.0211
          84    0.0282   -0.0099    0.0092    0.0299    0.0145   -0.0078    0.0539    0.0070
          85    0.0072   -0.0345   -0.0180   -0.0165   -0.0043   -0.0008   -0.0167   -0.0021
          86    0.0338    0.0228    0.0262   -0.0345   -0.0226   -0.0530   -0.0349    0.0120
          87    0.0542    0.0198    0.0432   -0.0491   -0.0298   -0.0729   -0.0770    0.0000
          88    0.0052    0.0077    0.0019   -0.0047   -0.0019   -0.0090    0.0187    0.0137
          89   -0.0324   -0.0014   -0.0393    0.0268    0.0218    0.0470    0.0250    0.0144
          90   -0.0428   -0.0075   -0.0497    0.0424    0.0355    0.0724    0.0157    0.0057
          91   -0.0367    0.0078    0.0026   -0.0190   -0.0172   -0.0117    0.0216   -0.0292
          92    0.0391   -0.0044   -0.0122   -0.0089    0.0266    0.0106   -0.0141    0.0203
          93    0.0074    0.0046    0.0006    0.0158   -0.0049    0.0007    0.0053   -0.0017
          94   -0.0136   -0.0086   -0.0177    0.0018   -0.0151    0.0091   -0.0302    0.0076
          95    0.0270    0.0040   -0.0014   -0.0197    0.0256   -0.0002    0.0131    0.0012
          96    0.0184    0.0043   -0.0033   -0.0280    0.0247   -0.0045    0.0257    0.0069


   Root No.       9        10        11        12        13        14        15        16

                 9 A      10 A      11 A      12 A      13 A      14 A      15 A      16 A   

                 212.8     230.0     256.5     275.2     303.9     339.3     372.6     402.4
  
           1   -0.0043   -0.0027   -0.0163   -0.0032   -0.0139    0.0161    0.0011   -0.0105
           2    0.0012    0.0045   -0.0038   -0.0093    0.0006   -0.0127   -0.0064   -0.0211
           3   -0.0012   -0.0020    0.0201   -0.0054    0.0064   -0.0108    0.0002    0.0137
           4   -0.0036   -0.0023   -0.0147   -0.0026   -0.0153    0.0249    0.0010   -0.0058
           5    0.0090    0.0112    0.0018   -0.0068    0.0208   -0.0235   -0.0128    0.0068
           6    0.0070    0.0052    0.0140    0.0111    0.0099    0.0123    0.0111   -0.0153
           7    0.0142    0.0109   -0.0096    0.0081   -0.0186    0.0030   -0.0118    0.0173
           8   -0.0002    0.0057    0.0020   -0.0087    0.0215   -0.0100   -0.0143    0.0074
           9    0.0015    0.0052   -0.0013   -0.0020    0.0134   -0.0000    0.0030   -0.0148
          10    0.0103    0.0076   -0.0076    0.0002   -0.0141    0.0092   -0.0197    0.0381
          11   -0.0055    0.0011    0.0140    0.0273   -0.0219   -0.0016   -0.0005    0.0063
          12   -0.0037    0.0009    0.0022   -0.0018    0.0081    0.0097   -0.0002    0.0031
          13   -0.0117   -0.0107    0.0015   -0.0008    0.0009   -0.0061    0.0007   -0.0069
          14   -0.0064   -0.0132    0.0117   -0.0178   -0.0190   -0.0069    0.0069   -0.0063
          15   -0.0012   -0.0046    0.0173   -0.0095   -0.0083   -0.0092   -0.0032    0.0172
          16    0.0134    0.0015   -0.0206   -0.0154   -0.0044   -0.0249    0.0511   -0.0076
          17   -0.0077    0.0014   -0.0087   -0.0058   -0.0072    0.0043   -0.0146   -0.0253
          18   -0.0063   -0.0085   -0.0034   -0.0050   -0.0081   -0.0077    0.0351    0.0175
          19    0.0049    0.0005    0.0234    0.0081    0.0059   -0.0053    0.0070   -0.0106
          20    0.0012   -0.0009    0.0051    0.0064   -0.0053   -0.0025    0.0031   -0.0041
          21    0.0001    0.0040   -0.0128   -0.0094    0.0037    0.0179   -0.0123    0.0258
          22   -0.0102   -0.0020    0.0036   -0.0022    0.0031   -0.0278   -0.0241    0.0016
          23    0.0075    0.0151    0.0109   -0.0140   -0.0156    0.0129    0.0068   -0.0067
          24   -0.0079   -0.0101    0.0130   -0.0024    0.0041   -0.0066   -0.0009    0.0071
          25    0.0178    0.0162    0.0216    0.0229    0.0135    0.0113    0.0020   -0.0026
          26   -0.0050   -0.0022   -0.0039   -0.0111    0.0067    0.0253   -0.0073    0.0081
          27   -0.0014    0.0004   -0.0156   -0.0085   -0.0041    0.0033    0.0017   -0.0125
          28   -0.0095   -0.0030    0.0110   -0.0139    0.0271    0.0498    0.0019   -0.0092
          29    0.0091    0.0078    0.0018    0.0082   -0.0005    0.0053   -0.0070    0.0117
          30    0.0104    0.0059    0.0009    0.0191   -0.0137    0.0114    0.0148   -0.0166
          31   -0.0128   -0.0131   -0.0005    0.0021    0.0061   -0.0127   -0.0008   -0.0023
          32   -0.0009   -0.0234   -0.0212    0.0199    0.0193    0.0014    0.0218    0.0108
          33    0.0037   -0.0022   -0.0212    0.0106   -0.0022   -0.0154   -0.0365   -0.0206
          34   -0.0105   -0.0044    0.0018    0.0005    0.0062   -0.0253   -0.0184    0.0049
          35    0.0001   -0.0089   -0.0169    0.0156    0.0184    0.0024    0.0239    0.0186
          36    0.0022    0.0104   -0.0168    0.0060   -0.0031   -0.0045   -0.0210   -0.0183
          37   -0.0137   -0.0073   -0.0210   -0.0081   -0.0322    0.0273   -0.0059   -0.0074
          38   -0.0030    0.0036   -0.0145   -0.0048   -0.0021   -0.0041   -0.0062   -0.0307
          39   -0.0020   -0.0036    0.0270   -0.0116   -0.0006   -0.0132   -0.0030    0.0236
          40    0.0220    0.0171   -0.0083    0.0026   -0.0053   -0.0144   -0.0194    0.0236
          41    0.0062    0.0104    0.0018   -0.0138    0.0304   -0.0233   -0.0208    0.0134
          42    0.0083    0.0117    0.0119    0.0142    0.0177   -0.0176    0.0089   -0.0264
          43   -0.0005   -0.0007   -0.0212    0.0071   -0.0207    0.0307    0.0045   -0.0106
          44    0.0037    0.0091    0.0016   -0.0178    0.0359   -0.0302   -0.0187    0.0092
          45    0.0126    0.0076    0.0104    0.0259   -0.0079    0.0221    0.0179   -0.0194
          46    0.0077    0.0057    0.0056    0.0325   -0.0502    0.0159   -0.0112    0.0436
          47   -0.0069   -0.0003    0.0230    0.0523   -0.0514    0.0040    0.0057    0.0117
          48   -0.0092   -0.0004    0.0154    0.0039    0.0143    0.0068    0.0023   -0.0008
          49    0.0139    0.0106   -0.0239   -0.0337    0.0227    0.0022   -0.0300    0.0335
          50   -0.0081    0.0005    0.0232    0.0513   -0.0482    0.0025    0.0040    0.0116
          51   -0.0035   -0.0037    0.0124    0.0036    0.0043    0.0129    0.0101   -0.0032
          52   -0.0066   -0.0166   -0.0150    0.0231    0.0291   -0.0062    0.0113    0.0032
          53   -0.0122   -0.0134    0.0299   -0.0373   -0.0425   -0.0084    0.0063   -0.0056
          54   -0.0124   -0.0159    0.0520   -0.0357   -0.0410   -0.0124    0.0128    0.0363
          55   -0.0201   -0.0084    0.0437   -0.0342   -0.0262   -0.0137    0.0070    0.0013
          56   -0.0149   -0.0191    0.0384   -0.0440   -0.0545   -0.0080    0.0125    0.0004
          57    0.0032    0.0013    0.0094    0.0013    0.0129   -0.0108   -0.0055    0.0141
          58    0.0179   -0.0097   -0.0191   -0.0154   -0.0049   -0.0244    0.0484   -0.0089
          59   -0.0375    0.0442   -0.0116    0.0036   -0.0081    0.0303   -0.0286   -0.0124
          60   -0.0629    0.1398   -0.0248   -0.0099   -0.0012   -0.0285    0.0905    0.0296
          61   -0.0330    0.1362   -0.0399   -0.0238    0.0056   -0.0548    0.1201    0.0048
          62    0.0155   -0.0708   -0.0186   -0.0065   -0.0223    0.0081   -0.0004   -0.0317
          63    0.0130   -0.0663   -0.0012   -0.0031   -0.0156    0.0013    0.0214    0.0122
          64    0.0696   -0.1207   -0.0059   -0.0188   -0.0073   -0.0315    0.0293   -0.0236
          65   -0.0089    0.0319   -0.0009   -0.0104    0.0052   -0.0136   -0.0113   -0.0257
          66    0.0272   -0.1128   -0.0036   -0.0017   -0.0238    0.0087    0.0188    0.0092
          67    0.1031    0.0085    0.0313   -0.0183    0.0146   -0.0097    0.0081   -0.0166
          68   -0.0433   -0.0062    0.0033    0.0143   -0.0016   -0.0036    0.0084   -0.0140
          69   -0.0577    0.0034   -0.0215    0.0167   -0.0201    0.0277   -0.0268    0.0592
          70   -0.0905   -0.0092    0.0225    0.0365    0.0035   -0.0058    0.0145   -0.0216
          71   -0.0735   -0.0086    0.0051    0.0290   -0.0073   -0.0030    0.0091   -0.0130
          72    0.0364    0.0097   -0.0347   -0.0369    0.0052    0.0271   -0.0288    0.0543
          73   -0.0038   -0.0047    0.0429    0.0155    0.0189   -0.0169    0.0279   -0.0510
          74    0.1277    0.0104    0.0002   -0.0426    0.0079   -0.0024   -0.0040    0.0029
          75    0.0248    0.0019    0.0051   -0.0152    0.0200    0.0068    0.0061   -0.0115
          76   -0.0186   -0.0237    0.0001    0.0113    0.0264   -0.0365   -0.0047    0.0303
          77    0.0094    0.0262    0.0268   -0.0289   -0.0308    0.0186    0.0017   -0.0164
          78   -0.0125   -0.0134    0.0323   -0.0114    0.0032   -0.0064    0.0087    0.0190
          79   -0.0086    0.0082    0.0377   -0.0299   -0.0224   -0.0203   -0.0302   -0.0090
          80    0.0089    0.0232    0.0219   -0.0246   -0.0266    0.0169    0.0028   -0.0142
          81   -0.0098   -0.0202    0.0154   -0.0009    0.0082   -0.0091    0.0035    0.0154
          82   -0.0024    0.0130   -0.0250    0.0086    0.0006   -0.0272   -0.0426   -0.0220
          83    0.0106    0.0168    0.0129   -0.0188   -0.0242    0.0157    0.0007   -0.0159
          84   -0.0110   -0.0158    0.0236   -0.0063    0.0054   -0.0072    0.0062    0.0165
          85   -0.0056    0.0103    0.0048   -0.0072   -0.0050   -0.0286   -0.0361   -0.0049
          86   -0.0021   -0.0051   -0.0174    0.0156    0.0212    0.0094    0.0422    0.0297
          87    0.0037    0.0293   -0.0147   -0.0007   -0.0088    0.0020   -0.0116   -0.0105
          88   -0.0129   -0.0106   -0.0020   -0.0044   -0.0014   -0.0148    0.0103   -0.0125
          89   -0.0009   -0.0308   -0.0313    0.0320    0.0286   -0.0038    0.0065    0.0062
          90    0.0034   -0.0114   -0.0374    0.0227    0.0056   -0.0248   -0.0459   -0.0352
          91    0.0355    0.0311    0.0486    0.0517    0.0303   -0.0055    0.0089   -0.0064
[...]
 TRANSITION DIPOLE   0.1055         C  4 -- H 16         +17.7% ( 43.2%)     96.5%
 TRAVEL (Ang.)       0.2716         C  4 -- H 17         +17.3% ( 42.7%)     96.4%
 REDUCED MASS        0.3099         C  3 -- H 14         +14.8% ( 39.5%)     99.9%
 EFFECTIVE MASS      1.4710
 FORCE CONSTANT      1.5897

 VIBRATION         75   75A           ATOM PAIR      ENERGY CONTRIBUTION    RADIAL
 FREQUENCY          2957.66         C  3 -- H 14         +39.9% ( 64.9%)    100.0%
 TRANSITION DIPOLE   0.1066         C  4 -- H 16         +25.8% ( 52.2%)     96.7%
 TRAVEL (Ang.)       0.2721         C  4 -- H 17         +25.6% ( 52.0%)     96.5%
 REDUCED MASS        0.3080         C  2 -- H 15          +5.4% ( 24.0%)     99.9%
 EFFECTIVE MASS      1.4866
 FORCE CONSTANT      1.5876

 VIBRATION         76   76A           ATOM PAIR      ENERGY CONTRIBUTION    RADIAL
 FREQUENCY          2984.54         C 11 -- H 30         +92.9% ( 98.0%)    100.0%
 TRANSITION DIPOLE   0.3097         C  6 -- H 20          +2.8% ( 16.9%)     99.5%
 TRAVEL (Ang.)       0.1625         C 11 -- C 12          +1.5% ( 12.4%)     42.1%
 REDUCED MASS        0.8561         C  5 -- C 11          +1.4% ( 11.9%)     14.7%
 EFFECTIVE MASS      1.5148
 FORCE CONSTANT      4.4928

 VIBRATION         77   77A           ATOM PAIR      ENERGY CONTRIBUTION    RADIAL
 FREQUENCY          3007.93         C  5 -- H 19         +50.7% ( 70.1%)     97.9%
 TRANSITION DIPOLE   0.0929         C  5 -- H 18         +47.1% ( 67.6%)     97.6%
 TRAVEL (Ang.)       0.2170         C 11 -- H 30          +0.7% (  8.3%)     99.8%
 REDUCED MASS        0.4759         C  1 -- C  5          +0.6% (  7.7%)     29.3%
 EFFECTIVE MASS      1.2725
 FORCE CONSTANT      2.5367

 VIBRATION         78   78A           ATOM PAIR      ENERGY CONTRIBUTION    RADIAL
 FREQUENCY          3033.33         C  4 -- H 17         +49.9% ( 69.6%)     97.8%
 TRANSITION DIPOLE   0.0378         C  4 -- H 16         +48.1% ( 68.3%)     97.6%
 TRAVEL (Ang.)       0.2159         C  4 -- C  7          +0.6% (  7.8%)     25.8%
 REDUCED MASS        0.4771         C  3 -- C  4          +0.6% (  7.7%)     29.2%
 EFFECTIVE MASS      1.2755
 FORCE CONSTANT      2.5865

 VIBRATION         79   79A           ATOM PAIR      ENERGY CONTRIBUTION    RADIAL
 FREQUENCY          3039.50         C 12 -- H 29         +94.5% ( 98.7%)    100.0%
 TRANSITION DIPOLE   0.2282         C  8 -- H 26          +1.5% ( 12.6%)     98.1%
 TRAVEL (Ang.)       0.1584         C 11 -- C 12          +1.5% ( 12.3%)     38.8%
 REDUCED MASS        0.8842         C  8 -- C 12          +1.4% ( 12.0%)     11.2%
 EFFECTIVE MASS      1.5159
 FORCE CONSTANT      4.8129

 VIBRATION         80   80A           ATOM PAIR      ENERGY CONTRIBUTION    RADIAL
 FREQUENCY          3047.63         C  6 -- H 20         +77.8% ( 90.6%)     99.4%
 TRANSITION DIPOLE   0.0689         C  6 -- H 22         +13.5% ( 37.8%)     83.7%
 TRAVEL (Ang.)       0.1848         C  6 -- H 21          +4.9% ( 22.8%)     59.6%
 REDUCED MASS        0.6478         C 11 -- H 30          +2.6% ( 16.6%)    100.0%
 EFFECTIVE MASS      1.4921
 FORCE CONSTANT      3.5448

 VIBRATION         81   81A           ATOM PAIR      ENERGY CONTRIBUTION    RADIAL
 FREQUENCY          3066.44         C  7 -- H 23         +63.9% ( 82.5%)     98.6%
 TRANSITION DIPOLE   0.0271         C  7 -- H 24         +31.7% ( 58.1%)     93.6%
 TRAVEL (Ang.)       0.2023         C  7 -- H 25          +3.0% ( 17.8%)     38.0%
 REDUCED MASS        0.5373         C  4 -- C  7          +1.0% ( 10.2%)      0.0%
 EFFECTIVE MASS      1.5004
 FORCE CONSTANT      2.9766

 VIBRATION         82   82A           ATOM PAIR      ENERGY CONTRIBUTION    RADIAL
 FREQUENCY          3069.68         C  8 -- H 28         +50.8% ( 73.5%)     97.3%
 TRANSITION DIPOLE   0.0176         C  8 -- H 27         +47.3% ( 71.0%)     96.8%
 TRAVEL (Ang.)       0.2076         C  8 -- C 12          +1.0% ( 10.2%)      0.0%
 REDUCED MASS        0.5096         C  8 -- H 26          +1.0% ( 10.1%)      1.2%
 EFFECTIVE MASS      1.5013
 FORCE CONSTANT      2.8290

 VIBRATION         83   83A           ATOM PAIR      ENERGY CONTRIBUTION    RADIAL
 FREQUENCY          3075.44         C  8 -- H 26         +62.5% ( 81.5%)     98.9%
 TRANSITION DIPOLE   0.0565         C  8 -- H 27         +18.7% ( 44.5%)     86.3%
 TRAVEL (Ang.)       0.2143         C  8 -- H 28         +15.6% ( 40.7%)     83.3%
 REDUCED MASS        0.4773         C 12 -- H 29          +2.2% ( 15.2%)    100.0%
 EFFECTIVE MASS      1.5082
 FORCE CONSTANT      2.6598

 VIBRATION         84   84A           ATOM PAIR      ENERGY CONTRIBUTION    RADIAL
 FREQUENCY          3081.32         C  6 -- H 21         +51.1% ( 73.7%)     97.6%
 TRANSITION DIPOLE   0.0201         C  6 -- H 22         +45.7% ( 69.8%)     96.3%
 TRAVEL (Ang.)       0.2091         C  6 -- H 20          +2.1% ( 14.8%)     22.7%
 REDUCED MASS        0.5007         C  1 -- C  6          +1.0% ( 10.4%)      0.0%
 EFFECTIVE MASS      1.5084
 FORCE CONSTANT      2.8009

 VIBRATION         85   85A           ATOM PAIR      ENERGY CONTRIBUTION    RADIAL
 FREQUENCY          3083.00         C  7 -- H 25         +55.2% ( 76.5%)     98.3%
 TRANSITION DIPOLE   0.0034         C  7 -- H 24         +34.9% ( 60.9%)     93.9%
 TRAVEL (Ang.)       0.2177         C  7 -- H 23          +8.4% ( 29.8%)     68.5%
 REDUCED MASS        0.4614         C  4 -- C  7          +1.0% ( 10.3%)      0.0%
 EFFECTIVE MASS      1.5021
 FORCE CONSTANT      2.5837

 VIBRATION         86   86A           ATOM PAIR      ENERGY CONTRIBUTION    RADIAL
 FREQUENCY          3162.75         C  6 -- H 21         +44.2% ( 64.3%)     98.1%
 TRANSITION DIPOLE   0.0359         C  6 -- H 22         +40.6% ( 61.5%)     97.7%
 TRAVEL (Ang.)       0.2402         C  6 -- H 20         +14.8% ( 37.1%)     89.9%
 REDUCED MASS        0.3696         C  1 -- C  6          +0.3% (  5.3%)     84.8%
 EFFECTIVE MASS      1.1508
 FORCE CONSTANT      2.1783

 VIBRATION         87   87A           ATOM PAIR      ENERGY CONTRIBUTION    RADIAL
 FREQUENCY          3169.23         C  8 -- H 26         +34.6% ( 56.6%)     97.2%
 TRANSITION DIPOLE   0.0616         C  8 -- H 27         +32.8% ( 55.1%)     97.1%
 TRAVEL (Ang.)       0.2550         C  8 -- H 28         +32.4% ( 54.8%)     97.0%
 REDUCED MASS        0.3272         C  8 -- C 12          +0.3% (  5.4%)    100.0%
 EFFECTIVE MASS      1.1393
 FORCE CONSTANT      1.9364

 VIBRATION         88   88A           ATOM PAIR      ENERGY CONTRIBUTION    RADIAL
 FREQUENCY          3173.86         C  7 -- H 25         +41.8% ( 62.2%)     98.1%
 TRANSITION DIPOLE   0.0155         C  7 -- H 24         +32.3% ( 54.7%)     96.8%
 TRAVEL (Ang.)       0.2509         C  7 -- H 23         +25.6% ( 48.7%)     95.4%
 REDUCED MASS        0.3376         C  4 -- C  7          +0.3% (  5.2%)     96.8%
 EFFECTIVE MASS      1.1398
 FORCE CONSTANT      2.0035

 VIBRATION         89   89A           ATOM PAIR      ENERGY CONTRIBUTION    RADIAL
 FREQUENCY          3191.53         C 10 -- H 32         +55.6% ( 76.4%)    100.0%
 TRANSITION DIPOLE   0.4666         C  9 -- H 31         +40.2% ( 64.9%)    100.0%
 TRAVEL (Ang.)       0.2106         C  9 -- C 10          +1.1% ( 10.6%)      1.2%
 REDUCED MASS        0.4766         C  3 -- C 10          +0.9% ( 10.0%)     99.8%
 EFFECTIVE MASS      1.4641
 FORCE CONSTANT      2.8602

 VIBRATION         90   90A           ATOM PAIR      ENERGY CONTRIBUTION    RADIAL
 FREQUENCY          3212.33         C  9 -- H 31         +53.9% ( 76.0%)     99.9%
 TRANSITION DIPOLE   0.3912         C 10 -- H 32         +38.7% ( 64.4%)     99.9%
 TRAVEL (Ang.)       0.2086         C  9 -- C 10          +3.0% ( 18.0%)     99.6%
 REDUCED MASS        0.4826         C  2 -- C  9          +1.2% ( 11.6%)     98.4%
 EFFECTIVE MASS      1.7363
 FORCE CONSTANT      2.9339

      SYMMETRY NUMBER FOR POINT-GROUP C1  =  1


          SYSTEM IS A GROUND STATE



 InChI=1S/C12H20/c1-4-6-7-10(3)12-9-8-11(12)5-2/h4,6,8-12H,5,7H2,1-3H3


          MOLECULE IS NOT LINEAR

          THERE ARE 90 GENUINE VIBRATIONS IN THIS SYSTEM
          THIS THERMODYNAMICS CALCULATION IS LIMITED TO
          MOLECULES WHICH HAVE NO INTERNAL ROTATIONS




                    CALCULATED THERMODYNAMIC PROPERTIES
                                          *
   TEMP. (K)   PARTITION FUNCTION   H.O.F.    ENTHALPY  HEAT CAPACITY ENTROPY
                                   KCAL/MOL   CAL/MOLE    CAL/K/MOL  CAL/K/MOL


 298.00  VIB.     0.6718D+05                  7098.6324    46.5991    45.9090
         ROT.     0.1743D+07                   888.2803     2.9808    31.5395
         INT.     0.1171D+12                  7986.9127    49.5799    77.4485
         TRA.     0.2036D+28                  1480.4672     4.9680    41.1956
         TOT.                       18.042    9467.3799    54.5479   118.6441

 200.00  VIB.     0.1235D+04                  3307.2542    31.3282    30.6831
         ROT.     0.9585D+06                   596.1613     2.9808    30.3509
         INT.     0.1184D+10                  3903.4154    34.3090    61.0339
         TRA.     0.1119D+28                   993.6021     4.9680    39.2145
         TOT.                       13.471    4897.0176    39.2770   100.2484

 210.00  VIB.     0.1870D+04                  3627.4831    32.7238    32.2452
         ROT.     0.1031D+07                   625.9693     2.9808    30.4963
         INT.     0.1929D+10                  4253.4525    35.7046    62.7415
         TRA.     0.1204D+28                  1043.2822     4.9680    39.4569
         TOT.                       13.871    5296.7347    40.6726   102.1984

 220.00  VIB.     0.2827D+04                  3961.8596    34.1582    33.8004
         ROT.     0.1106D+07                   655.7774     2.9808    30.6350
         INT.     0.3126D+10                  4617.6370    37.1390    64.4354
         TRA.     0.1291D+28                  1092.9623     4.9680    39.6880
         TOT.                       14.285    5710.5994    42.1070   104.1234

 230.00  VIB.     0.4263D+04                  4310.7811    35.6329    35.3512
         ROT.     0.1182D+07                   685.5855     2.9808    30.7675
         INT.     0.5040D+10                  4996.3666    38.6137    66.1187
         TRA.     0.1380D+28                  1142.6424     4.9680    39.9088
         TOT.                       14.713    6139.0091    43.5818   106.0275

 240.00  VIB.     0.6419D+04                  4674.6531    37.1481    36.8996
         ROT.     0.1260D+07                   715.3935     2.9808    30.8943
         INT.     0.8088D+10                  5390.0467    40.1289    67.7939
         TRA.     0.1471D+28                  1192.3226     4.9680    40.1203
         TOT.                       15.157    6582.3692    45.0969   107.9142

 250.00  VIB.     0.9650D+04                  5053.8732    38.7022    38.4475
         ROT.     0.1340D+07                   745.2016     2.9808    31.0160
         INT.     0.1293D+11                  5799.0748    41.6830    69.4635
         TRA.     0.1564D+28                  1242.0027     4.9680    40.3231
         TOT.                       15.615    7041.0775    46.6510   109.7865

 260.00  VIB.     0.1449D+05                  5448.8182    40.2926    39.9963
         ROT.     0.1421D+07                   775.0097     2.9808    31.1329
         INT.     0.2058D+11                  6223.8278    43.2734    71.1292
         TRA.     0.1659D+28                  1291.6828     4.9680    40.5179
         TOT.                       16.090    7515.5106    48.2414   111.6471

 270.00  VIB.     0.2172D+05                  5859.8342    41.9158    41.5472
         ROT.     0.1503D+07                   804.8177     2.9808    31.2454
         INT.     0.3266D+11                  6664.6519    44.8966    72.7927
         TRA.     0.1756D+28                  1341.3629     4.9680    40.7054
         TOT.                       16.580    8006.0148    49.8646   113.4981

 280.00  VIB.     0.3253D+05                  6287.2292    43.5677    43.1014
         ROT.     0.1588D+07                   834.6258     2.9808    31.3538
         INT.     0.5165D+11                  7121.8550    46.5485    74.4552
         TRA.     0.1854D+28                  1391.0430     4.9680    40.8861
         TOT.                       17.087    8512.8980    51.5165   115.3413

 290.00  VIB.     0.4869D+05                  6731.2684    45.2438    44.6594
         ROT.     0.1674D+07                   864.4339     2.9808    31.4584
         INT.     0.8148D+11                  7595.7023    48.2246    76.1178
         TRA.     0.1954D+28                  1440.7231     4.9680    41.0604
         TOT.                       17.611    9036.4254    53.1926   117.1783

 300.00  VIB.     0.7281D+05                  7192.1709    46.9395    46.2218
         ROT.     0.1761D+07                   894.2419     2.9808    31.5595
         INT.     0.1282D+12                  8086.4128    49.9203    77.7813
         TRA.     0.2056D+28                  1490.4032     4.9680    41.2289
         TOT.                       18.151    9576.8160    54.8884   119.0101

 310.00  VIB.     0.1088D+06                  7670.1087    48.6501    47.7888
         ROT.     0.1850D+07                   924.0500     2.9808    31.6572
         INT.     0.2013D+12                  8594.1587    51.6309    79.4460
         TRA.     0.2160D+28                  1540.0833     4.9680    41.3918
         TOT.                       18.709   10134.2420    56.5989   120.8378

 320.00  VIB.     0.1626D+06                  8165.2072    50.3709    49.3605
         ROT.     0.1940D+07                   953.8580     2.9808    31.7518
         INT.     0.3154D+12                  9119.0652    53.3517    81.1124
         TRA.     0.2265D+28                  1589.7634     4.9680    41.5495
         TOT.                       19.283   10708.8286    58.3197   122.6619

 330.00  VIB.     0.2428D+06                  8677.5458    52.0974    50.9369
         ROT.     0.2032D+07                   983.6661     2.9808    31.8436
         INT.     0.4933D+12                  9661.2120    55.0782    82.7805
         TRA.     0.2372D+28                  1639.4435     4.9680    41.7024
         TOT.                       19.875   11300.6555    60.0462   124.4829

 340.00  VIB.     0.3625D+06                  9207.1609    53.8255    52.5179
         ROT.     0.2125D+07                  1013.4742     2.9808    31.9326
         INT.     0.7702D+12                 10220.6350    56.8063    84.4504
         TRA.     0.2481D+28                  1689.1236     4.9680    41.8507
         TOT.                       20.484   11909.7587    61.7743   126.3011

 350.00  VIB.     0.5412D+06                  9754.0476    55.5511    54.1030
         ROT.     0.2219D+07                  1043.2822     2.9808    32.0190
         INT.     0.1201D+13                 10797.3298    58.5320    86.1220
         TRA.     0.2591D+28                  1738.8037     4.9680    41.9947
         TOT.                       21.111   12536.1336    63.5000   128.1167

 360.00  VIB.     0.8080D+06                 10318.1637    57.2708    55.6921
         ROT.     0.2315D+07                  1073.0903     2.9808    32.1029
         INT.     0.1870D+13                 11391.2540    60.2516    87.7950
         TRA.     0.2703D+28                  1788.4838     4.9680    42.1347
         TOT.                       21.754   13179.7379    65.2196   129.9297

 370.00  VIB.     0.1206D+07                 10899.4326    58.9812    57.2846
         ROT.     0.2412D+07                  1102.8984     2.9808    32.1846
         INT.     0.2909D+13                 12002.3309    61.9620    89.4692
         TRA.     0.2817D+28                  1838.1639     4.9680    42.2708
         TOT.                       22.415   13840.4949    66.9300   131.7400

 380.00  VIB.     0.1801D+07                 11497.7465    60.6794    58.8801
         ROT.     0.2510D+07                  1132.7064     2.9808    32.2641
         INT.     0.4520D+13                 12630.4530    63.6602    91.1442
         TRA.     0.2932D+28                  1887.8440     4.9680    42.4033
         TOT.                       23.093   14518.2970    68.6282   133.5474

 390.00  VIB.     0.2688D+07                 12112.9707    62.3628    60.4781
         ROT.     0.2610D+07                  1162.5145     2.9808    32.3415
         INT.     0.7016D+13                 13275.4852    65.3436    92.8196
         TRA.     0.3048D+28                  1937.5242     4.9680    42.5323
         TOT.                       23.787   15213.0094    70.3116   135.3519

 400.00  VIB.     0.4013D+07                 12744.9461    64.0293    62.0780
         ROT.     0.2711D+07                  1192.3226     2.9808    32.4170
         INT.     0.1088D+14                 13937.2687    67.0101    94.4950
         TRA.     0.3166D+28                  1987.2043     4.9680    42.6581
         TOT.                       24.499   15924.4729    71.9781   137.1531

   *: NOTE: HEATS OF FORMATION ARE RELATIVE TO THE
            ELEMENTS IN THEIR STANDARD STATE AT 298K
              (=  Standard Enthalpy of Formation).

            Hvib:  Zero-point energy is not included.
                   frequencies of less than zero cm-1 are not included.
            Hrot = (3/2)RT
            Htra = (3/2)RT + pV = (5/2)RT

            Heat capacity is Cp, not Cv

          For more information, see: HTTP://OpenMOPAC.net/Manual/thermochemistry.html


           FORCE CONSTANT IN CARTESIAN COORDINATES (Millidynes/A)

    ATOM   CHEMICAL       X               Y               Z
   NUMBER   SYMBOL  FORCE CONSTANT  FORCE CONSTANT  FORCE CONSTANT

      1       C        8.481414        8.312101        8.123298
      2       C        8.866219        6.813289        8.420037
      3       C        7.504593        8.179618        8.463650
      4       C        8.391550        8.283231        8.448120
      5       C        9.133285        8.254726        7.810562
      6       C        8.274637        8.099651        8.418975
      7       C        8.286808        8.176481        8.389253
      8       C        9.120922        8.253727        8.080156
      9       C        7.186079       11.717326        7.669018
     10       C        5.018654       13.795759        7.718445
     11       C       10.928072       10.169682        5.965294
     12       C       11.178624       10.186854        5.800877
     13       H        1.122544        2.295439        2.606253
     14       H        2.387923        3.138824        0.696413
     15       H        1.268437        2.255035        2.683317
     16       H        2.210434        3.436444        0.744256
     17       H        2.020284        3.320027        1.023683
     18       H        1.476620        3.955896        0.924372
     19       H        0.933318        2.515061        2.791766
     20       H        5.188445        0.792503        0.741003
     21       H        0.975939        1.024951        4.765597
     22       H        1.323295        2.870784        2.571770
     23       H        2.013183        3.592639        1.118215
     24       H        2.391314        3.634185        0.741478
     25       H        3.073464        0.818798        2.895426
     26       H        1.577856        3.236491        1.951214
     27       H        1.031333        4.257372        1.374990
     28       H        1.151330        0.659414        4.850757
     29       H        1.818856        2.842579        1.554390
     30       H        1.813075        2.781177        1.576519
     31       H        2.324923        1.810864        2.444529
     32       H        0.464658        3.531746        2.583137

 **********************
 *                    *
 * JOB ENDED NORMALLY *
 *                    *
 **********************



 TOTAL JOB TIME:            10.01 SECONDS

 == MOPAC DONE ==
