 *******************************************************************************
 **                                                                           **
 **                              MOPAC v23.1.2                                **
 **                                                                           **
 *******************************************************************************
 **          Digital Object Identifier (DOI): 10.5281/zenodo.6511958          **
 **    Visit the DOI location for information on how to cite this program.    **
 *******************************************************************************

                              PM3 CALCULATION RESULTS

 *******************************************************************************
 *  CALCULATION DONE: (MAX THREADS = 1)              Tue Jun  3 16:44:43 2025  *
 *  PM3        - The PM3 Hamiltonian to be used
 *  PRECISE    - TIGHTER CRITERIA TO BE USED
 *  BFGS       - USE THE BFGS GEOMETRY OPTIMIZER
 *  NOSYM      - POINT-GROUP SYMMETRY SET TO C1
 *  THREADS=1  - MULTI-THREADING NOT USED
 *  T=         - A TIME OF 172800.0 SECONDS REQUESTED
 *  DUMP=N     - RESTART FILE WRITTEN EVERY 7200.0 SECONDS REQUESTED
 *  GNORM      - EXIT WHEN GRADIENT NORM DROPS BELOW 0.000
 *******************************************************************************
pm3  precise nosym gnorm=0.0 bfgs THREADS=1
 InChI=1S/C12H22/c1-4-6-8-10(3)12-9-11(12)7-5-2/h6,8,10-12H,4-5,7,9H2,1-3H3

   ATOM   CHEMICAL          X               Y               Z
  NUMBER   SYMBOL      (ANGSTROMS)     (ANGSTROMS)     (ANGSTROMS)

     1       C          0.84260000  *  -1.46420000  *   0.00870000  *
     2       C          1.77270000  *  -0.49170000  *  -0.70900000  *
     3       C         -0.45380000  *  -1.79290000  *  -0.75510000  *
     4       C          2.13640000  *  -1.97070000  *  -0.62250000  *
     5       C          2.57220000  *   0.44210000  *   0.21260000  *
     6       C          1.72560000  *   1.63050000  *   0.68830000  *
     7       C         -2.92980000  *   0.83240000  *   0.72240000  *
     8       C         -1.03150000  *  -3.12670000  *  -0.27340000  *
     9       C          1.33570000  *   2.56990000  *  -0.45230000  *
    10       C         -2.31430000  *   2.19120000  *   0.40090000  *
    11       C         -1.45900000  *  -0.67500000  *  -0.59830000  *
    12       C         -1.91690000  *  -0.27180000  *   0.59930000  *
    13       H          0.84220000  *  -1.42510000  *   1.12010000  *
    14       H          1.47110000  *  -0.14940000  *  -1.72250000  *
    15       H         -0.24540000  *  -1.89890000  *  -1.84380000  *
    16       H          2.92410000  *  -2.23670000  *   0.11400000  *
    17       H          2.02040000  *  -2.52610000  *  -1.57750000  *
    18       H          2.31390000  *   2.20800000  *   1.43370000  *
    19       H          0.80820000  *   1.26160000  *   1.19570000  *
    20       H          3.46320000  *   0.81250000  *  -0.33830000  *
    21       H          2.94270000  *  -0.10040000  *   1.11050000  *
    22       H         -3.78750000  *   0.63600000  *   0.04300000  *
    23       H         -3.31520000  *   0.85360000  *   1.76430000  *
    24       H          0.80690000  *   3.45400000  *  -0.03820000  *
    25       H          2.24040000  *   2.91950000  *  -0.99350000  *
    26       H          0.65330000  *   2.05990000  *  -1.16370000  *
    27       H         -1.94400000  *   2.21500000  *  -0.64580000  *
    28       H         -1.47370000  *   2.40590000  *   1.09420000  *
    29       H         -3.08260000  *   2.98370000  *   0.52070000  *
    30       H         -1.23960000  *  -3.10170000  *   0.81760000  *
    31       H         -1.97510000  *  -3.35230000  *  -0.81490000  *
    32       H         -0.30930000  *  -3.94610000  *  -0.47640000  *
    33       H         -1.57910000  *  -0.76520000  *   1.50590000  *
    34       H         -1.81500000  *  -0.18070000  *  -1.49840000  *



          CARTESIAN COORDINATES 

    NO.       ATOM           X           Y           Z

     1         C          0.8426     -1.4642      0.0087
     2         C          1.7727     -0.4917     -0.7090
     3         C         -0.4538     -1.7929     -0.7551
     4         C          2.1364     -1.9707     -0.6225
     5         C          2.5722      0.4421      0.2126
     6         C          1.7256      1.6305      0.6883
     7         C         -2.9298      0.8324      0.7224
     8         C         -1.0315     -3.1267     -0.2734
     9         C          1.3357      2.5699     -0.4523
    10         C         -2.3143      2.1912      0.4009
    11         C         -1.4590     -0.6750     -0.5983
    12         C         -1.9169     -0.2718      0.5993
    13         H          0.8422     -1.4251      1.1201
    14         H          1.4711     -0.1494     -1.7225
    15         H         -0.2454     -1.8989     -1.8438
    16         H          2.9241     -2.2367      0.1140
    17         H          2.0204     -2.5261     -1.5775
    18         H          2.3139      2.2080      1.4337
    19         H          0.8082      1.2616      1.1957
    20         H          3.4632      0.8125     -0.3383
    21         H          2.9427     -0.1004      1.1105
    22         H         -3.7875      0.6360      0.0430
    23         H         -3.3152      0.8536      1.7643
    24         H          0.8069      3.4540     -0.0382
    25         H          2.2404      2.9195     -0.9935
    26         H          0.6533      2.0599     -1.1637
    27         H         -1.9440      2.2150     -0.6458
    28         H         -1.4737      2.4059      1.0942
    29         H         -3.0826      2.9837      0.5207
    30         H         -1.2396     -3.1017      0.8176
    31         H         -1.9751     -3.3523     -0.8149
    32         H         -0.3093     -3.9461     -0.4764
    33         H         -1.5791     -0.7652      1.5059
    34         H         -1.8150     -0.1807     -1.4984

  H: (PM3): J. J. P. STEWART, J. COMP. CHEM. 10, 209 (1989).
  C: (PM3): J. J. P. STEWART, J. COMP. CHEM. 10, 209 (1989).

           Empirical Formula: C12 H22  =    34 atoms



      MOLECULAR POINT GROUP   :   C1  


      RHF CALCULATION, NO. OF DOUBLY OCCUPIED LEVELS = 35


          Geometry optimization using BFGS

  GNORM HAS BEEN SET TOO LOW, RESET TO 0.01
 CYCLE:     1 TIME:   0.016 TIME LEFT:  2.00D  GRAD.:    97.749 HEAT: -4.050263
 CYCLE:     2 TIME:   0.016 TIME LEFT:  2.00D  GRAD.:    70.712 HEAT: -5.546521
 CYCLE:     3 TIME:   0.016 TIME LEFT:  2.00D  GRAD.:    48.561 HEAT: -6.383269
 CYCLE:     4 TIME:   0.012 TIME LEFT:  2.00D  GRAD.:    25.543 HEAT: -7.023577
 CYCLE:     5 TIME:   0.016 TIME LEFT:  2.00D  GRAD.:    18.586 HEAT: -7.264496
 CYCLE:     6 TIME:   0.008 TIME LEFT:  2.00D  GRAD.:    24.835 HEAT: -7.310523
 CYCLE:     7 TIME:   0.016 TIME LEFT:  2.00D  GRAD.:    18.849 HEAT: -7.456572
 CYCLE:     8 TIME:   0.008 TIME LEFT:  2.00D  GRAD.:    22.705 HEAT: -7.466905
 CYCLE:     9 TIME:   0.012 TIME LEFT:  2.00D  GRAD.:    15.784 HEAT: -7.565469
 CYCLE:    10 TIME:   0.012 TIME LEFT:  2.00D  GRAD.:    15.819 HEAT: -7.595952
 CYCLE:    11 TIME:   0.008 TIME LEFT:  2.00D  GRAD.:     6.883 HEAT: -7.680155
 CYCLE:    12 TIME:   0.012 TIME LEFT:  2.00D  GRAD.:     5.123 HEAT: -7.701131
 CYCLE:    13 TIME:   0.008 TIME LEFT:  2.00D  GRAD.:     5.768 HEAT: -7.725762
 CYCLE:    14 TIME:   0.012 TIME LEFT:  2.00D  GRAD.:     5.880 HEAT: -7.750575
 CYCLE:    15 TIME:   0.012 TIME LEFT:  2.00D  GRAD.:     3.385 HEAT: -7.766012
 CYCLE:    16 TIME:   0.012 TIME LEFT:  2.00D  GRAD.:     3.984 HEAT: -7.771810
 CYCLE:    17 TIME:   0.008 TIME LEFT:  2.00D  GRAD.:     2.347 HEAT: -7.781819
 CYCLE:    18 TIME:   0.008 TIME LEFT:  2.00D  GRAD.:     1.972 HEAT: -7.789508
 CYCLE:    19 TIME:   0.012 TIME LEFT:  2.00D  GRAD.:     2.458 HEAT: -7.794966
 CYCLE:    20 TIME:   0.008 TIME LEFT:  2.00D  GRAD.:     1.846 HEAT: -7.799375
 CYCLE:    21 TIME:   0.012 TIME LEFT:  2.00D  GRAD.:     1.832 HEAT: -7.805743
 CYCLE:    22 TIME:   0.008 TIME LEFT:  2.00D  GRAD.:     2.535 HEAT: -7.812126
 CYCLE:    23 TIME:   0.012 TIME LEFT:  2.00D  GRAD.:     2.770 HEAT: -7.818913
 CYCLE:    24 TIME:   0.008 TIME LEFT:  2.00D  GRAD.:     2.520 HEAT: -7.827938
 CYCLE:    25 TIME:   0.008 TIME LEFT:  2.00D  GRAD.:     2.557 HEAT: -7.837360
 CYCLE:    26 TIME:   0.012 TIME LEFT:  2.00D  GRAD.:     2.531 HEAT: -7.845405
 CYCLE:    27 TIME:   0.012 TIME LEFT:  2.00D  GRAD.:     4.102 HEAT: -7.860622
 CYCLE:    28 TIME:   0.012 TIME LEFT:  2.00D  GRAD.:     3.123 HEAT: -7.872344
 CYCLE:    29 TIME:   0.008 TIME LEFT:  2.00D  GRAD.:     2.782 HEAT: -7.888976
 CYCLE:    30 TIME:   0.008 TIME LEFT:  2.00D  GRAD.:     3.343 HEAT: -7.905117
 CYCLE:    31 TIME:   0.012 TIME LEFT:  2.00D  GRAD.:     3.606 HEAT: -7.918180
 CYCLE:    32 TIME:   0.008 TIME LEFT:  2.00D  GRAD.:     3.391 HEAT: -7.933473
 CYCLE:    33 TIME:   0.012 TIME LEFT:  2.00D  GRAD.:     3.540 HEAT: -7.947087
 CYCLE:    34 TIME:   0.008 TIME LEFT:  2.00D  GRAD.:     3.350 HEAT: -7.959411
 CYCLE:    35 TIME:   0.012 TIME LEFT:  2.00D  GRAD.:     2.855 HEAT: -7.972880
 CYCLE:    36 TIME:   0.012 TIME LEFT:  2.00D  GRAD.:     2.997 HEAT: -7.987190
 CYCLE:    37 TIME:   0.008 TIME LEFT:  2.00D  GRAD.:     3.337 HEAT: -8.002944
 CYCLE:    38 TIME:   0.012 TIME LEFT:  2.00D  GRAD.:     4.003 HEAT: -8.020119
 CYCLE:    39 TIME:   0.008 TIME LEFT:  2.00D  GRAD.:     3.787 HEAT: -8.040351
 CYCLE:    40 TIME:   0.012 TIME LEFT:  2.00D  GRAD.:     3.349 HEAT: -8.058415
 CYCLE:    41 TIME:   0.008 TIME LEFT:  2.00D  GRAD.:     2.572 HEAT: -8.071305
 CYCLE:    42 TIME:   0.016 TIME LEFT:  2.00D  GRAD.:     3.515 HEAT: -8.086100
 CYCLE:    43 TIME:   0.008 TIME LEFT:  2.00D  GRAD.:     3.516 HEAT: -8.098163
 CYCLE:    44 TIME:   0.016 TIME LEFT:  2.00D  GRAD.:     3.092 HEAT: -8.122289
 CYCLE:    45 TIME:   0.008 TIME LEFT:  2.00D  GRAD.:     2.674 HEAT: -8.134173
 CYCLE:    46 TIME:   0.008 TIME LEFT:  2.00D  GRAD.:     2.981 HEAT: -8.148217
 CYCLE:    47 TIME:   0.012 TIME LEFT:  2.00D  GRAD.:     3.177 HEAT: -8.165913
 CYCLE:    48 TIME:   0.012 TIME LEFT:  2.00D  GRAD.:     3.590 HEAT: -8.187377
 CYCLE:    49 TIME:   0.008 TIME LEFT:  2.00D  GRAD.:     3.745 HEAT: -8.213200
 CYCLE:    50 TIME:   0.012 TIME LEFT:  2.00D  GRAD.:     4.354 HEAT: -8.237807
 CYCLE:    51 TIME:   0.008 TIME LEFT:  2.00D  GRAD.:     3.590 HEAT: -8.254294
 CYCLE:    52 TIME:   0.012 TIME LEFT:  2.00D  GRAD.:     3.023 HEAT: -8.276260
 CYCLE:    53 TIME:   0.008 TIME LEFT:  2.00D  GRAD.:     2.886 HEAT: -8.297517
 CYCLE:    54 TIME:   0.008 TIME LEFT:  2.00D  GRAD.:     2.669 HEAT: -8.313618
 CYCLE:    55 TIME:   0.012 TIME LEFT:  2.00D  GRAD.:     2.623 HEAT: -8.327940
 CYCLE:    56 TIME:   0.012 TIME LEFT:  2.00D  GRAD.:     3.096 HEAT: -8.344268
 CYCLE:    57 TIME:   0.012 TIME LEFT:  2.00D  GRAD.:     4.865 HEAT: -8.373252
 CYCLE:    58 TIME:   0.012 TIME LEFT:  2.00D  GRAD.:     5.209 HEAT: -8.408668
 CYCLE:    59 TIME:   0.012 TIME LEFT:  2.00D  GRAD.:     5.519 HEAT: -8.447838
 CYCLE:    60 TIME:   0.012 TIME LEFT:  2.00D  GRAD.:     4.956 HEAT: -8.472241
 CYCLE:    61 TIME:   0.012 TIME LEFT:  2.00D  GRAD.:     6.984 HEAT: -8.542061
 CYCLE:    62 TIME:   0.008 TIME LEFT:  2.00D  GRAD.:     6.491 HEAT: -8.599179
 CYCLE:    63 TIME:   0.016 TIME LEFT:  2.00D  GRAD.:     5.750 HEAT: -8.664035
 CYCLE:    64 TIME:   0.008 TIME LEFT:  2.00D  GRAD.:     4.566 HEAT: -8.707606
 CYCLE:    65 TIME:   0.012 TIME LEFT:  2.00D  GRAD.:     3.953 HEAT: -8.745072
 CYCLE:    66 TIME:   0.008 TIME LEFT:  2.00D  GRAD.:     3.609 HEAT: -8.774538
 CYCLE:    67 TIME:   0.012 TIME LEFT:  2.00D  GRAD.:     3.655 HEAT: -8.793484
 CYCLE:    68 TIME:   0.008 TIME LEFT:  2.00D  GRAD.:     4.182 HEAT: -8.811592
 CYCLE:    69 TIME:   0.012 TIME LEFT:  2.00D  GRAD.:     2.880 HEAT: -8.826898
 CYCLE:    70 TIME:   0.008 TIME LEFT:  2.00D  GRAD.:     2.215 HEAT: -8.838839
 CYCLE:    71 TIME:   0.012 TIME LEFT:  2.00D  GRAD.:     1.870 HEAT: -8.846284
 CYCLE:    72 TIME:   0.008 TIME LEFT:  2.00D  GRAD.:     1.735 HEAT: -8.852615
 CYCLE:    73 TIME:   0.012 TIME LEFT:  2.00D  GRAD.:     1.717 HEAT: -8.858711
 CYCLE:    74 TIME:   0.012 TIME LEFT:  2.00D  GRAD.:     2.219 HEAT: -8.866126
 CYCLE:    75 TIME:   0.016 TIME LEFT:  2.00D  GRAD.:     2.873 HEAT: -8.879211
 CYCLE:    76 TIME:   0.012 TIME LEFT:  2.00D  GRAD.:     2.268 HEAT: -8.887037
 CYCLE:    77 TIME:   0.012 TIME LEFT:  2.00D  GRAD.:     2.774 HEAT: -8.899778
 CYCLE:    78 TIME:   0.012 TIME LEFT:  2.00D  GRAD.:     2.847 HEAT: -8.913289
 CYCLE:    79 TIME:   0.012 TIME LEFT:  2.00D  GRAD.:     2.548 HEAT: -8.926073
 CYCLE:    80 TIME:   0.008 TIME LEFT:  2.00D  GRAD.:     2.009 HEAT: -8.935742
 CYCLE:    81 TIME:   0.012 TIME LEFT:  2.00D  GRAD.:     2.521 HEAT: -8.942588
 CYCLE:    82 TIME:   0.008 TIME LEFT:  2.00D  GRAD.:     1.526 HEAT: -8.947684
 CYCLE:    83 TIME:   0.012 TIME LEFT:  2.00D  GRAD.:     1.050 HEAT: -8.951819
 CYCLE:    84 TIME:   0.008 TIME LEFT:  2.00D  GRAD.:     1.054 HEAT: -8.953679
 CYCLE:    85 TIME:   0.012 TIME LEFT:  2.00D  GRAD.:     1.077 HEAT: -8.955468
 CYCLE:    86 TIME:   0.016 TIME LEFT:  2.00D  GRAD.:     0.827 HEAT: -8.957061
 CYCLE:    87 TIME:   0.012 TIME LEFT:  2.00D  GRAD.:     0.777 HEAT: -8.958425
 CYCLE:    88 TIME:   0.016 TIME LEFT:  2.00D  GRAD.:     0.827 HEAT: -8.959859
 CYCLE:    89 TIME:   0.008 TIME LEFT:  2.00D  GRAD.:     0.689 HEAT: -8.960842
 CYCLE:    90 TIME:   0.012 TIME LEFT:  2.00D  GRAD.:     0.611 HEAT: -8.961818
 CYCLE:    91 TIME:   0.008 TIME LEFT:  2.00D  GRAD.:     0.590 HEAT: -8.962499
 CYCLE:    92 TIME:   0.012 TIME LEFT:  2.00D  GRAD.:     0.584 HEAT: -8.963248
 CYCLE:    93 TIME:   0.008 TIME LEFT:  2.00D  GRAD.:     0.623 HEAT: -8.963867
 CYCLE:    94 TIME:   0.012 TIME LEFT:  2.00D  GRAD.:     0.638 HEAT: -8.964509
 CYCLE:    95 TIME:   0.012 TIME LEFT:  2.00D  GRAD.:     0.570 HEAT: -8.965145
 CYCLE:    96 TIME:   0.008 TIME LEFT:  2.00D  GRAD.:     0.485 HEAT: -8.965687
 CYCLE:    97 TIME:   0.008 TIME LEFT:  2.00D  GRAD.:     0.469 HEAT: -8.966112
 CYCLE:    98 TIME:   0.012 TIME LEFT:  2.00D  GRAD.:     0.502 HEAT: -8.966492
 CYCLE:    99 TIME:   0.008 TIME LEFT:  2.00D  GRAD.:     0.511 HEAT: -8.966872
 CYCLE:   100 TIME:   0.012 TIME LEFT:  2.00D  GRAD.:     0.478 HEAT: -8.967313
 CYCLE:   101 TIME:   0.012 TIME LEFT:  2.00D  GRAD.:     0.417 HEAT: -8.967715
 CYCLE:   102 TIME:   0.008 TIME LEFT:  2.00D  GRAD.:     0.351 HEAT: -8.968010
 CYCLE:   103 TIME:   0.012 TIME LEFT:  2.00D  GRAD.:     0.299 HEAT: -8.968199
 CYCLE:   104 TIME:   0.008 TIME LEFT:  2.00D  GRAD.:     0.284 HEAT: -8.968342
 CYCLE:   105 TIME:   0.012 TIME LEFT:  2.00D  GRAD.:     0.307 HEAT: -8.968500
 CYCLE:   106 TIME:   0.016 TIME LEFT:  2.00D  GRAD.:     0.484 HEAT: -8.968781
 CYCLE:   107 TIME:   0.016 TIME LEFT:  2.00D  GRAD.:     0.451 HEAT: -8.969259
 CYCLE:   108 TIME:   0.012 TIME LEFT:  2.00D  GRAD.:     0.304 HEAT: -8.969426
 CYCLE:   109 TIME:   0.012 TIME LEFT:  2.00D  GRAD.:     0.376 HEAT: -8.969680
 CYCLE:   110 TIME:   0.016 TIME LEFT:  2.00D  GRAD.:     0.462 HEAT: -8.970030
 CYCLE:   111 TIME:   0.012 TIME LEFT:  2.00D  GRAD.:     0.495 HEAT: -8.970420
 CYCLE:   112 TIME:   0.012 TIME LEFT:  2.00D  GRAD.:     0.606 HEAT: -8.971028
 CYCLE:   113 TIME:   0.016 TIME LEFT:  2.00D  GRAD.:     0.461 HEAT: -8.971647
 CYCLE:   114 TIME:   0.012 TIME LEFT:  2.00D  GRAD.:     0.370 HEAT: -8.971976
 CYCLE:   115 TIME:   0.008 TIME LEFT:  2.00D  GRAD.:     0.360 HEAT: -8.972265
 CYCLE:   116 TIME:   0.012 TIME LEFT:  2.00D  GRAD.:     0.367 HEAT: -8.972501
 CYCLE:   117 TIME:   0.012 TIME LEFT:  2.00D  GRAD.:     0.308 HEAT: -8.972688
 CYCLE:   118 TIME:   0.008 TIME LEFT:  2.00D  GRAD.:     0.229 HEAT: -8.972851
 CYCLE:   119 TIME:   0.012 TIME LEFT:  2.00D  GRAD.:     0.196 HEAT: -8.972956
 CYCLE:   120 TIME:   0.008 TIME LEFT:  2.00D  GRAD.:     0.197 HEAT: -8.973033
 CYCLE:   121 TIME:   0.012 TIME LEFT:  2.00D  GRAD.:     0.207 HEAT: -8.973106
 CYCLE:   122 TIME:   0.008 TIME LEFT:  2.00D  GRAD.:     0.208 HEAT: -8.973200
 CYCLE:   123 TIME:   0.012 TIME LEFT:  2.00D  GRAD.:     0.194 HEAT: -8.973294
 CYCLE:   124 TIME:   0.008 TIME LEFT:  2.00D  GRAD.:     0.186 HEAT: -8.973381
 CYCLE:   125 TIME:   0.012 TIME LEFT:  2.00D  GRAD.:     0.173 HEAT: -8.973453
 CYCLE:   126 TIME:   0.008 TIME LEFT:  2.00D  GRAD.:     0.168 HEAT: -8.973503
 CYCLE:   127 TIME:   0.012 TIME LEFT:  2.00D  GRAD.:     0.146 HEAT: -8.973546
 CYCLE:   128 TIME:   0.012 TIME LEFT:  2.00D  GRAD.:     0.172 HEAT: -8.973598
 CYCLE:   129 TIME:   0.016 TIME LEFT:  2.00D  GRAD.:     0.308 HEAT: -8.973721
 CYCLE:   130 TIME:   0.016 TIME LEFT:  2.00D  GRAD.:     0.313 HEAT: -8.973960
 CYCLE:   131 TIME:   0.016 TIME LEFT:  2.00D  GRAD.:     0.268 HEAT: -8.974220
 CYCLE:   132 TIME:   0.012 TIME LEFT:  2.00D  GRAD.:     0.174 HEAT: -8.974321
 CYCLE:   133 TIME:   0.008 TIME LEFT:  2.00D  GRAD.:     0.141 HEAT: -8.974403
 CYCLE:   134 TIME:   0.012 TIME LEFT:  2.00D  GRAD.:     0.128 HEAT: -8.974447
 CYCLE:   135 TIME:   0.008 TIME LEFT:  2.00D  GRAD.:     0.115 HEAT: -8.974470
 CYCLE:   136 TIME:   0.012 TIME LEFT:  2.00D  GRAD.:     0.105 HEAT: -8.974491
 CYCLE:   137 TIME:   0.008 TIME LEFT:  2.00D  GRAD.:     0.141 HEAT: -8.974515
 CYCLE:   138 TIME:   0.012 TIME LEFT:  2.00D  GRAD.:     0.149 HEAT: -8.974566
 CYCLE:   139 TIME:   0.016 TIME LEFT:  2.00D  GRAD.:     0.212 HEAT: -8.974638
 CYCLE:   140 TIME:   0.016 TIME LEFT:  2.00D  GRAD.:     0.337 HEAT: -8.974790
 CYCLE:   141 TIME:   0.016 TIME LEFT:  2.00D  GRAD.:     0.309 HEAT: -8.975008
 CYCLE:   142 TIME:   0.008 TIME LEFT:  2.00D  GRAD.:     0.270 HEAT: -8.975151
 CYCLE:   143 TIME:   0.012 TIME LEFT:  2.00D  GRAD.:     0.240 HEAT: -8.975280
 CYCLE:   144 TIME:   0.012 TIME LEFT:  2.00D  GRAD.:     0.234 HEAT: -8.975361
 CYCLE:   145 TIME:   0.008 TIME LEFT:  2.00D  GRAD.:     0.217 HEAT: -8.975404
 CYCLE:   146 TIME:   0.012 TIME LEFT:  2.00D  GRAD.:     0.187 HEAT: -8.975497
 CYCLE:   147 TIME:   0.008 TIME LEFT:  2.00D  GRAD.:     0.190 HEAT: -8.975579
 CYCLE:   148 TIME:   0.012 TIME LEFT:  2.00D  GRAD.:     0.182 HEAT: -8.975613
 CYCLE:   149 TIME:   0.008 TIME LEFT:  2.00D  GRAD.:     0.161 HEAT: -8.975650
 CYCLE:   150 TIME:   0.012 TIME LEFT:  2.00D  GRAD.:     0.155 HEAT: -8.975702
 CYCLE:   151 TIME:   0.012 TIME LEFT:  2.00D  GRAD.:     0.194 HEAT: -8.975764
 CYCLE:   152 TIME:   0.012 TIME LEFT:  2.00D  GRAD.:     0.243 HEAT: -8.975821
 CYCLE:   153 TIME:   0.012 TIME LEFT:  2.00D  GRAD.:     0.236 HEAT: -8.975924
 CYCLE:   154 TIME:   0.008 TIME LEFT:  2.00D  GRAD.:     0.216 HEAT: -8.976039
 CYCLE:   155 TIME:   0.012 TIME LEFT:  2.00D  GRAD.:     0.174 HEAT: -8.976103
 CYCLE:   156 TIME:   0.012 TIME LEFT:  2.00D  GRAD.:     0.125 HEAT: -8.976152
 CYCLE:   157 TIME:   0.008 TIME LEFT:  2.00D  GRAD.:     0.087 HEAT: -8.976186
 CYCLE:   158 TIME:   0.008 TIME LEFT:  2.00D  GRAD.:     0.053 HEAT: -8.976198
 CYCLE:   159 TIME:   0.012 TIME LEFT:  2.00D  GRAD.:     0.047 HEAT: -8.976204
 CYCLE:   160 TIME:   0.008 TIME LEFT:  2.00D  GRAD.:     0.034 HEAT: -8.976206
 CYCLE:   161 TIME:   0.008 TIME LEFT:  2.00D  GRAD.:     0.032 HEAT: -8.976209
 CYCLE:   162 TIME:   0.012 TIME LEFT:  2.00D  GRAD.:     0.033 HEAT: -8.976212
 CYCLE:   163 TIME:   0.008 TIME LEFT:  2.00D  GRAD.:     0.038 HEAT: -8.976216
 CYCLE:   164 TIME:   0.012 TIME LEFT:  2.00D  GRAD.:     0.072 HEAT: -8.976229
 CYCLE:   165 TIME:   0.008 TIME LEFT:  2.00D  GRAD.:     0.058 HEAT: -8.976235
 CYCLE:   166 TIME:   0.016 TIME LEFT:  2.00D  GRAD.:     0.093 HEAT: -8.976266
 CYCLE:   167 TIME:   0.008 TIME LEFT:  2.00D  GRAD.:     0.059 HEAT: -8.976275
 CYCLE:   168 TIME:   0.012 TIME LEFT:  2.00D  GRAD.:     0.048 HEAT: -8.976286
 CYCLE:   169 TIME:   0.012 TIME LEFT:  2.00D  GRAD.:     0.028 HEAT: -8.976291
 CYCLE:   170 TIME:   0.008 TIME LEFT:  2.00D  GRAD.:     0.029 HEAT: -8.976296
 CYCLE:   171 TIME:   0.012 TIME LEFT:  2.00D  GRAD.:     0.013 HEAT: -8.976297
 CYCLE:   172 TIME:   0.012 TIME LEFT:  2.00D  GRAD.:     0.036 HEAT: -8.976299
 CYCLE:   173 TIME:   0.012 TIME LEFT:  2.00D  GRAD.:     0.019 HEAT: -8.976300
 CYCLE:   174 TIME:   0.008 TIME LEFT:  2.00D  GRAD.:     0.018 HEAT: -8.976300
 TEST ON GRADIENT SATISFIED
PETERS TEST SATISFIED

 -------------------------------------------------------------------------------
 pm3  precise nosym gnorm=0.0 bfgs THREADS=1
 InChI=1S/C12H22/c1-4-6-8-10(3)12-9-11(12)7-5-2/h6,8,10-12H,4-5,7,9H2,1-3H3



     PETERS TEST WAS SATISFIED IN BFGS OPTIMIZATION           
     SCF FIELD WAS ACHIEVED                                   


                              PM3 CALCULATION
                                                       MOPAC v23.1.2 MacOS
                                                       Tue Jun  3 16:44:45 2025




          FINAL HEAT OF FORMATION =         -8.97630 KCAL/MOL =     -37.55684 KJ/MOL


          COSMO AREA              =        231.55 SQUARE ANGSTROMS
          COSMO VOLUME            =        260.81 CUBIC ANGSTROMS

          GRADIENT NORM           =          0.00818          =       0.00140 PER ATOM
          IONIZATION POTENTIAL    =          9.803181 EV
          HOMO LUMO ENERGIES (EV) =         -9.803  1.130
          NO. OF FILLED LEVELS    =         35
          MOLECULAR WEIGHT        =        166.3058         POINT GROUP:  C1  

          MOLECULAR DIMENSIONS (Angstroms)

            Atom       Atom       Distance
            H    29    H    17     8.01255
            H    31    H    25     7.65033
            H    34    H    21     3.85118


          SCF CALCULATIONS        =        230

          WALL-CLOCK TIME         =      1.914 SECONDS
          COMPUTATION TIME        =      1.457 SECONDS




   ATOM   CHEMICAL          X               Y               Z
  NUMBER   SYMBOL      (ANGSTROMS)     (ANGSTROMS)     (ANGSTROMS)

     1       C          0.79856486  *  -1.53262294  *  -0.04253532  *
     2       C          1.72960992  *  -0.51222671  *  -0.65243219  *
     3       C         -0.48366667  *  -1.89611373  *  -0.75992241  *
     4       C          2.11898563  *  -1.96268048  *  -0.61803518  *
     5       C          2.44204524  *   0.47123868  *   0.23634962  *
     6       C          1.57126107  *   1.67101494  *   0.57999431  *
     7       C         -2.80625706  *   0.90821396  *   0.60414354  *
     8       C         -1.00716261  *  -3.23206921  *  -0.25098122  *
     9       C          1.40930499  *   2.63148022  *  -0.57664173  *
    10       C         -2.20737092  *   2.23788921  *   1.01232604  *
    11       C         -1.54291766  *  -0.84653404  *  -0.61209531  *
    12       C         -1.74925634  *  -0.13395166  *   0.49562314  *
    13       H          0.68496049  *  -1.54101468  *   1.05905302  *
    14       H          1.44639133  *  -0.07004757  *  -1.62703540  *
    15       H         -0.26010966  *  -1.99442610  *  -1.85209894  *
    16       H          2.91646961  *  -2.30120623  *   0.05323151  *
    17       H          2.15071964  *  -2.53850717  *  -1.55011665  *
    18       H          2.01362803  *   2.20631069  *   1.44310368  *
    19       H          0.57190255  *   1.32309116  *   0.92087564  *
    20       H          3.37267675  *   0.80241117  *  -0.26583640  *
    21       H          2.76617212  *  -0.02784150  *   1.17204533  *
    22       H         -3.36288993  *   1.01870137  *  -0.34803404  *
    23       H         -3.55425176  *   0.57709524  *   1.35209158  *
    24       H          0.76723860  *   3.47841636  *  -0.29927823  *
    25       H          2.37396654  *   3.04053016  *  -0.90468808  *
    26       H          0.94715358  *   2.14585185  *  -1.44724381  *
    27       H         -1.47497220  *   2.59505864  *   0.27351637  *
    28       H         -1.68325130  *   2.16733791  *   1.97528484  *
    29       H         -2.98083092  *   3.00945453  *   1.11226558  *
    30       H         -1.24588372  *  -3.19081701  *   0.82015774  *
    31       H         -1.92106932  *  -3.52839365  *  -0.78117530  *
    32       H         -0.26458822  *  -4.02741701  *  -0.39419872  *
    33       H         -1.12756146  *  -0.27895688  *   1.38981427  *
    34       H         -2.17805954  *  -0.69610877  *  -1.49461691  *

                             CARTESIAN COORDINATES

   1    C        0.798564855    -1.532622940    -0.042535320
   2    C        1.729609919    -0.512226713    -0.652432192
   3    C       -0.483666670    -1.896113726    -0.759922406
   4    C        2.118985625    -1.962680478    -0.618035183
   5    C        2.442045244     0.471238681     0.236349621
   6    C        1.571261066     1.671014940     0.579994310
   7    C       -2.806257061     0.908213958     0.604143544
   8    C       -1.007162611    -3.232069211    -0.250981218
   9    C        1.409304995     2.631480223    -0.576641735
  10    C       -2.207370922     2.237889209     1.012326036
  11    C       -1.542917658    -0.846534035    -0.612095309
  12    C       -1.749256340    -0.133951660     0.495623140
  13    H        0.684960487    -1.541014680     1.059053016
  14    H        1.446391328    -0.070047566    -1.627035400
  15    H       -0.260109660    -1.994426101    -1.852098937
  16    H        2.916469612    -2.301206233     0.053231513
  17    H        2.150719641    -2.538507173    -1.550116647
  18    H        2.013628028     2.206310685     1.443103679
  19    H        0.571902548     1.323091160     0.920875644
  20    H        3.372676750     0.802411168    -0.265836401
  21    H        2.766172123    -0.027841504     1.172045330
  22    H       -3.362889933     1.018701366    -0.348034040
  23    H       -3.554251761     0.577095240     1.352091581
  24    H        0.767238602     3.478416360    -0.299278229
  25    H        2.373966538     3.040530156    -0.904688076
  26    H        0.947153582     2.145851850    -1.447243811
  27    H       -1.474972196     2.595058637     0.273516373
  28    H       -1.683251303     2.167337908     1.975284841
  29    H       -2.980830923     3.009454531     1.112265577
  30    H       -1.245883722    -3.190817008     0.820157745
  31    H       -1.921069319    -3.528393653    -0.781175301
  32    H       -0.264588224    -4.027417012    -0.394198716
  33    H       -1.127561459    -0.278956880     1.389814271
  34    H       -2.178059543    -0.696108766    -1.494616913


           Empirical Formula: C12 H22  =    34 atoms



      MOLECULAR POINT GROUP   :   C1  


                  EIGENVALUES  
 -41.84162 -37.16173 -35.82005 -32.47816 -28.39875 -26.70652 -23.93714 -22.24841
 -21.72605 -21.07078 -19.70146 -18.68183 -16.90123 -16.77575 -16.11169 -15.38092
 -14.96683 -14.85045 -14.72644 -14.21639 -13.98840 -13.75325 -13.38478 -13.24098
 -12.92677 -12.65635 -12.44962 -12.25679 -11.90789 -11.85415 -11.62676 -11.35733
 -11.21938 -10.87442  -9.80318   1.13032   2.87757   3.12849   3.20756   3.39961
   3.53204   3.75963   3.77541   3.88104   3.90110   3.94003   3.99175   4.04092
   4.07041   4.08926   4.18683   4.22471   4.25689   4.37230   4.49486   4.56500
   4.63782   4.67751   4.72992   4.82920   4.86899   4.90544   4.94202   5.07083
   5.13785   5.17812   5.28509   5.31796   5.76354   6.02409


              NET ATOMIC CHARGES AND DIPOLE CONTRIBUTIONS

  ATOM NO.   TYPE          CHARGE      No. of ELECS.   s-Pop       p-Pop       
    1          C          -0.139089        4.1391     1.18080     2.95829
    2          C          -0.134362        4.1344     1.17843     2.95593
    3          C          -0.009018        4.0090     1.15689     2.85213
    4          C          -0.150071        4.1501     1.16412     2.98595
    5          C          -0.068017        4.0680     1.15411     2.91391
    6          C          -0.106562        4.1066     1.16012     2.94644
    7          C          -0.060200        4.0602     1.14576     2.91444
    8          C          -0.106148        4.1061     1.14065     2.96550
    9          C          -0.112243        4.1122     1.13912     2.97313
   10          C          -0.113121        4.1131     1.13978     2.97334
   11          C          -0.144282        4.1443     1.19804     2.94624
   12          C          -0.149716        4.1497     1.19668     2.95304
   13          H           0.100138        0.8999     0.89986
   14          H           0.100529        0.8995     0.89947
   15          H           0.062695        0.9373     0.93730
   16          H           0.078261        0.9217     0.92174
   17          H           0.078570        0.9214     0.92143
   18          H           0.045394        0.9546     0.95461
   19          H           0.061827        0.9382     0.93817
   20          H           0.052880        0.9471     0.94712
   21          H           0.047881        0.9521     0.95212
   22          H           0.050637        0.9494     0.94936
   23          H           0.052243        0.9478     0.94776
   24          H           0.036729        0.9633     0.96327
   25          H           0.037286        0.9627     0.96271
   26          H           0.041280        0.9587     0.95872
   27          H           0.045118        0.9549     0.95488
   28          H           0.038426        0.9616     0.96157
   29          H           0.037539        0.9625     0.96246
   30          H           0.041604        0.9584     0.95840
   31          H           0.039851        0.9601     0.96015
   32          H           0.040484        0.9595     0.95952
   33          H           0.105783        0.8942     0.89422
   34          H           0.097675        0.9023     0.90233
 DIPOLE           X         Y         Z       TOTAL
 POINT-CHG.    -0.100     0.065     0.047     0.128
 HYBRID         0.023    -0.017     0.012     0.031
 SUM           -0.077     0.048     0.058     0.108


          ATOMIC ORBITAL ELECTRON POPULATIONS

     Atom    s        px        py        pz   
    1  C   1.18080   0.91808   1.04246   0.99775
    2  C   1.17843   1.02746   0.91569   1.01278
    3  C   1.15689   0.92420   0.93988   0.98804
    4  C   1.16412   0.98347   0.97566   1.02681
    5  C   1.15411   0.97329   0.95612   0.98449
    6  C   1.16012   1.00799   0.96175   0.97670
    7  C   1.14576   0.96041   0.94183   1.01221
    8  C   1.14065   1.00138   0.95819   1.00593
    9  C   1.13912   1.00699   0.98424   0.98190
   10  C   1.13978   1.00306   0.96213   1.00815
   11  C   1.19804   0.98689   0.98231   0.97705
   12  C   1.19668   0.99061   0.97897   0.98346
   13  H   0.89986
   14  H   0.89947
   15  H   0.93730
   16  H   0.92174
   17  H   0.92143
   18  H   0.95461
   19  H   0.93817
   20  H   0.94712
   21  H   0.95212
   22  H   0.94936
   23  H   0.94776
   24  H   0.96327
   25  H   0.96271
   26  H   0.95872
   27  H   0.95488
   28  H   0.96157
   29  H   0.96246
   30  H   0.95840
   31  H   0.96015
   32  H   0.95952
   33  H   0.89422
   34  H   0.90233
 *******************************************************************************
 **                                                                           **
 **                              MOPAC v23.1.2                                **
 **                                                                           **
 *******************************************************************************
 **          Digital Object Identifier (DOI): 10.5281/zenodo.6511958          **
 **    Visit the DOI location for information on how to cite this program.    **
 *******************************************************************************

                              PM3 CALCULATION RESULTS

 *******************************************************************************
 *  CALCULATION DONE: (MAX THREADS = 1)              Tue Jun  3 16:44:45 2025  *
 *  PM3        - The PM3 Hamiltonian to be used
 *  OLDGEO     - PREVIOUS GEOMETRY TO BE USED
 *  PRECISE    - TIGHTER CRITERIA TO BE USED
 *  NOSYM      - POINT-GROUP SYMMETRY SET TO C1
 *  THREADS=1  - MULTI-THREADING NOT USED
 *  T=         - A TIME OF 172800.0 SECONDS REQUESTED
 *  DUMP=N     - RESTART FILE WRITTEN EVERY 7200.0 SECONDS REQUESTED
 *  THERMO     - THERMODYNAMIC QUANTITIES TO BE CALCULATED
 *******************************************************************************
oldgeo thermo nosym precise THREADS=1  pm3
 InChI=1S/C12H22/c1-4-6-8-10(3)12-9-11(12)7-5-2/h6,8,10-12H,4-5,7,9H2,1-3H3

   ATOM   CHEMICAL          X               Y               Z
  NUMBER   SYMBOL      (ANGSTROMS)     (ANGSTROMS)     (ANGSTROMS)

     1       C          0.79856486  *  -1.53262294  *  -0.04253532  *
     2       C          1.72960992  *  -0.51222671  *  -0.65243219  *
     3       C         -0.48366667  *  -1.89611373  *  -0.75992241  *
     4       C          2.11898563  *  -1.96268048  *  -0.61803518  *
     5       C          2.44204524  *   0.47123868  *   0.23634962  *
     6       C          1.57126107  *   1.67101494  *   0.57999431  *
     7       C         -2.80625706  *   0.90821396  *   0.60414354  *
     8       C         -1.00716261  *  -3.23206921  *  -0.25098122  *
     9       C          1.40930499  *   2.63148022  *  -0.57664173  *
    10       C         -2.20737092  *   2.23788921  *   1.01232604  *
    11       C         -1.54291766  *  -0.84653404  *  -0.61209531  *
    12       C         -1.74925634  *  -0.13395166  *   0.49562314  *
    13       H          0.68496049  *  -1.54101468  *   1.05905302  *
    14       H          1.44639133  *  -0.07004757  *  -1.62703540  *
    15       H         -0.26010966  *  -1.99442610  *  -1.85209894  *
    16       H          2.91646961  *  -2.30120623  *   0.05323151  *
    17       H          2.15071964  *  -2.53850717  *  -1.55011665  *
    18       H          2.01362803  *   2.20631069  *   1.44310368  *
    19       H          0.57190255  *   1.32309116  *   0.92087564  *
    20       H          3.37267675  *   0.80241117  *  -0.26583640  *
    21       H          2.76617212  *  -0.02784150  *   1.17204533  *
    22       H         -3.36288993  *   1.01870137  *  -0.34803404  *
    23       H         -3.55425176  *   0.57709524  *   1.35209158  *
    24       H          0.76723860  *   3.47841636  *  -0.29927823  *
    25       H          2.37396654  *   3.04053016  *  -0.90468808  *
    26       H          0.94715358  *   2.14585185  *  -1.44724381  *
    27       H         -1.47497220  *   2.59505864  *   0.27351637  *
    28       H         -1.68325130  *   2.16733791  *   1.97528484  *
    29       H         -2.98083092  *   3.00945453  *   1.11226558  *
    30       H         -1.24588372  *  -3.19081701  *   0.82015774  *
    31       H         -1.92106932  *  -3.52839365  *  -0.78117530  *
    32       H         -0.26458822  *  -4.02741701  *  -0.39419872  *
    33       H         -1.12756146  *  -0.27895688  *   1.38981427  *
    34       H         -2.17805954  *  -0.69610877  *  -1.49461691  *



          CARTESIAN COORDINATES 

    NO.       ATOM           X           Y           Z

     1         C          0.7986     -1.5326     -0.0425
     2         C          1.7296     -0.5122     -0.6524
     3         C         -0.4837     -1.8961     -0.7599
     4         C          2.1190     -1.9627     -0.6180
     5         C          2.4420      0.4712      0.2363
     6         C          1.5713      1.6710      0.5800
     7         C         -2.8063      0.9082      0.6041
     8         C         -1.0072     -3.2321     -0.2510
     9         C          1.4093      2.6315     -0.5766
    10         C         -2.2074      2.2379      1.0123
    11         C         -1.5429     -0.8465     -0.6121
    12         C         -1.7493     -0.1340      0.4956
    13         H          0.6850     -1.5410      1.0591
    14         H          1.4464     -0.0700     -1.6270
    15         H         -0.2601     -1.9944     -1.8521
    16         H          2.9165     -2.3012      0.0532
    17         H          2.1507     -2.5385     -1.5501
    18         H          2.0136      2.2063      1.4431
    19         H          0.5719      1.3231      0.9209
    20         H          3.3727      0.8024     -0.2658
    21         H          2.7662     -0.0278      1.1720
    22         H         -3.3629      1.0187     -0.3480
    23         H         -3.5543      0.5771      1.3521
    24         H          0.7672      3.4784     -0.2993
    25         H          2.3740      3.0405     -0.9047
    26         H          0.9472      2.1459     -1.4472
    27         H         -1.4750      2.5951      0.2735
    28         H         -1.6833      2.1673      1.9753
    29         H         -2.9808      3.0095      1.1123
    30         H         -1.2459     -3.1908      0.8202
    31         H         -1.9211     -3.5284     -0.7812
    32         H         -0.2646     -4.0274     -0.3942
    33         H         -1.1276     -0.2790      1.3898
    34         H         -2.1781     -0.6961     -1.4946

  H: (PM3): J. J. P. STEWART, J. COMP. CHEM. 10, 209 (1989).
  C: (PM3): J. J. P. STEWART, J. COMP. CHEM. 10, 209 (1989).

           Empirical Formula: C12 H22  =    34 atoms



      MOLECULAR POINT GROUP   :   C1  


      RHF CALCULATION, NO. OF DOUBLY OCCUPIED LEVELS = 35



          HEAT OF FORMATION =      -8.976301 KCALS/MOLE


          CARTESIAN COORDINATE DERIVATIVES

   NUMBER  ATOM         X            Y            Z

     1       C     -0.000455     0.000236    -0.000023
     2       C      0.000074     0.001044     0.000356
     3       C     -0.000763    -0.000712     0.000702
     4       C      0.000995     0.000039    -0.000828
     5       C      0.000035     0.000316    -0.001342
     6       C      0.000474    -0.000728    -0.000459
     7       C     -0.000468     0.002485    -0.000264
     8       C     -0.001150    -0.001193     0.001321
     9       C      0.000560     0.000074     0.000915
    10       C      0.000326    -0.001095    -0.000919
    11       C      0.001783     0.001216    -0.000570
    12       C     -0.000747     0.001126    -0.000325
    13       H      0.000131    -0.000146    -0.000093
    14       H      0.000011     0.000506    -0.000452
    15       H     -0.000952    -0.001028     0.000037
    16       H      0.000053    -0.000076    -0.000405
    17       H      0.000081    -0.000087     0.000005
    18       H     -0.000098     0.000407    -0.000184
    19       H     -0.000508     0.000456     0.000248
    20       H     -0.000117     0.001200    -0.000038
    21       H      0.000344    -0.000226    -0.000479
    22       H      0.001104    -0.000942    -0.000141
    23       H     -0.000052     0.000669     0.000050
    24       H     -0.000048    -0.000088     0.000418
    25       H      0.000580    -0.000045     0.000324
    26       H      0.001084    -0.000383    -0.000218
    27       H     -0.000943    -0.001259     0.001206
    28       H     -0.000358    -0.000528     0.000480
    29       H     -0.001258    -0.000370    -0.000310
    30       H      0.000593     0.000080     0.000396
    31       H     -0.000274    -0.000951     0.000181
    32       H     -0.000698    -0.001308     0.001073
    33       H     -0.002541     0.000499    -0.000482
    34       H      0.003204     0.000813    -0.000182



          GRADIENT NORM =   0.00823

          MOLECULAR WEIGHT =  166.31



          ROTATIONAL CONSTANTS IN CM(-1)

          A =    0.02816950   B =    0.02629848   C =    0.01486488



           PRINCIPAL MOMENTS OF INERTIA IN UNITS OF 10**(-40)*GRAM-CM**2

          A =      993.7255   B =     1064.4248   C =     1883.1471


          ORIENTATION OF MOLECULE IN FORCE CALCULATION

    NO.       ATOM         X         Y         Z

     1          C      -0.4554   -0.6318   -1.3873
     2          C       1.0546   -0.6318   -1.3873
     3          C      -1.2019    0.6849   -1.3873
     4          C       0.3006   -1.0567   -2.6151
     5          C       1.7995   -1.6590   -0.5782
     6          C       1.9345   -1.2529    0.8821
     7          C      -1.2899    1.3795    2.4375
     8          C      -2.6330    0.4748   -1.8622
     9          C       2.9509   -0.1539    1.0960
    10          C      -0.1869    0.8321    3.3191
    11          C      -1.2054    1.3441   -0.0416
    12          C      -1.2985    0.6920    1.1175
    13          H      -0.9760   -1.4142   -0.8015
    14          H       1.5724    0.3466   -1.4045
    15          H      -0.6893    1.3800   -2.0991
    16          H       0.2924   -2.1103   -2.9171
    17          H       0.3075   -0.4169   -3.5050
    18          H       2.2204   -2.1396    1.4814
    19          H       0.9455   -0.9301    1.2741
    20          H       2.7999   -1.8159   -1.0281
    21          H       1.2841   -2.6388   -0.6412
    22          H      -1.1738    2.4756    2.3205
    23          H      -2.2769    1.2322    2.9197
    24          H       3.0153    0.1230    2.1570
    25          H       3.9546   -0.4584    0.7715
    26          H       2.6894    0.7563    0.5388
    27          H       0.8045    0.9849    2.8678
    28          H      -0.3004   -0.2478    3.4860
    29          H      -0.1828    1.3202    4.3015
    30          H      -3.1850   -0.2006   -1.1950
    31          H      -3.1826    1.4239   -1.8986
    32          H      -2.6548    0.0370   -2.8683
    33          H      -1.3744   -0.4036    1.1497
    34          H      -1.1390    2.4397   -0.0578


    FIRST DERIVATIVES WILL BE USED IN THE CALCULATION OF SECOND DERIVATIVES

          ESTIMATED TIME TO COMPLETE CALCULATION =        4.78 SECONDS

    FOR POINT-GROUP C1   THERE ARE   1 UNIQUE SYMMETRY FUNCTIONS.

 STEP:   1 TIME =     0.04 SECS, INTEGRAL =      0.04 TIME LEFT: 172799.95
 STEP:   2 TIME =     0.04 SECS, INTEGRAL =      0.08 TIME LEFT: 172799.91
 STEP:   3 TIME =     0.04 SECS, INTEGRAL =      0.12 TIME LEFT: 172799.87
 STEP:   4 TIME =     0.04 SECS, INTEGRAL =      0.16 TIME LEFT: 172799.83
 STEP:   5 TIME =     0.04 SECS, INTEGRAL =      0.20 TIME LEFT: 172799.79
 STEP:   6 TIME =     0.04 SECS, INTEGRAL =      0.24 TIME LEFT: 172799.75
 STEP:   7 TIME =     0.04 SECS, INTEGRAL =      0.28 TIME LEFT: 172799.71
 STEP:   8 TIME =     0.04 SECS, INTEGRAL =      0.32 TIME LEFT: 172799.67
 STEP:   9 TIME =     0.04 SECS, INTEGRAL =      0.35 TIME LEFT: 172799.64
 STEP:  10 TIME =     0.05 SECS, INTEGRAL =      0.40 TIME LEFT: 172799.59
 STEP:  11 TIME =     0.04 SECS, INTEGRAL =      0.44 TIME LEFT: 172799.55
 STEP:  12 TIME =     0.04 SECS, INTEGRAL =      0.48 TIME LEFT: 172799.51
 STEP:  13 TIME =     0.04 SECS, INTEGRAL =      0.52 TIME LEFT: 172799.47
 STEP:  14 TIME =     0.04 SECS, INTEGRAL =      0.56 TIME LEFT: 172799.43
 STEP:  15 TIME =     0.04 SECS, INTEGRAL =      0.60 TIME LEFT: 172799.39
 STEP:  16 TIME =     0.04 SECS, INTEGRAL =      0.64 TIME LEFT: 172799.35
 STEP:  17 TIME =     0.04 SECS, INTEGRAL =      0.68 TIME LEFT: 172799.31
 STEP:  18 TIME =     0.04 SECS, INTEGRAL =      0.71 TIME LEFT: 172799.28
 STEP:  19 TIME =     0.04 SECS, INTEGRAL =      0.75 TIME LEFT: 172799.24
 STEP:  20 TIME =     0.04 SECS, INTEGRAL =      0.79 TIME LEFT: 172799.20
 STEP:  21 TIME =     0.04 SECS, INTEGRAL =      0.83 TIME LEFT: 172799.16
 STEP:  22 TIME =     0.04 SECS, INTEGRAL =      0.87 TIME LEFT: 172799.12
 STEP:  23 TIME =     0.04 SECS, INTEGRAL =      0.91 TIME LEFT: 172799.08
 STEP:  24 TIME =     0.04 SECS, INTEGRAL =      0.95 TIME LEFT: 172799.04
 STEP:  25 TIME =     0.04 SECS, INTEGRAL =      0.99 TIME LEFT: 172799.00
 STEP:  26 TIME =     0.04 SECS, INTEGRAL =      1.03 TIME LEFT: 172798.96
 STEP:  27 TIME =     0.04 SECS, INTEGRAL =      1.07 TIME LEFT: 172798.92
 STEP:  28 TIME =     0.04 SECS, INTEGRAL =      1.11 TIME LEFT: 172798.88
 STEP:  29 TIME =     0.04 SECS, INTEGRAL =      1.15 TIME LEFT: 172798.84
 STEP:  30 TIME =     0.04 SECS, INTEGRAL =      1.20 TIME LEFT: 172798.79
 STEP:  31 TIME =     0.04 SECS, INTEGRAL =      1.24 TIME LEFT: 172798.75
 STEP:  32 TIME =     0.04 SECS, INTEGRAL =      1.28 TIME LEFT: 172798.71
 STEP:  33 TIME =     0.04 SECS, INTEGRAL =      1.32 TIME LEFT: 172798.67
 STEP:  34 TIME =     0.04 SECS, INTEGRAL =      1.36 TIME LEFT: 172798.63
 STEP:  35 TIME =     0.04 SECS, INTEGRAL =      1.40 TIME LEFT: 172798.59
 STEP:  36 TIME =     0.04 SECS, INTEGRAL =      1.44 TIME LEFT: 172798.55
 STEP:  37 TIME =     0.04 SECS, INTEGRAL =      1.48 TIME LEFT: 172798.50
 STEP:  38 TIME =     0.04 SECS, INTEGRAL =      1.53 TIME LEFT: 172798.46
 STEP:  39 TIME =     0.04 SECS, INTEGRAL =      1.57 TIME LEFT: 172798.42
 STEP:  40 TIME =     0.04 SECS, INTEGRAL =      1.61 TIME LEFT: 172798.38
 STEP:  41 TIME =     0.04 SECS, INTEGRAL =      1.65 TIME LEFT: 172798.34
 STEP:  42 TIME =     0.05 SECS, INTEGRAL =      1.70 TIME LEFT: 172798.29
 STEP:  43 TIME =     0.04 SECS, INTEGRAL =      1.74 TIME LEFT: 172798.25
 STEP:  44 TIME =     0.04 SECS, INTEGRAL =      1.78 TIME LEFT: 172798.21
 STEP:  45 TIME =     0.04 SECS, INTEGRAL =      1.82 TIME LEFT: 172798.17
 STEP:  46 TIME =     0.04 SECS, INTEGRAL =      1.86 TIME LEFT: 172798.12
 STEP:  47 TIME =     0.04 SECS, INTEGRAL =      1.90 TIME LEFT: 172798.09
 STEP:  48 TIME =     0.04 SECS, INTEGRAL =      1.94 TIME LEFT: 172798.05
 STEP:  49 TIME =     0.04 SECS, INTEGRAL =      1.98 TIME LEFT: 172798.00
 STEP:  50 TIME =     0.04 SECS, INTEGRAL =      2.02 TIME LEFT: 172797.96
 STEP:  51 TIME =     0.04 SECS, INTEGRAL =      2.06 TIME LEFT: 172797.93
 STEP:  52 TIME =     0.04 SECS, INTEGRAL =      2.10 TIME LEFT: 172797.89
 STEP:  53 TIME =     0.04 SECS, INTEGRAL =      2.14 TIME LEFT: 172797.85
 STEP:  54 TIME =     0.04 SECS, INTEGRAL =      2.18 TIME LEFT: 172797.81
 STEP:  55 TIME =     0.04 SECS, INTEGRAL =      2.22 TIME LEFT: 172797.77
 STEP:  56 TIME =     0.04 SECS, INTEGRAL =      2.26 TIME LEFT: 172797.73
 STEP:  57 TIME =     0.04 SECS, INTEGRAL =      2.30 TIME LEFT: 172797.69
 STEP:  58 TIME =     0.04 SECS, INTEGRAL =      2.34 TIME LEFT: 172797.65
 STEP:  59 TIME =     0.04 SECS, INTEGRAL =      2.38 TIME LEFT: 172797.61
 STEP:  60 TIME =     0.04 SECS, INTEGRAL =      2.42 TIME LEFT: 172797.57
 STEP:  61 TIME =     0.04 SECS, INTEGRAL =      2.46 TIME LEFT: 172797.53
 STEP:  62 TIME =     0.04 SECS, INTEGRAL =      2.50 TIME LEFT: 172797.49
 STEP:  63 TIME =     0.04 SECS, INTEGRAL =      2.54 TIME LEFT: 172797.45
 STEP:  64 TIME =     0.05 SECS, INTEGRAL =      2.59 TIME LEFT: 172797.40
 STEP:  65 TIME =     0.04 SECS, INTEGRAL =      2.63 TIME LEFT: 172797.36
 STEP:  66 TIME =     0.04 SECS, INTEGRAL =      2.67 TIME LEFT: 172797.32
 STEP:  67 TIME =     0.04 SECS, INTEGRAL =      2.71 TIME LEFT: 172797.28
 STEP:  68 TIME =     0.04 SECS, INTEGRAL =      2.75 TIME LEFT: 172797.23
 STEP:  69 TIME =     0.04 SECS, INTEGRAL =      2.80 TIME LEFT: 172797.19
 STEP:  70 TIME =     0.04 SECS, INTEGRAL =      2.84 TIME LEFT: 172797.15
 STEP:  71 TIME =     0.04 SECS, INTEGRAL =      2.88 TIME LEFT: 172797.11
 STEP:  72 TIME =     0.04 SECS, INTEGRAL =      2.92 TIME LEFT: 172797.07
 STEP:  73 TIME =     0.04 SECS, INTEGRAL =      2.95 TIME LEFT: 172797.04
 STEP:  74 TIME =     0.04 SECS, INTEGRAL =      2.99 TIME LEFT: 172797.00
 STEP:  75 TIME =     0.04 SECS, INTEGRAL =      3.03 TIME LEFT: 172796.96
 STEP:  76 TIME =     0.04 SECS, INTEGRAL =      3.07 TIME LEFT: 172796.92
 STEP:  77 TIME =     0.04 SECS, INTEGRAL =      3.11 TIME LEFT: 172796.88
 STEP:  78 TIME =     0.04 SECS, INTEGRAL =      3.15 TIME LEFT: 172796.84
 STEP:  79 TIME =     0.04 SECS, INTEGRAL =      3.19 TIME LEFT: 172796.80
 STEP:  80 TIME =     0.04 SECS, INTEGRAL =      3.23 TIME LEFT: 172796.76
 STEP:  81 TIME =     0.04 SECS, INTEGRAL =      3.27 TIME LEFT: 172796.71
 STEP:  82 TIME =     0.04 SECS, INTEGRAL =      3.32 TIME LEFT: 172796.67
 STEP:  83 TIME =     0.04 SECS, INTEGRAL =      3.35 TIME LEFT: 172796.64
 STEP:  84 TIME =     0.05 SECS, INTEGRAL =      3.40 TIME LEFT: 172796.59
 STEP:  85 TIME =     0.05 SECS, INTEGRAL =      3.45 TIME LEFT: 172796.54
 STEP:  86 TIME =     0.04 SECS, INTEGRAL =      3.49 TIME LEFT: 172796.50
 STEP:  87 TIME =     0.04 SECS, INTEGRAL =      3.53 TIME LEFT: 172796.46
 STEP:  88 TIME =     0.04 SECS, INTEGRAL =      3.57 TIME LEFT: 172796.42
 STEP:  89 TIME =     0.04 SECS, INTEGRAL =      3.61 TIME LEFT: 172796.38
 STEP:  90 TIME =     0.04 SECS, INTEGRAL =      3.65 TIME LEFT: 172796.34
 STEP:  91 TIME =     0.04 SECS, INTEGRAL =      3.69 TIME LEFT: 172796.30
 STEP:  92 TIME =     0.04 SECS, INTEGRAL =      3.73 TIME LEFT: 172796.26
 STEP:  93 TIME =     0.04 SECS, INTEGRAL =      3.77 TIME LEFT: 172796.22
 STEP:  94 TIME =     0.04 SECS, INTEGRAL =      3.81 TIME LEFT: 172796.18
 STEP:  95 TIME =     0.04 SECS, INTEGRAL =      3.85 TIME LEFT: 172796.14
 STEP:  96 TIME =     0.04 SECS, INTEGRAL =      3.89 TIME LEFT: 172796.10
 STEP:  97 TIME =     0.05 SECS, INTEGRAL =      3.94 TIME LEFT: 172796.05
 STEP:  98 TIME =     0.04 SECS, INTEGRAL =      3.98 TIME LEFT: 172796.01
 STEP:  99 TIME =     0.04 SECS, INTEGRAL =      4.02 TIME LEFT: 172795.97
 STEP: 100 TIME =     0.04 SECS, INTEGRAL =      4.06 TIME LEFT: 172795.93
 STEP: 101 TIME =     0.04 SECS, INTEGRAL =      4.10 TIME LEFT: 172795.89
 STEP: 102 TIME =     0.04 SECS, INTEGRAL =      4.14 TIME LEFT: 172795.84

(To convert to Hartree/Bohr^2, multiply by (10^(-21) x N x a0^2)/(4.184 x 627.51) =  0.0642)


           FORCE MATRIX IN MILLIDYNES/ANGSTROM


                  C  1       C  2       C  3       C  4       C  5       C  6
 ------------------------------------------------------------------------------
     C    1  15.412413
     C    2   4.576757  15.474271
     C    3   4.247299   0.523876  14.776258
     C    4   4.872376   4.908231   0.535396  15.322395
     C    5   0.542830   4.545391   0.046147   0.542552  14.509227
     C    6   0.022317   0.652155   0.003317   0.053606   4.128506  14.303128
     C    7   0.009176   0.000895   0.142486   0.001905   0.000839   0.000666
     C    8   0.681183   0.050448   4.091111   0.019606   0.009902   0.000802
     C    9   0.003022   0.045263   0.001399   0.001986   0.634904   4.466780
     C   10   0.001358   0.000714   0.020266   0.000918   0.001465   0.012689
     C   11   0.649018   0.022982   4.594742   0.052322   0.003794   0.003447
     C   12   0.066975   0.008852   0.752390   0.004565   0.003410   0.014218
     H   13   4.496998   0.446064   0.430744   0.441335   0.023062   0.005053
     H   14   0.447996   4.513469   0.022781   0.440712   0.423046   0.016471
     H   15   0.434008   0.026124   4.167896   0.036774   0.000951   0.000234
     H   16   0.456200   0.464503   0.043505   4.818330   0.024387   0.004019
     H   17   0.463983   0.456270   0.024923   4.814651   0.044017   0.008787
     H   18   0.003726   0.050014   0.000731   0.008571   0.431952   4.464747
     H   19   0.005712   0.030921   0.002135   0.003750   0.443974   4.346407
     H   20   0.048496   0.428734   0.008429   0.012336   4.450190   0.450838
     H   21   0.023338   0.454045   0.001317   0.030782   4.430384   0.432414
     H   22   0.000749   0.000371   0.002647   0.000420   0.000190   0.000184
     H   23   0.001046   0.000513   0.019122   0.000389   0.000291   0.000241
     H   24   0.000687   0.002546   0.000567   0.000742   0.052361   0.450694
     H   25   0.000702   0.002065   0.000470   0.000500   0.020585   0.464708
     H   26   0.001495   0.018504   0.000830   0.001243   0.016892   0.464998
     H   27   0.000430   0.000363   0.000934   0.000419   0.000614   0.007992
     H   28   0.000185   0.000161   0.000827   0.000268   0.000523   0.004943
     H   29   0.000473   0.000346   0.003421   0.000314   0.000350   0.000722
     H   30   0.022609   0.002010   0.466840   0.002318   0.000712   0.000131
     H   31   0.051028   0.008379   0.454735   0.002594   0.001997   0.000175
     H   32   0.023238   0.002826   0.459425   0.004000   0.000660   0.000189
     H   33   0.030903   0.004387   0.083175   0.003582   0.001439   0.012236
     H   34   0.035693   0.003579   0.430269   0.005827   0.000699   0.000616


                  C  7       C  8       C  9       C 10       C 11       C 12
 ------------------------------------------------------------------------------
     C    7  14.678817
     C    8   0.021639  14.322310
     C    9   0.000987   0.000827  14.330997
     C   10   4.385211   0.002227   0.007904  14.305433
     C   11   0.821322   0.699773   0.000679   0.038452  18.037405
     C   12   4.953100   0.036000   0.003599   0.729346  10.709991  18.139120
     H   13   0.002134   0.027410   0.000966   0.000448   0.011305   0.024915
     H   14   0.000557   0.003613   0.017321   0.000341   0.004701   0.001257
     H   15   0.011191   0.424467   0.000171   0.002425   0.410299   0.045822
     H   16   0.000283   0.002252   0.000497   0.000230   0.008396   0.000721
     H   17   0.000390   0.003486   0.000562   0.000137   0.004033   0.000651
     H   18   0.000317   0.000352   0.437516   0.000988   0.000485   0.001842
     H   19   0.004599   0.000900   0.438406   0.004834   0.004965   0.012979
     H   20   0.000294   0.002222   0.029814   0.000238   0.000796   0.000909
     H   21   0.000337   0.000544   0.049271   0.000231   0.000586   0.000338
     H   22   4.442580   0.000709   0.000148   0.435816   0.050031   0.461840
     H   23   4.433316   0.003687   0.000331   0.447542   0.035015   0.411216
     H   24   0.000449   0.000339   4.718442   0.007945   0.000257   0.000675
     H   25   0.000403   0.000214   4.727469   0.000456   0.000439   0.000782
     H   26   0.000416   0.000357   4.699206   0.001514   0.001133   0.000796
     H   27   0.460975   0.000349   0.006398   4.676455   0.002577   0.018393
     H   28   0.464354   0.000227   0.000748   4.711309   0.001995   0.028010
     H   29   0.450882   0.000258   0.001017   4.760457   0.006382   0.052067
     H   30   0.000896   4.725507   0.000137   0.000305   0.019974   0.003738
     H   31   0.000821   4.754047   0.000175   0.000290   0.024672   0.002623
     H   32   0.003883   4.747463   0.000234   0.000269   0.048864   0.002731
     H   33   0.429140   0.014151   0.001166   0.022781   0.472668   4.722831
     H   34   0.087768   0.015264   0.000490   0.010087   4.764322   0.470979


                  H 13       H 14       H 15       H 16       H 17       H 18
 ------------------------------------------------------------------------------
     H   13   5.028434
     H   14   0.035267   5.038851
     H   15   0.038449   0.016131   4.617119
     H   16   0.021603   0.039079   0.001578   5.428300
     H   17   0.038922   0.021147   0.024464   0.492772   5.426139
     H   18   0.000677   0.001959   0.000097   0.000842   0.001656   5.064845
     H   19   0.003493   0.002724   0.000279   0.000514   0.000653   0.558321
     H   20   0.003817   0.028475   0.000312   0.001927   0.002103   0.019365
     H   21   0.016842   0.040875   0.000499   0.019846   0.001442   0.038140
     H   22   0.000548   0.000241   0.000382   0.000046   0.000113   0.000126
     H   23   0.000335   0.000225   0.000941   0.000100   0.000079   0.000086
     H   24   0.000246   0.001367   0.000084   0.000177   0.000198   0.030840
     H   25   0.000384   0.000618   0.000077   0.000084   0.000113   0.025831
     H   26   0.000482   0.022761   0.000165   0.000394   0.000237   0.049460
     H   27   0.000224   0.000289   0.000136   0.000081   0.000080   0.000302
     H   28   0.000278   0.000130   0.000086   0.000048   0.000046   0.000455
     H   29   0.000147   0.000132   0.000519   0.000087   0.000055   0.000167
     H   30   0.019986   0.000575   0.046585   0.000348   0.000557   0.000065
     H   31   0.002037   0.000813   0.029156   0.000335   0.000493   0.000086
     H   32   0.002562   0.000448   0.029012   0.000435   0.003703   0.000120
     H   33   0.030235   0.001130   0.004209   0.000544   0.000846   0.000616
     H   34   0.001277   0.001604   0.036504   0.001298   0.000610   0.000238


                  H 19       H 20       H 21       H 22       H 23       H 24
 ------------------------------------------------------------------------------
     H   19   4.956378
     H   20   0.044542   5.054974
     H   21   0.020700   0.565712   5.035710
     H   22   0.000424   0.000056   0.000101   5.053977
     H   23   0.000426   0.000127   0.000088   0.566766   5.032786
     H   24   0.032266   0.002740   0.008543   0.000121   0.000227   5.457687
     H   25   0.047914   0.021131   0.002150   0.000097   0.000113   0.568716
     H   26   0.024419   0.002239   0.002060   0.000151   0.000173   0.578097
     H   27   0.015898   0.000208   0.000190   0.024075   0.048593   0.012169
     H   28   0.007376   0.000159   0.000101   0.048066   0.023808   0.000475
     H   29   0.000791   0.000124   0.000074   0.030028   0.027673   0.000306
     H   30   0.000169   0.000148   0.000161   0.000157   0.000174   0.000055
     H   31   0.000209   0.000475   0.000114   0.000133   0.000181   0.000071
     H   32   0.000260   0.000175   0.000090   0.000211   0.000868   0.000089
     H   33   0.017864   0.000578   0.000497   0.039171   0.021234   0.000353
     H   34   0.000673   0.000153   0.000183   0.029948   0.009863   0.000178


                  H 25       H 26       H 27       H 28       H 29       H 30
 ------------------------------------------------------------------------------
     H   25   5.466927
     H   26   0.575626   5.437408
     H   27   0.000809   0.004057   5.411692
     H   28   0.000234   0.000189   0.582507   5.455819
     H   29   0.000184   0.000273   0.564019   0.569019   5.490625
     H   30   0.000036   0.000061   0.000078   0.000048   0.000123   5.463062
     H   31   0.000042   0.000092   0.000090   0.000059   0.000130   0.572626
     H   32   0.000057   0.000091   0.000117   0.000074   0.000072   0.569256
     H   33   0.000419   0.000431   0.002833   0.017893   0.001921   0.004257
     H   34   0.000213   0.000316   0.000569   0.000590   0.001945   0.001964


                  H 31       H 32       H 33       H 34
 ------------------------------------------------------
     H   31   5.488082
     H   32   0.565430   5.478260
     H   33   0.000755   0.002725   5.096521
     H   34   0.003878   0.002267   0.109397   5.129355


          HEAT OF FORMATION =      -8.976301 KCALS/MOLE

          ZERO POINT ENERGY     193.730 KCAL/MOL


           NORMAL COORDINATE ANALYSIS (Total motion = 1 Angstrom)


   Root No.       1         2         3         4         5         6         7         8

                 1 A       2 A       3 A       4 A       5 A       6 A       7 A       8 A   

                  35.2      36.8      55.2      70.3      81.1     104.5     124.1     168.7
  
           1   -0.0021   -0.0051   -0.0052   -0.0079    0.0038   -0.0047   -0.0029   -0.0021
           2    0.0007    0.0029    0.0009   -0.0018    0.0009    0.0011    0.0058   -0.0084
           3    0.0124   -0.0047   -0.0045   -0.0064    0.0080    0.0041    0.0189   -0.0046
           4   -0.0021   -0.0050   -0.0051   -0.0079    0.0040   -0.0045   -0.0024   -0.0020
           5   -0.0132    0.0061    0.0052   -0.0010    0.0042    0.0049    0.0068   -0.0008
           6   -0.0028    0.0142    0.0085    0.0151   -0.0118   -0.0084    0.0106   -0.0009
           7    0.0120   -0.0083   -0.0100   -0.0070   -0.0017   -0.0052   -0.0068   -0.0009
           8    0.0085    0.0011   -0.0019   -0.0012   -0.0023    0.0008    0.0046   -0.0082
           9    0.0045   -0.0014   -0.0043   -0.0070    0.0050   -0.0055    0.0000    0.0043
          10   -0.0186    0.0113    0.0068    0.0100   -0.0114   -0.0145   -0.0100    0.0037
          11   -0.0230    0.0185    0.0095    0.0090   -0.0013   -0.0169   -0.0038    0.0020
          12    0.0107   -0.0001   -0.0002    0.0008   -0.0007    0.0049    0.0184   -0.0051
          13   -0.0028   -0.0112   -0.0100   -0.0147    0.0175    0.0044    0.0099    0.0008
          14   -0.0073   -0.0025    0.0025   -0.0070    0.0047    0.0205    0.0057    0.0027
          15    0.0052    0.0090    0.0097    0.0136   -0.0232    0.0034   -0.0017    0.0003
          16    0.0114    0.0009    0.0098    0.0061    0.0050   -0.0235    0.0250   -0.0047
          17    0.0126   -0.0075    0.0159   -0.0043   -0.0181    0.0240   -0.0146    0.0082
          18   -0.0016    0.0091    0.0042    0.0107   -0.0157    0.0052    0.0020   -0.0006
          19   -0.0159   -0.0071   -0.0007    0.0258   -0.0012    0.0234    0.0008    0.0091
          20   -0.0165   -0.0155    0.0086    0.0026    0.0141   -0.0088    0.0083    0.0124
          21    0.0087    0.0021   -0.0058   -0.0062    0.0029   -0.0028   -0.0025    0.0034
          22    0.0194   -0.0031   -0.0114   -0.0052    0.0051   -0.0019   -0.0005    0.0045
          23    0.0269    0.0012   -0.0084    0.0014   -0.0094    0.0007   -0.0049    0.0071
          24   -0.0258   -0.0170    0.0025   -0.0138   -0.0129   -0.0147   -0.0144   -0.0164
          25    0.0125    0.0122    0.0552   -0.0153   -0.0005   -0.0009    0.0156    0.0023
          26    0.0164   -0.0174   -0.0226    0.0194   -0.0183   -0.0016   -0.0071    0.0017
          27   -0.0261    0.0063   -0.0138   -0.0087    0.0102    0.0284    0.0082    0.0002
          28   -0.0077    0.0297   -0.0258   -0.0008   -0.0171    0.0197    0.0042    0.0059
          29   -0.0023    0.0291   -0.0123   -0.0177    0.0217   -0.0214   -0.0211    0.0015
          30    0.0074   -0.0162    0.0125    0.0145    0.0273   -0.0058   -0.0241    0.0007
          31   -0.0088   -0.0241   -0.0070   -0.0127   -0.0231   -0.0099   -0.0173   -0.0032
          32    0.0008   -0.0057    0.0017    0.0000    0.0008    0.0017    0.0139   -0.0176
          33    0.0082    0.0017   -0.0060   -0.0077    0.0030   -0.0057   -0.0049    0.0086
          34    0.0007    0.0038    0.0009    0.0308    0.0215    0.0152   -0.0240   -0.0190
          35   -0.0077   -0.0121    0.0046   -0.0004    0.0038   -0.0023    0.0148   -0.0079
          36    0.0041    0.0002   -0.0037   -0.0045    0.0081   -0.0059   -0.0052    0.0128
          37   -0.0043   -0.0112   -0.0079   -0.0170    0.0132    0.0016    0.0006   -0.0013
          38    0.0139   -0.0048   -0.0042   -0.0070    0.0027    0.0093    0.0128   -0.0141
          39    0.0283   -0.0205   -0.0137   -0.0216    0.0187    0.0211    0.0312   -0.0120
          40    0.0066   -0.0069   -0.0073   -0.0091    0.0017   -0.0075   -0.0039   -0.0074
          41   -0.0181    0.0075    0.0065    0.0001    0.0050    0.0059    0.0071    0.0022
          42   -0.0221    0.0322    0.0184    0.0309   -0.0203   -0.0289    0.0028    0.0046
          43    0.0342   -0.0027   -0.0157   -0.0030    0.0035   -0.0003   -0.0018    0.0085
          44    0.0075    0.0076   -0.0017   -0.0005    0.0017   -0.0006    0.0001   -0.0014
          45    0.0194    0.0088   -0.0081   -0.0035    0.0123   -0.0034   -0.0007    0.0170
          46   -0.0317    0.0176    0.0126    0.0152   -0.0126   -0.0150   -0.0097    0.0096
          47   -0.0270    0.0219    0.0110    0.0114   -0.0022   -0.0219   -0.0064    0.0036
          48    0.0251   -0.0120   -0.0056   -0.0079    0.0024    0.0221    0.0272   -0.0108
          49   -0.0219    0.0210    0.0130    0.0227   -0.0257   -0.0239   -0.0175    0.0033
          50   -0.0350    0.0285    0.0140    0.0162   -0.0040   -0.0314   -0.0116    0.0069
          51    0.0021    0.0072    0.0031    0.0061   -0.0027   -0.0056    0.0127   -0.0016
          52    0.0177   -0.0038   -0.0245    0.0388    0.0036   -0.0617    0.0438   -0.0143
          53    0.0210   -0.0117    0.0130    0.0014   -0.0269    0.0197   -0.0217    0.0089
          54    0.0077    0.0051    0.0162    0.0036   -0.0280    0.0172   -0.0172    0.0051
          55    0.0150    0.0064    0.0233    0.0071    0.0016   -0.0259    0.0263   -0.0052
          56    0.0173    0.0007    0.0603   -0.0272   -0.0275    0.0499   -0.0332    0.0161
          57    0.0036    0.0160    0.0019    0.0314   -0.0171   -0.0220    0.0203   -0.0082
          58   -0.0074   -0.0150   -0.0167   -0.0209    0.0219    0.0133    0.0060    0.0023
          59   -0.0203   -0.0109   -0.0148   -0.0208    0.0279    0.0375    0.0156    0.0056
          60   -0.0003    0.0034    0.0009    0.0045   -0.0215    0.0173   -0.0143    0.0025
          61   -0.0100   -0.0208   -0.0236   -0.0275    0.0338    0.0228    0.0148    0.0046
          62   -0.0046    0.0025    0.0088   -0.0008   -0.0028    0.0112    0.0032    0.0007
          63    0.0231    0.0093    0.0239    0.0225   -0.0410   -0.0026   -0.0066    0.0011
          64   -0.0360   -0.0559    0.0249    0.0507    0.0005    0.0318    0.0205    0.0356
          65   -0.0135   -0.0101    0.0057   -0.0001    0.0132   -0.0092    0.0066    0.0077
          66    0.0165    0.0037   -0.0079   -0.0075   -0.0041    0.0023    0.0026   -0.0161
          67   -0.0142    0.0064   -0.0109    0.0146   -0.0099    0.0228    0.0050    0.0110
          68   -0.0382   -0.0593    0.0319    0.0246    0.0178   -0.0036    0.0239    0.0460
          69    0.0054    0.0165   -0.0194   -0.0221   -0.0135   -0.0023    0.0104    0.0171
          70    0.0159    0.0187    0.0427    0.0115   -0.0152   -0.0307    0.0580    0.0117
          71    0.0365   -0.0190    0.0145    0.0085   -0.0305    0.0092   -0.0561   -0.0064
          72   -0.0315    0.0063   -0.0227   -0.0075    0.0143    0.0275    0.0183    0.0017
          73    0.0113    0.0081    0.0487   -0.0179    0.0045    0.0024    0.0066   -0.0015
          74    0.0099   -0.0266   -0.0811    0.0492   -0.0121   -0.0337    0.0259   -0.0011
          75   -0.0238    0.0021    0.0211   -0.0445    0.0198    0.0685   -0.0509   -0.0091
          76    0.0110    0.0186    0.1106   -0.0568    0.0045    0.0449   -0.0255    0.0030
          77    0.0059   -0.0143   -0.0318    0.0194   -0.0126   -0.0013    0.0147    0.0071
          78   -0.0425    0.0083   -0.0548    0.0106    0.0174    0.0078    0.0634    0.0087
          79   -0.0098    0.0159   -0.0150    0.0099   -0.0107    0.0221   -0.0001    0.0017
          80    0.0149    0.0658   -0.0289   -0.0413   -0.0017   -0.0097   -0.0411   -0.0668
          81    0.0087   -0.0341    0.0309    0.0300    0.0336    0.0034   -0.0407   -0.0320
          82    0.0093    0.0743   -0.0479   -0.0272   -0.0318    0.0221   -0.0174   -0.0419
          83   -0.0048    0.0250   -0.0104   -0.0144    0.0270   -0.0247   -0.0195    0.0152
          84    0.0032   -0.0120    0.0093    0.0180    0.0514   -0.0250   -0.0278    0.0555
          85   -0.0161    0.0283   -0.0346   -0.0063   -0.0213    0.0123    0.0327    0.0551
          86   -0.0060    0.0312   -0.0136   -0.0131    0.0447   -0.0386   -0.0266    0.0487
          87    0.0092   -0.0173    0.0133    0.0122    0.0159    0.0028   -0.0216   -0.0228
          88   -0.0004   -0.0079   -0.0063   -0.0088    0.0017   -0.0062   -0.0077    0.0192
          89    0.0259   -0.0058   -0.0081   -0.0002   -0.0167    0.0004    0.0045   -0.0746
          90   -0.0433   -0.0282    0.0070   -0.0186   -0.0233   -0.0187   -0.0110   -0.0871
          91    0.0293   -0.0053   -0.0148   -0.0042   -0.0009   -0.0018   -0.0015   -0.0173
          92    0.0326    0.0001   -0.0105    0.0020   -0.0129    0.0006   -0.0063   -0.0017
          93   -0.0280   -0.0146    0.0017   -0.0133   -0.0147   -0.0182   -0.0360    0.0812
          94    0.0355    0.0079   -0.0143   -0.0011    0.0204    0.0051    0.0131    0.0151
          95    0.0364    0.0094   -0.0118    0.0046   -0.0044    0.0009   -0.0205    0.1106
          96   -0.0304   -0.0209    0.0040   -0.0153   -0.0155   -0.0150   -0.0079   -0.0618
          97    0.0230    0.0389    0.0060    0.0703    0.0757    0.0300   -0.0350   -0.0457
          98   -0.0097   -0.0146    0.0044   -0.0031    0.0002   -0.0038    0.0153   -0.0051
          99   -0.0032   -0.0019   -0.0003   -0.0006    0.0166   -0.0094   -0.0081    0.0265
         100   -0.0326   -0.0610   -0.0124   -0.0553   -0.0806   -0.0305   -0.0088    0.0199
         101    0.0024   -0.0033    0.0020    0.0026    0.0044    0.0029    0.0132   -0.0185
         102    0.0140    0.0050   -0.0094   -0.0116   -0.0038   -0.0058   -0.0080    0.0092


   Root No.       9        10        11        12        13        14        15        16

                 9 A      10 A      11 A      12 A      13 A      14 A      15 A      16 A   

                 174.6     181.5     196.6     212.4     316.8     327.0     346.1     385.2
  
           1   -0.0064    0.0021   -0.0197   -0.0042   -0.0060    0.0147   -0.0114   -0.0017
           2   -0.0046    0.0060   -0.0178   -0.0120    0.0146    0.0240   -0.0082   -0.0029
           3   -0.0084    0.0058   -0.0040   -0.0043    0.0056   -0.0176   -0.0235    0.0226
           4   -0.0062    0.0023   -0.0182   -0.0043   -0.0089    0.0166   -0.0132   -0.0030
           5   -0.0006   -0.0005   -0.0002   -0.0015    0.0187   -0.0010   -0.0238   -0.0129
           6   -0.0061    0.0025    0.0128   -0.0007    0.0005   -0.0210   -0.0153   -0.0004
           7    0.0005   -0.0008   -0.0063   -0.0016   -0.0048   -0.0050    0.0022    0.0126
           8   -0.0009    0.0049   -0.0088   -0.0108    0.0115    0.0127    0.0009    0.0011
           9   -0.0071   -0.0031   -0.0052    0.0047   -0.0076   -0.0065    0.0017    0.0120
          10   -0.0044   -0.0029   -0.0010    0.0024   -0.0157    0.0040   -0.0113   -0.0305
          11   -0.0134   -0.0045   -0.0049    0.0043    0.0022   -0.0178    0.0018    0.0319
          12   -0.0036    0.0068    0.0034   -0.0066    0.0075   -0.0094   -0.0285   -0.0022
          13   -0.0007    0.0010    0.0160    0.0020   -0.0189   -0.0111   -0.0095   -0.0035
          14    0.0110   -0.0037    0.0113    0.0016    0.0123   -0.0032   -0.0075   -0.0138
          15    0.0025    0.0007   -0.0046   -0.0039    0.0007    0.0066    0.0025   -0.0006
          16   -0.0010    0.0076    0.0264   -0.0019    0.0074    0.0165    0.0211    0.0066
          17    0.0128   -0.0100   -0.0127    0.0033   -0.0073   -0.0050    0.0077    0.0102
          18    0.0024    0.0016    0.0012   -0.0037    0.0032    0.0054   -0.0010   -0.0052
          19   -0.0076   -0.0043   -0.0001    0.0099    0.0104    0.0081   -0.0090    0.0013
          20   -0.0117   -0.0015   -0.0014    0.0178   -0.0138    0.0064    0.0012    0.0055
          21   -0.0071   -0.0039   -0.0089    0.0053   -0.0058   -0.0065    0.0232   -0.0288
          22   -0.0086   -0.0046   -0.0141    0.0043    0.0052   -0.0118    0.0073    0.0156
          23    0.0142   -0.0061    0.0328    0.0020   -0.0221    0.0107   -0.0148   -0.0026
          24    0.0130    0.0112    0.0016   -0.0163   -0.0213    0.0102   -0.0075    0.0113
          25    0.0159   -0.0021    0.0040    0.0024    0.0006    0.0047    0.0106    0.0046
          26   -0.0051   -0.0008    0.0055   -0.0012   -0.0014    0.0039    0.0129    0.0092
          27    0.0137   -0.0000    0.0154   -0.0008    0.0032    0.0160    0.0300    0.0157
          28   -0.0096   -0.0039   -0.0033    0.0003    0.0020    0.0007    0.0040   -0.0097
          29    0.0090   -0.0033    0.0049    0.0042    0.0105    0.0040   -0.0058    0.0019
          30    0.0076   -0.0056   -0.0018    0.0093    0.0188    0.0006    0.0056   -0.0232
          31    0.0153    0.0005    0.0111   -0.0008    0.0293   -0.0216    0.0060    0.0023
          32   -0.0040    0.0145   -0.0100   -0.0138   -0.0049   -0.0146    0.0143   -0.0084
          33   -0.0055   -0.0077   -0.0052    0.0064    0.0001    0.0069    0.0002    0.0058
          34    0.0162    0.0081    0.0022   -0.0129   -0.0004   -0.0149    0.0022    0.0086
          35   -0.0092    0.0110   -0.0084    0.0002   -0.0145   -0.0190    0.0275   -0.0279
          36   -0.0082   -0.0094   -0.0051    0.0133   -0.0061    0.0054    0.0076   -0.0068
          37   -0.0073    0.0037   -0.0274   -0.0044   -0.0020    0.0199   -0.0242   -0.0013
          38   -0.0012    0.0106   -0.0208   -0.0191    0.0240    0.0320   -0.0164   -0.0045
          39   -0.0048    0.0140   -0.0166   -0.0149    0.0228    0.0001   -0.0458    0.0202
          40   -0.0106    0.0070   -0.0398   -0.0125   -0.0054    0.0410   -0.0117    0.0046
          41    0.0014   -0.0032    0.0121    0.0031    0.0161   -0.0153   -0.0240   -0.0164
          42   -0.0149   -0.0032    0.0241    0.0086   -0.0090   -0.0520   -0.0125    0.0094
          43   -0.0023   -0.0088    0.0042    0.0079   -0.0134   -0.0156    0.0016    0.0193
          44   -0.0051    0.0020   -0.0174   -0.0077    0.0139    0.0286    0.0019   -0.0001
          45   -0.0130   -0.0113   -0.0067    0.0138   -0.0113    0.0026    0.0021    0.0155
          46   -0.0023   -0.0079    0.0157    0.0108   -0.0145   -0.0202   -0.0278   -0.0469
          47   -0.0164   -0.0063   -0.0046    0.0071   -0.0017   -0.0258    0.0079    0.0465
          48    0.0066    0.0131    0.0017   -0.0164    0.0209    0.0181   -0.0479   -0.0487
          49   -0.0043   -0.0030    0.0010    0.0007   -0.0256    0.0163    0.0060   -0.0463
          50   -0.0219   -0.0099   -0.0039    0.0126   -0.0087   -0.0413    0.0185    0.0724
          51   -0.0096    0.0030    0.0042   -0.0008   -0.0003   -0.0257   -0.0168    0.0255
          52   -0.0169    0.0204    0.0528   -0.0080    0.0302    0.0386    0.0348    0.0000
          53    0.0066   -0.0103   -0.0182    0.0024   -0.0155   -0.0094    0.0046    0.0134
          54    0.0011   -0.0049   -0.0194   -0.0021   -0.0193   -0.0107   -0.0109    0.0030
          55    0.0030    0.0075    0.0235   -0.0011    0.0125    0.0191    0.0221    0.0051
          56    0.0273   -0.0210   -0.0422    0.0094   -0.0247   -0.0228   -0.0044    0.0160
          57    0.0002    0.0105    0.0180   -0.0063    0.0300    0.0263    0.0116   -0.0127
          58   -0.0002   -0.0006    0.0152    0.0031   -0.0263   -0.0190   -0.0183   -0.0093
          59    0.0135   -0.0052    0.0473    0.0084   -0.0039   -0.0463   -0.0269   -0.0332
          60    0.0023   -0.0024   -0.0194   -0.0040   -0.0101    0.0045   -0.0094   -0.0052
          61    0.0044   -0.0017    0.0426    0.0082   -0.0367   -0.0461   -0.0216   -0.0172
          62    0.0078   -0.0023   -0.0020   -0.0014    0.0209    0.0131   -0.0033   -0.0079
          63    0.0069   -0.0003   -0.0141   -0.0052    0.0033    0.0266    0.0331    0.0199
          64   -0.0262   -0.0146    0.0001    0.0338    0.0080    0.0351   -0.0314    0.0251
          65   -0.0095    0.0008   -0.0020    0.0140   -0.0140    0.0014    0.0058    0.0007
          66   -0.0051    0.0093   -0.0151   -0.0069   -0.0149   -0.0311    0.0506   -0.0566
          67   -0.0111   -0.0056   -0.0018    0.0083    0.0077    0.0076   -0.0044   -0.0049
          68   -0.0298   -0.0173    0.0016    0.0451   -0.0110    0.0430   -0.0320    0.0397
          69   -0.0196   -0.0111   -0.0115    0.0104   -0.0099    0.0033    0.0228   -0.0320
          70    0.1053   -0.0197   -0.0556    0.0265   -0.0095   -0.0145   -0.0190   -0.0106
          71   -0.1016    0.0158    0.0448   -0.0279    0.0068    0.0059   -0.0012   -0.0055
          72    0.0333   -0.0033    0.0090    0.0047    0.0017    0.0170    0.0362    0.0209
          73   -0.0110    0.0044    0.0246   -0.0049    0.0046    0.0123    0.0212    0.0093
          74    0.0267    0.0004    0.0039    0.0083    0.0009    0.0123    0.0241    0.0142
          75   -0.0998    0.0193    0.0808   -0.0325    0.0136    0.0325    0.0533    0.0264
          76   -0.0340    0.0004    0.0249   -0.0120    0.0007    0.0052    0.0192    0.0123
          77    0.0454   -0.0109   -0.0176    0.0128   -0.0071    0.0008    0.0189    0.0173
          78    0.1202   -0.0178   -0.0322    0.0289   -0.0060    0.0111    0.0368    0.0257
          79   -0.0073    0.0009   -0.0017    0.0133    0.0084    0.0052   -0.0035   -0.0059
          80    0.0101    0.0621    0.0054    0.1079    0.0131    0.0117   -0.0126    0.0035
          81    0.0125    0.0275    0.0020    0.0735    0.0344    0.0131   -0.0132   -0.0147
          82   -0.0025    0.0374   -0.0014    0.0606    0.0104    0.0036   -0.0001   -0.0127
          83    0.0105   -0.0176    0.0053   -0.0192    0.0127    0.0023   -0.0051    0.0008
          84    0.0215   -0.0678    0.0020   -0.0989    0.0368   -0.0088    0.0077   -0.0313
          85   -0.0208   -0.0492   -0.0091   -0.0804   -0.0216   -0.0126    0.0265   -0.0173
          86    0.0226   -0.0574    0.0092   -0.0893    0.0293   -0.0034   -0.0062   -0.0042
          87    0.0009    0.0214   -0.0039    0.0561    0.0100    0.0044    0.0056   -0.0204
          88    0.0001    0.0438   -0.0316   -0.0154    0.0139   -0.0047    0.0113    0.0188
          89    0.0032   -0.1075    0.0496    0.0140   -0.0363    0.0192   -0.0226   -0.0053
          90    0.0092   -0.0513    0.0038   -0.0208   -0.0285    0.0248   -0.0121    0.0115
          91   -0.0048   -0.0490    0.0155    0.0164   -0.0210   -0.0089   -0.0069    0.0118
          92    0.0176   -0.0269    0.0504    0.0083   -0.0384    0.0126   -0.0237   -0.0049
          93    0.0426    0.1353    0.0058   -0.0342   -0.0337    0.0104   -0.0147    0.0117
          94   -0.0290   -0.0127   -0.0335    0.0171    0.0340   -0.0288    0.0234    0.0190
          95    0.0351    0.1081    0.0352   -0.0059   -0.0269    0.0021   -0.0173   -0.0029
          96    0.0045   -0.0382    0.0011   -0.0133   -0.0205    0.0147   -0.0072    0.0114
          97    0.0230    0.0216   -0.0075   -0.0381   -0.0552   -0.0113    0.0052    0.0267
          98   -0.0098    0.0094   -0.0074    0.0026   -0.0105   -0.0183    0.0268   -0.0285
          99   -0.0120   -0.0171   -0.0017    0.0270   -0.0125    0.0161    0.0023   -0.0014
         100    0.0139   -0.0109    0.0263    0.0212    0.0984   -0.0337    0.0081   -0.0187
         101   -0.0039    0.0149   -0.0109   -0.0149   -0.0089   -0.0132    0.0139   -0.0069
         102   -0.0024   -0.0107   -0.0052    0.0024    0.0162    0.0207   -0.0122    0.0188


   Root No.      17        18        19        20        21        22        23        24

                17 A      18 A      19 A      20 A      21 A      22 A      23 A      24 A   

                 417.3     452.6     496.4     502.8     644.6     801.5     815.3     840.2
  
           1    0.0004   -0.0152    0.0108   -0.0041    0.0004    0.0079    0.0000   -0.0044
           2   -0.0150    0.0107    0.0070    0.0195   -0.0086    0.0082   -0.0051   -0.0146
           3   -0.0014   -0.0223    0.0032   -0.0035   -0.0063    0.0092    0.0034    0.0032
           4   -0.0053   -0.0204    0.0155   -0.0002    0.0032   -0.0034    0.0010    0.0035
           5    0.0328   -0.0119   -0.0073   -0.0037   -0.0027   -0.0142   -0.0035   -0.0046
           6   -0.0091    0.0061   -0.0180    0.0154   -0.0115    0.0053   -0.0020   -0.0089
           7    0.0136    0.0124   -0.0176   -0.0182   -0.0257    0.0004    0.0012   -0.0016
           8   -0.0144    0.0269   -0.0102    0.0132   -0.0084   -0.0066    0.0034    0.0194
           9    0.0086    0.0002    0.0014   -0.0006    0.0628    0.0022   -0.0078   -0.0073
          10    0.0041   -0.0036   -0.0173    0.0119    0.0185    0.0086    0.0034    0.0069
          11   -0.0112   -0.0083    0.0131   -0.0065   -0.0128   -0.0011   -0.0019   -0.0062
          12   -0.0020   -0.0084   -0.0115    0.0156   -0.0106    0.0049    0.0000   -0.0035
          13   -0.0312    0.0115    0.0119    0.0060   -0.0014   -0.0177   -0.0019    0.0028
          14    0.0258    0.0140    0.0088   -0.0195    0.0038    0.0043   -0.0010   -0.0091
          15   -0.0016    0.0085    0.0182   -0.0106    0.0003   -0.0003    0.0002    0.0005
          16   -0.0013   -0.0045   -0.0025    0.0023   -0.0005   -0.0167   -0.0041   -0.0068
          17   -0.0041   -0.0069   -0.0097    0.0069   -0.0004    0.0170    0.0040    0.0056
[...]
 REDUCED MASS        0.5886         C  2 -- C  4          +0.9% (  9.5%)     20.3%
 EFFECTIVE MASS      1.4401
 FORCE CONSTANT      3.1064

 VIBRATION         81   81A           ATOM PAIR      ENERGY CONTRIBUTION    RADIAL
 FREQUENCY          3017.33         C  6 -- H 18         +62.3% ( 78.1%)     99.2%
 TRANSITION DIPOLE   0.0914         C  6 -- H 19         +25.8% ( 50.2%)     93.4%
 TRAVEL (Ang.)       0.2233         C  5 -- H 20          +4.4% ( 20.7%)     99.2%
 REDUCED MASS        0.4483         C 12 -- H 33          +3.9% ( 19.7%)    100.0%
 EFFECTIVE MASS      1.2970
 FORCE CONSTANT      2.4046

 VIBRATION         82   82A           ATOM PAIR      ENERGY CONTRIBUTION    RADIAL
 FREQUENCY          3024.30         C 12 -- H 33         +73.7% ( 86.6%)    100.0%
 TRANSITION DIPOLE   0.2000         C  7 -- H 23         +11.2% ( 33.8%)     98.5%
 TRAVEL (Ang.)       0.2026         C  7 -- H 22          +7.7% ( 27.9%)     96.6%
 REDUCED MASS        0.5434         C  6 -- H 18          +1.4% ( 12.1%)     98.3%
 EFFECTIVE MASS      1.4645
 FORCE CONSTANT      2.9284

 VIBRATION         83   83A           ATOM PAIR      ENERGY CONTRIBUTION    RADIAL
 FREQUENCY          3026.78         C  5 -- H 20         +43.4% ( 64.9%)     98.1%
 TRANSITION DIPOLE   0.0397         C  5 -- H 21         +37.0% ( 60.0%)     97.2%
 TRAVEL (Ang.)       0.2589         C  7 -- H 22          +6.4% ( 25.0%)     98.0%
 REDUCED MASS        0.3323         C  7 -- H 23          +5.6% ( 23.4%)     97.3%
 EFFECTIVE MASS      1.2765
 FORCE CONSTANT      1.7938

 VIBRATION         84   84A           ATOM PAIR      ENERGY CONTRIBUTION    RADIAL
 FREQUENCY          3027.07         C  7 -- H 22         +34.3% ( 58.0%)     98.1%
 TRANSITION DIPOLE   0.1459         C  7 -- H 23         +28.5% ( 52.9%)     97.2%
 TRAVEL (Ang.)       0.3044         C 12 -- H 33         +18.5% ( 42.6%)    100.0%
 REDUCED MASS        0.2404         C  5 -- H 20          +5.8% ( 23.8%)     98.0%
 EFFECTIVE MASS      1.3099
 FORCE CONSTANT      1.2979

 VIBRATION         85   85A           ATOM PAIR      ENERGY CONTRIBUTION    RADIAL
 FREQUENCY          3033.57         C 11 -- H 34         +93.3% ( 97.9%)    100.0%
 TRANSITION DIPOLE   0.2190         C  7 -- H 22          +1.8% ( 13.6%)     98.8%
 TRAVEL (Ang.)       0.1610         C 11 -- C 12          +1.6% ( 12.7%)     38.5%
 REDUCED MASS        0.8576         C  3 -- C 11          +1.3% ( 11.6%)     13.6%
 EFFECTIVE MASS      1.5186
 FORCE CONSTANT      4.6499

 VIBRATION         86   86A           ATOM PAIR      ENERGY CONTRIBUTION    RADIAL
 FREQUENCY          3065.94         C 10 -- H 27         +63.3% ( 82.1%)     98.5%
 TRANSITION DIPOLE   0.0521         C 10 -- H 28         +31.2% ( 57.6%)     93.5%
 TRAVEL (Ang.)       0.2046         C 10 -- H 29          +2.8% ( 17.3%)     36.6%
 REDUCED MASS        0.5256         C  9 -- H 24          +1.0% ( 10.2%)     98.9%
 EFFECTIVE MASS      1.4995
 FORCE CONSTANT      2.9107

 VIBRATION         87   87A           ATOM PAIR      ENERGY CONTRIBUTION    RADIAL
 FREQUENCY          3072.27         C  9 -- H 26         +64.2% ( 82.7%)     98.8%
 TRANSITION DIPOLE   0.0092         C  9 -- H 24         +24.9% ( 51.5%)     90.6%
 TRAVEL (Ang.)       0.2078         C  9 -- H 25          +8.5% ( 30.0%)     70.0%
 REDUCED MASS        0.5081         C  6 -- C  9          +1.0% ( 10.2%)      0.0%
 EFFECTIVE MASS      1.5012
 FORCE CONSTANT      2.8255

 VIBRATION         88   88A           ATOM PAIR      ENERGY CONTRIBUTION    RADIAL
 FREQUENCY          3079.67         C  9 -- H 25         +55.5% ( 76.8%)     98.1%
 TRANSITION DIPOLE   0.0067         C  9 -- H 24         +39.2% ( 64.5%)     95.4%
 TRAVEL (Ang.)       0.2114         C  9 -- H 26          +2.8% ( 17.3%)     34.9%
 REDUCED MASS        0.4897         C  6 -- C  9          +1.0% ( 10.3%)      0.0%
 EFFECTIVE MASS      1.5035
 FORCE CONSTANT      2.7367

 VIBRATION         89   89A           ATOM PAIR      ENERGY CONTRIBUTION    RADIAL
 FREQUENCY          3080.94         C  8 -- H 30         +66.8% ( 84.3%)     99.0%
 TRANSITION DIPOLE   0.0111         C  8 -- H 32         +19.8% ( 45.9%)     87.4%
 TRAVEL (Ang.)       0.2034         C  8 -- H 31         +12.3% ( 36.1%)     78.6%
 REDUCED MASS        0.5292         C  3 -- C  8          +1.0% ( 10.3%)      0.0%
 EFFECTIVE MASS      1.5041
 FORCE CONSTANT      2.9594

 VIBRATION         90   90A           ATOM PAIR      ENERGY CONTRIBUTION    RADIAL
 FREQUENCY          3084.44         C 10 -- H 29         +56.2% ( 77.3%)     98.4%
 TRANSITION DIPOLE   0.0130         C 10 -- H 28         +33.2% ( 59.4%)     93.6%
 TRAVEL (Ang.)       0.2177         C 10 -- H 27          +8.4% ( 30.0%)     69.2%
 REDUCED MASS        0.4615         C  7 -- C 10          +1.0% ( 10.3%)      0.0%
 EFFECTIVE MASS      1.5034
 FORCE CONSTANT      2.5868

 VIBRATION         91   91A           ATOM PAIR      ENERGY CONTRIBUTION    RADIAL
 FREQUENCY          3087.00         C  8 -- H 31         +47.4% ( 71.0%)     97.6%
 TRANSITION DIPOLE   0.0421         C  8 -- H 32         +41.9% ( 66.8%)     96.5%
 TRAVEL (Ang.)       0.2256         C  4 -- H 17          +4.2% ( 21.1%)     97.3%
 REDUCED MASS        0.4293         C  4 -- H 16          +4.0% ( 20.6%)     97.0%
 EFFECTIVE MASS      1.5123
 FORCE CONSTANT      2.4106

 VIBRATION         92   92A           ATOM PAIR      ENERGY CONTRIBUTION    RADIAL
 FREQUENCY          3087.40         C  4 -- H 17         +45.2% ( 69.4%)     97.3%
 TRANSITION DIPOLE   0.1725         C  4 -- H 16         +43.8% ( 68.4%)     97.1%
 TRAVEL (Ang.)       0.2241         C  8 -- H 32          +4.2% ( 21.1%)     97.1%
 REDUCED MASS        0.4350         C  8 -- H 31          +4.1% ( 20.9%)     97.1%
 EFFECTIVE MASS      1.5477
 FORCE CONSTANT      2.4432

 VIBRATION         93   93A           ATOM PAIR      ENERGY CONTRIBUTION    RADIAL
 FREQUENCY          3128.86         C  4 -- H 16         +50.0% ( 70.3%)     96.5%
 TRANSITION DIPOLE   0.2054         C  4 -- H 17         +48.3% ( 69.1%)     96.2%
 TRAVEL (Ang.)       0.2109         C  2 -- C  4          +0.8% (  9.1%)     76.9%
 REDUCED MASS        0.4845         C  1 -- C  4          +0.8% (  9.1%)     76.7%
 EFFECTIVE MASS      1.3001
 FORCE CONSTANT      2.7948

 VIBRATION         94   94A           ATOM PAIR      ENERGY CONTRIBUTION    RADIAL
 FREQUENCY          3174.15         C 10 -- H 29         +28.6% ( 51.5%)     98.0%
 TRANSITION DIPOLE   0.0288         C 10 -- H 28         +23.4% ( 46.6%)     97.0%
 TRAVEL (Ang.)       0.3310         C 10 -- H 27         +17.4% ( 40.2%)     95.3%
 REDUCED MASS        0.1939         C  9 -- H 25         +10.9% ( 31.7%)     97.5%
 EFFECTIVE MASS      1.1386
 FORCE CONSTANT      1.1511

 VIBRATION         95   95A           ATOM PAIR      ENERGY CONTRIBUTION    RADIAL
 FREQUENCY          3175.63         C  9 -- H 25         +24.1% ( 47.2%)     97.3%
 TRANSITION DIPOLE   0.0253         C  9 -- H 24         +23.7% ( 46.8%)     97.2%
 TRAVEL (Ang.)       0.3347         C  9 -- H 26         +21.6% ( 44.7%)     96.7%
 REDUCED MASS        0.1896         C 10 -- H 29         +12.1% ( 33.4%)     97.9%
 EFFECTIVE MASS      1.1370
 FORCE CONSTANT      1.1265

 VIBRATION         96   96A           ATOM PAIR      ENERGY CONTRIBUTION    RADIAL
 FREQUENCY          3179.46         C  8 -- H 31         +35.8% ( 57.6%)     97.5%
 TRANSITION DIPOLE   0.0289         C  8 -- H 32         +33.3% ( 55.6%)     97.1%
 TRAVEL (Ang.)       0.2542         C  8 -- H 30         +30.6% ( 53.3%)     96.6%
 REDUCED MASS        0.3281         C  3 -- C  8          +0.3% (  5.0%)     99.6%
 EFFECTIVE MASS      1.1338
 FORCE CONSTANT      1.9544

      SYMMETRY NUMBER FOR POINT-GROUP C1  =  1


          SYSTEM IS A GROUND STATE



 InChI=1S/C12H22/c1-4-6-8-10(3)12-9-11(12)7-5-2/h6,8,10-12H,4-5,7,9H2,1-3H3


          MOLECULE IS NOT LINEAR

          THERE ARE 96 GENUINE VIBRATIONS IN THIS SYSTEM
          THIS THERMODYNAMICS CALCULATION IS LIMITED TO
          MOLECULES WHICH HAVE NO INTERNAL ROTATIONS




                    CALCULATED THERMODYNAMIC PROPERTIES
                                          *
   TEMP. (K)   PARTITION FUNCTION   H.O.F.    ENTHALPY  HEAT CAPACITY ENTROPY
                                   KCAL/MOL   CAL/MOLE    CAL/K/MOL  CAL/K/MOL


 298.00  VIB.     0.7024D+06                  7730.2641    49.0124    52.6927
         ROT.     0.1592D+07                   888.2803     2.9808    31.3592
         INT.     0.1118D+13                  8618.5444    51.9932    84.0520
         TRA.     0.2073D+28                  1480.4672     4.9680    41.2320
         TOT.                       -8.976   10099.0116    56.9612   125.2840

 200.00  VIB.     0.8478D+04                  3726.8470    33.3619    36.6090
         ROT.     0.8754D+06                   596.1613     2.9808    30.1705
         INT.     0.7422D+10                  4323.0083    36.3427    66.7796
         TRA.     0.1140D+28                   993.6021     4.9680    39.2509
         TOT.                      -13.759    5316.6104    41.3107   106.0304

 210.00  VIB.     0.1352D+05                  4067.4234    34.7611    38.2704
         ROT.     0.9418D+06                   625.9693     2.9808    30.3160
         INT.     0.1273D+11                  4693.3928    37.7419    68.5864
         TRA.     0.1227D+28                  1043.2822     4.9680    39.4932
         TOT.                      -13.339    5736.6750    42.7099   108.0796

 220.00  VIB.     0.2145D+05                  4422.2274    36.2078    39.9207
         ROT.     0.1010D+07                   655.7774     2.9808    30.4546
         INT.     0.2167D+11                  5078.0048    39.1886    70.3753
         TRA.     0.1315D+28                  1092.9623     4.9680    39.7244
         TOT.                      -12.904    6170.9672    44.1567   110.0997

 230.00  VIB.     0.3391D+05                  4791.7439    37.7037    41.5630
         ROT.     0.1080D+07                   685.5855     2.9808    30.5871
         INT.     0.3661D+11                  5477.3294    40.6845    72.1502
         TRA.     0.1406D+28                  1142.6424     4.9680    39.9452
         TOT.                      -12.455    6619.9718    45.6525   112.0954

 240.00  VIB.     0.5339D+05                  5176.4634    39.2482    43.2001
         ROT.     0.1151D+07                   715.3935     2.9808    30.7140
         INT.     0.6144D+11                  5891.8569    42.2291    73.9142
         TRA.     0.1499D+28                  1192.3226     4.9680    40.1566
         TOT.                      -11.991    7084.1795    47.1971   114.0708

 250.00  VIB.     0.8379D+05                  5576.8654    40.8397    44.8344
         ROT.     0.1223D+07                   745.2016     2.9808    30.8357
         INT.     0.1025D+12                  6322.0670    43.8206    75.6701
         TRA.     0.1593D+28                  1242.0027     4.9680    40.3594
         TOT.                      -11.511    7564.0696    48.7886   116.0296

 260.00  VIB.     0.1311D+06                  5993.4046    42.4751    46.4679
         ROT.     0.1298D+07                   775.0097     2.9808    30.9526
         INT.     0.1701D+12                  6768.4142    45.4559    77.4205
         TRA.     0.1690D+28                  1291.6828     4.9680    40.5543
         TOT.                      -11.015    8060.0970    50.4239   117.9748

 270.00  VIB.     0.2045D+06                  6426.5004    44.1503    48.1022
         ROT.     0.1373D+07                   804.8177     2.9808    31.0651
         INT.     0.2808D+12                  7231.3182    47.1312    79.1673
         TRA.     0.1788D+28                  1341.3629     4.9680    40.7418
         TOT.                      -10.503    8572.6810    52.0992   119.9091

 280.00  VIB.     0.3183D+06                  6876.5290    45.8608    49.7387
         ROT.     0.1450D+07                   834.6258     2.9808    31.1735
         INT.     0.4616D+12                  7711.1548    48.8417    80.9122
         TRA.     0.1888D+28                  1391.0430     4.9680    40.9225
         TOT.                       -9.973    9102.1978    53.8097   121.8347

 290.00  VIB.     0.4945D+06                  7343.8181    47.6016    51.3783
         ROT.     0.1528D+07                   864.4339     2.9808    31.2781
         INT.     0.7558D+12                  8208.2519    50.5824    82.6564
         TRA.     0.1990D+28                  1440.7231     4.9680    41.0968
         TOT.                       -9.426    9648.9750    55.5504   123.7532

 300.00  VIB.     0.7667D+06                  7828.6436    49.3673    53.0218
         ROT.     0.1608D+07                   894.2419     2.9808    31.3792
         INT.     0.1233D+13                  8722.8855    52.3481    84.4009
         TRA.     0.2094D+28                  1490.4032     4.9680    41.2652
         TOT.                       -8.862   10213.2887    57.3161   125.6661

 310.00  VIB.     0.1187D+07                  8331.2289    51.1526    54.6696
         ROT.     0.1689D+07                   924.0500     2.9808    31.4769
         INT.     0.2005D+13                  9255.2789    54.1334    86.1465
         TRA.     0.2200D+28                  1540.0833     4.9680    41.4281
         TOT.                       -8.280   10795.3622    59.1015   127.5746

 320.00  VIB.     0.1835D+07                  8851.7445    52.9525    56.3220
         ROT.     0.1772D+07                   953.8580     2.9808    31.5715
         INT.     0.3251D+13                  9805.6025    55.9333    87.8935
         TRA.     0.2307D+28                  1589.7634     4.9680    41.5859
         TOT.                       -7.680   11395.3660    60.9013   129.4794

 330.00  VIB.     0.2833D+07                  9390.3099    54.7618    57.9791
         ROT.     0.1855D+07                   983.6661     2.9808    31.6633
         INT.     0.5256D+13                 10373.9760    57.7426    89.6424
         TRA.     0.2416D+28                  1639.4435     4.9680    41.7387
         TOT.                       -7.062   12013.4195    62.7106   131.3811

 340.00  VIB.     0.4370D+07                  9946.9956    56.5758    59.6408
         ROT.     0.1940D+07                  1013.4742     2.9808    31.7522
         INT.     0.8479D+13                 10960.4697    59.5566    91.3931
         TRA.     0.2527D+28                  1689.1236     4.9680    41.8870
         TOT.                       -6.426   12649.5934    64.5246   133.2801

 350.00  VIB.     0.6736D+07                 10521.8262    58.3901    61.3070
         ROT.     0.2027D+07                  1043.2822     2.9808    31.8387
         INT.     0.1365D+14                 11565.1085    61.3709    93.1457
         TRA.     0.2639D+28                  1738.8037     4.9680    42.0310
         TOT.                       -5.771   13303.9122    66.3389   135.1767

 360.00  VIB.     0.1037D+08                 11114.7841    60.2006    62.9773
         ROT.     0.2114D+07                  1073.0903     2.9808    31.9226
         INT.     0.2193D+14                 12187.8744    63.1814    94.8999
         TRA.     0.2753D+28                  1788.4838     4.9680    42.1710
         TOT.                       -5.099   13976.3582    68.1494   137.0709

 370.00  VIB.     0.1597D+08                 11725.8125    62.0036    64.6513
         ROT.     0.2203D+07                  1102.8984     2.9808    32.0043
         INT.     0.3517D+14                 12828.7109    64.9844    96.6556
         TRA.     0.2869D+28                  1838.1639     4.9680    42.3071
         TOT.                       -4.408   14666.8748    69.9524   138.9628

 380.00  VIB.     0.2457D+08                 12354.8200    63.7958    66.3287
         ROT.     0.2293D+07                  1132.7064     2.9808    32.0838
         INT.     0.5632D+14                 13487.5264    66.7767    98.4125
         TRA.     0.2986D+28                  1887.8440     4.9680    42.4396
         TOT.                       -3.700   15375.3704    71.7447   140.8521

 390.00  VIB.     0.3778D+08                 13001.6837    65.5744    68.0089
         ROT.     0.2384D+07                  1162.5145     2.9808    32.1612
         INT.     0.9005D+14                 14164.1982    68.5552   100.1701
         TRA.     0.3104D+28                  1937.5242     4.9680    42.5687
         TOT.                       -2.974   16101.7224    73.5232   142.7387

 400.00  VIB.     0.5807D+08                 13666.2537    67.3367    69.6913
         ROT.     0.2476D+07                  1192.3226     2.9808    32.2367
         INT.     0.1438D+15                 14858.5763    70.3175   101.9280
         TRA.     0.3224D+28                  1987.2043     4.9680    42.6944
         TOT.                       -2.230   16845.7805    75.2855   144.6224

   *: NOTE: HEATS OF FORMATION ARE RELATIVE TO THE
            ELEMENTS IN THEIR STANDARD STATE AT 298K
              (=  Standard Enthalpy of Formation).

            Hvib:  Zero-point energy is not included.
                   frequencies of less than zero cm-1 are not included.
            Hrot = (3/2)RT
            Htra = (3/2)RT + pV = (5/2)RT

            Heat capacity is Cp, not Cv

          For more information, see: HTTP://OpenMOPAC.net/Manual/thermochemistry.html


           FORCE CONSTANT IN CARTESIAN COORDINATES (Millidynes/A)

    ATOM   CHEMICAL       X               Y               Z
   NUMBER   SYMBOL  FORCE CONSTANT  FORCE CONSTANT  FORCE CONSTANT

      1       C        9.898202        8.529110        7.001791
      2       C        9.742417        8.692576        7.056944
      3       C        8.148580        8.646479        8.774412
      4       C        4.556201        9.126590       11.365755
      5       C        8.446683        8.484167        8.194071
      6       C        8.263589        8.320854        8.186371
      7       C        8.031289        8.582554        8.783940
      8       C        8.087242        8.357879        8.356232
      9       C        8.237012        8.221548        8.361980
     10       C        8.153715        8.202133        8.417747
     11       C        2.609510       10.503128       13.952320
     12       C        2.531869       10.454153       14.141753
     13       H        1.703096        2.799929        1.754434
     14       H        1.688387        3.976180        0.609833
     15       H        1.517280        2.224401        2.214338
     16       H        0.527853        4.993656        1.122833
     17       H        0.525498        2.318583        3.798545
     18       H        1.023853        3.459778        1.901057
     19       H        3.994907        1.101249        1.193848
     20       H        4.199372        0.753823        1.408080
     21       H        1.692195        3.942329        0.748855
     22       H        0.760656        4.826147        0.812825
     23       H        4.044903        0.786382        1.465991
     24       H        0.713888        0.959394        5.097469
     25       H        4.550206        1.127759        1.094126
     26       H        1.000540        3.821161        1.903680
     27       H        4.383782        0.801022        1.541897
     28       H        0.779484        5.198536        0.789604
     29       H        0.698927        1.669656        4.418942
     30       H        1.827077        2.459127        2.478214
     31       H        1.816215        4.296252        0.671950
     32       H        0.715075        1.413941        4.640615
     33       H        0.388911        5.000134        0.753458
     34       H        0.356796        5.038435        0.788498

 **********************
 *                    *
 * JOB ENDED NORMALLY *
 *                    *
 **********************



 TOTAL JOB TIME:             8.19 SECONDS

 == MOPAC DONE ==
