 *******************************************************************************
 **                                                                           **
 **                              MOPAC v23.1.2                                **
 **                                                                           **
 *******************************************************************************
 **          Digital Object Identifier (DOI): 10.5281/zenodo.6511958          **
 **    Visit the DOI location for information on how to cite this program.    **
 *******************************************************************************

                              PM3 CALCULATION RESULTS

 *******************************************************************************
 *  CALCULATION DONE: (MAX THREADS = 1)              Tue Jun  3 16:43:23 2025  *
 *  PM3        - The PM3 Hamiltonian to be used
 *  PRECISE    - TIGHTER CRITERIA TO BE USED
 *  NOSYM      - POINT-GROUP SYMMETRY SET TO C1
 *  THREADS=1  - MULTI-THREADING NOT USED
 *  T=         - A TIME OF 172800.0 SECONDS REQUESTED
 *  DUMP=N     - RESTART FILE WRITTEN EVERY 7200.0 SECONDS REQUESTED
 *******************************************************************************
pm3  precise nosym THREADS=1
 InChI=1S/C12H20/c1-3-9-7-11(8-9)12-6-5-10(12)4-2/h7,10-12H,3-6,8H2,1-2H3

   ATOM   CHEMICAL          X               Y               Z
  NUMBER   SYMBOL      (ANGSTROMS)     (ANGSTROMS)     (ANGSTROMS)

     1       C         -0.65020000  *  -0.79050000  *  -0.58880000  *
     2       C         -2.04900000  *  -0.15680000  *  -0.60070000  *
     3       C          0.43220000  *   0.11720000  *  -1.21130000  *
     4       C         -2.53070000  *  -1.25250000  *  -1.55200000  *
     5       C         -1.14170000  *  -1.87810000  *  -1.54440000  *
     6       C         -2.76380000  *  -0.18510000  *   0.76200000  *
     7       C          1.75820000  *  -0.43860000  *  -1.18340000  *
     8       C          3.44370000  *   0.99170000  *   0.46490000  *
     9       C         -2.18790000  *   0.85820000  *   1.71560000  *
    10       C          3.27420000  *   0.89420000  *   1.97610000  *
    11       C          2.16870000  *   0.63880000  *  -0.23220000  *
    12       C          0.88370000  *   1.18130000  *  -0.26290000  *
    13       H         -2.08760000  *   0.84740000  *  -1.08130000  *
    14       H         -0.35890000  *  -1.21160000  *   0.40150000  *
    15       H          0.15310000  *   0.54110000  *  -2.20320000  *
    16       H         -3.84180000  *   0.03510000  *   0.60530000  *
    17       H         -2.68330000  *  -1.19200000  *   1.22830000  *
    18       H         -3.30050000  *  -1.92910000  *  -1.11870000  *
    19       H         -2.80590000  *  -0.85180000  *  -2.55220000  *
    20       H         -1.13600000  *  -2.88570000  *  -1.07420000  *
    21       H         -0.66170000  *  -1.85470000  *  -2.54790000  *
    22       H          4.24370000  *   0.29410000  *   0.13790000  *
    23       H          3.73730000  *   2.02610000  *   0.18730000  *
    24       H          2.29050000  *  -0.34940000  *  -2.15600000  *
    25       H          1.84280000  *  -1.44740000  *  -0.72050000  *
    26       H         -1.12540000  *   0.63150000  *   1.94440000  *
    27       H         -2.25870000  *   1.87220000  *   1.26750000  *
    28       H         -2.76190000  *   0.84900000  *   2.66590000  *
    29       H          2.98380000  *  -0.13880000  *   2.26490000  *
    30       H          2.49420000  *   1.60510000  *   2.32380000  *
    31       H          4.23340000  *   1.14730000  *   2.47470000  *
    32       H          0.40540000  *   2.03230000  *   0.20980000  *



          CARTESIAN COORDINATES 

    NO.       ATOM           X           Y           Z

     1         C         -0.6502     -0.7905     -0.5888
     2         C         -2.0490     -0.1568     -0.6007
     3         C          0.4322      0.1172     -1.2113
     4         C         -2.5307     -1.2525     -1.5520
     5         C         -1.1417     -1.8781     -1.5444
     6         C         -2.7638     -0.1851      0.7620
     7         C          1.7582     -0.4386     -1.1834
     8         C          3.4437      0.9917      0.4649
     9         C         -2.1879      0.8582      1.7156
    10         C          3.2742      0.8942      1.9761
    11         C          2.1687      0.6388     -0.2322
    12         C          0.8837      1.1813     -0.2629
    13         H         -2.0876      0.8474     -1.0813
    14         H         -0.3589     -1.2116      0.4015
    15         H          0.1531      0.5411     -2.2032
    16         H         -3.8418      0.0351      0.6053
    17         H         -2.6833     -1.1920      1.2283
    18         H         -3.3005     -1.9291     -1.1187
    19         H         -2.8059     -0.8518     -2.5522
    20         H         -1.1360     -2.8857     -1.0742
    21         H         -0.6617     -1.8547     -2.5479
    22         H          4.2437      0.2941      0.1379
    23         H          3.7373      2.0261      0.1873
    24         H          2.2905     -0.3494     -2.1560
    25         H          1.8428     -1.4474     -0.7205
    26         H         -1.1254      0.6315      1.9444
    27         H         -2.2587      1.8722      1.2675
    28         H         -2.7619      0.8490      2.6659
    29         H          2.9838     -0.1388      2.2649
    30         H          2.4942      1.6051      2.3238
    31         H          4.2334      1.1473      2.4747
    32         H          0.4054      2.0323      0.2098

  H: (PM3): J. J. P. STEWART, J. COMP. CHEM. 10, 209 (1989).
  C: (PM3): J. J. P. STEWART, J. COMP. CHEM. 10, 209 (1989).

           Empirical Formula: C12 H20  =    32 atoms



      MOLECULAR POINT GROUP   :   C1  


      RHF CALCULATION, NO. OF DOUBLY OCCUPIED LEVELS = 34


          Geometry optimization using EF

          DIAGONAL MATRIX USED AS START HESSIAN

 CYCLE:     1 TIME:   0.016 TIME LEFT:  2.00D  GRAD.:   222.242 HEAT:  28.65537
 CYCLE:     2 TIME:   0.012 TIME LEFT:  2.00D  GRAD.:   205.030 HEAT:  26.85495
 CYCLE:     3 TIME:   0.012 TIME LEFT:  2.00D  GRAD.:   184.246 HEAT:  25.75019
 CYCLE:     4 TIME:   0.016 TIME LEFT:  2.00D  GRAD.:    92.998 HEAT:  16.79538
 CYCLE:     5 TIME:   0.020 TIME LEFT:  2.00D  GRAD.:    59.210 HEAT:  14.59624
 CYCLE:     6 TIME:   0.020 TIME LEFT:  2.00D  GRAD.:    37.790 HEAT:  13.97654
 CYCLE:     7 TIME:   0.012 TIME LEFT:  2.00D  GRAD.:    44.811 HEAT:  13.78555
 CYCLE:     8 TIME:   0.012 TIME LEFT:  2.00D  GRAD.:    48.436 HEAT:  13.54786
 CYCLE:     9 TIME:   0.008 TIME LEFT:  2.00D  GRAD.:    45.521 HEAT:  13.38157
 CYCLE:    10 TIME:   0.020 TIME LEFT:  2.00D  GRAD.:    18.983 HEAT:  12.81450
 CYCLE:    11 TIME:   0.020 TIME LEFT:  2.00D  GRAD.:    13.498 HEAT:  12.68972
 CYCLE:    12 TIME:   0.008 TIME LEFT:  2.00D  GRAD.:    12.566 HEAT:  12.60201
 CYCLE:    13 TIME:   0.012 TIME LEFT:  2.00D  GRAD.:    16.157 HEAT:  12.54136
 CYCLE:    14 TIME:   0.012 TIME LEFT:  2.00D  GRAD.:    17.448 HEAT:  12.49864
 CYCLE:    15 TIME:   0.012 TIME LEFT:  2.00D  GRAD.:    18.564 HEAT:  12.49161
 CYCLE:    16 TIME:   0.012 TIME LEFT:  2.00D  GRAD.:    18.543 HEAT:  12.47638
 CYCLE:    17 TIME:   0.016 TIME LEFT:  2.00D  GRAD.:     9.625 HEAT:  12.39234
 CYCLE:    18 TIME:   0.020 TIME LEFT:  2.00D  GRAD.:     6.524 HEAT:  12.37003
 CYCLE:    19 TIME:   0.008 TIME LEFT:  2.00D  GRAD.:     6.161 HEAT:  12.35822
 CYCLE:    20 TIME:   0.012 TIME LEFT:  2.00D  GRAD.:     7.630 HEAT:  12.34748
 CYCLE:    21 TIME:   0.016 TIME LEFT:  2.00D  GRAD.:     5.251 HEAT:  12.33339
 CYCLE:    22 TIME:   0.012 TIME LEFT:  2.00D  GRAD.:     8.103 HEAT:  12.33317
 CYCLE:    23 TIME:   0.012 TIME LEFT:  2.00D  GRAD.:     5.018 HEAT:  12.31274
 CYCLE:    24 TIME:   0.016 TIME LEFT:  2.00D  GRAD.:     4.386 HEAT:  12.30487
 CYCLE:    25 TIME:   0.008 TIME LEFT:  2.00D  GRAD.:     2.794 HEAT:  12.29417
 CYCLE:    26 TIME:   0.012 TIME LEFT:  2.00D  GRAD.:     5.843 HEAT:  12.28642
 CYCLE:    27 TIME:   0.012 TIME LEFT:  2.00D  GRAD.:     5.405 HEAT:  12.27427
 CYCLE:    28 TIME:   0.012 TIME LEFT:  2.00D  GRAD.:     6.528 HEAT:  12.26494
 CYCLE:    29 TIME:   0.008 TIME LEFT:  2.00D  GRAD.:     3.499 HEAT:  12.24688
 CYCLE:    30 TIME:   0.012 TIME LEFT:  2.00D  GRAD.:     4.753 HEAT:  12.24260
 CYCLE:    31 TIME:   0.012 TIME LEFT:  2.00D  GRAD.:     3.261 HEAT:  12.23453
 CYCLE:    32 TIME:   0.012 TIME LEFT:  2.00D  GRAD.:     3.934 HEAT:  12.22855
 CYCLE:    33 TIME:   0.008 TIME LEFT:  2.00D  GRAD.:     3.006 HEAT:  12.21968
 CYCLE:    34 TIME:   0.012 TIME LEFT:  2.00D  GRAD.:     4.582 HEAT:  12.20410
 CYCLE:    35 TIME:   0.012 TIME LEFT:  2.00D  GRAD.:     4.783 HEAT:  12.19459
 CYCLE:    36 TIME:   0.012 TIME LEFT:  2.00D  GRAD.:     3.829 HEAT:  12.18197
 CYCLE:    37 TIME:   0.008 TIME LEFT:  2.00D  GRAD.:     3.484 HEAT:  12.16858
 CYCLE:    38 TIME:   0.012 TIME LEFT:  2.00D  GRAD.:     4.895 HEAT:  12.15941
 CYCLE:    39 TIME:   0.012 TIME LEFT:  2.00D  GRAD.:     3.928 HEAT:  12.15134
 CYCLE:    40 TIME:   0.008 TIME LEFT:  2.00D  GRAD.:     2.360 HEAT:  12.14170
 CYCLE:    41 TIME:   0.012 TIME LEFT:  2.00D  GRAD.:     2.746 HEAT:  12.13007
 CYCLE:    42 TIME:   0.012 TIME LEFT:  2.00D  GRAD.:     3.178 HEAT:  12.11993
 CYCLE:    43 TIME:   0.012 TIME LEFT:  2.00D  GRAD.:     2.095 HEAT:  12.11334
 CYCLE:    44 TIME:   0.008 TIME LEFT:  2.00D  GRAD.:     2.128 HEAT:  12.10792
 CYCLE:    45 TIME:   0.012 TIME LEFT:  2.00D  GRAD.:     3.277 HEAT:  12.10339
 CYCLE:    46 TIME:   0.012 TIME LEFT:  2.00D  GRAD.:     2.139 HEAT:  12.09816
 CYCLE:    47 TIME:   0.012 TIME LEFT:  2.00D  GRAD.:     2.296 HEAT:  12.09604
 CYCLE:    48 TIME:   0.008 TIME LEFT:  2.00D  GRAD.:     1.173 HEAT:  12.09297
 CYCLE:    49 TIME:   0.012 TIME LEFT:  2.00D  GRAD.:     1.143 HEAT:  12.09084
 CYCLE:    50 TIME:   0.012 TIME LEFT:  2.00D  GRAD.:     1.206 HEAT:  12.08899
 CYCLE:    51 TIME:   0.008 TIME LEFT:  2.00D  GRAD.:     0.849 HEAT:  12.08748
 CYCLE:    52 TIME:   0.012 TIME LEFT:  2.00D  GRAD.:     0.781 HEAT:  12.08614
 CYCLE:    53 TIME:   0.012 TIME LEFT:  2.00D  GRAD.:     0.909 HEAT:  12.08499
 CYCLE:    54 TIME:   0.008 TIME LEFT:  2.00D  GRAD.:     0.918 HEAT:  12.08379
 CYCLE:    55 TIME:   0.012 TIME LEFT:  2.00D  GRAD.:     0.765 HEAT:  12.08247
 CYCLE:    56 TIME:   0.012 TIME LEFT:  2.00D  GRAD.:     0.706 HEAT:  12.08118
 CYCLE:    57 TIME:   0.012 TIME LEFT:  2.00D  GRAD.:     0.687 HEAT:  12.08030
 CYCLE:    58 TIME:   0.012 TIME LEFT:  2.00D  GRAD.:     0.597 HEAT:  12.07964
 CYCLE:    59 TIME:   0.012 TIME LEFT:  2.00D  GRAD.:     0.512 HEAT:  12.07915
 CYCLE:    60 TIME:   0.012 TIME LEFT:  2.00D  GRAD.:     0.424 HEAT:  12.07877
 CYCLE:    61 TIME:   0.008 TIME LEFT:  2.00D  GRAD.:     0.360 HEAT:  12.07851
 CYCLE:    62 TIME:   0.012 TIME LEFT:  2.00D  GRAD.:     0.290 HEAT:  12.07831
 CYCLE:    63 TIME:   0.012 TIME LEFT:  2.00D  GRAD.:     0.294 HEAT:  12.07809
 CYCLE:    64 TIME:   0.012 TIME LEFT:  2.00D  GRAD.:     0.293 HEAT:  12.07791
 CYCLE:    65 TIME:   0.012 TIME LEFT:  2.00D  GRAD.:     0.283 HEAT:  12.07772
 CYCLE:    66 TIME:   0.012 TIME LEFT:  2.00D  GRAD.:     0.314 HEAT:  12.07751
 CYCLE:    67 TIME:   0.008 TIME LEFT:  2.00D  GRAD.:     0.382 HEAT:  12.07722
 CYCLE:    68 TIME:   0.012 TIME LEFT:  2.00D  GRAD.:     0.434 HEAT:  12.07687
 CYCLE:    69 TIME:   0.012 TIME LEFT:  2.00D  GRAD.:     0.474 HEAT:  12.07634
 CYCLE:    70 TIME:   0.012 TIME LEFT:  2.00D  GRAD.:     0.441 HEAT:  12.07596
 CYCLE:    71 TIME:   0.012 TIME LEFT:  2.00D  GRAD.:     0.686 HEAT:  12.07515
 CYCLE:    72 TIME:   0.012 TIME LEFT:  2.00D  GRAD.:     0.520 HEAT:  12.07473
 CYCLE:    73 TIME:   0.008 TIME LEFT:  2.00D  GRAD.:     0.456 HEAT:  12.07405
 CYCLE:    74 TIME:   0.012 TIME LEFT:  2.00D  GRAD.:     0.392 HEAT:  12.07350
 CYCLE:    75 TIME:   0.012 TIME LEFT:  2.00D  GRAD.:     0.417 HEAT:  12.07294
 CYCLE:    76 TIME:   0.012 TIME LEFT:  2.00D  GRAD.:     0.357 HEAT:  12.07255
 CYCLE:    77 TIME:   0.012 TIME LEFT:  2.00D  GRAD.:     0.566 HEAT:  12.07168
 CYCLE:    78 TIME:   0.012 TIME LEFT:  2.00D  GRAD.:     0.397 HEAT:  12.07139
 CYCLE:    79 TIME:   0.012 TIME LEFT:  2.00D  GRAD.:     0.257 HEAT:  12.07095
 CYCLE:    80 TIME:   0.012 TIME LEFT:  2.00D  GRAD.:     0.250 HEAT:  12.07076
 CYCLE:    81 TIME:   0.012 TIME LEFT:  2.00D  GRAD.:     0.247 HEAT:  12.07048
 CYCLE:    82 TIME:   0.008 TIME LEFT:  2.00D  GRAD.:     0.184 HEAT:  12.07039
 CYCLE:    83 TIME:   0.012 TIME LEFT:  2.00D  GRAD.:     0.213 HEAT:  12.07025
 CYCLE:    84 TIME:   0.012 TIME LEFT:  2.00D  GRAD.:     0.155 HEAT:  12.07018
 CYCLE:    85 TIME:   0.012 TIME LEFT:  2.00D  GRAD.:     0.125 HEAT:  12.07011
 CYCLE:    86 TIME:   0.008 TIME LEFT:  2.00D  GRAD.:     0.155 HEAT:  12.07003
 CYCLE:    87 TIME:   0.012 TIME LEFT:  2.00D  GRAD.:     0.174 HEAT:  12.06995
 CYCLE:    88 TIME:   0.008 TIME LEFT:  2.00D  GRAD.:     0.166 HEAT:  12.06988
 CYCLE:    89 TIME:   0.012 TIME LEFT:  2.00D  GRAD.:     0.320 HEAT:  12.06969
 CYCLE:    90 TIME:   0.012 TIME LEFT:  2.00D  GRAD.:     0.240 HEAT:  12.06957
 CYCLE:    91 TIME:   0.012 TIME LEFT:  2.00D  GRAD.:     0.301 HEAT:  12.06923
 CYCLE:    92 TIME:   0.008 TIME LEFT:  2.00D  GRAD.:     0.279 HEAT:  12.06903
 CYCLE:    93 TIME:   0.012 TIME LEFT:  2.00D  GRAD.:     0.369 HEAT:  12.06854
 CYCLE:    94 TIME:   0.012 TIME LEFT:  2.00D  GRAD.:     0.332 HEAT:  12.06833
 CYCLE:    95 TIME:   0.012 TIME LEFT:  2.00D  GRAD.:     0.370 HEAT:  12.06788
 CYCLE:    96 TIME:   0.012 TIME LEFT:  2.00D  GRAD.:     0.328 HEAT:  12.06766
 CYCLE:    97 TIME:   0.012 TIME LEFT:  2.00D  GRAD.:     0.448 HEAT:  12.06713
 CYCLE:    98 TIME:   0.012 TIME LEFT:  2.00D  GRAD.:     0.333 HEAT:  12.06666
 CYCLE:    99 TIME:   0.012 TIME LEFT:  2.00D  GRAD.:     0.440 HEAT:  12.06557
 CYCLE:   100 TIME:   0.012 TIME LEFT:  2.00D  GRAD.:     0.439 HEAT:  12.06513
 CYCLE:   101 TIME:   0.012 TIME LEFT:  2.00D  GRAD.:     0.925 HEAT:  12.06466
 CYCLE:   102 TIME:   0.012 TIME LEFT:  2.00D  GRAD.:     0.447 HEAT:  12.06381
 CYCLE:   103 TIME:   0.012 TIME LEFT:  2.00D  GRAD.:     0.389 HEAT:  12.06324
 CYCLE:   104 TIME:   0.012 TIME LEFT:  2.00D  GRAD.:     0.448 HEAT:  12.06200
 CYCLE:   105 TIME:   0.012 TIME LEFT:  2.00D  GRAD.:     0.418 HEAT:  12.06147
 CYCLE:   106 TIME:   0.008 TIME LEFT:  2.00D  GRAD.:     0.446 HEAT:  12.06099
 CYCLE:   107 TIME:   0.012 TIME LEFT:  2.00D  GRAD.:     0.415 HEAT:  12.06051
 CYCLE:   108 TIME:   0.016 TIME LEFT:  2.00D  GRAD.:     0.604 HEAT:  12.05994
 CYCLE:   109 TIME:   0.008 TIME LEFT:  2.00D  GRAD.:     0.498 HEAT:  12.05950
 CYCLE:   110 TIME:   0.012 TIME LEFT:  2.00D  GRAD.:     0.461 HEAT:  12.05880
 CYCLE:   111 TIME:   0.012 TIME LEFT:  2.00D  GRAD.:     0.673 HEAT:  12.05720
 CYCLE:   112 TIME:   0.012 TIME LEFT:  2.00D  GRAD.:     0.715 HEAT:  12.05608
 CYCLE:   113 TIME:   0.012 TIME LEFT:  2.00D  GRAD.:     1.642 HEAT:  12.05456
 CYCLE:   114 TIME:   0.012 TIME LEFT:  2.00D  GRAD.:     0.828 HEAT:  12.05240
 CYCLE:   115 TIME:   0.012 TIME LEFT:  2.00D  GRAD.:     0.837 HEAT:  12.05012
 CYCLE:   116 TIME:   0.012 TIME LEFT:  2.00D  GRAD.:     0.964 HEAT:  12.04642
 CYCLE:   117 TIME:   0.012 TIME LEFT:  2.00D  GRAD.:     1.603 HEAT:  12.04349
 CYCLE:   118 TIME:   0.012 TIME LEFT:  2.00D  GRAD.:     1.135 HEAT:  12.04047
 CYCLE:   119 TIME:   0.012 TIME LEFT:  2.00D  GRAD.:     1.126 HEAT:  12.03718
 CYCLE:   120 TIME:   0.016 TIME LEFT:  2.00D  GRAD.:     1.009 HEAT:  12.03372
 CYCLE:   121 TIME:   0.012 TIME LEFT:  2.00D  GRAD.:     1.095 HEAT:  12.03240
 CYCLE:   122 TIME:   0.012 TIME LEFT:  2.00D  GRAD.:     0.870 HEAT:  12.02984
 CYCLE:   123 TIME:   0.012 TIME LEFT:  2.00D  GRAD.:     1.452 HEAT:  12.02848
 CYCLE:   124 TIME:   0.012 TIME LEFT:  2.00D  GRAD.:     1.402 HEAT:  12.02525
 CYCLE:   125 TIME:   0.012 TIME LEFT:  2.00D  GRAD.:     1.630 HEAT:  12.01895
 CYCLE:   126 TIME:   0.012 TIME LEFT:  2.00D  GRAD.:     5.576 HEAT:  12.01531
 CYCLE:   127 TIME:   0.020 TIME LEFT:  2.00D  GRAD.:     4.497 HEAT:  12.00993
 CYCLE:   128 TIME:   0.012 TIME LEFT:  2.00D  GRAD.:     1.578 HEAT:  11.98914
 CYCLE:   129 TIME:   0.012 TIME LEFT:  2.00D  GRAD.:     1.474 HEAT:  11.98358
 CYCLE:   130 TIME:   0.012 TIME LEFT:  2.00D  GRAD.:     2.230 HEAT:  11.97577
 CYCLE:   131 TIME:   0.008 TIME LEFT:  2.00D  GRAD.:     1.326 HEAT:  11.97135
 CYCLE:   132 TIME:   0.016 TIME LEFT:  2.00D  GRAD.:     1.138 HEAT:  11.96749
 CYCLE:   133 TIME:   0.012 TIME LEFT:  2.00D  GRAD.:     0.688 HEAT:  11.96506
 CYCLE:   134 TIME:   0.012 TIME LEFT:  2.00D  GRAD.:     0.932 HEAT:  11.96375
 CYCLE:   135 TIME:   0.012 TIME LEFT:  2.00D  GRAD.:     0.704 HEAT:  11.96300
 CYCLE:   136 TIME:   0.012 TIME LEFT:  2.00D  GRAD.:     0.646 HEAT:  11.96203
 CYCLE:   137 TIME:   0.012 TIME LEFT:  2.00D  GRAD.:     0.901 HEAT:  11.96051
 CYCLE:   138 TIME:   0.012 TIME LEFT:  2.00D  GRAD.:     1.055 HEAT:  11.95904
 CYCLE:   139 TIME:   0.012 TIME LEFT:  2.00D  GRAD.:     1.281 HEAT:  11.95620
 CYCLE:   140 TIME:   0.012 TIME LEFT:  2.00D  GRAD.:     1.158 HEAT:  11.95361
 CYCLE:   141 TIME:   0.012 TIME LEFT:  2.00D  GRAD.:     1.434 HEAT:  11.94816
 CYCLE:   142 TIME:   0.012 TIME LEFT:  2.00D  GRAD.:     1.520 HEAT:  11.94482
 CYCLE:   143 TIME:   0.008 TIME LEFT:  2.00D  GRAD.:     1.417 HEAT:  11.94124
 CYCLE:   144 TIME:   0.012 TIME LEFT:  2.00D  GRAD.:     2.242 HEAT:  11.93392
 CYCLE:   145 TIME:   0.012 TIME LEFT:  2.00D  GRAD.:     1.857 HEAT:  11.92649
 CYCLE:   146 TIME:   0.016 TIME LEFT:  2.00D  GRAD.:     2.385 HEAT:  11.92205
 CYCLE:   147 TIME:   0.008 TIME LEFT:  2.00D  GRAD.:     1.421 HEAT:  11.91785
 CYCLE:   148 TIME:   0.012 TIME LEFT:  2.00D  GRAD.:     1.036 HEAT:  11.91220
 CYCLE:   149 TIME:   0.016 TIME LEFT:  2.00D  GRAD.:     1.748 HEAT:  11.90756
 CYCLE:   150 TIME:   0.012 TIME LEFT:  2.00D  GRAD.:     1.463 HEAT:  11.90481
 CYCLE:   151 TIME:   0.008 TIME LEFT:  2.00D  GRAD.:     1.312 HEAT:  11.90080
 CYCLE:   152 TIME:   0.012 TIME LEFT:  2.00D  GRAD.:     1.329 HEAT:  11.89669
 CYCLE:   153 TIME:   0.012 TIME LEFT:  2.00D  GRAD.:     1.057 HEAT:  11.89409
 CYCLE:   154 TIME:   0.012 TIME LEFT:  2.00D  GRAD.:     1.192 HEAT:  11.89150
 CYCLE:   155 TIME:   0.012 TIME LEFT:  2.00D  GRAD.:     1.045 HEAT:  11.88992
 CYCLE:   156 TIME:   0.012 TIME LEFT:  2.00D  GRAD.:     0.773 HEAT:  11.88870
 CYCLE:   157 TIME:   0.012 TIME LEFT:  2.00D  GRAD.:     0.704 HEAT:  11.88752
 CYCLE:   158 TIME:   0.012 TIME LEFT:  2.00D  GRAD.:     0.971 HEAT:  11.88568
 CYCLE:   159 TIME:   0.012 TIME LEFT:  2.00D  GRAD.:     1.130 HEAT:  11.88319
 CYCLE:   160 TIME:   0.012 TIME LEFT:  2.00D  GRAD.:     1.660 HEAT:  11.87945
 CYCLE:   161 TIME:   0.012 TIME LEFT:  2.00D  GRAD.:     1.527 HEAT:  11.87537
 CYCLE:   162 TIME:   0.012 TIME LEFT:  2.00D  GRAD.:     1.514 HEAT:  11.87070
 CYCLE:   163 TIME:   0.008 TIME LEFT:  2.00D  GRAD.:     1.607 HEAT:  11.86362
 CYCLE:   164 TIME:   0.012 TIME LEFT:  2.00D  GRAD.:     1.525 HEAT:  11.85779
 CYCLE:   165 TIME:   0.012 TIME LEFT:  2.00D  GRAD.:     1.139 HEAT:  11.85406
 CYCLE:   166 TIME:   0.012 TIME LEFT:  2.00D  GRAD.:     0.960 HEAT:  11.85190
 CYCLE:   167 TIME:   0.012 TIME LEFT:  2.00D  GRAD.:     1.441 HEAT:  11.85073
 CYCLE:   168 TIME:   0.012 TIME LEFT:  2.00D  GRAD.:     2.220 HEAT:  11.85033
 CYCLE:   169 TIME:   0.008 TIME LEFT:  2.00D  GRAD.:     0.986 HEAT:  11.84696
 CYCLE:   170 TIME:   0.012 TIME LEFT:  2.00D  GRAD.:     0.697 HEAT:  11.84504
 CYCLE:   171 TIME:   0.012 TIME LEFT:  2.00D  GRAD.:     0.776 HEAT:  11.84239
 CYCLE:   172 TIME:   0.012 TIME LEFT:  2.00D  GRAD.:     0.755 HEAT:  11.83991
 CYCLE:   173 TIME:   0.012 TIME LEFT:  2.00D  GRAD.:     0.872 HEAT:  11.83736
 CYCLE:   174 TIME:   0.012 TIME LEFT:  2.00D  GRAD.:     1.137 HEAT:  11.83525
 CYCLE:   175 TIME:   0.016 TIME LEFT:  2.00D  GRAD.:     0.892 HEAT:  11.83345
 CYCLE:   176 TIME:   0.008 TIME LEFT:  2.00D  GRAD.:     1.527 HEAT:  11.83118
 CYCLE:   177 TIME:   0.012 TIME LEFT:  2.00D  GRAD.:     1.216 HEAT:  11.82821
 CYCLE:   178 TIME:   0.012 TIME LEFT:  2.00D  GRAD.:     1.170 HEAT:  11.82491
 CYCLE:   179 TIME:   0.012 TIME LEFT:  2.00D  GRAD.:     1.121 HEAT:  11.82211
 CYCLE:   180 TIME:   0.008 TIME LEFT:  2.00D  GRAD.:     0.896 HEAT:  11.81937
 CYCLE:   181 TIME:   0.012 TIME LEFT:  2.00D  GRAD.:     0.679 HEAT:  11.81705
 CYCLE:   182 TIME:   0.012 TIME LEFT:  2.00D  GRAD.:     0.511 HEAT:  11.81634
 CYCLE:   183 TIME:   0.012 TIME LEFT:  2.00D  GRAD.:     0.507 HEAT:  11.81578
 CYCLE:   184 TIME:   0.012 TIME LEFT:  2.00D  GRAD.:     0.485 HEAT:  11.81515
 CYCLE:   185 TIME:   0.012 TIME LEFT:  2.00D  GRAD.:     0.597 HEAT:  11.81440
 CYCLE:   186 TIME:   0.012 TIME LEFT:  2.00D  GRAD.:     0.658 HEAT:  11.81309
 CYCLE:   187 TIME:   0.008 TIME LEFT:  2.00D  GRAD.:     0.718 HEAT:  11.81176
 CYCLE:   188 TIME:   0.012 TIME LEFT:  2.00D  GRAD.:     0.702 HEAT:  11.81054
 CYCLE:   189 TIME:   0.012 TIME LEFT:  2.00D  GRAD.:     0.748 HEAT:  11.80970
 CYCLE:   190 TIME:   0.012 TIME LEFT:  2.00D  GRAD.:     0.750 HEAT:  11.80894
 CYCLE:   191 TIME:   0.012 TIME LEFT:  2.00D  GRAD.:     0.867 HEAT:  11.80735
 CYCLE:   192 TIME:   0.008 TIME LEFT:  2.00D  GRAD.:     0.930 HEAT:  11.80550
 CYCLE:   193 TIME:   0.012 TIME LEFT:  2.00D  GRAD.:     1.523 HEAT:  11.79865
 CYCLE:   194 TIME:   0.012 TIME LEFT:  2.00D  GRAD.:     1.410 HEAT:  11.79525
 CYCLE:   195 TIME:   0.012 TIME LEFT:  2.00D  GRAD.:     1.921 HEAT:  11.78824
 CYCLE:   196 TIME:   0.012 TIME LEFT:  2.00D  GRAD.:     1.369 HEAT:  11.78517
 CYCLE:   197 TIME:   0.012 TIME LEFT:  2.00D  GRAD.:     1.442 HEAT:  11.77590
 CYCLE:   198 TIME:   0.012 TIME LEFT:  2.00D  GRAD.:     1.257 HEAT:  11.76564
 CYCLE:   199 TIME:   0.012 TIME LEFT:  2.00D  GRAD.:     2.251 HEAT:  11.75897
 CYCLE:   200 TIME:   0.012 TIME LEFT:  2.00D  GRAD.:     1.459 HEAT:  11.75515
 CYCLE:   201 TIME:   0.012 TIME LEFT:  2.00D  GRAD.:     1.252 HEAT:  11.75204
 CYCLE:   202 TIME:   0.008 TIME LEFT:  2.00D  GRAD.:     2.239 HEAT:  11.75046
 CYCLE:   203 TIME:   0.012 TIME LEFT:  2.00D  GRAD.:     1.035 HEAT:  11.74824
 CYCLE:   204 TIME:   0.012 TIME LEFT:  2.00D  GRAD.:     0.704 HEAT:  11.74728
 CYCLE:   205 TIME:   0.012 TIME LEFT:  2.00D  GRAD.:     0.428 HEAT:  11.74681
 CYCLE:   206 TIME:   0.012 TIME LEFT:  2.00D  GRAD.:     0.454 HEAT:  11.74658
 CYCLE:   207 TIME:   0.008 TIME LEFT:  2.00D  GRAD.:     0.274 HEAT:  11.74644
 CYCLE:   208 TIME:   0.012 TIME LEFT:  2.00D  GRAD.:     0.184 HEAT:  11.74637
 CYCLE:   209 TIME:   0.012 TIME LEFT:  2.00D  GRAD.:     0.209 HEAT:  11.74629
 CYCLE:   210 TIME:   0.012 TIME LEFT:  2.00D  GRAD.:     0.203 HEAT:  11.74622
 CYCLE:   211 TIME:   0.012 TIME LEFT:  2.00D  GRAD.:     0.136 HEAT:  11.74618
 CYCLE:   212 TIME:   0.012 TIME LEFT:  2.00D  GRAD.:     0.129 HEAT:  11.74615
 CYCLE:   213 TIME:   0.008 TIME LEFT:  2.00D  GRAD.:     0.077 HEAT:  11.74615
 CYCLE:   214 TIME:   0.012 TIME LEFT:  2.00D  GRAD.:     0.253 HEAT:  11.74619
 CYCLE:   215 TIME:   0.012 TIME LEFT:  2.00D  GRAD.:     0.060 HEAT:  11.74614
 CYCLE:   216 TIME:   0.008 TIME LEFT:  2.00D  GRAD.:     0.066 HEAT:  11.74614
 CYCLE:   217 TIME:   0.012 TIME LEFT:  2.00D  GRAD.:     0.072 HEAT:  11.74614
 CYCLE:   218 TIME:   0.008 TIME LEFT:  2.00D  GRAD.:     0.065 HEAT:  11.74613
 CYCLE:   219 TIME:   0.012 TIME LEFT:  2.00D  GRAD.:     0.061 HEAT:  11.74613
 CYCLE:   220 TIME:   0.012 TIME LEFT:  2.00D  GRAD.:     0.096 HEAT:  11.74610
 CYCLE:   221 TIME:   0.012 TIME LEFT:  2.00D  GRAD.:     0.140 HEAT:  11.74606
 CYCLE:   222 TIME:   0.008 TIME LEFT:  2.00D  GRAD.:     0.162 HEAT:  11.74601
 CYCLE:   223 TIME:   0.012 TIME LEFT:  2.00D  GRAD.:     0.223 HEAT:  11.74577
 CYCLE:   224 TIME:   0.012 TIME LEFT:  2.00D  GRAD.:     0.192 HEAT:  11.74565
 CYCLE:   225 TIME:   0.012 TIME LEFT:  2.00D  GRAD.:     0.113 HEAT:  11.74546
 CYCLE:   226 TIME:   0.012 TIME LEFT:  2.00D  GRAD.:     0.129 HEAT:  11.74540
 CYCLE:   227 TIME:   0.012 TIME LEFT:  2.00D  GRAD.:     0.132 HEAT:  11.74530
 CYCLE:   228 TIME:   0.012 TIME LEFT:  2.00D  GRAD.:     0.207 HEAT:  11.74513
 CYCLE:   229 TIME:   0.008 TIME LEFT:  2.00D  GRAD.:     0.202 HEAT:  11.74503
 CYCLE:   230 TIME:   0.012 TIME LEFT:  2.00D  GRAD.:     0.206 HEAT:  11.74484
 CYCLE:   231 TIME:   0.012 TIME LEFT:  2.00D  GRAD.:     0.231 HEAT:  11.74472
 CYCLE:   232 TIME:   0.012 TIME LEFT:  2.00D  GRAD.:     0.248 HEAT:  11.74450
 CYCLE:   233 TIME:   0.008 TIME LEFT:  2.00D  GRAD.:     0.252 HEAT:  11.74428
 CYCLE:   234 TIME:   0.012 TIME LEFT:  2.00D  GRAD.:     0.173 HEAT:  11.74417
 CYCLE:   235 TIME:   0.012 TIME LEFT:  2.00D  GRAD.:     0.313 HEAT:  11.74419
 CYCLE:   236 TIME:   0.012 TIME LEFT:  2.00D  GRAD.:     0.046 HEAT:  11.74413

     GRADIENT =  0.04634 IS LESS THAN CUTOFF =  0.05000



 -------------------------------------------------------------------------------
 pm3  precise nosym THREADS=1
 InChI=1S/C12H20/c1-3-9-7-11(8-9)12-6-5-10(12)4-2/h7,10-12H,3-6,8H2,1-2H3



     GEOMETRY OPTIMISED USING EIGENVECTOR FOLLOWING (EF).     
     SCF FIELD WAS ACHIEVED                                   


                              PM3 CALCULATION
                                                       MOPAC v23.1.2 MacOS
                                                       Tue Jun  3 16:43:26 2025




          FINAL HEAT OF FORMATION =         11.74412 KCAL/MOL =      49.13742 KJ/MOL


          COSMO AREA              =        229.85 SQUARE ANGSTROMS
          COSMO VOLUME            =        247.91 CUBIC ANGSTROMS

          GRADIENT NORM           =          0.04634          =       0.00819 PER ATOM
          IONIZATION POTENTIAL    =          9.459236 EV
          HOMO LUMO ENERGIES (EV) =         -9.459  1.016
          NO. OF FILLED LEVELS    =         34
          MOLECULAR WEIGHT        =        164.2900         POINT GROUP:  C1  

          MOLECULAR DIMENSIONS (Angstroms)

            Atom       Atom       Distance
            H    31    H    18     9.33784
            H    28    H    24     6.80089
            H    13    H    22     3.24203


          SCF CALCULATIONS        =        247

          WALL-CLOCK TIME         =      2.719 SECONDS
          COMPUTATION TIME        =      2.053 SECONDS




   ATOM   CHEMICAL          X               Y               Z
  NUMBER   SYMBOL      (ANGSTROMS)     (ANGSTROMS)     (ANGSTROMS)

     1       C         -0.71157858  *  -0.81335055  *  -0.67951189  *
     2       C         -2.11737908  *  -0.14899278  *  -0.57934603  *
     3       C          0.40089455  *   0.11866545  *  -1.08222506  *
     4       C         -2.63440416  *  -1.10001480  *  -1.68565317  *
     5       C         -1.23489131  *  -1.72719106  *  -1.81437494  *
     6       C         -2.81640243  *  -0.29657629  *   0.75579921  *
     7       C          1.83321946  *  -0.53273889  *  -1.15858606  *
     8       C          3.49731957  *   0.59337898  *   0.64122836  *
     9       C         -2.25466378  *   0.64977409  *   1.79291803  *
    10       C          3.46401549  *   1.64285755  *   1.73015998  *
    11       C          2.20638646  *   0.42218536  *  -0.03405844  *
    12       C          0.97521310  *   0.97176067  *   0.04425266  *
    13       H         -2.11289842  *   0.91855770  *  -0.88808729  *
    14       H         -0.42915387  *  -1.37148738  *   0.23915590  *
    15       H          0.13063494  *   0.70274648  *  -1.98674951  *
    16       H         -3.89983708  *  -0.10986133  *   0.61691167  *
    17       H         -2.73821930  *  -1.34258497  *   1.11476374  *
    18       H         -3.42356491  *  -1.79540016  *  -1.36004078  *
    19       H         -3.00078257  *  -0.59377604  *  -2.59084039  *
    20       H         -1.18659941  *  -2.80363731  *  -1.59355531  *
    21       H         -0.74807115  *  -1.57289144  *  -2.78963611  *
    22       H          3.80754358  *  -0.38615926  *   1.05834185  *
    23       H          4.26008491  *   0.85174258  *  -0.12119860  *
    24       H          2.37004694  *  -0.38120798  *  -2.10527784  *
    25       H          1.87849123  *  -1.60069701  *  -0.90099859  *
    26       H         -1.17722391  *   0.48789121  *   1.94110929  *
    27       H         -2.38607134  *   1.69964595  *   1.49822617  *
    28       H         -2.74744152  *   0.51595205  *   2.76399460  *
    29       H          2.73612616  *   1.39144078  *   2.51269207  *
    30       H          3.18697374  *   2.62870740  *   1.33429936  *
    31       H          4.44495124  *   1.74378899  *   2.21149136  *
    32       H          0.49993643  *   1.72849165  *   0.65473380  *

                             CARTESIAN COORDINATES

   1    C       -0.711578581    -0.813350550    -0.679511886
   2    C       -2.117379079    -0.148992782    -0.579346032
   3    C        0.400894550     0.118665450    -1.082225064
   4    C       -2.634404163    -1.100014797    -1.685653169
   5    C       -1.234891305    -1.727191064    -1.814374937
   6    C       -2.816402426    -0.296576290     0.755799213
   7    C        1.833219463    -0.532738887    -1.158586059
   8    C        3.497319565     0.593378984     0.641228360
   9    C       -2.254663782     0.649774094     1.792918025
  10    C        3.464015485     1.642857554     1.730159982
  11    C        2.206386459     0.422185362    -0.034058436
  12    C        0.975213098     0.971760667     0.044252661
  13    H       -2.112898424     0.918557698    -0.888087287
  14    H       -0.429153871    -1.371487384     0.239155899
  15    H        0.130634938     0.702746480    -1.986749508
  16    H       -3.899837077    -0.109861326     0.616911673
  17    H       -2.738219297    -1.342584973     1.114763740
  18    H       -3.423564910    -1.795400159    -1.360040779
  19    H       -3.000782570    -0.593776044    -2.590840390
  20    H       -1.186599411    -2.803637305    -1.593555307
  21    H       -0.748071146    -1.572891440    -2.789636115
  22    H        3.807543578    -0.386159265     1.058341847
  23    H        4.260084908     0.851742583    -0.121198598
  24    H        2.370046937    -0.381207981    -2.105277837
  25    H        1.878491235    -1.600697013    -0.900998587
  26    H       -1.177223915     0.487891212     1.941109287
  27    H       -2.386071338     1.699645953     1.498226173
  28    H       -2.747441518     0.515952049     2.763994596
  29    H        2.736126164     1.391440776     2.512692071
  30    H        3.186973744     2.628707405     1.334299360
  31    H        4.444951240     1.743788995     2.211491360
  32    H        0.499936429     1.728491652     0.654733796


           Empirical Formula: C12 H20  =    32 atoms



      MOLECULAR POINT GROUP   :   C1  


                  EIGENVALUES  
 -42.33905 -38.45927 -33.81973 -32.72533 -26.42446 -25.34827 -24.60746 -23.50612
 -21.65377 -20.32954 -18.81357 -17.52151 -16.93988 -16.85964 -15.87167 -15.47311
 -15.30733 -14.94569 -14.34162 -14.06387 -13.92387 -13.53871 -13.30577 -12.64312
 -12.59536 -12.41472 -12.30066 -12.10569 -11.88854 -11.84793 -11.31225 -11.17494
 -10.99442  -9.45924   1.01637   3.02004   3.20863   3.25311   3.40095   3.65472
   3.71686   3.76663   3.87047   3.93645   3.96504   3.99426   4.02436   4.08153
   4.09379   4.16332   4.23647   4.36043   4.40078   4.45527   4.49533   4.54254
   4.63347   4.71648   4.83068   4.86605   4.94321   4.95031   5.03339   5.08766
   5.36517   5.55012   5.71105   6.29233


              NET ATOMIC CHARGES AND DIPOLE CONTRIBUTIONS

  ATOM NO.   TYPE          CHARGE      No. of ELECS.   s-Pop       p-Pop       
    1          C          -0.082949        4.0829     1.19019     2.89276
    2          C          -0.092461        4.0925     1.19396     2.89850
    3          C          -0.053449        4.0534     1.18494     2.86851
    4          C          -0.110324        4.1103     1.17395     2.93637
    5          C          -0.108089        4.1081     1.17305     2.93504
    6          C          -0.087056        4.0871     1.15679     2.93027
    7          C          -0.073193        4.0732     1.17144     2.90175
    8          C          -0.022758        4.0228     1.13148     2.89128
    9          C          -0.115362        4.1154     1.13941     2.97595
   10          C          -0.108503        4.1085     1.13667     2.97183
   11          C          -0.144684        4.1447     1.22206     2.92262
   12          C          -0.167373        4.1674     1.21844     2.94893
   13          H           0.075818        0.9242     0.92418
   14          H           0.080910        0.9191     0.91909
   15          H           0.078929        0.9211     0.92107
   16          H           0.048778        0.9512     0.95122
   17          H           0.051111        0.9489     0.94889
   18          H           0.058115        0.9419     0.94188
   19          H           0.054690        0.9453     0.94531
   20          H           0.054878        0.9451     0.94512
   21          H           0.058368        0.9416     0.94163
   22          H           0.055306        0.9447     0.94469
   23          H           0.055338        0.9447     0.94466
   24          H           0.060407        0.9396     0.93959
   25          H           0.064562        0.9354     0.93544
   26          H           0.045124        0.9549     0.95488
   27          H           0.037178        0.9628     0.96282
   28          H           0.037094        0.9629     0.96291
   29          H           0.040727        0.9593     0.95927
   30          H           0.040898        0.9591     0.95910
   31          H           0.037678        0.9623     0.96232
   32          H           0.130289        0.8697     0.86971
 DIPOLE           X         Y         Z       TOTAL
 POINT-CHG.     0.218    -0.126     0.030     0.254
 HYBRID        -0.000     0.019     0.005     0.019
 SUM            0.218    -0.107     0.035     0.245


          ATOMIC ORBITAL ELECTRON POPULATIONS

     Atom    s        px        py        pz   
    1  C   1.19019   0.93696   0.96702   0.98878
    2  C   1.19396   0.95404   0.99118   0.95329
    3  C   1.18494   0.93541   0.95908   0.97402
    4  C   1.17395   0.96237   0.98761   0.98640
    5  C   1.17305   0.96520   0.98407   0.98577
    6  C   1.15679   0.98896   0.99421   0.94709
    7  C   1.17144   0.95507   0.97784   0.96883
    8  C   1.13148   0.93712   0.98622   0.96794
    9  C   1.13941   1.00907   0.98711   0.97978
   10  C   1.13667   1.00863   0.98405   0.97916
   11  C   1.22206   0.95846   0.98473   0.97943
   12  C   1.21844   0.95482   0.99953   0.99458
   13  H   0.92418
   14  H   0.91909
   15  H   0.92107
   16  H   0.95122
   17  H   0.94889
   18  H   0.94188
   19  H   0.94531
   20  H   0.94512
   21  H   0.94163
   22  H   0.94469
   23  H   0.94466
   24  H   0.93959
   25  H   0.93544
   26  H   0.95488
   27  H   0.96282
   28  H   0.96291
   29  H   0.95927
   30  H   0.95910
   31  H   0.96232
   32  H   0.86971
 *******************************************************************************
 **                                                                           **
 **                              MOPAC v23.1.2                                **
 **                                                                           **
 *******************************************************************************
 **          Digital Object Identifier (DOI): 10.5281/zenodo.6511958          **
 **    Visit the DOI location for information on how to cite this program.    **
 *******************************************************************************

                              PM3 CALCULATION RESULTS

 *******************************************************************************
 *  CALCULATION DONE: (MAX THREADS = 1)              Tue Jun  3 16:43:26 2025  *
 *  PM3        - The PM3 Hamiltonian to be used
 *  OLDGEO     - PREVIOUS GEOMETRY TO BE USED
 *  PRECISE    - TIGHTER CRITERIA TO BE USED
 *  NOSYM      - POINT-GROUP SYMMETRY SET TO C1
 *  THREADS=1  - MULTI-THREADING NOT USED
 *  T=         - A TIME OF 172800.0 SECONDS REQUESTED
 *  DUMP=N     - RESTART FILE WRITTEN EVERY 7200.0 SECONDS REQUESTED
 *  THERMO     - THERMODYNAMIC QUANTITIES TO BE CALCULATED
 *******************************************************************************
oldgeo thermo nosym precise THREADS=1  pm3
 InChI=1S/C12H20/c1-3-9-7-11(8-9)12-6-5-10(12)4-2/h7,10-12H,3-6,8H2,1-2H3

   ATOM   CHEMICAL          X               Y               Z
  NUMBER   SYMBOL      (ANGSTROMS)     (ANGSTROMS)     (ANGSTROMS)

     1       C         -0.71157858  *  -0.81335055  *  -0.67951189  *
     2       C         -2.11737908  *  -0.14899278  *  -0.57934603  *
     3       C          0.40089455  *   0.11866545  *  -1.08222506  *
     4       C         -2.63440416  *  -1.10001480  *  -1.68565317  *
     5       C         -1.23489131  *  -1.72719106  *  -1.81437494  *
     6       C         -2.81640243  *  -0.29657629  *   0.75579921  *
     7       C          1.83321946  *  -0.53273889  *  -1.15858606  *
     8       C          3.49731957  *   0.59337898  *   0.64122836  *
     9       C         -2.25466378  *   0.64977409  *   1.79291803  *
    10       C          3.46401549  *   1.64285755  *   1.73015998  *
    11       C          2.20638646  *   0.42218536  *  -0.03405844  *
    12       C          0.97521310  *   0.97176067  *   0.04425266  *
    13       H         -2.11289842  *   0.91855770  *  -0.88808729  *
    14       H         -0.42915387  *  -1.37148738  *   0.23915590  *
    15       H          0.13063494  *   0.70274648  *  -1.98674951  *
    16       H         -3.89983708  *  -0.10986133  *   0.61691167  *
    17       H         -2.73821930  *  -1.34258497  *   1.11476374  *
    18       H         -3.42356491  *  -1.79540016  *  -1.36004078  *
    19       H         -3.00078257  *  -0.59377604  *  -2.59084039  *
    20       H         -1.18659941  *  -2.80363731  *  -1.59355531  *
    21       H         -0.74807115  *  -1.57289144  *  -2.78963611  *
    22       H          3.80754358  *  -0.38615926  *   1.05834185  *
    23       H          4.26008491  *   0.85174258  *  -0.12119860  *
    24       H          2.37004694  *  -0.38120798  *  -2.10527784  *
    25       H          1.87849123  *  -1.60069701  *  -0.90099859  *
    26       H         -1.17722391  *   0.48789121  *   1.94110929  *
    27       H         -2.38607134  *   1.69964595  *   1.49822617  *
    28       H         -2.74744152  *   0.51595205  *   2.76399460  *
    29       H          2.73612616  *   1.39144078  *   2.51269207  *
    30       H          3.18697374  *   2.62870740  *   1.33429936  *
    31       H          4.44495124  *   1.74378899  *   2.21149136  *
    32       H          0.49993643  *   1.72849165  *   0.65473380  *



          CARTESIAN COORDINATES 

    NO.       ATOM           X           Y           Z

     1         C         -0.7116     -0.8134     -0.6795
     2         C         -2.1174     -0.1490     -0.5793
     3         C          0.4009      0.1187     -1.0822
     4         C         -2.6344     -1.1000     -1.6857
     5         C         -1.2349     -1.7272     -1.8144
     6         C         -2.8164     -0.2966      0.7558
     7         C          1.8332     -0.5327     -1.1586
     8         C          3.4973      0.5934      0.6412
     9         C         -2.2547      0.6498      1.7929
    10         C          3.4640      1.6429      1.7302
    11         C          2.2064      0.4222     -0.0341
    12         C          0.9752      0.9718      0.0443
    13         H         -2.1129      0.9186     -0.8881
    14         H         -0.4292     -1.3715      0.2392
    15         H          0.1306      0.7027     -1.9867
    16         H         -3.8998     -0.1099      0.6169
    17         H         -2.7382     -1.3426      1.1148
    18         H         -3.4236     -1.7954     -1.3600
    19         H         -3.0008     -0.5938     -2.5908
    20         H         -1.1866     -2.8036     -1.5936
    21         H         -0.7481     -1.5729     -2.7896
    22         H          3.8075     -0.3862      1.0583
    23         H          4.2601      0.8517     -0.1212
    24         H          2.3700     -0.3812     -2.1053
    25         H          1.8785     -1.6007     -0.9010
    26         H         -1.1772      0.4879      1.9411
    27         H         -2.3861      1.6996      1.4982
    28         H         -2.7474      0.5160      2.7640
    29         H          2.7361      1.3914      2.5127
    30         H          3.1870      2.6287      1.3343
    31         H          4.4450      1.7438      2.2115
    32         H          0.4999      1.7285      0.6547

  H: (PM3): J. J. P. STEWART, J. COMP. CHEM. 10, 209 (1989).
  C: (PM3): J. J. P. STEWART, J. COMP. CHEM. 10, 209 (1989).

           Empirical Formula: C12 H20  =    32 atoms



      MOLECULAR POINT GROUP   :   C1  


      RHF CALCULATION, NO. OF DOUBLY OCCUPIED LEVELS = 34



          HEAT OF FORMATION =      11.744125 KCALS/MOLE


          CARTESIAN COORDINATE DERIVATIVES

   NUMBER  ATOM         X            Y            Z

     1       C     -0.000877     0.003504    -0.003219
     2       C      0.002603     0.006641    -0.006841
     3       C     -0.000388     0.001073    -0.001459
     4       C      0.002697    -0.007810     0.000215
     5       C     -0.004441    -0.003857     0.004488
     6       C      0.000305     0.000514    -0.006763
     7       C     -0.003964    -0.001897    -0.004179
     8       C      0.001829    -0.009182     0.006168
     9       C     -0.003565     0.000408     0.001101
    10       C      0.002313     0.018562    -0.007390
    11       C     -0.004490    -0.002512     0.002858
    12       C      0.001260    -0.001202     0.003667
    13       H      0.004451     0.005251    -0.001636
    14       H      0.000233     0.001048    -0.000761
    15       H      0.000648    -0.000827     0.001611
    16       H     -0.008676    -0.000278    -0.003354
    17       H      0.005364     0.001115     0.002594
    18       H     -0.001208    -0.004647     0.002848
    19       H      0.003203     0.003608     0.004435
    20       H     -0.002839    -0.000946     0.000152
    21       H     -0.000373     0.000375     0.000856
    22       H     -0.007204    -0.013665    -0.004055
    23       H     -0.005557     0.010598     0.011322
    24       H     -0.000422     0.003005     0.001869
    25       H      0.003419     0.000353    -0.000764
    26       H      0.004408    -0.000627     0.004611
    27       H     -0.002598    -0.003472    -0.002156
    28       H      0.003405     0.000651     0.003803
    29       H      0.000275    -0.010622    -0.006868
    30       H      0.005479     0.005823     0.000205
    31       H      0.001288    -0.002552    -0.000925
    32       H      0.003422     0.001567    -0.002434



          GRADIENT NORM =   0.04566

          MOLECULAR WEIGHT =  164.29



          ROTATIONAL CONSTANTS IN CM(-1)

          A =    0.05075120   B =    0.01709589   C =    0.01354446



           PRINCIPAL MOMENTS OF INERTIA IN UNITS OF 10**(-40)*GRAM-CM**2

          A =      551.5682   B =     1637.3964   C =     2066.7310


          ORIENTATION OF MOLECULE IN FORCE CALCULATION

    NO.       ATOM         X         Y         Z

     1          C       0.3028   -0.8606    0.8164
     2          C       1.8609   -0.8606    0.8164
     3          C      -0.3295    0.5065    0.8164
     4          C       1.8507   -1.6085    2.1714
     5          C       0.3123   -1.5707    2.1921
     6          C       2.5145   -1.6211   -0.3183
     7          C      -1.9044    0.5221    0.7862
     8          C      -2.8100    1.6950   -1.4678
     9          C       2.4778   -0.8412   -1.6133
    10          C      -2.2625    2.3159   -2.7339
    11          C      -1.7617    1.2115   -0.5628
    12          C      -0.4115    1.1857   -0.5469
    13          H       2.2922    0.1614    0.8848
    14          H      -0.1310   -1.4825    0.0038
    15          H       0.1053    1.1523    1.6078
    16          H       3.5627   -1.8498   -0.0409
    17          H       2.0210   -2.6046   -0.4536
    18          H       2.2872   -2.6189    2.1403
    19          H       2.3389   -1.0690    2.9964
    20          H      -0.1761   -2.5563    2.2012
    21          H      -0.1238   -0.9838    3.0150
    22          H      -3.4808    0.8466   -1.7126
    23          H      -3.4371    2.4265   -0.9187
    24          H      -2.3850    1.1189    1.5738
    25          H      -2.3841   -0.4669    0.7587
    26          H       1.4462   -0.5955   -1.9039
    27          H       3.0251    0.1076   -1.5316
    28          H       2.9278   -1.4114   -2.4356
    29          H      -1.6626    1.5990   -3.3098
    30          H      -1.6176    3.1774   -2.5166
    31          H      -3.0735    2.6661   -3.3848
    32          H       0.3793    1.5007   -1.2153


    FIRST DERIVATIVES WILL BE USED IN THE CALCULATION OF SECOND DERIVATIVES

          ESTIMATED TIME TO COMPLETE CALCULATION =        4.50 SECONDS

    FOR POINT-GROUP C1   THERE ARE   1 UNIQUE SYMMETRY FUNCTIONS.

 STEP:   1 TIME =     0.04 SECS, INTEGRAL =      0.04 TIME LEFT: 172799.95
 STEP:   2 TIME =     0.04 SECS, INTEGRAL =      0.07 TIME LEFT: 172799.91
 STEP:   3 TIME =     0.04 SECS, INTEGRAL =      0.11 TIME LEFT: 172799.88
 STEP:   4 TIME =     0.04 SECS, INTEGRAL =      0.15 TIME LEFT: 172799.84
 STEP:   5 TIME =     0.04 SECS, INTEGRAL =      0.18 TIME LEFT: 172799.80
 STEP:   6 TIME =     0.04 SECS, INTEGRAL =      0.22 TIME LEFT: 172799.77
 STEP:   7 TIME =     0.04 SECS, INTEGRAL =      0.26 TIME LEFT: 172799.73
 STEP:   8 TIME =     0.04 SECS, INTEGRAL =      0.30 TIME LEFT: 172799.69
 STEP:   9 TIME =     0.04 SECS, INTEGRAL =      0.34 TIME LEFT: 172799.65
 STEP:  10 TIME =     0.04 SECS, INTEGRAL =      0.37 TIME LEFT: 172799.62
 STEP:  11 TIME =     0.04 SECS, INTEGRAL =      0.41 TIME LEFT: 172799.58
 STEP:  12 TIME =     0.04 SECS, INTEGRAL =      0.44 TIME LEFT: 172799.55
 STEP:  13 TIME =     0.04 SECS, INTEGRAL =      0.48 TIME LEFT: 172799.51
 STEP:  14 TIME =     0.04 SECS, INTEGRAL =      0.51 TIME LEFT: 172799.48
 STEP:  15 TIME =     0.04 SECS, INTEGRAL =      0.55 TIME LEFT: 172799.44
 STEP:  16 TIME =     0.04 SECS, INTEGRAL =      0.59 TIME LEFT: 172799.40
 STEP:  17 TIME =     0.04 SECS, INTEGRAL =      0.62 TIME LEFT: 172799.37
 STEP:  18 TIME =     0.04 SECS, INTEGRAL =      0.66 TIME LEFT: 172799.33
 STEP:  19 TIME =     0.04 SECS, INTEGRAL =      0.69 TIME LEFT: 172799.30
 STEP:  20 TIME =     0.04 SECS, INTEGRAL =      0.73 TIME LEFT: 172799.26
 STEP:  21 TIME =     0.04 SECS, INTEGRAL =      0.77 TIME LEFT: 172799.22
 STEP:  22 TIME =     0.04 SECS, INTEGRAL =      0.80 TIME LEFT: 172799.19
 STEP:  23 TIME =     0.04 SECS, INTEGRAL =      0.84 TIME LEFT: 172799.15
 STEP:  24 TIME =     0.04 SECS, INTEGRAL =      0.88 TIME LEFT: 172799.11
 STEP:  25 TIME =     0.04 SECS, INTEGRAL =      0.92 TIME LEFT: 172799.07
 STEP:  26 TIME =     0.04 SECS, INTEGRAL =      0.95 TIME LEFT: 172799.04
 STEP:  27 TIME =     0.04 SECS, INTEGRAL =      0.99 TIME LEFT: 172799.00
 STEP:  28 TIME =     0.04 SECS, INTEGRAL =      1.03 TIME LEFT: 172798.96
 STEP:  29 TIME =     0.04 SECS, INTEGRAL =      1.07 TIME LEFT: 172798.92
 STEP:  30 TIME =     0.04 SECS, INTEGRAL =      1.10 TIME LEFT: 172798.89
 STEP:  31 TIME =     0.04 SECS, INTEGRAL =      1.14 TIME LEFT: 172798.85
 STEP:  32 TIME =     0.04 SECS, INTEGRAL =      1.18 TIME LEFT: 172798.81
 STEP:  33 TIME =     0.04 SECS, INTEGRAL =      1.21 TIME LEFT: 172798.77
 STEP:  34 TIME =     0.04 SECS, INTEGRAL =      1.25 TIME LEFT: 172798.73
 STEP:  35 TIME =     0.04 SECS, INTEGRAL =      1.29 TIME LEFT: 172798.70
 STEP:  36 TIME =     0.04 SECS, INTEGRAL =      1.33 TIME LEFT: 172798.66
 STEP:  37 TIME =     0.04 SECS, INTEGRAL =      1.37 TIME LEFT: 172798.62
 STEP:  38 TIME =     0.04 SECS, INTEGRAL =      1.41 TIME LEFT: 172798.58
 STEP:  39 TIME =     0.04 SECS, INTEGRAL =      1.45 TIME LEFT: 172798.54
 STEP:  40 TIME =     0.04 SECS, INTEGRAL =      1.48 TIME LEFT: 172798.51
 STEP:  41 TIME =     0.04 SECS, INTEGRAL =      1.52 TIME LEFT: 172798.47
 STEP:  42 TIME =     0.04 SECS, INTEGRAL =      1.55 TIME LEFT: 172798.44
 STEP:  43 TIME =     0.04 SECS, INTEGRAL =      1.59 TIME LEFT: 172798.40
 STEP:  44 TIME =     0.04 SECS, INTEGRAL =      1.62 TIME LEFT: 172798.36
 STEP:  45 TIME =     0.04 SECS, INTEGRAL =      1.66 TIME LEFT: 172798.32
 STEP:  46 TIME =     0.04 SECS, INTEGRAL =      1.70 TIME LEFT: 172798.29
 STEP:  47 TIME =     0.04 SECS, INTEGRAL =      1.74 TIME LEFT: 172798.25
 STEP:  48 TIME =     0.04 SECS, INTEGRAL =      1.78 TIME LEFT: 172798.21
 STEP:  49 TIME =     0.04 SECS, INTEGRAL =      1.82 TIME LEFT: 172798.17
 STEP:  50 TIME =     0.04 SECS, INTEGRAL =      1.85 TIME LEFT: 172798.14
 STEP:  51 TIME =     0.04 SECS, INTEGRAL =      1.89 TIME LEFT: 172798.10
 STEP:  52 TIME =     0.04 SECS, INTEGRAL =      1.93 TIME LEFT: 172798.06
 STEP:  53 TIME =     0.04 SECS, INTEGRAL =      1.96 TIME LEFT: 172798.03
 STEP:  54 TIME =     0.04 SECS, INTEGRAL =      2.00 TIME LEFT: 172797.98
 STEP:  55 TIME =     0.04 SECS, INTEGRAL =      2.04 TIME LEFT: 172797.95
 STEP:  56 TIME =     0.04 SECS, INTEGRAL =      2.08 TIME LEFT: 172797.91
 STEP:  57 TIME =     0.04 SECS, INTEGRAL =      2.12 TIME LEFT: 172797.87
 STEP:  58 TIME =     0.04 SECS, INTEGRAL =      2.16 TIME LEFT: 172797.83
 STEP:  59 TIME =     0.04 SECS, INTEGRAL =      2.20 TIME LEFT: 172797.79
 STEP:  60 TIME =     0.04 SECS, INTEGRAL =      2.24 TIME LEFT: 172797.75
 STEP:  61 TIME =     0.04 SECS, INTEGRAL =      2.27 TIME LEFT: 172797.71
 STEP:  62 TIME =     0.04 SECS, INTEGRAL =      2.31 TIME LEFT: 172797.68
 STEP:  63 TIME =     0.04 SECS, INTEGRAL =      2.34 TIME LEFT: 172797.64
 STEP:  64 TIME =     0.04 SECS, INTEGRAL =      2.38 TIME LEFT: 172797.61
 STEP:  65 TIME =     0.04 SECS, INTEGRAL =      2.42 TIME LEFT: 172797.57
 STEP:  66 TIME =     0.04 SECS, INTEGRAL =      2.46 TIME LEFT: 172797.53
 STEP:  67 TIME =     0.04 SECS, INTEGRAL =      2.50 TIME LEFT: 172797.49
 STEP:  68 TIME =     0.04 SECS, INTEGRAL =      2.54 TIME LEFT: 172797.45
 STEP:  69 TIME =     0.04 SECS, INTEGRAL =      2.57 TIME LEFT: 172797.42
 STEP:  70 TIME =     0.04 SECS, INTEGRAL =      2.61 TIME LEFT: 172797.38
 STEP:  71 TIME =     0.04 SECS, INTEGRAL =      2.64 TIME LEFT: 172797.35
 STEP:  72 TIME =     0.04 SECS, INTEGRAL =      2.68 TIME LEFT: 172797.31
 STEP:  73 TIME =     0.04 SECS, INTEGRAL =      2.71 TIME LEFT: 172797.28
 STEP:  74 TIME =     0.04 SECS, INTEGRAL =      2.75 TIME LEFT: 172797.24
 STEP:  75 TIME =     0.04 SECS, INTEGRAL =      2.79 TIME LEFT: 172797.20
 STEP:  76 TIME =     0.04 SECS, INTEGRAL =      2.82 TIME LEFT: 172797.17
 STEP:  77 TIME =     0.04 SECS, INTEGRAL =      2.86 TIME LEFT: 172797.13
 STEP:  78 TIME =     0.04 SECS, INTEGRAL =      2.90 TIME LEFT: 172797.09
 STEP:  79 TIME =     0.04 SECS, INTEGRAL =      2.93 TIME LEFT: 172797.05
 STEP:  80 TIME =     0.04 SECS, INTEGRAL =      2.97 TIME LEFT: 172797.02
 STEP:  81 TIME =     0.04 SECS, INTEGRAL =      3.01 TIME LEFT: 172796.98
 STEP:  82 TIME =     0.04 SECS, INTEGRAL =      3.04 TIME LEFT: 172796.95
 STEP:  83 TIME =     0.04 SECS, INTEGRAL =      3.08 TIME LEFT: 172796.91
 STEP:  84 TIME =     0.04 SECS, INTEGRAL =      3.12 TIME LEFT: 172796.87
 STEP:  85 TIME =     0.04 SECS, INTEGRAL =      3.16 TIME LEFT: 172796.83
 STEP:  86 TIME =     0.04 SECS, INTEGRAL =      3.19 TIME LEFT: 172796.80
 STEP:  87 TIME =     0.04 SECS, INTEGRAL =      3.23 TIME LEFT: 172796.76
 STEP:  88 TIME =     0.04 SECS, INTEGRAL =      3.26 TIME LEFT: 172796.73
 STEP:  89 TIME =     0.04 SECS, INTEGRAL =      3.30 TIME LEFT: 172796.69
 STEP:  90 TIME =     0.04 SECS, INTEGRAL =      3.34 TIME LEFT: 172796.65
 STEP:  91 TIME =     0.04 SECS, INTEGRAL =      3.37 TIME LEFT: 172796.62
 STEP:  92 TIME =     0.04 SECS, INTEGRAL =      3.41 TIME LEFT: 172796.58
 STEP:  93 TIME =     0.04 SECS, INTEGRAL =      3.45 TIME LEFT: 172796.54
 STEP:  94 TIME =     0.04 SECS, INTEGRAL =      3.48 TIME LEFT: 172796.51
 STEP:  95 TIME =     0.04 SECS, INTEGRAL =      3.52 TIME LEFT: 172796.47
 STEP:  96 TIME =     0.04 SECS, INTEGRAL =      3.56 TIME LEFT: 172796.43

(To convert to Hartree/Bohr^2, multiply by (10^(-21) x N x a0^2)/(4.184 x 627.51) =  0.0642)


           FORCE MATRIX IN MILLIDYNES/ANGSTROM


                  C  1       C  2       C  3       C  4       C  5       C  6
 ------------------------------------------------------------------------------
     C    1  14.584555
     C    2   3.153531  14.431468
     C    3   4.511655   0.540732  14.564775
     C    4   1.815042   3.478214   0.042169  14.439067
     C    5   3.462321   1.813997   0.550239   3.765829  14.436960
     C    6   0.529050   4.317106   0.034820   0.544837   0.041531  14.493765
     C    7   0.501082   0.043262   2.865361   0.004291   0.021597   0.005964
     C    8   0.020251   0.002049   0.130999   0.000563   0.003292   0.000258
     C    9   0.028834   0.660674   0.002420   0.050899   0.005015   4.469466
     C   10   0.001221   0.000355   0.007518   0.000154   0.000276   0.000312
     C   11   0.051601   0.005408   2.238338   0.000610   0.006594   0.000711
     C   12   0.554364   0.020267   3.878476   0.004907   0.045652   0.003083
     H   13   0.437921   4.398483   0.035677   0.428309   0.026439   0.430280
     H   14   4.399824   0.436920   0.435921   0.026300   0.428047   0.031260
     H   15   0.441653   0.023564   4.414195   0.001549   0.020804   0.001156
     H   16   0.046612   0.432918   0.006074   0.020197   0.003597   4.452170
     H   17   0.024957   0.450634   0.001521   0.019189   0.001844   4.437390
     H   18   0.029500   0.453338   0.001598   4.669194   0.445854   0.030409
     H   19   0.030731   0.442802   0.003886   4.707164   0.445178   0.033407
     H   20   0.443095   0.030926   0.033974   0.445381   4.707968   0.003802
     H   21   0.453030   0.029618   0.028578   0.446104   4.675672   0.001890
     H   22   0.003484   0.000392   0.016879   0.000105   0.000823   0.000133
     H   23   0.002359   0.000325   0.017762   0.000078   0.000287   0.000113
     H   24   0.027467   0.004350   0.422944   0.000277   0.001669   0.000967
     H   25   0.022687   0.002180   0.433786   0.000544   0.003134   0.000647
     H   26   0.006583   0.021634   0.003815   0.002029   0.000576   0.463323
     H   27   0.002114   0.023070   0.000649   0.001583   0.000415   0.464280
     H   28   0.002094   0.052395   0.000456   0.008775   0.000651   0.451269
     H   29   0.000283   0.000083   0.000771   0.000048   0.000115   0.000130
     H   30   0.000353   0.000070   0.000703   0.000040   0.000153   0.000070
     H   31   0.000236   0.000098   0.000909   0.000059   0.000090   0.000104
     H   32   0.009793   0.002216   0.338035   0.000960   0.001729   0.002357


                  C  7       C  8       C  9       C 10       C 11       C 12
 ------------------------------------------------------------------------------
     C    7  14.184479
     C    8   0.375942  14.948805
     C    9   0.000627   0.000296  14.362576
     C   10   0.037667   4.460830   0.000173  14.397155
     C   11   3.957614   5.595954   0.001157   0.715576  19.081477
     C   12   2.232609   0.556638   0.017554   0.038483  10.056570  18.195749
     H   13   0.002672   0.000459   0.033446   0.000084   0.000499   0.003778
     H   14   0.021104   0.001359   0.007475   0.000301   0.004049   0.017963
     H   15   0.414665   0.017136   0.000353   0.000870   0.042465   0.413685
     H   16   0.001319   0.000113   0.440304   0.000109   0.000183   0.001054
     H   17   0.000539   0.000101   0.437600   0.000047   0.000176   0.000944
     H   18   0.000665   0.000146   0.002871   0.000044   0.000193   0.000642
     H   19   0.000823   0.000147   0.006193   0.000043   0.000204   0.000880
     H   20   0.001215   0.000546   0.000796   0.000094   0.000690   0.005827
     H   21   0.003776   0.000458   0.000505   0.000135   0.001063   0.002309
     H   22   0.010980   4.414556   0.000137   0.438744   0.426418   0.030236
     H   23   0.010999   4.411614   0.000139   0.439059   0.427237   0.028421
     H   24   4.721643   0.007420   0.000138   0.001694   0.439374   0.039936
     H   25   4.699368   0.007500   0.000170   0.001745   0.439343   0.040464
     H   26   0.000530   0.000578   4.683932   0.000230   0.002570   0.009161
     H   27   0.000341   0.000205   4.717672   0.000066   0.000371   0.001762
     H   28   0.000250   0.000206   4.757647   0.000057   0.000409   0.002248
     H   29   0.001782   0.463913   0.000195   4.737296   0.019805   0.004992
     H   30   0.001780   0.464009   0.000067   4.737748   0.020119   0.005090
     H   31   0.006476   0.448751   0.000095   4.754584   0.057448   0.003410
     H   32   0.110165   0.035464   0.008568   0.003096   0.427407   5.250566


                  H 13       H 14       H 15       H 16       H 17       H 18
 ------------------------------------------------------------------------------
     H   13   4.905088
     H   14   0.029159   4.899433
     H   15   0.024071   0.041036   4.928221
     H   16   0.023919   0.003110   0.000391   5.062836
     H   17   0.043143   0.027325   0.000550   0.571899   5.054605
     H   18   0.031700   0.002625   0.000606   0.012443   0.014763   5.298754
     H   19   0.026823   0.001226   0.000764   0.001953   0.001218   0.556660
     H   20   0.001268   0.026844   0.001389   0.000695   0.000838   0.023081
     H   21   0.002642   0.031503   0.018423   0.000607   0.000536   0.033463
     H   22   0.000145   0.000334   0.001961   0.000045   0.000044   0.000033
     H   23   0.000092   0.000242   0.003081   0.000045   0.000033   0.000033
     H   24   0.000452   0.001326   0.025961   0.000278   0.000074   0.000148
     H   25   0.000619   0.016605   0.024503   0.000141   0.000214   0.000210
     H   26   0.002267   0.009267   0.000326   0.049047   0.023245   0.000412
     H   27   0.021994   0.000539   0.000248   0.025393   0.048306   0.000436
     H   28   0.002062   0.000530   0.000127   0.027817   0.031229   0.000678
     H   29   0.000042   0.000095   0.000297   0.000050   0.000024   0.000016
     H   30   0.000046   0.000075   0.000207   0.000020   0.000018   0.000015
     H   31   0.000032   0.000104   0.000165   0.000045   0.000023   0.000013
     H   32   0.001536   0.002833   0.005419   0.000783   0.000645   0.000322


                  H 19       H 20       H 21       H 22       H 23       H 24
 ------------------------------------------------------------------------------
     H   19   5.328148
     H   20   0.032996   5.328794
     H   21   0.023163   0.556568   5.303736
     H   22   0.000027   0.000178   0.000079   5.003977
     H   23   0.000031   0.000076   0.000093   0.568502   5.001662
     H   24   0.000104   0.000236   0.000786   0.000800   0.003080   5.336584
     H   25   0.000238   0.000943   0.000915   0.003068   0.000884   0.528653
     H   26   0.000430   0.000238   0.000284   0.000194   0.000200   0.000156
     H   27   0.000313   0.000178   0.000092   0.000087   0.000073   0.000079
     H   28   0.001175   0.000122   0.000095   0.000060   0.000073   0.000064
     H   29   0.000019   0.000047   0.000033   0.023953   0.048534   0.000378
     H   30   0.000011   0.000051   0.000023   0.048460   0.023841   0.000273
     H   31   0.000016   0.000035   0.000043   0.029070   0.029028   0.000335
     H   32   0.000385   0.000491   0.000764   0.004045   0.004177   0.014500


                  H 25       H 26       H 27       H 28       H 29       H 30
 ------------------------------------------------------------------------------
     H   25   5.316847
     H   26   0.000172   5.416192
     H   27   0.000106   0.578552   5.461626
     H   28   0.000048   0.563539   0.572624   5.489986
     H   29   0.000261   0.000420   0.000056   0.000058   5.477093
     H   30   0.000370   0.000110   0.000037   0.000036   0.581104   5.477844
     H   31   0.000337   0.000091   0.000034   0.000024   0.571605   0.571460
     H   32   0.014737   0.018053   0.004706   0.000925   0.003551   0.003724


                  H 31       H 32
 ------------------------------
     H   31   5.488247
     H   32   0.000757   5.641598


          HEAT OF FORMATION =      11.744125 KCALS/MOLE

          ZERO POINT ENERGY     181.540 KCAL/MOL


           NORMAL COORDINATE ANALYSIS (Total motion = 1 Angstrom)


   Root No.       1         2         3         4         5         6         7         8

                 1 A       2 A       3 A       4 A       5 A       6 A       7 A       8 A   

                  26.7      31.3      71.9      86.1     109.7     148.3     155.8     186.5
  
           1    0.0014    0.0060    0.0026   -0.0101    0.0002    0.0090   -0.0050   -0.0060
           2   -0.0021    0.0038   -0.0090   -0.0041    0.0099    0.0118    0.0039    0.0017
           3    0.0046   -0.0136   -0.0084    0.0078   -0.0135    0.0024   -0.0058    0.0043
           4    0.0014    0.0061    0.0029   -0.0098    0.0001    0.0084   -0.0049   -0.0065
           5    0.0028   -0.0075    0.0088   -0.0029    0.0087   -0.0032    0.0075   -0.0031
           6   -0.0008    0.0056   -0.0011   -0.0157   -0.0067    0.0068   -0.0053   -0.0070
           7   -0.0026    0.0147   -0.0084   -0.0128   -0.0001    0.0038    0.0017   -0.0039
           8   -0.0040    0.0079   -0.0143   -0.0054    0.0105    0.0093    0.0071    0.0033
           9   -0.0057   -0.0187   -0.0068    0.0054    0.0131    0.0034    0.0054    0.0117
          10    0.0086   -0.0161    0.0054    0.0113   -0.0066   -0.0020   -0.0048    0.0010
          11    0.0168   -0.0092    0.0262    0.0148    0.0157   -0.0133    0.0118   -0.0013
          12    0.0069    0.0045    0.0085   -0.0059   -0.0027    0.0014   -0.0029   -0.0057
          13    0.0085   -0.0160    0.0044    0.0117   -0.0075   -0.0013   -0.0056    0.0015
          14    0.0110    0.0022   -0.0070    0.0113   -0.0132    0.0095   -0.0091    0.0038
          15    0.0114   -0.0143   -0.0072    0.0160   -0.0257    0.0017   -0.0134    0.0058
          16   -0.0004    0.0150    0.0157   -0.0245   -0.0003   -0.0032   -0.0025   -0.0049
          17   -0.0071   -0.0108   -0.0015   -0.0188   -0.0079   -0.0063    0.0040   -0.0073
          18    0.0047    0.0130    0.0131   -0.0140    0.0035    0.0019   -0.0017   -0.0035
          19   -0.0026    0.0143   -0.0083   -0.0130   -0.0003    0.0039    0.0013   -0.0029
          20   -0.0085    0.0165   -0.0193   -0.0075    0.0003   -0.0186    0.0180   -0.0008
          21   -0.0084    0.0076   -0.0123   -0.0019    0.0073   -0.0173    0.0213   -0.0065
          22   -0.0021   -0.0181   -0.0039   -0.0022    0.0009    0.0004    0.0003    0.0043
          23   -0.0234   -0.0010    0.0316    0.0063   -0.0165   -0.0116   -0.0218   -0.0074
          24   -0.0162    0.0124    0.0126   -0.0003   -0.0017   -0.0038   -0.0073   -0.0020
          25   -0.0080    0.0412    0.0030    0.0499    0.0081   -0.0078    0.0036    0.0167
          26   -0.0211   -0.0068   -0.0265    0.0061   -0.0244   -0.0035   -0.0008   -0.0108
          27   -0.0034    0.0147   -0.0014   -0.0010   -0.0065    0.0039   -0.0048   -0.0058
          28    0.0004   -0.0375   -0.0038    0.0060    0.0038   -0.0201    0.0225   -0.0181
          29    0.0574    0.0088    0.0081    0.0010   -0.0110    0.0046   -0.0026    0.0022
          30    0.0245    0.0089    0.0012    0.0006    0.0022   -0.0041    0.0111   -0.0062
          31   -0.0022   -0.0045   -0.0056   -0.0075    0.0006    0.0085   -0.0063    0.0104
          32   -0.0153    0.0021    0.0036   -0.0013    0.0094   -0.0008   -0.0104    0.0084
          33   -0.0118   -0.0017   -0.0003    0.0019    0.0122   -0.0074    0.0061   -0.0007
          34   -0.0022   -0.0044   -0.0056   -0.0075    0.0009    0.0089   -0.0063    0.0104
          35   -0.0124   -0.0061   -0.0014   -0.0016    0.0296    0.0266   -0.0090    0.0165
          36   -0.0099   -0.0246   -0.0003    0.0073    0.0228    0.0109   -0.0013    0.0168
          37   -0.0016    0.0131   -0.0083   -0.0096    0.0035    0.0195   -0.0062   -0.0059
          38    0.0049   -0.0108    0.0143   -0.0018    0.0075   -0.0086    0.0083   -0.0029
          39   -0.0131    0.0125   -0.0144   -0.0349   -0.0155    0.0131   -0.0093   -0.0096
          40    0.0005    0.0114    0.0114   -0.0221    0.0023    0.0097   -0.0057   -0.0130
          41   -0.0110    0.0080   -0.0121   -0.0126    0.0268    0.0136    0.0131    0.0028
          42    0.0120   -0.0196   -0.0105    0.0209   -0.0275    0.0001   -0.0124    0.0073
          43   -0.0059    0.0312   -0.0164   -0.0177   -0.0038   -0.0137    0.0156   -0.0129
          44    0.0024    0.0139   -0.0159   -0.0057   -0.0037    0.0054    0.0070   -0.0053
          45   -0.0091   -0.0327   -0.0006    0.0084    0.0262    0.0159   -0.0027    0.0236
          46    0.0014    0.0088    0.0193   -0.0431   -0.0025   -0.0031   -0.0037   -0.0088
          47   -0.0007   -0.0218    0.0205   -0.0801   -0.0111   -0.0155    0.0038   -0.0114
          48    0.0031    0.0274    0.0176    0.0064    0.0091   -0.0062    0.0026    0.0089
          49    0.0023    0.0073    0.0315   -0.0739   -0.0060   -0.0120   -0.0031   -0.0077
          50   -0.0102   -0.0056   -0.0120    0.0100   -0.0066   -0.0023    0.0041   -0.0052
          51    0.0172    0.0033    0.0315   -0.0425    0.0143    0.0038   -0.0004   -0.0082
          52    0.0125   -0.0232    0.0286    0.0134    0.0146   -0.0177    0.0102   -0.0030
          53    0.0182   -0.0124    0.0357    0.0155    0.0245   -0.0199    0.0181   -0.0030
          54    0.0161    0.0085    0.0274    0.0012    0.0117   -0.0072    0.0050   -0.0078
          55    0.0091   -0.0222   -0.0154    0.0221   -0.0309    0.0067   -0.0191    0.0095
          56    0.0273   -0.0140    0.0489    0.0270    0.0318   -0.0278    0.0229   -0.0023
          57   -0.0002    0.0113    0.0061   -0.0202    0.0013    0.0056   -0.0016   -0.0102
          58    0.0125   -0.0235    0.0267    0.0144    0.0123   -0.0169    0.0088   -0.0020
          59    0.0092    0.0059   -0.0181    0.0102   -0.0234    0.0172   -0.0165    0.0056
          60    0.0223   -0.0213   -0.0119    0.0344   -0.0525    0.0012   -0.0285    0.0116
          61    0.0088   -0.0218   -0.0176    0.0223   -0.0331    0.0084   -0.0210    0.0100
          62    0.0171    0.0048   -0.0166    0.0194   -0.0378    0.0156   -0.0246    0.0068
          63    0.0073   -0.0192   -0.0121    0.0159   -0.0218    0.0026   -0.0107    0.0083
          64    0.0431   -0.0148   -0.0360   -0.0089    0.0246    0.0099    0.0154    0.0180
          65   -0.0438   -0.0047    0.0529    0.0119   -0.0340   -0.0190   -0.0272   -0.0195
          66   -0.0696    0.0164    0.0271   -0.0012   -0.0064   -0.0043   -0.0289    0.0018
          67   -0.0496   -0.0171    0.0291    0.0030   -0.0241   -0.0059   -0.0188   -0.0063
          68   -0.0763   -0.0080    0.0549    0.0119   -0.0287   -0.0234   -0.0344   -0.0184
          69   -0.0000    0.0229    0.0196   -0.0018   -0.0142    0.0051   -0.0127    0.0008
          70   -0.0057    0.0309   -0.0140   -0.0176   -0.0065   -0.0181    0.0154   -0.0145
          71   -0.0055    0.0272   -0.0355   -0.0118   -0.0066   -0.0367    0.0402   -0.0074
          72   -0.0125    0.0097   -0.0035   -0.0014    0.0088   -0.0171    0.0132   -0.0085
          73    0.0002    0.0086   -0.0040   -0.0116    0.0055    0.0221   -0.0072   -0.0004
          74   -0.0100    0.0188   -0.0208   -0.0080   -0.0023   -0.0271    0.0215   -0.0018
          75   -0.0038    0.0258   -0.0321   -0.0089    0.0006   -0.0351    0.0493   -0.0192
          76   -0.0099    0.0478   -0.0004    0.0715    0.0122   -0.0057    0.0045    0.0132
          77   -0.0271    0.0058   -0.0413    0.0847    0.0028    0.0450   -0.0099   -0.1433
          78   -0.0018    0.0019   -0.0017   -0.0110    0.0020    0.0369   -0.0157   -0.1035
          79   -0.0105    0.0512   -0.0056    0.1176    0.0375    0.0391   -0.0046   -0.1148
          80   -0.0186   -0.0135   -0.0198   -0.0351   -0.0398   -0.0292    0.0038    0.0610
          81   -0.0158    0.0244   -0.0215    0.0226   -0.0253   -0.0120   -0.0031    0.0468
          82   -0.0098    0.0453    0.0051    0.0205   -0.0181   -0.0604    0.0159    0.1700
          83   -0.0286   -0.0098   -0.0377   -0.0122   -0.0490   -0.0233   -0.0004    0.0484
          84    0.0008    0.0190    0.0075   -0.0045   -0.0038   -0.0111    0.0017    0.0369
          85    0.0520   -0.0375   -0.0506   -0.0031    0.0598   -0.0871   -0.0750   -0.0367
          86    0.1120    0.0165   -0.0190   -0.0059    0.0106   -0.0074   -0.0315    0.0046
          87    0.0104   -0.0006   -0.0137   -0.0003    0.0336   -0.0587   -0.0544   -0.0283
          88   -0.0489   -0.0428    0.0416    0.0170   -0.0495    0.0386    0.1239   -0.0072
          89    0.0808    0.0137   -0.0224   -0.0075    0.0283   -0.0402   -0.0862   -0.0048
          90    0.0780    0.0052   -0.0121    0.0019    0.0044   -0.0002    0.0430   -0.0110
          91    0.0001   -0.0478   -0.0022    0.0106    0.0037   -0.0296    0.0382   -0.0305
          92    0.0440    0.0042    0.0471    0.0123   -0.0677    0.0753    0.1257    0.0155
          93    0.0176    0.0193    0.0203    0.0009   -0.0281    0.0455    0.0608    0.0162
          94   -0.0019   -0.0140   -0.0040   -0.0054    0.0015    0.0116   -0.0107    0.0202
          95   -0.0145   -0.0176    0.0036    0.0023    0.0455    0.0546   -0.0193    0.0174
          96   -0.0105   -0.0414    0.0040    0.0117    0.0312    0.0275   -0.0114    0.0290


   Root No.       9        10        11        12        13        14        15        16

                 9 A      10 A      11 A      12 A      13 A      14 A      15 A      16 A   

                 196.2     243.5     288.4     323.4     406.5     435.4     455.4     477.8
  
           1    0.0082   -0.0108   -0.0192    0.0048   -0.0052   -0.0174   -0.0093   -0.0103
           2    0.0152   -0.0047   -0.0254   -0.0194   -0.0096    0.0011   -0.0042   -0.0120
           3   -0.0042    0.0117   -0.0159   -0.0083    0.0107   -0.0022    0.0219   -0.0091
           4    0.0089   -0.0078   -0.0212    0.0094   -0.0100   -0.0178   -0.0111   -0.0187
           5   -0.0010    0.0066   -0.0136   -0.0239    0.0149    0.0059   -0.0237    0.0216
           6   -0.0007   -0.0011   -0.0172   -0.0043    0.0139   -0.0149    0.0020   -0.0041
           7   -0.0043   -0.0156    0.0074   -0.0029    0.0077   -0.0036    0.0155    0.0186
           8    0.0093   -0.0041   -0.0154   -0.0160   -0.0057    0.0102    0.0158   -0.0032
           9   -0.0056    0.0138   -0.0063   -0.0140   -0.0237   -0.0050   -0.0060   -0.0079
          10   -0.0038    0.0071   -0.0227    0.0153    0.0042    0.0124    0.0006    0.0037
          11   -0.0211   -0.0200    0.0167    0.0016   -0.0072   -0.0005   -0.0023    0.0007
          12   -0.0110   -0.0150    0.0001    0.0062    0.0041   -0.0277    0.0177   -0.0211
          13   -0.0017    0.0083   -0.0222    0.0154    0.0034    0.0129   -0.0002    0.0037
          14    0.0276   -0.0095    0.0284   -0.0033   -0.0170   -0.0061   -0.0219   -0.0012
          15    0.0023    0.0099    0.0113    0.0038    0.0116   -0.0027    0.0210   -0.0009
          16    0.0160    0.0229    0.0205    0.0175   -0.0215    0.0058    0.0071   -0.0149
          17    0.0005    0.0199    0.0095   -0.0242    0.0217   -0.0136    0.0063    0.0067
          18    0.0018    0.0074   -0.0077    0.0008    0.0060    0.0183   -0.0112    0.0189
          19   -0.0076   -0.0159    0.0113   -0.0067    0.0128   -0.0010    0.0162    0.0254
          20   -0.0155    0.0232   -0.0065    0.0149   -0.0021    0.0123   -0.0003   -0.0219
          21    0.0042    0.0051    0.0001    0.0063   -0.0175   -0.0180    0.0022    0.0260
          22   -0.0138    0.0033    0.0082   -0.0114   -0.0140   -0.0131   -0.0112    0.0173
          23    0.0035    0.0003   -0.0110   -0.0014   -0.0061   -0.0053    0.0043    0.0050
          24   -0.0001   -0.0103    0.0123   -0.0181    0.0071    0.0120   -0.0083   -0.0114
          25    0.0097    0.0154    0.0039   -0.0087    0.0036   -0.0058    0.0069   -0.0038
          26   -0.0158   -0.0172    0.0072    0.0094   -0.0057   -0.0015    0.0013   -0.0042
          27   -0.0071   -0.0134   -0.0105    0.0219   -0.0109    0.0324   -0.0185    0.0178
          28    0.0279   -0.0131    0.0021   -0.0006    0.0063    0.0053    0.0009   -0.0031
          29   -0.0063    0.0065   -0.0079    0.0022   -0.0114   -0.0098    0.0048    0.0121
          30    0.0119   -0.0143    0.0127   -0.0137    0.0158    0.0223   -0.0056   -0.0237
          31   -0.0249    0.0012    0.0157   -0.0175    0.0043    0.0088   -0.0124   -0.0102
          32   -0.0036    0.0102    0.0044    0.0388    0.0384   -0.0122   -0.0239   -0.0114
          33    0.0093   -0.0012    0.0080    0.0154    0.0074   -0.0218   -0.0148    0.0166
          34   -0.0242    0.0006    0.0158   -0.0173    0.0048    0.0097   -0.0105   -0.0103
          35    0.0121   -0.0071    0.0069    0.0224    0.0107    0.0147    0.0306    0.0064
          36   -0.0006    0.0104    0.0068    0.0049   -0.0207   -0.0080   -0.0036    0.0007
          37    0.0168   -0.0214   -0.0421    0.0052   -0.0190   -0.0295   -0.0141   -0.0359
          38   -0.0056    0.0114   -0.0029   -0.0208    0.0177    0.0122   -0.0213    0.0293
          39    0.0140    0.0111   -0.0231   -0.0150    0.0223   -0.0271    0.0015   -0.0081
          40    0.0103   -0.0121   -0.0284    0.0038    0.0010   -0.0305   -0.0278   -0.0133
          41    0.0097   -0.0073   -0.0379   -0.0297   -0.0210    0.0012   -0.0041   -0.0163
          42   -0.0014    0.0150    0.0005    0.0012    0.0157    0.0051    0.0319   -0.0038
          43   -0.0089   -0.0145    0.0169    0.0087    0.0100   -0.0064    0.0246    0.0420
          44    0.0152   -0.0074   -0.0319   -0.0275   -0.0003    0.0055    0.0183   -0.0072
          45   -0.0080    0.0162    0.0029   -0.0099   -0.0286   -0.0001   -0.0135   -0.0170
          46    0.0187    0.0285    0.0272    0.0213   -0.0254    0.0063    0.0125   -0.0193
          47    0.0154    0.0610    0.0561   -0.0146    0.0075    0.0076    0.0367    0.0033
          48    0.0050    0.0220    0.0054   -0.0068    0.0099    0.0350   -0.0052    0.0330
          49    0.0278    0.0572    0.0639    0.0283   -0.0355    0.0235    0.0371   -0.0209
          50   -0.0067    0.0005   -0.0111   -0.0277    0.0272   -0.0227   -0.0068    0.0079
          51    0.0105    0.0225   -0.0111   -0.0083    0.0112    0.0224   -0.0196    0.0277
          52   -0.0399   -0.0034   -0.0336    0.0217    0.0102    0.0148    0.0219   -0.0010
          53   -0.0364   -0.0242    0.0117    0.0038   -0.0042    0.0002    0.0069   -0.0013
          54   -0.0335   -0.0455    0.0196    0.0274   -0.0183   -0.0502    0.0468   -0.0593
          55    0.0234    0.0272   -0.0119    0.0126    0.0066    0.0307   -0.0110    0.0230
          56   -0.0540   -0.0451    0.0316    0.0213   -0.0208   -0.0119    0.0321   -0.0267
          57   -0.0060   -0.0108   -0.0160   -0.0046    0.0113   -0.0314    0.0031   -0.0156
          58   -0.0365    0.0006   -0.0339    0.0213    0.0112    0.0193    0.0205    0.0019
          59    0.0452   -0.0056    0.0351   -0.0060   -0.0211   -0.0092   -0.0331    0.0004
          60    0.0205    0.0171    0.0607    0.0185    0.0068    0.0006   -0.0016    0.0205
          61    0.0276    0.0283   -0.0101    0.0141    0.0033    0.0277   -0.0135    0.0190
          62    0.0534   -0.0077    0.0705    0.0057   -0.0254   -0.0128   -0.0493    0.0126
          63   -0.0001    0.0192   -0.0113   -0.0033    0.0169    0.0094    0.0322   -0.0025
          64   -0.0199    0.0147    0.0210    0.0331    0.0278   -0.0337   -0.0440    0.0128
          65    0.0123   -0.0094   -0.0222   -0.0339   -0.0395    0.0097    0.0324    0.0109
          66   -0.0123   -0.0090    0.0154   -0.0293    0.0064    0.0184   -0.0131   -0.0192
          67   -0.0142   -0.0073   -0.0020   -0.0615   -0.0563    0.0112    0.0189    0.0183
          68    0.0125   -0.0072   -0.0196   -0.0211   -0.0266    0.0021    0.0217    0.0105
          69   -0.0131   -0.0122    0.0119   -0.0501   -0.0154    0.0304    0.0036   -0.0174
          70   -0.0128   -0.0075    0.0171    0.0207    0.0108   -0.0056    0.0211    0.0380
          71   -0.0310    0.0413   -0.0108    0.0094   -0.0423    0.0371    0.0227   -0.0352
          72    0.0125   -0.0032    0.0069    0.0273    0.0110   -0.0389   -0.0116    0.0434
          73    0.0095   -0.0352    0.0037   -0.0279    0.0160   -0.0077    0.0268    0.0431
          74   -0.0238    0.0327   -0.0028    0.0260   -0.0034    0.0153   -0.0062   -0.0312
          75   -0.0015    0.0129   -0.0081   -0.0058   -0.0644    0.0034    0.0455    0.0377
          76    0.0070    0.0163    0.0006   -0.0172    0.0122   -0.0114    0.0080   -0.0012
          77   -0.0405    0.0077    0.0184    0.0059   -0.0037   -0.0014   -0.0009   -0.0037
          78   -0.0180    0.0051    0.0104    0.0478   -0.0386    0.0510   -0.0232    0.0085
          79   -0.0109    0.0499    0.0167   -0.0204    0.0127   -0.0113    0.0067   -0.0025
          80   -0.0033   -0.0337    0.0010    0.0146   -0.0099    0.0010    0.0020   -0.0049
          81   -0.0142   -0.0573   -0.0251    0.0435   -0.0278    0.0463   -0.0266    0.0174
          82    0.0284   -0.0249   -0.0201   -0.0151    0.0136   -0.0116    0.0097    0.0022
          83   -0.0165   -0.0591   -0.0005    0.0427   -0.0351    0.0182   -0.0059   -0.0109
          84    0.0036   -0.0067   -0.0183   -0.0040    0.0143    0.0166   -0.0124    0.0261
          85    0.0382   -0.0221   -0.0018   -0.0105    0.0048    0.0145    0.0080   -0.0095
          86   -0.0153    0.0099   -0.0071   -0.0013   -0.0214   -0.0154    0.0052    0.0220
          87    0.0335   -0.0278    0.0075   -0.0197    0.0259    0.0384    0.0014   -0.0419
          88    0.0315   -0.0105    0.0046    0.0118    0.0185    0.0076   -0.0016   -0.0107
          89   -0.0129    0.0058   -0.0099   -0.0092   -0.0237   -0.0150    0.0051    0.0219
          90    0.0283   -0.0199    0.0130   -0.0057    0.0295    0.0379    0.0015   -0.0418
          91    0.0520   -0.0234   -0.0005    0.0054    0.0241    0.0233    0.0087   -0.0256
          92    0.0001    0.0097   -0.0044    0.0196    0.0033   -0.0046    0.0049    0.0017
          93   -0.0143   -0.0000    0.0180   -0.0119    0.0026    0.0038   -0.0152   -0.0028
          94   -0.0345    0.0104    0.0177   -0.0232   -0.0014    0.0146   -0.0241   -0.0285
          95    0.0239   -0.0232    0.0176    0.0287   -0.0050    0.0414    0.0960    0.0327
          96   -0.0073    0.0144    0.0143    0.0007   -0.0355    0.0104    0.0113   -0.0083


   Root No.      17        18        19        20        21        22        23        24

                17 A      18 A      19 A      20 A      21 A      22 A      23 A      24 A   

                 500.1     716.7     745.9     799.4     820.3     842.3     869.7     881.8
  
           1   -0.0116   -0.0027    0.0088   -0.0044    0.0119   -0.0118   -0.0025   -0.0044
           2    0.0204    0.0150    0.0022   -0.0076    0.0078   -0.0062    0.0135   -0.0097
           3    0.0179    0.0085    0.0294   -0.0012    0.0045   -0.0122    0.0045   -0.0030
           4   -0.0133   -0.0011    0.0197    0.0056   -0.0031   -0.0063   -0.0070    0.0036
           5   -0.0139   -0.0034    0.0287    0.0041    0.0014   -0.0102   -0.0116    0.0058
[...]
 TRANSITION DIPOLE   0.0448         C  6 -- H 16         +35.0% ( 61.1%)     96.3%
 TRAVEL (Ang.)       0.2608         C  2 -- H 13         +22.1% ( 48.5%)    100.0%
 REDUCED MASS        0.3358         C  1 -- H 14          +1.3% ( 11.9%)     99.9%
 EFFECTIVE MASS      1.5129
 FORCE CONSTANT      1.7255

 VIBRATION         75   75A           ATOM PAIR      ENERGY CONTRIBUTION    RADIAL
 FREQUENCY          2955.76         C  3 -- H 15         +86.0% ( 94.6%)    100.0%
 TRANSITION DIPOLE   0.1283         C  1 -- H 14          +9.4% ( 31.3%)    100.0%
 TRAVEL (Ang.)       0.1738         C  3 -- C  7          +0.9% (  9.9%)     14.2%
 REDUCED MASS        0.7553         C  3 -- C 11          +0.9% (  9.9%)     32.2%
 EFFECTIVE MASS      1.4375
 FORCE CONSTANT      3.8879

 VIBRATION         76   76A           ATOM PAIR      ENERGY CONTRIBUTION    RADIAL
 FREQUENCY          3017.89         C  8 -- H 22         +49.6% ( 69.4%)     97.8%
 TRANSITION DIPOLE   0.0723         C  8 -- H 23         +48.7% ( 68.8%)     97.7%
 TRAVEL (Ang.)       0.2156         C  8 -- C 10          +0.7% (  8.0%)     27.9%
 REDUCED MASS        0.4806         C  8 -- C 11          +0.6% (  7.8%)     26.8%
 EFFECTIVE MASS      1.2772
 FORCE CONSTANT      2.5790

 VIBRATION         77   77A           ATOM PAIR      ENERGY CONTRIBUTION    RADIAL
 FREQUENCY          3029.40         C  4 -- H 18         +29.3% ( 56.6%)     97.4%
 TRANSITION DIPOLE   0.0069         C  5 -- H 21         +24.5% ( 51.7%)     97.3%
 TRAVEL (Ang.)       0.2911         C  4 -- H 19         +22.6% ( 49.8%)     95.9%
 REDUCED MASS        0.2626         C  5 -- H 20         +19.7% ( 46.5%)     96.0%
 EFFECTIVE MASS      1.5534
 FORCE CONSTANT      1.4200

 VIBRATION         78   78A           ATOM PAIR      ENERGY CONTRIBUTION    RADIAL
 FREQUENCY          3031.02         C  6 -- H 16         +51.4% ( 70.7%)     98.0%
 TRANSITION DIPOLE   0.0175         C  6 -- H 17         +46.4% ( 67.2%)     97.4%
 TRAVEL (Ang.)       0.2159         C  6 -- C  9          +0.6% (  7.8%)     26.0%
 REDUCED MASS        0.4774         C  2 -- C  6          +0.6% (  7.7%)     29.3%
 EFFECTIVE MASS      1.2758
 FORCE CONSTANT      2.5843

 VIBRATION         79   79A           ATOM PAIR      ENERGY CONTRIBUTION    RADIAL
 FREQUENCY          3044.03         C  5 -- H 21         +29.5% ( 56.4%)     97.6%
 TRANSITION DIPOLE   0.0905         C  4 -- H 18         +25.6% ( 52.6%)     97.8%
 TRAVEL (Ang.)       0.2897         C  5 -- H 20         +22.7% ( 49.5%)     96.1%
 REDUCED MASS        0.2639         C  4 -- H 19         +18.7% ( 44.9%)     96.0%
 EFFECTIVE MASS      1.5311
 FORCE CONSTANT      1.4407

 VIBRATION         80   80A           ATOM PAIR      ENERGY CONTRIBUTION    RADIAL
 FREQUENCY          3049.35         C  7 -- H 25         +53.5% ( 76.1%)     97.6%
 TRANSITION DIPOLE   0.0704         C  7 -- H 24         +43.0% ( 68.2%)     96.3%
 TRAVEL (Ang.)       0.2058         C  7 -- C 12          +1.1% ( 10.9%)      0.1%
 REDUCED MASS        0.5219         C  7 -- C 11          +1.1% ( 10.9%)      0.1%
 EFFECTIVE MASS      1.5402
 FORCE CONSTANT      2.8590

 VIBRATION         81   81A           ATOM PAIR      ENERGY CONTRIBUTION    RADIAL
 FREQUENCY          3068.76         C  9 -- H 26         +64.7% ( 83.0%)     98.6%
 TRANSITION DIPOLE   0.0493         C  9 -- H 27         +31.0% ( 57.4%)     93.4%
 TRAVEL (Ang.)       0.2012         C  9 -- H 28          +2.9% ( 17.7%)     38.0%
 REDUCED MASS        0.5428         C  6 -- C  9          +1.0% ( 10.2%)      0.0%
 EFFECTIVE MASS      1.5002
 FORCE CONSTANT      3.0118

 VIBRATION         82   82A           ATOM PAIR      ENERGY CONTRIBUTION    RADIAL
 FREQUENCY          3081.65         C 10 -- H 29         +49.6% ( 72.7%)     97.1%
 TRANSITION DIPOLE   0.0147         C 10 -- H 30         +48.2% ( 71.7%)     96.9%
 TRAVEL (Ang.)       0.2078         C  8 -- C 10          +1.0% ( 10.2%)      0.0%
 REDUCED MASS        0.5069         C 10 -- H 31          +0.9% ( 10.0%)      0.2%
 EFFECTIVE MASS      1.5015
 FORCE CONSTANT      2.8364

 VIBRATION         83   83A           ATOM PAIR      ENERGY CONTRIBUTION    RADIAL
 FREQUENCY          3084.25         C  9 -- H 28         +56.8% ( 77.7%)     98.4%
 TRANSITION DIPOLE   0.0072         C  9 -- H 27         +34.0% ( 60.2%)     93.7%
 TRAVEL (Ang.)       0.2150         C  9 -- H 26          +7.7% ( 28.5%)     66.4%
 REDUCED MASS        0.4729         C  6 -- C  9          +1.0% ( 10.3%)      0.0%
 EFFECTIVE MASS      1.5035
 FORCE CONSTANT      2.6507

 VIBRATION         84   84A           ATOM PAIR      ENERGY CONTRIBUTION    RADIAL
 FREQUENCY          3086.97         C 10 -- H 31         +64.2% ( 82.7%)     98.9%
 TRANSITION DIPOLE   0.0109         C 10 -- H 30         +17.9% ( 43.6%)     85.5%
 TRAVEL (Ang.)       0.2089         C 10 -- H 29         +16.6% ( 42.0%)     84.2%
 REDUCED MASS        0.5006         C  8 -- C 10          +1.0% ( 10.4%)      0.0%
 EFFECTIVE MASS      1.5057
 FORCE CONSTANT      2.8107

 VIBRATION         85   85A           ATOM PAIR      ENERGY CONTRIBUTION    RADIAL
 FREQUENCY          3103.58         C  4 -- H 19         +42.3% ( 64.5%)     98.1%
 TRANSITION DIPOLE   0.0661         C  4 -- H 18         +30.6% ( 54.8%)     95.9%
 TRAVEL (Ang.)       0.2664         C  5 -- H 20         +14.5% ( 37.8%)     98.0%
 REDUCED MASS        0.3061         C  5 -- H 21         +10.6% ( 32.3%)     96.0%
 EFFECTIVE MASS      1.2815
 FORCE CONSTANT      1.7373

 VIBRATION         86   86A           ATOM PAIR      ENERGY CONTRIBUTION    RADIAL
 FREQUENCY          3103.71         C  7 -- H 24         +54.7% ( 73.5%)     97.7%
 TRANSITION DIPOLE   0.1103         C  7 -- H 25         +43.1% ( 65.3%)     96.0%
 TRAVEL (Ang.)       0.2108         C  7 -- C 12          +0.7% (  8.3%)     99.2%
 REDUCED MASS        0.4891         C  3 -- C  7          +0.7% (  8.2%)     51.8%
 EFFECTIVE MASS      1.2798
 FORCE CONSTANT      2.7760

 VIBRATION         87   87A           ATOM PAIR      ENERGY CONTRIBUTION    RADIAL
 FREQUENCY          3105.36         C  5 -- H 20         +40.8% ( 63.3%)     97.9%
 TRANSITION DIPOLE   0.0722         C  5 -- H 21         +32.0% ( 56.1%)     96.3%
 TRAVEL (Ang.)       0.2676         C  4 -- H 19         +14.2% ( 37.4%)     98.0%
 REDUCED MASS        0.3032         C  4 -- H 18         +10.9% ( 32.7%)     96.2%
 EFFECTIVE MASS      1.2882
 FORCE CONSTANT      1.7229

 VIBRATION         88   88A           ATOM PAIR      ENERGY CONTRIBUTION    RADIAL
 FREQUENCY          3175.50         C  9 -- H 28         +39.9% ( 60.8%)     97.9%
 TRANSITION DIPOLE   0.0273         C  9 -- H 27         +34.1% ( 56.2%)     97.2%
 TRAVEL (Ang.)       0.2520         C  9 -- H 26         +25.5% ( 48.6%)     95.4%
 REDUCED MASS        0.3343         C  6 -- C  9          +0.3% (  5.2%)     97.4%
 EFFECTIVE MASS      1.1400
 FORCE CONSTANT      1.9861

 VIBRATION         89   89A           ATOM PAIR      ENERGY CONTRIBUTION    RADIAL
 FREQUENCY          3183.23         C 10 -- H 31         +33.9% ( 56.0%)     97.2%
 TRANSITION DIPOLE   0.0257         C 10 -- H 30         +32.9% ( 55.2%)     97.1%
 TRAVEL (Ang.)       0.2545         C 10 -- H 29         +32.8% ( 55.1%)     97.1%
 REDUCED MASS        0.3269         C  8 -- C 10          +0.3% (  5.1%)    100.0%
 EFFECTIVE MASS      1.1361
 FORCE CONSTANT      1.9519

 VIBRATION         90   90A           ATOM PAIR      ENERGY CONTRIBUTION    RADIAL
 FREQUENCY          3197.77         C 12 -- H 32         +93.9% ( 99.8%)    100.0%
 TRANSITION DIPOLE   0.4370         C 11 -- C 12          +2.0% ( 14.7%)     64.9%
 TRAVEL (Ang.)       0.1510         C  7 -- C 12          +1.9% ( 14.1%)     99.2%
 REDUCED MASS        0.9251         C  3 -- C 12          +1.8% ( 14.0%)     37.2%
 EFFECTIVE MASS      1.6005
 FORCE CONSTANT      5.5738

      SYMMETRY NUMBER FOR POINT-GROUP C1  =  1


          SYSTEM IS A GROUND STATE



 InChI=1S/C12H20/c1-3-9-7-11(8-9)12-6-5-10(12)4-2/h7,10-12H,3-6,8H2,1-2H3


          MOLECULE IS NOT LINEAR

          THERE ARE 90 GENUINE VIBRATIONS IN THIS SYSTEM
          THIS THERMODYNAMICS CALCULATION IS LIMITED TO
          MOLECULES WHICH HAVE NO INTERNAL ROTATIONS




                    CALCULATED THERMODYNAMIC PROPERTIES
                                          *
   TEMP. (K)   PARTITION FUNCTION   H.O.F.    ENTHALPY  HEAT CAPACITY ENTROPY
                                   KCAL/MOL   CAL/MOLE    CAL/K/MOL  CAL/K/MOL


 298.00  VIB.     0.8985D+05                  6596.4186    43.8383    44.8014
         ROT.     0.1541D+07                   888.2803     2.9808    31.2946
         INT.     0.1385D+12                  7484.6989    46.8191    76.0961
         TRA.     0.2036D+28                  1480.4672     4.9680    41.1956
         TOT.                       11.744    8965.1661    51.7871   117.2917

 200.00  VIB.     0.2191D+04                  3091.3347    28.4216    30.7426
         ROT.     0.8474D+06                   596.1613     2.9808    30.1060
         INT.     0.1857D+10                  3687.4960    31.4024    60.8485
         TRA.     0.1119D+28                   993.6021     4.9680    39.2145
         TOT.                        7.460    4681.0981    36.3704   100.0630

 210.00  VIB.     0.3228D+04                  3382.2727    29.7752    32.1618
         ROT.     0.9117D+06                   625.9693     2.9808    30.2514
         INT.     0.2943D+10                  4008.2420    32.7560    62.4132
         TRA.     0.1204D+28                  1043.2822     4.9680    39.4569
         TOT.                        7.830    5051.5243    37.7240   101.8701

 220.00  VIB.     0.4742D+04                  3687.0246    31.1846    33.5792
         ROT.     0.9776D+06                   655.7774     2.9808    30.3901
         INT.     0.4636D+10                  4342.8020    34.1654    63.9693
         TRA.     0.1291D+28                  1092.9623     4.9680    39.6880
         TOT.                        8.215    5435.7643    39.1334   103.6573

 230.00  VIB.     0.6949D+04                  4006.1501    32.6498    34.9976
         ROT.     0.1045D+07                   685.5855     2.9808    30.5226
         INT.     0.7262D+10                  4691.7356    35.6306    65.5201
         TRA.     0.1380D+28                  1142.6424     4.9680    39.9088
         TOT.                        8.613    5834.3780    40.5986   105.4290

 240.00  VIB.     0.1016D+05                  4340.2004    34.1691    36.4190
         ROT.     0.1114D+07                   715.3935     2.9808    30.6494
         INT.     0.1132D+11                  5055.5939    37.1499    67.0685
         TRA.     0.1471D+28                  1192.3226     4.9680    40.1203
         TOT.                        9.027    6247.9165    42.1179   107.1888

 250.00  VIB.     0.1484D+05                  4689.7024    35.7395    37.8456
         ROT.     0.1184D+07                   745.2016     2.9808    30.7711
         INT.     0.1757D+11                  5434.9040    38.7203    68.6167
         TRA.     0.1564D+28                  1242.0027     4.9680    40.3231
         TOT.                        9.456    6676.9067    43.6883   108.9398

 260.00  VIB.     0.2163D+05                  5055.1468    37.3568    39.2787
         ROT.     0.1256D+07                   775.0097     2.9808    30.8880
         INT.     0.2717D+11                  5830.1564    40.3376    70.1667
         TRA.     0.1659D+28                  1291.6828     4.9680    40.5179
         TOT.                        9.901    7121.8392    45.3056   110.6846

 270.00  VIB.     0.3149D+05                  5436.9785    39.0161    40.7195
         ROT.     0.1329D+07                   804.8177     2.9808    31.0005
         INT.     0.4186D+11                  6241.7962    41.9969    71.7200
         TRA.     0.1756D+28                  1341.3629     4.9680    40.7054
         TOT.                       10.362    7583.1591    46.9649   112.4255

 280.00  VIB.     0.4582D+05                  5835.5906    40.7120    42.1690
         ROT.     0.1404D+07                   834.6258     2.9808    31.1089
         INT.     0.6432D+11                  6670.2164    43.6928    73.2779
         TRA.     0.1854D+28                  1391.0430     4.9680    40.8861
         TOT.                       10.840    8061.2594    48.6608   114.1640

 290.00  VIB.     0.6662D+05                  6251.3204    42.4387    43.6277
         ROT.     0.1480D+07                   864.4339     2.9808    31.2135
         INT.     0.9857D+11                  7115.7542    45.4195    74.8412
         TRA.     0.1954D+28                  1440.7231     4.9680    41.0604
         TOT.                       11.335    8556.4773    50.3875   115.9016

 300.00  VIB.     0.9682D+05                  6684.4472    44.1904    45.0959
         ROT.     0.1557D+07                   894.2419     2.9808    31.3146
         INT.     0.1507D+12                  7578.6891    47.1712    76.4104
         TRA.     0.2056D+28                  1490.4032     4.9680    41.2289
         TOT.                       11.848    9069.0923    52.1392   117.6393

 310.00  VIB.     0.1407D+06                  7135.1925    45.9614    46.5737
         ROT.     0.1635D+07                   924.0500     2.9808    31.4123
         INT.     0.2301D+12                  8059.2425    48.9422    77.9860
         TRA.     0.2160D+28                  1540.0833     4.9680    41.3918
         TOT.                       12.378    9599.3258    53.9102   119.3778

 320.00  VIB.     0.2044D+06                  7603.7210    47.7461    48.0610
         ROT.     0.1715D+07                   953.8580     2.9808    31.5070
         INT.     0.3506D+12                  8557.5791    50.7269    79.5680
         TRA.     0.2265D+28                  1589.7634     4.9680    41.5495
         TOT.                       12.926   10147.3425    55.6950   121.1175

 330.00  VIB.     0.2971D+06                  8090.1432    49.5393    49.5577
         ROT.     0.1796D+07                   983.6661     2.9808    31.5987
         INT.     0.5335D+12                  9073.8094    52.5201    81.1564
         TRA.     0.2372D+28                  1639.4435     4.9680    41.7024
         TOT.                       13.492   10713.2529    57.4881   122.8588

 340.00  VIB.     0.4318D+06                  8594.5181    51.3359    51.0633
         ROT.     0.1878D+07                  1013.4742     2.9808    31.6877
         INT.     0.8110D+12                  9607.9923    54.3167    82.7509
         TRA.     0.2481D+28                  1689.1236     4.9680    41.8507
         TOT.                       14.076   11297.1159    59.2847   124.6016

 350.00  VIB.     0.6278D+06                  9116.8571    53.1314    52.5773
         ROT.     0.1962D+07                  1043.2822     2.9808    31.7741
         INT.     0.1232D+13                 10160.1393    56.1122    84.3514
         TRA.     0.2591D+28                  1738.8037     4.9680    41.9947
         TOT.                       14.678   11898.9431    61.0802   126.3461

 360.00  VIB.     0.9132D+06                  9657.1277    54.9216    54.0992
         ROT.     0.2046D+07                  1073.0903     2.9808    31.8580
         INT.     0.1869D+13                 10730.2180    57.9024    85.9572
         TRA.     0.2703D+28                  1788.4838     4.9680    42.1347
         TOT.                       15.298   12518.7018    62.8704   128.0919

 370.00  VIB.     0.1329D+07                 10215.2580    56.7027    55.6283
         ROT.     0.2132D+07                  1102.8984     2.9808    31.9397
         INT.     0.2834D+13                 11318.1564    59.6835    87.5680
         TRA.     0.2817D+28                  1838.1639     4.9680    42.2708
         TOT.                       15.935   13156.3203    64.6515   129.8388

 380.00  VIB.     0.1935D+07                 10791.1405    58.4715    57.1639
         ROT.     0.2219D+07                  1132.7064     2.9808    32.0192
         INT.     0.4295D+13                 11923.8469    61.4523    89.1831
         TRA.     0.2932D+28                  1887.8440     4.9680    42.4033
         TOT.                       16.591   13811.6910    66.4203   131.5864

 390.00  VIB.     0.2820D+07                 11384.6365    60.2250    58.7055
         ROT.     0.2307D+07                  1162.5145     2.9808    32.0966
         INT.     0.6506D+13                 12547.1510    63.2058    90.8021
         TRA.     0.3048D+28                  1937.5242     4.9680    42.5323
         TOT.                       17.264   14484.6752    68.1738   133.3344

 400.00  VIB.     0.4110D+07                 11995.5800    61.9606    60.2522
         ROT.     0.2397D+07                  1192.3226     2.9808    32.1721
         INT.     0.9852D+13                 13187.9026    64.9414    92.4243
         TRA.     0.3166D+28                  1987.2043     4.9680    42.6581
         TOT.                       17.954   15175.1068    69.9094   135.0823

   *: NOTE: HEATS OF FORMATION ARE RELATIVE TO THE
            ELEMENTS IN THEIR STANDARD STATE AT 298K
              (=  Standard Enthalpy of Formation).

            Hvib:  Zero-point energy is not included.
                   frequencies of less than zero cm-1 are not included.
            Hrot = (3/2)RT
            Htra = (3/2)RT + pV = (5/2)RT

            Heat capacity is Cp, not Cv

          For more information, see: HTTP://OpenMOPAC.net/Manual/thermochemistry.html


           FORCE CONSTANT IN CARTESIAN COORDINATES (Millidynes/A)

    ATOM   CHEMICAL       X               Y               Z
   NUMBER   SYMBOL  FORCE CONSTANT  FORCE CONSTANT  FORCE CONSTANT

      1       C        7.853335        8.725843        8.253491
      2       C        7.723633        8.596564        8.283497
      3       C        7.556861        8.617800        8.435523
      4       C        8.107180        8.400062        8.045893
      5       C        8.104829        8.449353        7.992084
      6       C        8.305240        8.380487        8.416257
      7       C        7.450483        8.331364        8.091547
      8       C        8.848626        8.134132        8.833978
      9       C        8.214306        8.248853        8.409676
     10       C        8.331450        8.243402        8.359043
     11       C       15.449554        4.126776        8.361361
     12       C       15.161457        3.563673        7.600353
     13       H        1.362219        4.143033        0.750770
     14       H        1.372651        1.983980        2.881543
     15       H        1.356706        2.090071        2.765475
     16       H        4.553799        0.833423        0.986109
     17       H        1.628695        3.963478        0.802616
     18       H        1.371659        4.518792        0.726595
     19       H        1.555875        1.852826        3.221032
     20       H        1.555677        4.369529        0.704608
     21       H        1.370913        2.040685        3.203721
     22       H        2.096805        3.232591        0.915800
     23       H        1.902682        2.602461        1.735524
     24       H        1.536963        2.058137        2.980988
     25       H        1.540062        4.368440        0.651839
     26       H        4.832109        0.896895        0.992876
     27       H        1.867227        4.134670        0.767392
     28       H        1.473093        2.057814        3.257409
     29       H        2.051040        2.800594        1.918417
     30       H        2.270453        3.560847        0.940419
     31       H        3.375800        1.131340        2.278681
     32       H        3.276434        0.817746        2.453332

 **********************
 *                    *
 * JOB ENDED NORMALLY *
 *                    *
 **********************



 TOTAL JOB TIME:             9.23 SECONDS

 == MOPAC DONE ==
