 *******************************************************************************
 **                                                                           **
 **                              MOPAC v23.1.2                                **
 **                                                                           **
 *******************************************************************************
 **          Digital Object Identifier (DOI): 10.5281/zenodo.6511958          **
 **    Visit the DOI location for information on how to cite this program.    **
 *******************************************************************************

                              PM3 CALCULATION RESULTS

 *******************************************************************************
 *  CALCULATION DONE: (MAX THREADS = 1)              Tue Jun  3 16:34:05 2025  *
 *  PM3        - The PM3 Hamiltonian to be used
 *  PRECISE    - TIGHTER CRITERIA TO BE USED
 *  NOSYM      - POINT-GROUP SYMMETRY SET TO C1
 *  THREADS=1  - MULTI-THREADING NOT USED
 *  T=         - A TIME OF 172800.0 SECONDS REQUESTED
 *  DUMP=N     - RESTART FILE WRITTEN EVERY 7200.0 SECONDS REQUESTED
 *******************************************************************************
pm3  precise nosym THREADS=1
 InChI=1S/C8H6/c1-2-8-6-4-3-5-7-8/h1,3-7H

   ATOM   CHEMICAL          X               Y               Z
  NUMBER   SYMBOL      (ANGSTROMS)     (ANGSTROMS)     (ANGSTROMS)

     1       C          0.69600000  *  -0.18230000  *   0.08010000  *
     2       C          0.33180000  *   1.16620000  *  -0.03880000  *
     3       C         -0.29150000  *  -1.17680000  *   0.04340000  *
     4       C         -1.01360000  *   1.51690000  *  -0.19350000  *
     5       C         -1.99680000  *   0.52320000  *  -0.22980000  *
     6       C         -1.63600000  *  -0.82270000  *  -0.11140000  *
     7       C          2.08000000  *  -0.54490000  *   0.23930000  *
     8       C          3.23900000  *  -0.84860000  *   0.37270000  *
     9       H          1.08590000  *   1.94360000  *  -0.01190000  *
    10       H         -1.29390000  *   2.55830000  *  -0.28520000  *
    11       H         -3.03740000  *   0.79580000  *  -0.34950000  *
    12       H         -2.39770000  *  -1.59110000  *  -0.13960000  *
    13       H         -0.02230000  *  -2.22230000  *   0.13430000  *
    14       H          4.25650000  *  -1.11520000  *   0.48980000  *



          CARTESIAN COORDINATES 

    NO.       ATOM           X           Y           Z

     1         C          0.6960     -0.1823      0.0801
     2         C          0.3318      1.1662     -0.0388
     3         C         -0.2915     -1.1768      0.0434
     4         C         -1.0136      1.5169     -0.1935
     5         C         -1.9968      0.5232     -0.2298
     6         C         -1.6360     -0.8227     -0.1114
     7         C          2.0800     -0.5449      0.2393
     8         C          3.2390     -0.8486      0.3727
     9         H          1.0859      1.9436     -0.0119
    10         H         -1.2939      2.5583     -0.2852
    11         H         -3.0374      0.7958     -0.3495
    12         H         -2.3977     -1.5911     -0.1396
    13         H         -0.0223     -2.2223      0.1343
    14         H          4.2565     -1.1152      0.4898

  H: (PM3): J. J. P. STEWART, J. COMP. CHEM. 10, 209 (1989).
  C: (PM3): J. J. P. STEWART, J. COMP. CHEM. 10, 209 (1989).

           Empirical Formula: C8 H6  =    14 atoms



      MOLECULAR POINT GROUP   :   C1  


      RHF CALCULATION, NO. OF DOUBLY OCCUPIED LEVELS = 19


          Geometry optimization using EF

          DIAGONAL MATRIX USED AS START HESSIAN

 CYCLE:     1 TIME:   0.004 TIME LEFT:  2.00D  GRAD.:    65.430 HEAT:  75.64761
 CYCLE:     2 TIME:   0.012 TIME LEFT:  2.00D  GRAD.:    37.233 HEAT:  74.97565
 CYCLE:     3 TIME:   0.004 TIME LEFT:  2.00D  GRAD.:    38.707 HEAT:  74.92483
 CYCLE:     4 TIME:   0.008 TIME LEFT:  2.00D  GRAD.:    17.447 HEAT:  74.75698
 CYCLE:     5 TIME:   0.004 TIME LEFT:  2.00D  GRAD.:    13.654 HEAT:  74.68922
 CYCLE:     6 TIME:   0.008 TIME LEFT:  2.00D  GRAD.:    17.917 HEAT:  74.67949
 CYCLE:     7 TIME:   0.004 TIME LEFT:  2.00D  GRAD.:    17.747 HEAT:  74.65237
 CYCLE:     8 TIME:   0.008 TIME LEFT:  2.00D  GRAD.:     9.116 HEAT:  74.60332
 CYCLE:     9 TIME:   0.004 TIME LEFT:  2.00D  GRAD.:     8.934 HEAT:  74.60019
 CYCLE:    10 TIME:   0.004 TIME LEFT:  2.00D  GRAD.:     3.764 HEAT:  74.57743
 CYCLE:    11 TIME:   0.008 TIME LEFT:  2.00D  GRAD.:     5.305 HEAT:  74.57507
 CYCLE:    12 TIME:   0.004 TIME LEFT:  2.00D  GRAD.:     5.192 HEAT:  74.57276
 CYCLE:    13 TIME:   0.004 TIME LEFT:  2.00D  GRAD.:     2.915 HEAT:  74.56917
 CYCLE:    14 TIME:   0.004 TIME LEFT:  2.00D  GRAD.:     2.292 HEAT:  74.56759
 CYCLE:    15 TIME:   0.008 TIME LEFT:  2.00D  GRAD.:     1.405 HEAT:  74.56676
 CYCLE:    16 TIME:   0.004 TIME LEFT:  2.00D  GRAD.:     0.722 HEAT:  74.56613
 CYCLE:    17 TIME:   0.004 TIME LEFT:  2.00D  GRAD.:     0.554 HEAT:  74.56585
 CYCLE:    18 TIME:   0.004 TIME LEFT:  2.00D  GRAD.:     0.633 HEAT:  74.56573
 CYCLE:    19 TIME:   0.004 TIME LEFT:  2.00D  GRAD.:     0.538 HEAT:  74.56566
 CYCLE:    20 TIME:   0.008 TIME LEFT:  2.00D  GRAD.:     0.095 HEAT:  74.56557
 CYCLE:    21 TIME:   0.004 TIME LEFT:  2.00D  GRAD.:     0.103 HEAT:  74.56556
 CYCLE:    22 TIME:   0.004 TIME LEFT:  2.00D  GRAD.:     0.106 HEAT:  74.56554
 CYCLE:    23 TIME:   0.004 TIME LEFT:  2.00D  GRAD.:     0.131 HEAT:  74.56553
 CYCLE:    24 TIME:   0.004 TIME LEFT:  2.00D  GRAD.:     0.060 HEAT:  74.56552
 CYCLE:    25 TIME:   0.008 TIME LEFT:  2.00D  GRAD.:     0.050 HEAT:  74.56552
 CYCLE:    26 TIME:   0.004 TIME LEFT:  2.00D  GRAD.:     0.086 HEAT:  74.56550
 CYCLE:    27 TIME:   0.004 TIME LEFT:  2.00D  GRAD.:     0.048 HEAT:  74.56549

     GRADIENT =  0.04778 IS LESS THAN CUTOFF =  0.05000



 -------------------------------------------------------------------------------
 pm3  precise nosym THREADS=1
 InChI=1S/C8H6/c1-2-8-6-4-3-5-7-8/h1,3-7H



     GEOMETRY OPTIMISED USING EIGENVECTOR FOLLOWING (EF).     
     SCF FIELD WAS ACHIEVED                                   


                              PM3 CALCULATION
                                                       MOPAC v23.1.2 MacOS
                                                       Tue Jun  3 16:34:05 2025




          FINAL HEAT OF FORMATION =         74.56549 KCAL/MOL =     311.98202 KJ/MOL


          COSMO AREA              =        149.18 SQUARE ANGSTROMS
          COSMO VOLUME            =        139.94 CUBIC ANGSTROMS

          GRADIENT NORM           =          0.04778          =       0.01277 PER ATOM
          IONIZATION POTENTIAL    =          9.396009 EV
          HOMO LUMO ENERGIES (EV) =         -9.396 -0.081
          NO. OF FILLED LEVELS    =         19
          MOLECULAR WEIGHT        =        102.1354         POINT GROUP:  C1  

          MOLECULAR DIMENSIONS (Angstroms)

            Atom       Atom       Distance
            H    14    H    11     7.55198
            H    13    H     9     4.32041
            H     9    H    14     0.00105


          SCF CALCULATIONS        =         33

          WALL-CLOCK TIME         =      0.156 SECONDS
          COMPUTATION TIME        =      0.082 SECONDS




   ATOM   CHEMICAL          X               Y               Z
  NUMBER   SYMBOL      (ANGSTROMS)     (ANGSTROMS)     (ANGSTROMS)

     1       C          0.69524623  *  -0.18250072  *   0.08034313  *
     2       C          0.33557871  *   1.16402086  *  -0.03798521  *
     3       C         -0.28761529  *  -1.17704530  *   0.04408214  *
     4       C         -1.00229765  *   1.50794676  *  -0.19189144  *
     5       C         -1.98020585  *   0.51894171  *  -0.22813055  *
     6       C         -1.62214021  *  -0.82032492  *  -0.11020761  *
     7       C          2.05812295  *  -0.53944846  *   0.23692272  *
     8       C          3.20470556  *  -0.83906747  *   0.36838227  *
     9       H          1.10599572  *   1.94173744  *  -0.00939886  *
    10       H         -1.28627753  *   2.56130814  *  -0.28493298  *
    11       H         -3.03267606  *   0.79490171  *  -0.34964254  *
    12       H         -2.39346361  *  -1.59694552  *  -0.13908460  *
    13       H         -0.00475179  *  -2.23088369  *   0.13690587  *
    14       H          4.22818303  *  -1.10627370  *   0.48572583  *

                             CARTESIAN COORDINATES

   1    C        0.695246227    -0.182500725     0.080343131
   2    C        0.335578715     1.164020860    -0.037985209
   3    C       -0.287615288    -1.177045296     0.044082138
   4    C       -1.002297654     1.507946759    -0.191891436
   5    C       -1.980205845     0.518941706    -0.228130555
   6    C       -1.622140213    -0.820324919    -0.110207615
   7    C        2.058122947    -0.539448464     0.236922725
   8    C        3.204705563    -0.839067472     0.368382268
   9    H        1.105995723     1.941737439    -0.009398857
  10    H       -1.286277534     2.561308139    -0.284932984
  11    H       -3.032676065     0.794901708    -0.349642543
  12    H       -2.393463614    -1.596945517    -0.139084601
  13    H       -0.004751791    -2.230883688     0.136905871
  14    H        4.228183035    -1.106273696     0.485725827


           Empirical Formula: C8 H6  =    14 atoms



      MOLECULAR POINT GROUP   :   C1  


                  EIGENVALUES  
 -39.76707 -32.57894 -29.74530 -28.24850 -22.18180 -21.63901 -19.25747 -17.69601
 -16.58739 -15.98181 -14.92968 -14.75342 -13.74372 -12.84250 -12.62442 -11.90113
 -11.29004  -9.86750  -9.39601  -0.08123   0.30559   1.79167   2.05075   2.55678
   3.10415   3.21548   3.41481   3.47639   3.63731   3.94184   3.99294   4.90309
   4.98112   5.02172   5.16762   5.90214   6.22393   6.71842


              NET ATOMIC CHARGES AND DIPOLE CONTRIBUTIONS

  ATOM NO.   TYPE          CHARGE      No. of ELECS.   s-Pop       p-Pop       
    1          C           0.052373        3.9476     1.12761     2.82002
    2          C          -0.086401        4.0864     1.17840     2.90800
    3          C          -0.086348        4.0863     1.17839     2.90796
    4          C          -0.102938        4.1029     1.17927     2.92367
    5          C          -0.097931        4.0979     1.17966     2.91827
    6          C          -0.102932        4.1029     1.17928     2.92365
    7          C          -0.135455        4.1355     1.18579     2.94966
    8          C          -0.167965        4.1680     1.21057     2.95740
    9          H           0.110052        0.8899     0.88995
   10          H           0.104079        0.8959     0.89592
   11          H           0.103350        0.8966     0.89665
   12          H           0.104082        0.8959     0.89592
   13          H           0.110053        0.8899     0.88995
   14          H           0.195980        0.8040     0.80402
 DIPOLE           X         Y         Z       TOTAL
 POINT-CHG.    -0.323     0.085    -0.038     0.337
 HYBRID         0.165    -0.043     0.019     0.171
 SUM           -0.159     0.042    -0.019     0.165


          ATOMIC ORBITAL ELECTRON POPULATIONS

     Atom    s        px        py        pz   
    1  C   1.12761   0.87588   0.93854   1.00560
    2  C   1.17840   0.96251   0.95193   0.99357
    3  C   1.17839   0.93584   0.97816   0.99397
    4  C   1.17927   0.94192   0.98091   1.00083
    5  C   1.17966   0.98031   0.94234   0.99561
    6  C   1.17928   0.96067   0.96243   1.00055
    7  C   1.18579   0.94496   0.99836   1.00634
    8  C   1.21057   0.95918   1.00056   0.99766
    9  H   0.88995
   10  H   0.89592
   11  H   0.89665
   12  H   0.89592
   13  H   0.88995
   14  H   0.80402
 *******************************************************************************
 **                                                                           **
 **                              MOPAC v23.1.2                                **
 **                                                                           **
 *******************************************************************************
 **          Digital Object Identifier (DOI): 10.5281/zenodo.6511958          **
 **    Visit the DOI location for information on how to cite this program.    **
 *******************************************************************************

                              PM3 CALCULATION RESULTS

 *******************************************************************************
 *  CALCULATION DONE: (MAX THREADS = 1)              Tue Jun  3 16:34:05 2025  *
 *  PM3        - The PM3 Hamiltonian to be used
 *  OLDGEO     - PREVIOUS GEOMETRY TO BE USED
 *  PRECISE    - TIGHTER CRITERIA TO BE USED
 *  NOSYM      - POINT-GROUP SYMMETRY SET TO C1
 *  THREADS=1  - MULTI-THREADING NOT USED
 *  T=         - A TIME OF 172800.0 SECONDS REQUESTED
 *  DUMP=N     - RESTART FILE WRITTEN EVERY 7200.0 SECONDS REQUESTED
 *  THERMO     - THERMODYNAMIC QUANTITIES TO BE CALCULATED
 *******************************************************************************
oldgeo thermo nosym precise THREADS=1  pm3
 InChI=1S/C8H6/c1-2-8-6-4-3-5-7-8/h1,3-7H

   ATOM   CHEMICAL          X               Y               Z
  NUMBER   SYMBOL      (ANGSTROMS)     (ANGSTROMS)     (ANGSTROMS)

     1       C          0.69524623  *  -0.18250072  *   0.08034313  *
     2       C          0.33557871  *   1.16402086  *  -0.03798521  *
     3       C         -0.28761529  *  -1.17704530  *   0.04408214  *
     4       C         -1.00229765  *   1.50794676  *  -0.19189144  *
     5       C         -1.98020585  *   0.51894171  *  -0.22813055  *
     6       C         -1.62214021  *  -0.82032492  *  -0.11020761  *
     7       C          2.05812295  *  -0.53944846  *   0.23692272  *
     8       C          3.20470556  *  -0.83906747  *   0.36838227  *
     9       H          1.10599572  *   1.94173744  *  -0.00939886  *
    10       H         -1.28627753  *   2.56130814  *  -0.28493298  *
    11       H         -3.03267606  *   0.79490171  *  -0.34964254  *
    12       H         -2.39346361  *  -1.59694552  *  -0.13908460  *
    13       H         -0.00475179  *  -2.23088369  *   0.13690587  *
    14       H          4.22818303  *  -1.10627370  *   0.48572583  *



          CARTESIAN COORDINATES 

    NO.       ATOM           X           Y           Z

     1         C          0.6952     -0.1825      0.0803
     2         C          0.3356      1.1640     -0.0380
     3         C         -0.2876     -1.1770      0.0441
     4         C         -1.0023      1.5079     -0.1919
     5         C         -1.9802      0.5189     -0.2281
     6         C         -1.6221     -0.8203     -0.1102
     7         C          2.0581     -0.5394      0.2369
     8         C          3.2047     -0.8391      0.3684
     9         H          1.1060      1.9417     -0.0094
    10         H         -1.2863      2.5613     -0.2849
    11         H         -3.0327      0.7949     -0.3496
    12         H         -2.3935     -1.5969     -0.1391
    13         H         -0.0048     -2.2309      0.1369
    14         H          4.2282     -1.1063      0.4857

  H: (PM3): J. J. P. STEWART, J. COMP. CHEM. 10, 209 (1989).
  C: (PM3): J. J. P. STEWART, J. COMP. CHEM. 10, 209 (1989).

           Empirical Formula: C8 H6  =    14 atoms



      MOLECULAR POINT GROUP   :   C1  


      RHF CALCULATION, NO. OF DOUBLY OCCUPIED LEVELS = 19



          HEAT OF FORMATION =      74.565492 KCALS/MOLE


          CARTESIAN COORDINATE DERIVATIVES

   NUMBER  ATOM         X            Y            Z

     1       C      0.005005    -0.001630     0.004140
     2       C      0.000920     0.012161     0.012741
     3       C     -0.002381     0.000396     0.000910
     4       C     -0.006134    -0.004152    -0.002405
     5       C      0.002263    -0.002947     0.000347
     6       C      0.004236     0.012683     0.008741
     7       C     -0.013419    -0.003895    -0.000475
     8       C      0.002362     0.002107    -0.006880
     9       H      0.000574     0.002454    -0.001847
    10       H     -0.004922    -0.005795    -0.005066
    11       H     -0.007812    -0.019032    -0.003158
    12       H      0.007085     0.016312    -0.007035
    13       H     -0.001903    -0.002527     0.000535
    14       H      0.014128    -0.006132    -0.000546



          GRADIENT NORM =   0.04566

          MOLECULAR WEIGHT =  102.14



          ROTATIONAL CONSTANTS IN CM(-1)

          A =    0.18954392   B =    0.05178453   C =    0.04067255



           PRINCIPAL MOMENTS OF INERTIA IN UNITS OF 10**(-40)*GRAM-CM**2

          A =      147.6848   B =      540.5620   C =      688.2468


          ORIENTATION OF MOLECULE IN FORCE CALCULATION

    NO.       ATOM         X         Y         Z

     1          C      -0.2828   -0.4904    0.0003
     2          C       1.1160   -0.4904    0.0003
     3          C      -0.9844    0.7197    0.0003
     4          C       1.8041    0.7173   -0.0000
     5          C       1.1065    1.9211   -0.0001
     6          C      -0.2848    1.9207    0.0001
     7          C      -0.9901   -1.7188   -0.0001
     8          C      -1.5845   -2.7524   -0.0006
     9          H       1.6641   -1.4384    0.0003
    10          H       2.8990    0.7198   -0.0002
    11          H       1.6531    2.8697   -0.0005
    12          H      -0.8316    2.8694   -0.0001
    13          H      -2.0795    0.7183    0.0003
    14          H      -2.1148   -3.6752   -0.0010


    FIRST DERIVATIVES WILL BE USED IN THE CALCULATION OF SECOND DERIVATIVES

          ESTIMATED TIME TO COMPLETE CALCULATION =        0.66 SECONDS

    FOR POINT-GROUP C1   THERE ARE   1 UNIQUE SYMMETRY FUNCTIONS.

 STEP:   1 TIME =     0.02 SECS, INTEGRAL =      0.02 TIME LEFT: 172799.98
 STEP:   2 TIME =     0.01 SECS, INTEGRAL =      0.03 TIME LEFT: 172799.97
 STEP:   3 TIME =     0.01 SECS, INTEGRAL =      0.04 TIME LEFT: 172799.96
 STEP:   4 TIME =     0.01 SECS, INTEGRAL =      0.05 TIME LEFT: 172799.95
 STEP:   5 TIME =     0.01 SECS, INTEGRAL =      0.06 TIME LEFT: 172799.94
 STEP:   6 TIME =     0.02 SECS, INTEGRAL =      0.08 TIME LEFT: 172799.92
 STEP:   7 TIME =     0.01 SECS, INTEGRAL =      0.09 TIME LEFT: 172799.91
 STEP:   8 TIME =     0.02 SECS, INTEGRAL =      0.11 TIME LEFT: 172799.89
 STEP:   9 TIME =     0.02 SECS, INTEGRAL =      0.12 TIME LEFT: 172799.88
 STEP:  10 TIME =     0.01 SECS, INTEGRAL =      0.13 TIME LEFT: 172799.87
 STEP:  11 TIME =     0.02 SECS, INTEGRAL =      0.15 TIME LEFT: 172799.85
 STEP:  12 TIME =     0.02 SECS, INTEGRAL =      0.16 TIME LEFT: 172799.84
 STEP:  13 TIME =     0.02 SECS, INTEGRAL =      0.18 TIME LEFT: 172799.82
 STEP:  14 TIME =     0.02 SECS, INTEGRAL =      0.20 TIME LEFT: 172799.80
 STEP:  15 TIME =     0.01 SECS, INTEGRAL =      0.21 TIME LEFT: 172799.79
 STEP:  16 TIME =     0.01 SECS, INTEGRAL =      0.22 TIME LEFT: 172799.78
 STEP:  17 TIME =     0.01 SECS, INTEGRAL =      0.23 TIME LEFT: 172799.77
 STEP:  18 TIME =     0.01 SECS, INTEGRAL =      0.24 TIME LEFT: 172799.76
 STEP:  19 TIME =     0.01 SECS, INTEGRAL =      0.25 TIME LEFT: 172799.75
 STEP:  20 TIME =     0.01 SECS, INTEGRAL =      0.27 TIME LEFT: 172799.73
 STEP:  21 TIME =     0.01 SECS, INTEGRAL =      0.28 TIME LEFT: 172799.72
 STEP:  22 TIME =     0.01 SECS, INTEGRAL =      0.29 TIME LEFT: 172799.71
 STEP:  23 TIME =     0.01 SECS, INTEGRAL =      0.30 TIME LEFT: 172799.70
 STEP:  24 TIME =     0.01 SECS, INTEGRAL =      0.31 TIME LEFT: 172799.69
 STEP:  25 TIME =     0.01 SECS, INTEGRAL =      0.32 TIME LEFT: 172799.68
 STEP:  26 TIME =     0.01 SECS, INTEGRAL =      0.34 TIME LEFT: 172799.66
 STEP:  27 TIME =     0.01 SECS, INTEGRAL =      0.35 TIME LEFT: 172799.65
 STEP:  28 TIME =     0.01 SECS, INTEGRAL =      0.36 TIME LEFT: 172799.64
 STEP:  29 TIME =     0.02 SECS, INTEGRAL =      0.38 TIME LEFT: 172799.62
 STEP:  30 TIME =     0.01 SECS, INTEGRAL =      0.39 TIME LEFT: 172799.61
 STEP:  31 TIME =     0.01 SECS, INTEGRAL =      0.40 TIME LEFT: 172799.60
 STEP:  32 TIME =     0.01 SECS, INTEGRAL =      0.41 TIME LEFT: 172799.59
 STEP:  33 TIME =     0.02 SECS, INTEGRAL =      0.43 TIME LEFT: 172799.57
 STEP:  34 TIME =     0.01 SECS, INTEGRAL =      0.44 TIME LEFT: 172799.56
 STEP:  35 TIME =     0.01 SECS, INTEGRAL =      0.45 TIME LEFT: 172799.55
 STEP:  36 TIME =     0.01 SECS, INTEGRAL =      0.46 TIME LEFT: 172799.54
 STEP:  37 TIME =     0.01 SECS, INTEGRAL =      0.47 TIME LEFT: 172799.53
 STEP:  38 TIME =     0.01 SECS, INTEGRAL =      0.48 TIME LEFT: 172799.52
 STEP:  39 TIME =     0.02 SECS, INTEGRAL =      0.50 TIME LEFT: 172799.50
 STEP:  40 TIME =     0.01 SECS, INTEGRAL =      0.51 TIME LEFT: 172799.49
 STEP:  41 TIME =     0.01 SECS, INTEGRAL =      0.52 TIME LEFT: 172799.48
 STEP:  42 TIME =     0.02 SECS, INTEGRAL =      0.54 TIME LEFT: 172799.46

(To convert to Hartree/Bohr^2, multiply by (10^(-21) x N x a0^2)/(4.184 x 627.51) =  0.0642)


           FORCE MATRIX IN MILLIDYNES/ANGSTROM


                  C  1       C  2       C  3       C  4       C  5       C  6
 ------------------------------------------------------------------------------
     C    1  18.619961
     C    2   6.630127  17.296008
     C    3   6.624386   2.396488  17.269498
     C    4   2.473476   7.028188   1.870272  17.226815
     C    5   1.830359   2.509375   2.532078   6.977890  17.229564
     C    6   2.456299   1.832914   7.027455   2.544616   6.961778  17.249452
     C    7   6.816550   0.948350   0.947498   0.120572   0.021764   0.120463
     C    8   0.707135   0.069419   0.069349   0.021319   0.009325   0.021223
     H    9   0.453442   4.867933   0.082371   0.436104   0.090695   0.010672
     H   10   0.091201   0.438619   0.011114   4.862322   0.439784   0.089496
     H   11   0.007586   0.089173   0.089201   0.438921   4.865946   0.438844
     H   12   0.091121   0.010684   0.438075   0.089531   0.439158   4.862024
     H   13   0.453936   0.082377   4.867678   0.011114   0.090678   0.436627
     H   14   0.070580   0.007538   0.007473   0.002677   0.000934   0.002696


                  C  7       C  8       H  9       H 10       H 11       H 12
 ------------------------------------------------------------------------------
     C    7  25.493536
     C    8  17.283696  23.764507
     H    9   0.048589   0.006133   5.233048
     H   10   0.009533   0.001577   0.042398   5.225623
     H   11   0.010954   0.001307   0.007136   0.041646   5.229791
     H   12   0.009530   0.001577   0.008020   0.007177   0.041647   5.225261
     H   13   0.048475   0.006142   0.006570   0.008006   0.007165   0.042373
     H   14   0.341156   5.879425   0.001846   0.000781   0.000893   0.000773


                  H 13       H 14
 ------------------------------
     H   13   5.232896
     H   14   0.001841   6.054262


          HEAT OF FORMATION =      74.565492 KCALS/MOLE

          ZERO POINT ENERGY      68.893 KCAL/MOL


           NORMAL COORDINATE ANALYSIS (Total motion = 1 Angstrom)


   Root No.       1         2         3         4         5         6         7         8

                 1 A       2 A       3 A       4 A       5 A       6 A       7 A       8 A   

                 135.0     175.9     348.1     355.6     490.5     535.3     565.2     628.7
  
           1    0.0000   -0.0524   -0.0000   -0.0000    0.0316    0.0000   -0.0439    0.0256
           2    0.0000    0.0302   -0.0000    0.0000    0.0552    0.0000    0.0254   -0.0147
           3   -0.0695   -0.0000    0.0479   -0.0005    0.0000   -0.0492   -0.0000    0.0000
           4    0.0000   -0.0508   -0.0000   -0.0000    0.0276    0.0000   -0.0504    0.0136
           5    0.0000   -0.0100   -0.0000   -0.0000   -0.0503   -0.0000    0.0253   -0.0883
           6   -0.0604   -0.0000   -0.0359   -0.0662   -0.0000   -0.0304   -0.0000    0.0000
           7    0.0000   -0.0169   -0.0000    0.0000   -0.0572   -0.0000   -0.0473    0.0832
           8    0.0000    0.0489   -0.0000    0.0000   -0.0020   -0.0000    0.0310    0.0326
           9   -0.0603    0.0000   -0.0346    0.0670   -0.0000   -0.0304    0.0000   -0.0000
          10    0.0000   -0.0114   -0.0000    0.0000    0.0127    0.0000    0.0023   -0.0997
          11    0.0000   -0.0350   -0.0000    0.0000   -0.0558   -0.0000   -0.0151   -0.0296
          12    0.0162   -0.0000   -0.0287    0.0673   -0.0000    0.0436    0.0000    0.0000
          13    0.0000    0.0244    0.0000    0.0000   -0.0517   -0.0000    0.0179   -0.0330
          14    0.0000   -0.0141    0.0000   -0.0000   -0.0891   -0.0000   -0.0104    0.0190
          15    0.0725    0.0000    0.0541   -0.0006    0.0000   -0.0494   -0.0000   -0.0000
          16    0.0000    0.0246   -0.0000   -0.0000   -0.0542   -0.0000    0.0141   -0.0244
          17    0.0000    0.0274   -0.0000   -0.0000   -0.0167    0.0000    0.0056    0.1011
          18    0.0162    0.0000   -0.0301   -0.0666   -0.0000    0.0436    0.0000   -0.0000
          19   -0.0000   -0.0250   -0.0000   -0.0000    0.0468   -0.0000    0.1434    0.0346
          20   -0.0000    0.0144   -0.0000    0.0000    0.0815    0.0000   -0.0825   -0.0200
          21   -0.0181   -0.0000    0.0900   -0.0010   -0.0001    0.0796    0.0000   -0.0000
          22   -0.0000    0.0913    0.0000    0.0000    0.0514    0.0000   -0.0126    0.0024
          23   -0.0000   -0.0525    0.0000   -0.0000    0.0894    0.0000    0.0072   -0.0014
          24    0.0851    0.0000   -0.0339    0.0004    0.0001   -0.0131   -0.0000   -0.0000
          25    0.0000   -0.0813   -0.0000   -0.0000   -0.0243   -0.0000   -0.0871    0.0417
          26    0.0000   -0.0280   -0.0000   -0.0000   -0.0800   -0.0000    0.0031   -0.0720
          27   -0.0959   -0.0000   -0.0939   -0.1804   -0.0000   -0.0119   -0.0000   -0.0001
          28    0.0000   -0.0114   -0.0000    0.0000    0.0118    0.0000    0.0018   -0.0996
          29    0.0000   -0.0706   -0.0000    0.0000   -0.0109    0.0000   -0.0617    0.0004
          30    0.0398   -0.0000   -0.0752    0.1828   -0.0001    0.1821    0.0000    0.0000
          31    0.0000    0.0538    0.0000    0.0000   -0.0513   -0.0000    0.0318    0.0583
          32    0.0000   -0.0310    0.0000   -0.0000   -0.0891   -0.0001   -0.0184   -0.0336
          33    0.1547    0.0000    0.1507   -0.0018    0.0001   -0.1383   -0.0000   -0.0000
          34    0.0000    0.0553   -0.0000   -0.0000   -0.0157    0.0000    0.0542   -0.0502
          35    0.0000    0.0452   -0.0000   -0.0000    0.0046    0.0000    0.0294    0.0860
          36    0.0398    0.0000   -0.0788   -0.1813   -0.0001    0.1822   -0.0000   -0.0000
          37   -0.0000   -0.0166   -0.0000    0.0000   -0.0569   -0.0000   -0.0465    0.0832
          38   -0.0000    0.0844   -0.0000    0.0000   -0.0612   -0.0000    0.0738    0.0001
          39   -0.0956    0.0000   -0.0903    0.1823   -0.0000   -0.0118    0.0000    0.0000
          40   -0.0000    0.1934    0.0000    0.0000    0.0527    0.0001   -0.2347   -0.0607
          41   -0.0001   -0.1112    0.0001   -0.0000    0.0913    0.0001    0.1349    0.0348
          42    0.1760    0.0000   -0.1557    0.0018    0.0002   -0.1343   -0.0000    0.0000


   Root No.       9        10        11        12        13        14        15        16

                 9 A      10 A      11 A      12 A      13 A      14 A      15 A      16 A   

                 654.2     779.8     835.9     846.9     852.5     862.0     941.5     977.2
  
           1   -0.0000   -0.0000    0.0071   -0.0000    0.0000   -0.0017    0.0000    0.0000
           2   -0.0000   -0.0000    0.0121    0.0000   -0.0000    0.0010    0.0000   -0.0000
           3    0.0788    0.0512    0.0001    0.0001   -0.0128   -0.0000   -0.0479    0.0001
           4   -0.0000   -0.0000    0.0406   -0.0000    0.0000   -0.0059    0.0000    0.0000
           5    0.0000   -0.0000    0.0248   -0.0000    0.0000    0.0009    0.0000    0.0000
           6   -0.0191   -0.0126   -0.0000   -0.0326   -0.0066   -0.0000    0.0454    0.0463
           7    0.0000    0.0000    0.0010    0.0000    0.0000   -0.0037    0.0000   -0.0000
           8   -0.0000   -0.0000    0.0477   -0.0000    0.0000    0.0046    0.0000   -0.0000
           9   -0.0192   -0.0126    0.0000    0.0325   -0.0069    0.0000    0.0453   -0.0464
          10    0.0000   -0.0000    0.0960   -0.0000    0.0000   -0.0067   -0.0000   -0.0000
          11    0.0000   -0.0000   -0.0002   -0.0000    0.0000   -0.0041    0.0000   -0.0000
          12    0.0306   -0.0196   -0.0000   -0.0324    0.0057   -0.0000    0.0066   -0.0466
          13    0.0000    0.0000   -0.0432    0.0000   -0.0000    0.0011   -0.0000   -0.0000
          14    0.0000    0.0000   -0.0753    0.0000   -0.0000   -0.0005   -0.0000   -0.0000
          15   -0.0187   -0.0330    0.0000    0.0000    0.0118    0.0000   -0.0488    0.0001
          16    0.0000    0.0000   -0.0485    0.0000   -0.0000    0.0003    0.0000    0.0000
          17   -0.0000   -0.0000    0.0828   -0.0000    0.0000    0.0077   -0.0000    0.0000
          18    0.0306   -0.0197   -0.0000    0.0325    0.0054    0.0000    0.0069    0.0465
          19    0.0000    0.0000   -0.0252    0.0000   -0.0000    0.0677   -0.0000   -0.0000
          20    0.0000    0.0000   -0.0438    0.0000   -0.0000   -0.0389   -0.0000    0.0000
          21   -0.0327   -0.0163   -0.0000    0.0001    0.0565    0.0000    0.0192   -0.0000
          22   -0.0000    0.0000   -0.0344    0.0000    0.0000   -0.1025    0.0000    0.0000
          23   -0.0000    0.0000   -0.0596    0.0000    0.0000    0.0589    0.0000   -0.0000
          24    0.0023   -0.0070    0.0000   -0.0002   -0.0946   -0.0000   -0.0091    0.0000
          25   -0.0000    0.0000    0.0228    0.0000    0.0000   -0.0107   -0.0000   -0.0000
          26   -0.0000    0.0000    0.0143    0.0000    0.0000   -0.0020   -0.0000   -0.0000
          27   -0.2543    0.0290    0.0001    0.2175    0.0422    0.0000   -0.1998   -0.2027
          28   -0.0000    0.0000    0.0980    0.0000    0.0000   -0.0069   -0.0000    0.0000
          29   -0.0000    0.0000    0.0995    0.0000    0.0000   -0.0155   -0.0000    0.0000
          30   -0.0025    0.2231    0.0002    0.2167   -0.0390    0.0000   -0.0455    0.2039
          31   -0.0000    0.0001   -0.0432    0.0000   -0.0000    0.0165    0.0000   -0.0000
          32   -0.0000    0.0001   -0.0749    0.0000   -0.0000   -0.0094    0.0001    0.0000
          33   -0.1833    0.2366    0.0001   -0.0002   -0.0766   -0.0000    0.2514   -0.0003
          34    0.0000    0.0000    0.0370   -0.0000    0.0000    0.0099   -0.0000   -0.0000
          35   -0.0000    0.0000    0.1346   -0.0001    0.0000    0.0135   -0.0000   -0.0000
          36   -0.0023    0.2234   -0.0000   -0.2166   -0.0368   -0.0001   -0.0465   -0.2034
          37   -0.0000    0.0000    0.0009   -0.0000    0.0000   -0.0037   -0.0000    0.0000
          38   -0.0000    0.0000    0.0269   -0.0000    0.0000    0.0102   -0.0000    0.0000
          39   -0.2541    0.0292   -0.0001   -0.2171    0.0444   -0.0000   -0.1994    0.2036
          40   -0.0000   -0.0000   -0.0360   -0.0000   -0.0002    0.6058   -0.0000   -0.0000
          41   -0.0000   -0.0000   -0.0637    0.0000   -0.0002   -0.3480   -0.0000    0.0000
          42    0.0714    0.0867   -0.0002    0.0015    0.5606    0.0001    0.0282   -0.0000


   Root No.      17        18        19        20        21        22        23        24

                17 A      18 A      19 A      20 A      21 A      22 A      23 A      24 A   

                1016.0    1035.7    1097.6    1113.7    1149.2    1152.2    1215.6    1336.0
  
           1    0.0000   -0.0084    0.0089   -0.0157   -0.0021   -0.0113    0.0223    0.1103
           2    0.0000   -0.0148   -0.0049   -0.0269   -0.0031    0.0067   -0.0128   -0.0659
           3   -0.0248   -0.0000    0.0000   -0.0000   -0.0000    0.0000   -0.0000    0.0000
           4    0.0000   -0.0505   -0.0034   -0.0312   -0.0172    0.0057    0.0194   -0.1078
           5    0.0000    0.0471    0.0228    0.0362    0.0060    0.0047    0.0134   -0.0623
           6    0.0358   -0.0000   -0.0000   -0.0000    0.0000    0.0000   -0.0000    0.0000
           7   -0.0000    0.0660   -0.0221    0.0467    0.0138   -0.0019   -0.0019   -0.0011
           8    0.0000   -0.0199   -0.0083   -0.0096   -0.0121   -0.0068   -0.0235    0.1235
           9    0.0358   -0.0000    0.0000   -0.0000    0.0000   -0.0000    0.0000   -0.0000
          10   -0.0000    0.0283   -0.0163   -0.0226   -0.0098    0.0035   -0.0031   -0.0008
          11   -0.0000   -0.0090    0.0037    0.0009    0.0089   -0.0023    0.0190    0.1235
          12   -0.0493   -0.0000   -0.0000    0.0000    0.0000    0.0000   -0.0000   -0.0000
          13    0.0000   -0.0096    0.0110   -0.0305   -0.0034    0.0020   -0.0214    0.1098
          14    0.0000   -0.0170   -0.0059   -0.0526   -0.0059   -0.0007    0.0123   -0.0633
          15    0.0535    0.0000   -0.0000    0.0000    0.0000    0.0000    0.0000   -0.0000
          16   -0.0000   -0.0222   -0.0115    0.0124    0.0129    0.0031   -0.0180   -0.1082
          17   -0.0000    0.0200    0.0125   -0.0187   -0.0040   -0.0015   -0.0068   -0.0606
          18   -0.0493   -0.0000    0.0000   -0.0000   -0.0000    0.0000    0.0000    0.0000
          19   -0.0000    0.0058   -0.0044    0.0064    0.0011    0.0006   -0.0045   -0.0007
          20   -0.0000    0.0101    0.0025    0.0111    0.0018   -0.0005    0.0026    0.0013
          21    0.0065   -0.0000   -0.0000   -0.0000   -0.0000   -0.0000   -0.0000   -0.0000
          22   -0.0000    0.0101    0.0009    0.0123    0.0024   -0.0004    0.0011    0.0027
          23   -0.0000    0.0177   -0.0007    0.0215    0.0041   -0.0000   -0.0007    0.0004
          24   -0.0023    0.0000   -0.0000    0.0000    0.0000   -0.0000    0.0000    0.0000
          25   -0.0000   -0.1624    0.1579    0.1515   -0.1908   -0.0659   -0.1785   -0.0424
          26   -0.0000   -0.0151    0.1178    0.1467   -0.0924   -0.0356   -0.1021   -0.0249
          27   -0.1128   -0.0000   -0.0000   -0.0000    0.0000    0.0000    0.0000    0.0000
          28    0.0000    0.0287   -0.0154   -0.0250   -0.0122    0.0042   -0.0033   -0.0006
          29    0.0000   -0.1796   -0.1083    0.1062    0.2465    0.2431   -0.1506    0.0535
          30    0.1659    0.0000    0.0000   -0.0000   -0.0000   -0.0000    0.0000    0.0000
          31   -0.0000   -0.0107    0.2377   -0.0295    0.0016    0.2679    0.1256    0.0307
          32   -0.0000   -0.0189   -0.1365   -0.0579   -0.0074   -0.1539   -0.0724   -0.0179
          33   -0.1811    0.0000   -0.0000    0.0000   -0.0000   -0.0000   -0.0000    0.0000
          34    0.0000   -0.1691    0.0852    0.1041    0.2116   -0.2174    0.1291   -0.0421
          35    0.0000   -0.0648    0.0675    0.0317    0.1083   -0.1299    0.0786   -0.0225
          36    0.1656    0.0000   -0.0000   -0.0000   -0.0000    0.0000   -0.0000   -0.0000
          37   -0.0000    0.0684   -0.0235    0.0505    0.0157   -0.0031   -0.0012   -0.0010
          38   -0.0000   -0.1488   -0.1978    0.2025   -0.2094    0.0808    0.2048    0.0536
          39   -0.1130   -0.0000    0.0000   -0.0000    0.0000   -0.0000   -0.0000   -0.0000
          40   -0.0000    0.0112   -0.0022    0.0138    0.0026   -0.0005   -0.0002    0.0054
          41   -0.0000    0.0194    0.0011    0.0240    0.0046    0.0000    0.0001   -0.0009
          42    0.0042    0.0000    0.0000    0.0000    0.0000   -0.0000   -0.0000    0.0000


   Root No.      25        26        27        28        29        30        31        32

                25 A      26 A      27 A      28 A      29 A      30 A      31 A      32 A   

                1360.4    1535.9    1603.9    1772.0    1795.9    2333.4    3055.1    3058.4
  
           1    0.0490    0.0734    0.0577   -0.1262   -0.0454   -0.0387   -0.0000   -0.0009
           2    0.0836   -0.0421    0.0998    0.0727   -0.0788   -0.0673   -0.0001    0.0005
           3    0.0000   -0.0000    0.0000    0.0000   -0.0000   -0.0000    0.0000   -0.0000
           4    0.0286    0.0051   -0.0559    0.0907    0.1004    0.0020    0.0050    0.0097
           5    0.0426    0.0706    0.0089   -0.0006    0.0868   -0.0008   -0.0074   -0.0154
           6   -0.0000   -0.0000   -0.0000   -0.0000   -0.0000    0.0000    0.0000    0.0000
           7    0.0225   -0.0585    0.0358    0.0461    0.0247   -0.0017   -0.0092    0.0180
           8    0.0476   -0.0399   -0.0433   -0.0781    0.1301    0.0014    0.0006   -0.0006
           9   -0.0000    0.0000   -0.0000    0.0000   -0.0000    0.0000    0.0000   -0.0000
          10   -0.0673   -0.0551    0.0130   -0.0524   -0.0263    0.0015   -0.0193   -0.0213
          11    0.0184   -0.0477   -0.0792    0.0742   -0.1180    0.0022   -0.0004    0.0005
          12    0.0000    0.0000    0.0000   -0.0000    0.0000   -0.0000    0.0000    0.0000
          13   -0.0292    0.0663    0.0284    0.1355    0.0245   -0.0002    0.0110    0.0013
          14   -0.0521   -0.0381    0.0490   -0.0780    0.0429   -0.0004    0.0191   -0.0004
          15    0.0000   -0.0000   -0.0000   -0.0000   -0.0000    0.0000   -0.0000   -0.0000
          16    0.0485    0.0135   -0.0754   -0.0906   -0.0886    0.0012    0.0096   -0.0109
          17   -0.0497    0.0715   -0.0289    0.0081   -0.0817    0.0024   -0.0174    0.0178
          18   -0.0000   -0.0000    0.0000    0.0000    0.0000   -0.0000    0.0000   -0.0000
          19   -0.0071   -0.0089    0.0001    0.0047   -0.0025    0.1506    0.0000    0.0002
          20   -0.0122    0.0051    0.0002   -0.0027   -0.0043    0.2619    0.0001   -0.0001
          21    0.0000   -0.0000    0.0000    0.0000   -0.0000    0.0001    0.0000    0.0000
          22   -0.0251    0.0017   -0.0202   -0.0016    0.0108   -0.0978    0.0000    0.0000
          23   -0.0437   -0.0011   -0.0351    0.0009    0.0188   -0.1702    0.0000   -0.0000
          24   -0.0000   -0.0000   -0.0000   -0.0000    0.0000   -0.0001    0.0000    0.0000
          25   -0.0799   -0.0979    0.0568    0.0005   -0.0657   -0.0025   -0.0527   -0.1083
          26   -0.0144    0.0221    0.0839   -0.0613   -0.0048   -0.0101    0.0880    0.1834
          27    0.0000    0.0000   -0.0000    0.0000   -0.0000   -0.0000   -0.0000   -0.0000
          28   -0.0768   -0.0656    0.0151   -0.0619   -0.0315    0.0035    0.2240    0.2474
          29   -0.0944    0.0732    0.0948   -0.0287    0.0427   -0.0000    0.0014   -0.0007
          30    0.0000   -0.0000   -0.0000    0.0000   -0.0000   -0.0000   -0.0000   -0.0000
          31   -0.0346   -0.1215    0.0336   -0.0567    0.0292   -0.0003   -0.1284   -0.0045
          32   -0.0606    0.0701    0.0579    0.0327    0.0507   -0.0005   -0.2229   -0.0019
          33    0.0000    0.0000   -0.0000    0.0000   -0.0000    0.0000    0.0001    0.0000
          34   -0.0438   -0.0962    0.0747   -0.0061    0.0527   -0.0017   -0.1142    0.1222
          35   -0.1142    0.0201    0.0605    0.0679   -0.0058    0.0030    0.2000   -0.2094
          36    0.0000    0.0000   -0.0000   -0.0000   -0.0000   -0.0000   -0.0000    0.0000
          37    0.0277   -0.0681    0.0442    0.0533    0.0288   -0.0075    0.1064   -0.2111
          38   -0.0759    0.0738    0.0910    0.0303   -0.0592   -0.0072   -0.0014    0.0016
          39    0.0000   -0.0000   -0.0000   -0.0000   -0.0000   -0.0000   -0.0000    0.0000
          40   -0.0299    0.0016   -0.0260   -0.0028    0.0150   -0.1921   -0.0000   -0.0001
          41   -0.0520   -0.0010   -0.0452    0.0016    0.0261   -0.3341   -0.0000    0.0000
          42   -0.0000   -0.0000   -0.0000   -0.0000    0.0000   -0.0002    0.0000    0.0000


   Root No.      33        34        35        36

                33 A      34 A      35 A      36 A   

                3066.2    3071.8    3080.6    3357.3
  
           1   -0.0006    0.0014    0.0006   -0.0010
           2   -0.0010   -0.0008    0.0010   -0.0017
           3   -0.0000    0.0000   -0.0000   -0.0000
           4    0.0123   -0.0102   -0.0063   -0.0002
           5   -0.0207    0.0193    0.0123   -0.0001
           6    0.0000   -0.0000   -0.0000    0.0000
           7   -0.0241   -0.0218    0.0137   -0.0000
           8    0.0003   -0.0009    0.0007   -0.0003
           9    0.0000    0.0000   -0.0000    0.0000
          10   -0.0035   -0.0189   -0.0183    0.0001
          11    0.0019   -0.0009    0.0003    0.0001
          12    0.0000    0.0000    0.0000   -0.0000
          13   -0.0127    0.0015   -0.0105    0.0000
          14   -0.0220   -0.0007   -0.0182    0.0000
          15    0.0000   -0.0000    0.0000    0.0000
          16    0.0033   -0.0087    0.0093    0.0000
          17   -0.0020    0.0169   -0.0156    0.0001
          18    0.0000   -0.0000    0.0000   -0.0000
          19    0.0002   -0.0002   -0.0001    0.0140
          20    0.0004    0.0001   -0.0003    0.0244
          21    0.0000   -0.0000   -0.0000    0.0000
          22   -0.0000   -0.0000   -0.0000   -0.0491
          23   -0.0000    0.0000   -0.0000   -0.0855
          24   -0.0000   -0.0000   -0.0000   -0.0000
          25   -0.1378    0.1216    0.0734   -0.0006
          26    0.2369   -0.2117   -0.1286    0.0008
          27   -0.0000    0.0000    0.0000   -0.0000
          28    0.0394    0.2110    0.1967   -0.0007
          29   -0.0032    0.0018    0.0000    0.0001
          30   -0.0000   -0.0000   -0.0000    0.0000
          31    0.1453   -0.0030    0.1128   -0.0003
          32    0.2521   -0.0005    0.1959   -0.0006
          33   -0.0001    0.0000   -0.0001    0.0000
          34   -0.0216    0.1046   -0.0977    0.0004
          35    0.0310   -0.1841    0.1686   -0.0006
          36   -0.0000    0.0000   -0.0000    0.0000
          37    0.2740    0.2449   -0.1468    0.0010
          38   -0.0004    0.0010   -0.0010   -0.0002
          39   -0.0000   -0.0000    0.0000   -0.0000
          40   -0.0003    0.0001    0.0005    0.4316
          41   -0.0005   -0.0001    0.0009    0.7511
          42   -0.0000    0.0000    0.0000    0.0004


           MASS-WEIGHTED COORDINATE ANALYSIS (NORMAL COORDINATES)


   Root No.       1         2         3         4         5         6         7         8

                 1 A       2 A       3 A       4 A       5 A       6 A       7 A       8 A   

                 135.0     175.9     348.1     355.6     490.5     535.3     565.2     628.7
  
           1    0.0000   -0.2975   -0.0000   -0.0000    0.1409    0.0001   -0.2055    0.1204
           2    0.0000    0.1713   -0.0000    0.0000    0.2464    0.0001    0.1188   -0.0693
           3   -0.3895   -0.0000    0.3027   -0.0029    0.0000   -0.3069   -0.0000    0.0000
           4    0.0000   -0.2884   -0.0000   -0.0000    0.1232    0.0000   -0.2362    0.0639
           5    0.0000   -0.0567   -0.0001   -0.0000   -0.2245   -0.0001    0.1184   -0.4157
           6   -0.3381   -0.0001   -0.2269   -0.3891   -0.0000   -0.1896   -0.0001    0.0000
           7    0.0000   -0.0957   -0.0001    0.0000   -0.2553   -0.0001   -0.2214    0.3917
           8    0.0000    0.2778   -0.0000    0.0000   -0.0090   -0.0000    0.1451    0.1534
           9   -0.3377    0.0001   -0.2188    0.3941   -0.0000   -0.1895    0.0001   -0.0000
          10    0.0000   -0.0646   -0.0000    0.0001    0.0566    0.0001    0.0106   -0.4689
          11    0.0001   -0.1989   -0.0001    0.0001   -0.2489   -0.0000   -0.0707   -0.1393
          12    0.0907   -0.0001   -0.1815    0.3957   -0.0000    0.2718    0.0000    0.0001
          13    0.0001    0.1385    0.0000    0.0000   -0.2307   -0.0001    0.0839   -0.1555
          14    0.0001   -0.0800    0.0000   -0.0000   -0.3976   -0.0002   -0.0489    0.0896
          15    0.4060    0.0000    0.3417   -0.0037    0.0001   -0.3079   -0.0000   -0.0000
          16    0.0000    0.1395   -0.0001   -0.0000   -0.2417   -0.0001    0.0660   -0.1147
          17    0.0001    0.1554   -0.0000   -0.0001   -0.0746    0.0000    0.0263    0.4759
          18    0.0907    0.0001   -0.1899   -0.3917   -0.0000    0.2715    0.0000   -0.0001
          19   -0.0000   -0.1419   -0.0000   -0.0001    0.2090   -0.0001    0.6717    0.1629
          20   -0.0001    0.0817   -0.0000    0.0000    0.3638    0.0000   -0.3862   -0.0940
          21   -0.1014   -0.0000    0.5688   -0.0061   -0.0003    0.4964    0.0000   -0.0000
          22   -0.0002    0.5181    0.0001    0.0000    0.2294    0.0001   -0.0589    0.0111
          23   -0.0003   -0.2977    0.0002   -0.0000    0.3989    0.0002    0.0339   -0.0068
          24    0.4765    0.0000   -0.2142    0.0022    0.0002   -0.0814   -0.0000   -0.0000
          25    0.0000   -0.1337   -0.0000   -0.0000   -0.0314   -0.0000   -0.1182    0.0568
          26    0.0000   -0.0461   -0.0000   -0.0000   -0.1034   -0.0000    0.0042   -0.0982
          27   -0.1555   -0.0000   -0.1718   -0.3073   -0.0001   -0.0215   -0.0001   -0.0001
          28    0.0000   -0.0187   -0.0000    0.0001    0.0153    0.0001    0.0024   -0.1357
          29    0.0000   -0.1161   -0.0000    0.0001   -0.0141    0.0001   -0.0837    0.0006
          30    0.0646   -0.0001   -0.1376    0.3114   -0.0001    0.3289    0.0000    0.0000
          31    0.0000    0.0884    0.0000    0.0000   -0.0663   -0.0001    0.0431    0.0795
          32    0.0001   -0.0510    0.0000   -0.0000   -0.1151   -0.0001   -0.0250   -0.0458
          33    0.2510    0.0000    0.2757   -0.0031    0.0001   -0.2498   -0.0000   -0.0000
          34    0.0000    0.0910   -0.0000   -0.0000   -0.0203    0.0000    0.0736   -0.0685
          35    0.0000    0.0743   -0.0000   -0.0001    0.0059    0.0001    0.0399    0.1173
          36    0.0646    0.0001   -0.1442   -0.3089   -0.0001    0.3290   -0.0000   -0.0000
          37   -0.0000   -0.0272   -0.0000    0.0000   -0.0735   -0.0000   -0.0631    0.1134
          38   -0.0000    0.1387   -0.0000    0.0000   -0.0792   -0.0000    0.1001    0.0002
          39   -0.1552    0.0000   -0.1653    0.3105   -0.0001   -0.0213    0.0001    0.0000
          40   -0.0001    0.3180    0.0001    0.0000    0.0681    0.0001   -0.3183   -0.0827
          41   -0.0001   -0.1828    0.0002   -0.0000    0.1180    0.0001    0.1830    0.0474
          42    0.2856    0.0000   -0.2849    0.0030    0.0003   -0.2426   -0.0000    0.0000


   Root No.       9        10        11        12        13        14        15        16

                 9 A      10 A      11 A      12 A      13 A      14 A      15 A      16 A   

                 654.2     779.8     835.9     846.9     852.5     862.0     941.5     977.2
  
           1   -0.0001   -0.0000    0.0343   -0.0001    0.0000   -0.0070    0.0000    0.0000
           2   -0.0001   -0.0001    0.0587    0.0000   -0.0000    0.0040    0.0001   -0.0000
           3    0.5049    0.3720    0.0003    0.0005   -0.0641   -0.0000   -0.3248    0.0005
           4   -0.0000   -0.0001    0.1968   -0.0000    0.0001   -0.0237    0.0000    0.0000
           5    0.0000   -0.0000    0.1203   -0.0001    0.0001    0.0034    0.0000    0.0001
           6   -0.1226   -0.0913   -0.0001   -0.2306   -0.0328   -0.0000    0.3081    0.3083
           7    0.0000    0.0000    0.0050    0.0000    0.0000   -0.0150    0.0000   -0.0000
           8   -0.0000   -0.0001    0.2315   -0.0001    0.0001    0.0185    0.0000   -0.0000
           9   -0.1232   -0.0912    0.0001    0.2293   -0.0344    0.0000    0.3073   -0.3093
          10    0.0000   -0.0002    0.4658   -0.0002    0.0002   -0.0269   -0.0000   -0.0000
          11    0.0001   -0.0000   -0.0009   -0.0001    0.0000   -0.0167    0.0000   -0.0001
          12    0.1959   -0.1421   -0.0002   -0.2289    0.0284   -0.0000    0.0451   -0.3104
          13    0.0000    0.0000   -0.2099    0.0000   -0.0001    0.0044   -0.0000   -0.0000
          14    0.0001    0.0001   -0.3655    0.0001   -0.0001   -0.0021   -0.0001   -0.0000
          15   -0.1201   -0.2398    0.0000    0.0000    0.0591    0.0000   -0.3307    0.0005
          16    0.0001    0.0001   -0.2352    0.0001   -0.0001    0.0014    0.0000    0.0000
          17   -0.0000   -0.0001    0.4019   -0.0001    0.0002    0.0310   -0.0000    0.0000
          18    0.1962   -0.1428   -0.0000    0.2294    0.0268    0.0000    0.0465    0.3101
          19    0.0000    0.0001   -0.1225    0.0000   -0.0001    0.2735   -0.0000   -0.0000
          20    0.0001    0.0001   -0.2125    0.0001   -0.0001   -0.1572   -0.0001    0.0000
          21   -0.2097   -0.1185   -0.0001    0.0008    0.2825    0.0000    0.1305   -0.0002
          22   -0.0000    0.0001   -0.1668    0.0001    0.0001   -0.4138    0.0000    0.0000
          23   -0.0000    0.0001   -0.2893    0.0001    0.0000    0.2380    0.0000   -0.0000
          24    0.0148   -0.0511    0.0000   -0.0016   -0.4730   -0.0001   -0.0616    0.0001
          25   -0.0000    0.0000    0.0320    0.0000    0.0000   -0.0125   -0.0000   -0.0000
          26   -0.0000    0.0000    0.0201    0.0000    0.0000   -0.0023   -0.0000   -0.0000
          27   -0.4723    0.0610    0.0001    0.4452    0.0612    0.0001   -0.3924   -0.3914
          28   -0.0000    0.0001    0.1378    0.0000    0.0000   -0.0080   -0.0000    0.0001
          29   -0.0000    0.0001    0.1399    0.0001    0.0000   -0.0181   -0.0000    0.0001
          30   -0.0046    0.4694    0.0002    0.4436   -0.0564    0.0001   -0.0894    0.3935
          31   -0.0001    0.0001   -0.0608    0.0000   -0.0000    0.0193    0.0001   -0.0000
          32   -0.0000    0.0002   -0.1054    0.0000   -0.0001   -0.0110    0.0001    0.0000
          33   -0.3405    0.4980    0.0002   -0.0003   -0.1109   -0.0000    0.4939   -0.0006
          34    0.0000    0.0000    0.0520   -0.0001    0.0000    0.0116   -0.0000   -0.0000
          35   -0.0000    0.0001    0.1893   -0.0002    0.0001    0.0157   -0.0000   -0.0001
          36   -0.0042    0.4702   -0.0000   -0.4434   -0.0533   -0.0001   -0.0914   -0.3927
          37   -0.0000    0.0000    0.0013   -0.0000    0.0000   -0.0043   -0.0000    0.0000
          38   -0.0000    0.0000    0.0378   -0.0000    0.0000    0.0120   -0.0000    0.0000
          39   -0.4719    0.0615   -0.0002   -0.4444    0.0643   -0.0000   -0.3918    0.3930
          40   -0.0000   -0.0000   -0.0506   -0.0001   -0.0003    0.7086   -0.0000   -0.0000
          41   -0.0001   -0.0000   -0.0896    0.0001   -0.0003   -0.4071   -0.0000    0.0000
          42    0.1326    0.1825   -0.0003    0.0030    0.8117    0.0001    0.0554   -0.0001


   Root No.      17        18        19        20        21        22        23        24

                17 A      18 A      19 A      20 A      21 A      22 A      23 A      24 A   

                1016.0    1035.7    1097.6    1113.7    1149.2    1152.2    1215.6    1336.0
  
           1    0.0000   -0.0555    0.0685   -0.1089   -0.0158   -0.0804    0.1775    0.3579
           2    0.0000   -0.0981   -0.0377   -0.1863   -0.0226    0.0478   -0.1020   -0.2140
           3   -0.1733   -0.0000    0.0000   -0.0001   -0.0000    0.0000   -0.0000    0.0000
           4    0.0000   -0.3357   -0.0261   -0.2165   -0.1264    0.0407    0.1539   -0.3499
           5    0.0000    0.3134    0.1755    0.2511    0.0443    0.0335    0.1064   -0.2020
           6    0.2503   -0.0000   -0.0000   -0.0000    0.0000    0.0000   -0.0000    0.0000
           7   -0.0000    0.4391   -0.1706    0.3235    0.1013   -0.0137   -0.0148   -0.0037
           8    0.0000   -0.1321   -0.0642   -0.0663   -0.0891   -0.0487   -0.1867    0.4008
           9    0.2506   -0.0000    0.0000   -0.0000    0.0000   -0.0000    0.0000   -0.0000
          10   -0.0001    0.1884   -0.1260   -0.1564   -0.0721    0.0247   -0.0246   -0.0025
          11   -0.0001   -0.0598    0.0283    0.0062    0.0655   -0.0161    0.1511    0.4007
          12   -0.3448   -0.0000   -0.0000    0.0000    0.0000    0.0000   -0.0000   -0.0001
          13    0.0001   -0.0642    0.0851   -0.2115   -0.0251    0.0142   -0.1700    0.3563
          14    0.0001   -0.1129   -0.0457   -0.3648   -0.0438   -0.0050    0.0981   -0.2055
          15    0.3740    0.0000   -0.0000    0.0001    0.0000    0.0000    0.0000   -0.0000
          16   -0.0000   -0.1476   -0.0883    0.0856    0.0949    0.0219   -0.1428   -0.3510
          17   -0.0001    0.1328    0.0960   -0.1293   -0.0294   -0.0107   -0.0543   -0.1967
          18   -0.3446   -0.0000    0.0000   -0.0000   -0.0000    0.0000    0.0000    0.0001
          19   -0.0000    0.0387   -0.0341    0.0443    0.0081    0.0041   -0.0361   -0.0023
          20   -0.0000    0.0670    0.0189    0.0771    0.0136   -0.0033    0.0207    0.0042
          21    0.0457   -0.0000   -0.0000   -0.0000   -0.0000   -0.0000   -0.0000   -0.0000
          22   -0.0000    0.0675    0.0071    0.0855    0.0174   -0.0026    0.0091    0.0087
          23   -0.0000    0.1174   -0.0054    0.1487    0.0304   -0.0002   -0.0054    0.0013
          24   -0.0161    0.0001   -0.0000    0.0001    0.0000   -0.0000    0.0000    0.0000
          25   -0.0000   -0.3128    0.3526    0.3042   -0.4071   -0.1360   -0.4114   -0.0399
          26   -0.0000   -0.0290    0.2630    0.2945   -0.1971   -0.0735   -0.2353   -0.0234
          27   -0.2284   -0.0000   -0.0000   -0.0001    0.0000    0.0000    0.0000    0.0000
          28    0.0001    0.0552   -0.0345   -0.0501   -0.0261    0.0086   -0.0075   -0.0006
          29    0.0001   -0.3461   -0.2418    0.2132    0.5257    0.5019   -0.3471    0.0503
          30    0.3359    0.0000    0.0001   -0.0000   -0.0001   -0.0001    0.0001    0.0000
          31   -0.0001   -0.0206    0.5308   -0.0592    0.0034    0.5532    0.2895    0.0289
          32   -0.0001   -0.0363   -0.3048   -0.1163   -0.0158   -0.3178   -0.1667   -0.0169
          33   -0.3669    0.0000   -0.0000    0.0000   -0.0000   -0.0000   -0.0000    0.0000
          34    0.0000   -0.3258    0.1903    0.2091    0.4513   -0.4488    0.2976   -0.0396
          35    0.0001   -0.1249    0.1506    0.0637    0.2311   -0.2683    0.1811   -0.0211
          36    0.3355    0.0001   -0.0001   -0.0000   -0.0001    0.0001   -0.0001   -0.0000
          37   -0.0000    0.1317   -0.0524    0.1015    0.0335   -0.0064   -0.0028   -0.0009
          38   -0.0000   -0.2867   -0.4417    0.4066   -0.4466    0.1669    0.4720    0.0504
          39   -0.2289   -0.0000    0.0000   -0.0000    0.0000   -0.0000   -0.0000   -0.0000
          40   -0.0000    0.0215   -0.0050    0.0277    0.0056   -0.0010   -0.0004    0.0051
          41   -0.0000    0.0373    0.0024    0.0482    0.0097    0.0000    0.0002   -0.0008
          42    0.0085    0.0000    0.0000    0.0000    0.0000   -0.0000   -0.0000    0.0000


   Root No.      25        26        27        28        29        30        31        32

                25 A      26 A      27 A      28 A      29 A      30 A      31 A      32 A   

                1360.4    1535.9    1603.9    1772.0    1795.9    2333.4    3055.1    3058.4
  
           1    0.2616    0.3731    0.2837   -0.4448   -0.1636   -0.1006   -0.0002   -0.0063
           2    0.4465   -0.2140    0.4907    0.2564   -0.2838   -0.1747   -0.0005    0.0036
           3    0.0001   -0.0000    0.0001    0.0000   -0.0000   -0.0000    0.0000   -0.0000
           4    0.1529    0.0258   -0.2752    0.3198    0.3615    0.0053    0.0377    0.0700
           5    0.2272    0.3587    0.0436   -0.0021    0.3127   -0.0020   -0.0560   -0.1113
           6   -0.0001   -0.0001   -0.0000   -0.0000   -0.0001    0.0000    0.0000    0.0000
           7    0.1199   -0.2971    0.1763    0.1624    0.0889   -0.0044   -0.0698    0.1301
           8    0.2539   -0.2030   -0.2131   -0.2754    0.4687    0.0035    0.0047   -0.0046
           9   -0.0001    0.0001   -0.0000    0.0000   -0.0000    0.0000    0.0000   -0.0000
          10   -0.3591   -0.2801    0.0637   -0.1849   -0.0947    0.0039   -0.1461   -0.1538
          11    0.0984   -0.2422   -0.3897    0.2615   -0.4251    0.0058   -0.0032    0.0036
          12    0.0000    0.0001    0.0001   -0.0000    0.0001   -0.0000    0.0000    0.0000
          13   -0.1560    0.3370    0.1395    0.4778    0.0884   -0.0006    0.0832    0.0096
          14   -0.2782   -0.1938    0.2409   -0.2752    0.1544   -0.0010    0.1446   -0.0027
          15    0.0001   -0.0000   -0.0001   -0.0000   -0.0000    0.0000   -0.0000   -0.0000
          16    0.2589    0.0685   -0.3710   -0.3194   -0.3193    0.0031    0.0726   -0.0788
          17   -0.2651    0.3636   -0.1422    0.0284   -0.2944    0.0063   -0.1315    0.1286
          18   -0.0000   -0.0000    0.0001    0.0000    0.0001   -0.0000    0.0000   -0.0000
          19   -0.0378   -0.0453    0.0004    0.0165   -0.0088    0.3911    0.0002    0.0013
          20   -0.0653    0.0260    0.0009   -0.0094   -0.0154    0.6800    0.0004   -0.0008
          21    0.0000   -0.0000    0.0000    0.0000   -0.0000    0.0003    0.0000    0.0000
          22   -0.1339    0.0089   -0.0992   -0.0056    0.0390   -0.2540    0.0000    0.0000
          23   -0.2331   -0.0054   -0.1726    0.0031    0.0677   -0.4418    0.0001   -0.0000
          24   -0.0001   -0.0000   -0.0001   -0.0000    0.0000   -0.0002    0.0000    0.0000
          25   -0.1236   -0.1441    0.0809    0.0005   -0.0685   -0.0019   -0.1155   -0.2265
          26   -0.0222    0.0325    0.1195   -0.0626   -0.0050   -0.0076    0.1930    0.3838
          27    0.0000    0.0000   -0.0000    0.0000   -0.0000   -0.0000   -0.0000   -0.0000
          28   -0.1188   -0.0966    0.0215   -0.0632   -0.0329    0.0026    0.4910    0.5177
          29   -0.1460    0.1078    0.1351   -0.0293    0.0445   -0.0000    0.0032   -0.0015
          30    0.0000   -0.0000   -0.0000    0.0000   -0.0000   -0.0000   -0.0001   -0.0001
          31   -0.0535   -0.1788    0.0478   -0.0579    0.0305   -0.0002   -0.2814   -0.0094
          32   -0.0936    0.1032    0.0826    0.0334    0.0529   -0.0004   -0.4886   -0.0041
          33    0.0000    0.0000   -0.0000    0.0000   -0.0000    0.0000    0.0002    0.0000
          34   -0.0677   -0.1416    0.1064   -0.0062    0.0550   -0.0013   -0.2504    0.2558
          35   -0.1766    0.0296    0.0862    0.0694   -0.0061    0.0022    0.4383   -0.4382
          36    0.0000    0.0000   -0.0000   -0.0000   -0.0000   -0.0000   -0.0001    0.0001
          37    0.0428   -0.1003    0.0630    0.0545    0.0300   -0.0057    0.2332   -0.4416
          38   -0.1173    0.1086    0.1297    0.0310   -0.0617   -0.0054   -0.0032    0.0033
          39    0.0000   -0.0000   -0.0000   -0.0000   -0.0000   -0.0000   -0.0000    0.0000
          40   -0.0462    0.0023   -0.0370   -0.0028    0.0157   -0.1444   -0.0000   -0.0001
          41   -0.0804   -0.0015   -0.0644    0.0016    0.0273   -0.2513   -0.0001    0.0001
          42   -0.0000   -0.0000   -0.0000   -0.0000    0.0000   -0.0001    0.0000    0.0000


   Root No.      33        34        35        36

                33 A      34 A      35 A      36 A   

                3066.2    3071.8    3080.6    3357.3
  
           1   -0.0039    0.0100    0.0046   -0.0036
           2   -0.0070   -0.0058    0.0077   -0.0062
           3   -0.0000    0.0000   -0.0000   -0.0000
           4    0.0835   -0.0733   -0.0500   -0.0009
           5   -0.1404    0.1389    0.0978   -0.0005
           6    0.0000   -0.0000   -0.0000    0.0000
           7   -0.1633   -0.1575    0.1088   -0.0001
           8    0.0019   -0.0063    0.0058   -0.0010
           9    0.0000    0.0000   -0.0000    0.0000
          10   -0.0238   -0.1367   -0.1456    0.0004
          11    0.0127   -0.0068    0.0022    0.0003
          12    0.0000    0.0000    0.0000   -0.0000
          13   -0.0859    0.0106   -0.0832    0.0001
          14   -0.1493   -0.0047   -0.1447    0.0001
          15    0.0000   -0.0000    0.0000    0.0000
          16    0.0222   -0.0629    0.0742    0.0001
          17   -0.0134    0.1221   -0.1237    0.0005
          18    0.0000   -0.0000    0.0000   -0.0000
          19    0.0014   -0.0015   -0.0012    0.0517
          20    0.0025    0.0009   -0.0020    0.0900
          21    0.0000   -0.0000   -0.0000    0.0000
          22   -0.0001   -0.0000   -0.0002   -0.1812
          23   -0.0002    0.0000   -0.0003   -0.3155
          24   -0.0000   -0.0000   -0.0000   -0.0001
          25   -0.2703    0.2542    0.1689   -0.0007
          26    0.4647   -0.4424   -0.2957    0.0008
          27   -0.0000    0.0000    0.0000   -0.0000
          28    0.0772    0.4410    0.4525   -0.0008
          29   -0.0062    0.0038    0.0000    0.0001
          30   -0.0000   -0.0001   -0.0001    0.0000
          31    0.2850   -0.0062    0.2596   -0.0004
          32    0.4947   -0.0010    0.4506   -0.0006
          33   -0.0002    0.0000   -0.0002    0.0000
          34   -0.0424    0.2186   -0.2247    0.0004
          35    0.0607   -0.3847    0.3877   -0.0006
          36   -0.0000    0.0001   -0.0001    0.0000
          37    0.5376    0.5119   -0.3378    0.0010
          38   -0.0007    0.0021   -0.0022   -0.0002
          39   -0.0000   -0.0000    0.0000   -0.0000
          40   -0.0005    0.0002    0.0011    0.4612
          41   -0.0010   -0.0001    0.0020    0.8026
          42   -0.0000    0.0000    0.0000    0.0004


          DESCRIPTION OF VIBRATIONS


 VIBRATION          1    1A           ATOM PAIR      ENERGY CONTRIBUTION    RADIAL
 FREQUENCY           135.03         C  7 -- C  8         +11.9% (174.4%)      0.0%
 TRANSITION DIPOLE   0.1592         C  2 -- C  4         +10.8% (165.9%)      0.0%
 TRAVEL (Ang.)       0.5675         C  3 -- C  6         +10.7% (165.8%)      0.0%
 REDUCED MASS        1.5504         C  1 -- C  2         +10.3% (162.4%)      0.0%
 EFFECTIVE MASS     46.7660         C  1 -- C  3         +10.3% (162.4%)      0.0%
 FORCE CONSTANT      0.0167

 VIBRATION          2    2A           ATOM PAIR      ENERGY CONTRIBUTION    RADIAL
 FREQUENCY           175.89         C  1 -- C  2         +12.3% (265.1%)      0.2%
 TRANSITION DIPOLE   0.1486         C  1 -- C  3         +12.3% (265.1%)      0.2%
 TRAVEL (Ang.)       0.4423         C  1 -- C  7         +10.8% (247.6%)      0.0%
 REDUCED MASS        1.9596         C  2 -- C  4          +9.6% (233.9%)      0.2%
 EFFECTIVE MASS     44.5526
 FORCE CONSTANT      0.0357

 VIBRATION          3    3A           ATOM PAIR      ENERGY CONTRIBUTION    RADIAL
 FREQUENCY           348.14         C  7 -- C  8         +19.8% ( 94.7%)      0.0%
 TRANSITION DIPOLE   0.3194         C  1 -- C  2         +13.3% ( 77.7%)      0.0%
 TRAVEL (Ang.)       0.3426         C  5 -- C  6         +13.1% ( 77.0%)      0.0%
 REDUCED MASS        1.6502         C  1 -- C  3         +13.0% ( 76.6%)      0.0%
 EFFECTIVE MASS     15.1212         C  4 -- C  5         +12.7% ( 75.9%)      0.0%
 FORCE CONSTANT      0.1178

 VIBRATION          4    4A           ATOM PAIR      ENERGY CONTRIBUTION    RADIAL
 FREQUENCY           355.65         C  3 -- C  6         +24.0% (109.5%)      0.0%
 TRANSITION DIPOLE   0.0024         C  2 -- C  4         +23.9% (109.4%)      0.0%
 TRAVEL (Ang.)       0.4010         C  4 -- C  5          +8.2% ( 64.1%)      0.0%
 REDUCED MASS        1.1791         C  1 -- C  3          +8.1% ( 63.7%)      0.0%
 EFFECTIVE MASS     17.1757
 FORCE CONSTANT      0.0879

 VIBRATION          5    5A           ATOM PAIR      ENERGY CONTRIBUTION    RADIAL
 FREQUENCY           490.49         C  1 -- C  7         +15.9% (153.6%)    100.0%
 TRANSITION DIPOLE   0.0280         C  8 -- H 14         +15.1% (150.0%)    100.0%
 TRAVEL (Ang.)       0.2820         C  7 -- C  8         +11.2% (128.9%)    100.0%
 REDUCED MASS        1.7287         C  4 -- C  5          +9.3% (117.3%)      0.2%
 EFFECTIVE MASS     22.4774
 FORCE CONSTANT      0.2450

 VIBRATION          6    6A           ATOM PAIR      ENERGY CONTRIBUTION    RADIAL
 FREQUENCY           535.34         C  1 -- C  7         +20.5% ( 68.2%)      0.0%
 TRANSITION DIPOLE   0.0250         C  4 -- C  5         +12.8% ( 53.9%)      0.0%
 TRAVEL (Ang.)       0.3328         C  5 -- C  6         +12.8% ( 53.9%)      0.0%
 REDUCED MASS        1.1372         C  7 -- C  8          +9.9% ( 47.3%)      0.0%
 EFFECTIVE MASS     10.7460
 FORCE CONSTANT      0.1920

 VIBRATION          7    7A           ATOM PAIR      ENERGY CONTRIBUTION    RADIAL
 FREQUENCY           565.20         C  1 -- C  7         +24.2% (101.1%)      0.0%
 TRANSITION DIPOLE   0.4704         C  7 -- C  8         +14.1% ( 77.2%)      0.0%
 TRAVEL (Ang.)       0.1627         C  3 -- C  6         +10.0% ( 65.1%)      1.8%
 REDUCED MASS        4.5043         C  2 -- C  4         +10.0% ( 65.0%)      1.8%
 EFFECTIVE MASS     12.5136
 FORCE CONSTANT      0.8478

 VIBRATION          8    8A           ATOM PAIR      ENERGY CONTRIBUTION    RADIAL
 FREQUENCY           628.68         C  3 -- C  6         +14.2% (111.2%)      0.2%
 TRANSITION DIPOLE   0.1202         C  2 -- C  4         +14.2% (111.1%)      0.2%
 TRAVEL (Ang.)       0.2227         C  5 -- C  6         +11.4% ( 99.5%)      1.1%
 REDUCED MASS        2.1630         C  4 -- C  5         +11.3% ( 99.4%)      1.1%
 EFFECTIVE MASS     19.2169
 FORCE CONSTANT      0.5037

 VIBRATION          9    9A           ATOM PAIR      ENERGY CONTRIBUTION    RADIAL
 FREQUENCY           654.24         C  1 -- C  7         +17.5% ( 56.0%)      0.0%
 TRANSITION DIPOLE   0.4109         C  1 -- C  3         +15.4% ( 52.5%)      0.0%
 TRAVEL (Ang.)       0.3274         C  1 -- C  2         +15.4% ( 52.5%)      0.0%
 REDUCED MASS        0.9615         C  2 -- H  9         +13.2% ( 48.7%)      0.0%
 EFFECTIVE MASS      6.8656         C  3 -- H 13         +13.2% ( 48.6%)      0.0%
 FORCE CONSTANT      0.2425

 VIBRATION         10   10A           ATOM PAIR      ENERGY CONTRIBUTION    RADIAL
 FREQUENCY           779.84         C  5 -- H 11         +27.4% ( 62.8%)      0.0%
 TRANSITION DIPOLE   0.7620         C  6 -- H 12         +20.5% ( 54.4%)      0.0%
 TRAVEL (Ang.)       0.4408         C  4 -- H 10         +20.5% ( 54.3%)      0.0%
 REDUCED MASS        0.4451         C  1 -- C  7          +7.6% ( 33.1%)      0.0%
 EFFECTIVE MASS      3.3019
 FORCE CONSTANT      0.1595

 VIBRATION         11   11A           ATOM PAIR      ENERGY CONTRIBUTION    RADIAL
 FREQUENCY           835.92         C  4 -- C  5         +16.6% ( 93.6%)      0.1%
 TRANSITION DIPOLE   0.0873         C  5 -- C  6         +16.6% ( 93.6%)      0.1%
 TRAVEL (Ang.)       0.2132         C  2 -- C  4          +9.1% ( 69.5%)      0.9%
 REDUCED MASS        1.7743         C  3 -- C  6          +9.1% ( 69.4%)      0.8%
 EFFECTIVE MASS     15.5875
 FORCE CONSTANT      0.7305

 VIBRATION         12   12A           ATOM PAIR      ENERGY CONTRIBUTION    RADIAL
 FREQUENCY           846.93         C  2 -- H  9         +22.3% ( 52.8%)      0.0%
 TRANSITION DIPOLE   0.0024         C  3 -- H 13         +22.2% ( 52.6%)      0.0%
 TRAVEL (Ang.)       0.5236         C  4 -- H 10         +22.0% ( 52.4%)      0.0%
 REDUCED MASS        0.2904         C  6 -- H 12         +22.0% ( 52.4%)      0.0%
 EFFECTIVE MASS      2.3197
 FORCE CONSTANT      0.1227

 VIBRATION         13   13A           ATOM PAIR      ENERGY CONTRIBUTION    RADIAL
 FREQUENCY           852.53         C  8 -- H 14         +80.3% ( 91.1%)      0.0%
 TRANSITION DIPOLE   0.5425         C  7 -- C  8         +12.2% ( 35.5%)      0.0%
 TRAVEL (Ang.)       0.2662         C  1 -- C  7          +3.2% ( 18.2%)      0.0%
 REDUCED MASS        1.1160         C  5 -- H 11          +1.7% ( 13.1%)      0.0%
 EFFECTIVE MASS      3.4051
 FORCE CONSTANT      0.4779

 VIBRATION         14   14A           ATOM PAIR      ENERGY CONTRIBUTION    RADIAL
 FREQUENCY           861.98         C  8 -- H 14         +80.0% ( 91.5%)      0.0%
 TRANSITION DIPOLE   0.5599         C  7 -- C  8         +14.3% ( 38.6%)      0.0%
 TRAVEL (Ang.)       0.2562         C  1 -- C  7          +3.9% ( 20.1%)      0.0%
 REDUCED MASS        1.1920         C  2 -- C  4          +0.3% (  5.4%)     87.6%
 EFFECTIVE MASS      3.5943
 FORCE CONSTANT      0.5218

 VIBRATION         15   15A           ATOM PAIR      ENERGY CONTRIBUTION    RADIAL
 FREQUENCY           941.45         C  5 -- H 11         +25.6% ( 56.4%)      0.0%
 TRANSITION DIPOLE   0.2191         C  2 -- H  9         +18.0% ( 47.3%)      0.0%
 TRAVEL (Ang.)       0.3443         C  3 -- H 13         +17.9% ( 47.2%)      0.0%
 REDUCED MASS        0.6041         C  1 -- C  2          +9.3% ( 34.1%)      0.0%
 EFFECTIVE MASS      4.6119
 FORCE CONSTANT      0.3154

 VIBRATION         16   16A           ATOM PAIR      ENERGY CONTRIBUTION    RADIAL
 FREQUENCY           977.20         C  3 -- H 13         +18.0% ( 45.7%)      0.0%
 TRANSITION DIPOLE   0.0008         C  4 -- H 10         +18.0% ( 45.7%)      0.0%
 TRAVEL (Ang.)       0.3585         C  6 -- H 12         +17.9% ( 45.6%)      0.0%
 REDUCED MASS        0.5370         C  2 -- H  9         +17.8% ( 45.5%)      0.0%
 EFFECTIVE MASS      3.9824
 FORCE CONSTANT      0.3021

 VIBRATION         17   17A           ATOM PAIR      ENERGY CONTRIBUTION    RADIAL
 FREQUENCY          1016.05         C  5 -- H 11         +16.5% ( 45.2%)      0.0%
 TRANSITION DIPOLE   0.0935         C  4 -- H 10         +13.9% ( 41.5%)      0.0%
 TRAVEL (Ang.)       0.3017         C  6 -- H 12         +13.9% ( 41.5%)      0.0%
 REDUCED MASS        0.7290         C  4 -- C  5         +10.0% ( 35.2%)      0.0%
 EFFECTIVE MASS      5.9247
 FORCE CONSTANT      0.4434

 VIBRATION         18   18A           ATOM PAIR      ENERGY CONTRIBUTION    RADIAL
 FREQUENCY          1035.72         C  2 -- C  4         +15.3% ( 64.7%)      1.0%
 TRANSITION DIPOLE   0.0847         C  3 -- C  6         +15.3% ( 64.7%)      1.1%
 TRAVEL (Ang.)       0.2367         C  1 -- C  2         +12.0% ( 57.3%)     31.7%
 REDUCED MASS        1.1622         C  1 -- C  3         +12.0% ( 57.1%)     31.3%
 EFFECTIVE MASS      9.4428         C  3 -- H 13         +10.9% ( 54.6%)     79.9%
 FORCE CONSTANT      0.7345         C  2 -- H  9         +10.9% ( 54.5%)     80.5%

 VIBRATION         19   19A           ATOM PAIR      ENERGY CONTRIBUTION    RADIAL
 FREQUENCY          1097.56         C  5 -- H 11         +27.6% ( 61.8%)      0.0%
 TRANSITION DIPOLE   0.0334         C  3 -- H 13         +16.3% ( 47.5%)      8.9%
 TRAVEL (Ang.)       0.4868         C  2 -- H  9         +15.9% ( 46.9%)      8.6%
 REDUCED MASS        0.2592         C  4 -- H 10          +5.8% ( 28.4%)     10.2%
 EFFECTIVE MASS      2.9114
 FORCE CONSTANT      0.1840

 VIBRATION         20   20A           ATOM PAIR      ENERGY CONTRIBUTION    RADIAL
 FREQUENCY          1113.66         C  5 -- C  6         +12.2% ( 54.6%)     61.5%
 TRANSITION DIPOLE   0.0010         C  4 -- C  5         +12.2% ( 54.6%)     61.2%
 TRAVEL (Ang.)       0.2773         C  2 -- H  9         +11.6% ( 53.3%)     18.2%
 REDUCED MASS        0.7875         C  3 -- H 13         +11.5% ( 53.0%)     18.0%
 EFFECTIVE MASS      8.5630
 FORCE CONSTANT      0.5754

 VIBRATION         21   21A           ATOM PAIR      ENERGY CONTRIBUTION    RADIAL
 FREQUENCY          1149.21         C  4 -- H 10         +25.0% ( 51.2%)      1.0%
 TRANSITION DIPOLE   0.0277         C  6 -- H 12         +23.2% ( 49.3%)      1.2%
 TRAVEL (Ang.)       0.4976         C  2 -- H  9         +18.9% ( 44.5%)      3.4%
 REDUCED MASS        0.2369         C  3 -- H 13         +18.5% ( 44.1%)      3.5%
 EFFECTIVE MASS      1.8267
 FORCE CONSTANT      0.1844

 VIBRATION         22   22A           ATOM PAIR      ENERGY CONTRIBUTION    RADIAL
 FREQUENCY          1152.19         C  5 -- H 11         +38.0% ( 62.3%)      0.0%
 TRANSITION DIPOLE   0.0064         C  6 -- H 12         +26.1% ( 51.7%)      0.0%
 TRAVEL (Ang.)       0.4354         C  4 -- H 10         +24.2% ( 49.7%)      0.1%
 REDUCED MASS        0.3088         C  3 -- H 13          +3.3% ( 18.4%)      0.1%
 EFFECTIVE MASS      1.2191
 FORCE CONSTANT      0.2415

 VIBRATION         23   23A           ATOM PAIR      ENERGY CONTRIBUTION    RADIAL
 FREQUENCY          1215.63         C  2 -- H  9         +19.5% ( 52.1%)      0.0%
 TRANSITION DIPOLE   0.0206         C  3 -- H 13         +19.3% ( 51.9%)      0.0%
 TRAVEL (Ang.)       0.4971         C  5 -- H 11         +12.0% ( 40.9%)      0.0%
 REDUCED MASS        0.2245         C  6 -- H 12         +11.0% ( 39.1%)      0.1%
 EFFECTIVE MASS      2.3273         C  4 -- H 10         +10.9% ( 39.0%)      0.1%
 FORCE CONSTANT      0.1955

 VIBRATION         24   24A           ATOM PAIR      ENERGY CONTRIBUTION    RADIAL
 FREQUENCY          1335.99         C  1 -- C  2         +12.2% ( 64.1%)    100.0%
 TRANSITION DIPOLE   0.1253         C  1 -- C  3         +12.2% ( 64.1%)    100.0%
 TRAVEL (Ang.)       0.1604         C  5 -- C  6         +12.2% ( 64.0%)    100.0%
 REDUCED MASS        1.9620         C  4 -- C  5         +12.1% ( 63.7%)    100.0%
 EFFECTIVE MASS     11.8810         C  2 -- C  4         +11.9% ( 63.3%)    100.0%
 FORCE CONSTANT      2.0632         C  3 -- C  6         +11.8% ( 63.0%)    100.0%

 VIBRATION         25   25A           ATOM PAIR      ENERGY CONTRIBUTION    RADIAL
 FREQUENCY          1360.42         C  1 -- C  7         +13.1% ( 58.1%)    100.0%
 TRANSITION DIPOLE   0.1458         C  1 -- C  3         +11.5% ( 54.5%)     16.0%
 TRAVEL (Ang.)       0.1733         C  1 -- C  2         +11.5% ( 54.3%)     19.7%
 REDUCED MASS        1.6513         C  4 -- C  5         +10.2% ( 51.2%)     99.9%
 EFFECTIVE MASS     11.7332
 FORCE CONSTANT      1.8006

 VIBRATION         26   26A           ATOM PAIR      ENERGY CONTRIBUTION    RADIAL
 FREQUENCY          1535.93         C  2 -- C  4         +13.3% ( 53.9%)     99.8%
 TRANSITION DIPOLE   0.4647         C  3 -- C  6         +13.3% ( 53.9%)     99.8%
 TRAVEL (Ang.)       0.1687         C  1 -- C  3         +11.7% ( 50.4%)     26.6%
 REDUCED MASS        1.5426         C  1 -- C  2         +11.7% ( 50.4%)     26.9%
 EFFECTIVE MASS     10.9735         C  4 -- C  5         +10.2% ( 47.2%)     18.7%
 FORCE CONSTANT      2.1441         C  5 -- C  6         +10.2% ( 47.2%)     18.8%

 VIBRATION         27   27A           ATOM PAIR      ENERGY CONTRIBUTION    RADIAL
 FREQUENCY          1603.90         C  1 -- C  2         +16.5% ( 60.0%)     61.0%
 TRANSITION DIPOLE   0.6521         C  1 -- C  3         +16.4% ( 59.9%)     60.8%
 TRAVEL (Ang.)       0.1426         C  1 -- C  7         +11.3% ( 49.8%)    100.0%
 REDUCED MASS        2.0664         C  5 -- C  6          +9.5% ( 45.6%)     64.0%
 EFFECTIVE MASS     11.1137
 FORCE CONSTANT      3.1319

 VIBRATION         28   28A           ATOM PAIR      ENERGY CONTRIBUTION    RADIAL
 FREQUENCY          1771.97         C  5 -- C  6         +15.9% ( 55.1%)     87.3%
 TRANSITION DIPOLE   0.0889         C  4 -- C  5         +15.9% ( 55.1%)     87.3%
 TRAVEL (Ang.)       0.1246         C  1 -- C  2         +14.1% ( 52.0%)     89.7%
 REDUCED MASS        2.4498         C  1 -- C  3         +14.1% ( 51.9%)     89.7%
 EFFECTIVE MASS     11.8874
 FORCE CONSTANT      4.5320

 VIBRATION         29   29A           ATOM PAIR      ENERGY CONTRIBUTION    RADIAL
 FREQUENCY          1795.90         C  2 -- C  4         +16.3% ( 56.2%)     99.9%
 TRANSITION DIPOLE   0.1864         C  3 -- C  6         +16.2% ( 56.1%)     99.9%
 TRAVEL (Ang.)       0.1289         C  1 -- C  2         +12.2% ( 48.6%)     43.7%
 REDUCED MASS        2.2593         C  1 -- C  3         +12.2% ( 48.5%)     43.6%
 EFFECTIVE MASS     11.8375
 FORCE CONSTANT      4.2933

 VIBRATION         30   30A           ATOM PAIR      ENERGY CONTRIBUTION    RADIAL
 FREQUENCY          2333.39         C  7 -- C  8         +58.0% ( 96.0%)    100.0%
 TRANSITION DIPOLE   0.7828         C  1 -- C  7         +29.8% ( 68.9%)    100.0%
 TRAVEL (Ang.)       0.0733         C  8 -- H 14         +10.2% ( 40.3%)    100.0%
 REDUCED MASS        5.3847         C  1 -- C  2          +0.9% ( 12.3%)     27.3%
 EFFECTIVE MASS     11.5266
 FORCE CONSTANT     17.2736

 VIBRATION         31   31A           ATOM PAIR      ENERGY CONTRIBUTION    RADIAL
 FREQUENCY          3055.12         C  5 -- H 11         +33.7% ( 59.0%)    100.0%
 TRANSITION DIPOLE   0.0471         C  6 -- H 12         +27.0% ( 52.8%)    100.0%
 TRAVEL (Ang.)       0.2954         C  4 -- H 10         +25.5% ( 51.4%)    100.0%
 REDUCED MASS        0.2529         C  3 -- H 13          +5.8% ( 24.4%)     99.9%
 EFFECTIVE MASS      1.4939
 FORCE CONSTANT      1.3908

 VIBRATION         32   32A           ATOM PAIR      ENERGY CONTRIBUTION    RADIAL
 FREQUENCY          3058.42         C  4 -- H 10         +28.3% ( 54.1%)    100.0%
 TRANSITION DIPOLE   0.0138         C  6 -- H 12         +27.2% ( 53.0%)    100.0%
 TRAVEL (Ang.)       0.3048         C  2 -- H  9         +21.0% ( 46.6%)    100.0%
 REDUCED MASS        0.2373         C  3 -- H 13         +20.6% ( 46.2%)    100.0%
 EFFECTIVE MASS      1.4882
 FORCE CONSTANT      1.3076

 VIBRATION         33   33A           ATOM PAIR      ENERGY CONTRIBUTION    RADIAL
 FREQUENCY          3066.17         C  5 -- H 11         +34.5% ( 59.6%)    100.0%
 TRANSITION DIPOLE   0.4193         C  3 -- H 13         +30.6% ( 56.2%)    100.0%
 TRAVEL (Ang.)       0.2693         C  2 -- H  9         +30.6% ( 56.2%)    100.0%
 REDUCED MASS        0.3032         C  4 -- H 10          +0.6% (  8.1%)     96.5%
 EFFECTIVE MASS      1.5206
 FORCE CONSTANT      1.6796

 VIBRATION         34   34A           ATOM PAIR      ENERGY CONTRIBUTION    RADIAL
 FREQUENCY          3071.79         C  3 -- H 13         +27.8% ( 53.5%)    100.0%
 TRANSITION DIPOLE   0.6491         C  2 -- H  9         +27.6% ( 53.3%)    100.0%
 TRAVEL (Ang.)       0.3040         C  6 -- H 12         +20.7% ( 46.2%)    100.0%
 REDUCED MASS        0.2375         C  4 -- H 10         +20.6% ( 46.1%)    100.0%
 EFFECTIVE MASS      1.5455
 FORCE CONSTANT      1.3201

 VIBRATION         35   35A           ATOM PAIR      ENERGY CONTRIBUTION    RADIAL
 FREQUENCY          3080.61         C  5 -- H 11         +28.8% ( 54.4%)    100.0%
 TRANSITION DIPOLE   0.3073         C  4 -- H 10         +21.8% ( 47.3%)    100.0%
 TRAVEL (Ang.)       0.3254         C  6 -- H 12         +21.4% ( 46.8%)    100.0%
 REDUCED MASS        0.2067         C  2 -- H  9         +12.4% ( 35.6%)    100.0%
 EFFECTIVE MASS      1.6038         C  3 -- H 13         +12.2% ( 35.3%)    100.0%
 FORCE CONSTANT      1.1555

 VIBRATION         36   36A           ATOM PAIR      ENERGY CONTRIBUTION    RADIAL
 FREQUENCY          3357.35         C  8 -- H 14         +94.0% ( 99.1%)    100.0%
 TRANSITION DIPOLE   1.0147         C  7 -- C  8          +5.7% ( 24.3%)    100.0%
 TRAVEL (Ang.)       0.1453         C  1 -- C  7          +0.3% (  6.0%)    100.0%
 REDUCED MASS        0.9517
 EFFECTIVE MASS      2.0743
 FORCE CONSTANT      6.3206

      SYMMETRY NUMBER FOR POINT-GROUP C1  =  1


          SYSTEM IS A GROUND STATE



 InChI=1S/C8H6/c1-2-8-6-4-3-5-7-8/h1,3-7H


          MOLECULE IS NOT LINEAR

          THERE ARE 36 GENUINE VIBRATIONS IN THIS SYSTEM
          THIS THERMODYNAMICS CALCULATION IS LIMITED TO
          MOLECULES WHICH HAVE NO INTERNAL ROTATIONS




                    CALCULATED THERMODYNAMIC PROPERTIES
                                          *
   TEMP. (K)   PARTITION FUNCTION   H.O.F.    ENTHALPY  HEAT CAPACITY ENTROPY
                                   KCAL/MOL   CAL/MOLE    CAL/K/MOL  CAL/K/MOL


 298.00  VIB.     0.8882D+01                  2198.9977    18.5380    11.7192
         ROT.     0.2644D+06                   888.2803     2.9808    27.7917
         INT.     0.2349D+07                  3087.2780    21.5188    39.5109
         TRA.     0.9979D+27                  1480.4672     4.9680    39.7788
         TOT.                       74.565    4567.7452    26.4868    79.2896

 200.00  VIB.     0.2942D+01                   791.5018    10.2684     6.1016
         ROT.     0.1454D+06                   596.1613     2.9808    26.6030
         INT.     0.4277D+06                  1387.6631    13.2492    32.7046
         TRA.     0.5487D+27                   993.6021     4.9680    37.7976
         TOT.                       72.379    2381.2652    18.2172    70.5022

 210.00  VIB.     0.3254D+01                   898.2028    11.0746     6.6221
         ROT.     0.1564D+06                   625.9693     2.9808    26.7484
         INT.     0.5091D+06                  1524.1721    14.0554    33.3705
         TRA.     0.5903D+27                  1043.2822     4.9680    38.0400
         TOT.                       72.565    2567.4543    19.0234    71.4105

 220.00  VIB.     0.3611D+01                  1013.0466    11.8965     7.1562
         ROT.     0.1677D+06                   655.7774     2.9808    26.8871
         INT.     0.6056D+06                  1668.8240    14.8773    34.0433
         TRA.     0.6330D+27                  1092.9623     4.9680    38.2711
         TOT.                       72.760    2761.7863    19.8453    72.3144

 230.00  VIB.     0.4017D+01                  1136.1758    12.7312     7.7034
         ROT.     0.1793D+06                   685.5855     2.9808    27.0196
         INT.     0.7203D+06                  1821.7613    15.7120    34.7230
         TRA.     0.6766D+27                  1142.6424     4.9680    38.4920
         TOT.                       72.962    2964.4037    20.6800    73.2149

 240.00  VIB.     0.4482D+01                  1267.7043    13.5759     8.2630
         ROT.     0.1911D+06                   715.3935     2.9808    27.1465
         INT.     0.8566D+06                  1983.0978    16.5567    35.4095
         TRA.     0.7212D+27                  1192.3226     4.9680    38.7034
         TOT.                       73.173    3175.4204    21.5247    74.1129

 250.00  VIB.     0.5013D+01                  1407.7180    14.4278     8.8345
         ROT.     0.2032D+06                   745.2016     2.9808    27.2682
         INT.     0.1019D+07                  2152.9196    17.4086    36.1026
         TRA.     0.7668D+27                  1242.0027     4.9680    38.9062
         TOT.                       73.393    3394.9223    22.3766    75.0088

 260.00  VIB.     0.5622D+01                  1556.2754    15.2842     9.4170
         ROT.     0.2155D+06                   775.0097     2.9808    27.3851
         INT.     0.1212D+07                  2331.2851    18.2650    36.8021
         TRA.     0.8133D+27                  1291.6828     4.9680    39.1011
         TOT.                       73.621    3622.9679    23.2330    75.9031

 270.00  VIB.     0.6320D+01                  1713.4093    16.1427    10.0099
         ROT.     0.2280D+06                   804.8177     2.9808    27.4976
         INT.     0.1441D+07                  2518.2270    19.1235    37.5075
         TRA.     0.8606D+27                  1341.3629     4.9680    39.2885
         TOT.                       73.857    3859.5899    24.0915    76.7960

 280.00  VIB.     0.7122D+01                  1879.1280    17.0008    10.6125
         ROT.     0.2408D+06                   834.6258     2.9808    27.6060
         INT.     0.1715D+07                  2713.7538    19.9816    38.2185
         TRA.     0.9089D+27                  1391.0430     4.9680    39.4692
         TOT.                       74.103    4104.7968    24.9496    77.6877

 290.00  VIB.     0.8044D+01                  2053.4176    17.8565    11.2240
         ROT.     0.2538D+06                   864.4339     2.9808    27.7106
         INT.     0.2042D+07                  2917.8514    20.8373    38.9346
         TRA.     0.9580D+27                  1440.7231     4.9680    39.6436
         TOT.                       74.356    4358.5745    25.8053    78.5782

 300.00  VIB.     0.9106D+01                  2236.2436    18.7078    11.8438
         ROT.     0.2671D+06                   894.2419     2.9808    27.8116
         INT.     0.2432D+07                  3130.4855    21.6886    39.6554
         TRA.     0.1008D+28                  1490.4032     4.9680    39.8120
         TOT.                       74.619    4620.8887    26.6566    79.4674

 310.00  VIB.     0.1033D+02                  2427.5532    19.5530    12.4710
         ROT.     0.2806D+06                   924.0500     2.9808    27.9094
         INT.     0.2898D+07                  3351.6032    22.5338    40.3803
         TRA.     0.1059D+28                  1540.0833     4.9680    39.9749
         TOT.                       74.889    4891.6865    27.5018    80.3552

 320.00  VIB.     0.1174D+02                  2627.2773    20.3905    13.1050
         ROT.     0.2942D+06                   953.8580     2.9808    28.0040
         INT.     0.3455D+07                  3581.1353    23.3713    41.1090
         TRA.     0.1110D+28                  1589.7634     4.9680    40.1326
         TOT.                       75.169    5170.8987    28.3393    81.2416

 330.00  VIB.     0.1337D+02                  2835.3323    21.2189    13.7452
         ROT.     0.3081D+06                   983.6661     2.9808    28.0957
         INT.     0.4121D+07                  3818.9984    24.1998    41.8409
         TRA.     0.1163D+28                  1639.4435     4.9680    40.2855
         TOT.                       75.456    5458.4420    29.1678    82.1264

 340.00  VIB.     0.1526D+02                  3051.6224    22.0373    14.3908
         ROT.     0.3223D+06                  1013.4742     2.9808    28.1847
         INT.     0.4917D+07                  4065.0965    25.0181    42.5755
         TRA.     0.1216D+28                  1689.1236     4.9680    40.4338
         TOT.                       75.752    5754.2201    29.9861    83.0093

 350.00  VIB.     0.1744D+02                  3276.0406    22.8445    15.0413
         ROT.     0.3366D+06                  1043.2822     2.9808    28.2711
         INT.     0.5870D+07                  4319.3229    25.8253    43.3124
         TRA.     0.1270D+28                  1738.8037     4.9680    40.5778
         TOT.                       76.056    6058.1266    30.7933    83.8902

 360.00  VIB.     0.1997D+02                  3508.4716    23.6397    15.6960
         ROT.     0.3511D+06                  1073.0903     2.9808    28.3551
         INT.     0.7012D+07                  4581.5619    26.6205    44.0511
         TRA.     0.1325D+28                  1788.4838     4.9680    40.7178
         TOT.                       76.368    6370.0457    31.5885    84.7688

 370.00  VIB.     0.2290D+02                  3748.7920    24.4223    16.3544
         ROT.     0.3658D+06                  1102.8984     2.9808    28.4368
         INT.     0.8379D+07                  4851.6904    27.4031    44.7912
         TRA.     0.1381D+28                  1838.1639     4.9680    40.8539
         TOT.                       76.688    6689.8543    32.3711    85.6450

 380.00  VIB.     0.2631D+02                  3996.8729    25.1917    17.0159
         ROT.     0.3808D+06                  1132.7064     2.9808    28.5162
         INT.     0.1002D+08                  5129.5793    28.1725    45.5322
         TRA.     0.1437D+28                  1887.8440     4.9680    40.9864
         TOT.                       77.015    7017.4233    33.1405    86.5186

 390.00  VIB.     0.3026D+02                  4252.5803    25.9475    17.6801
         ROT.     0.3959D+06                  1162.5145     2.9808    28.5937
         INT.     0.1198D+08                  5415.0948    28.9283    46.2738
         TRA.     0.1494D+28                  1937.5242     4.9680    41.1154
         TOT.                       77.350    7352.6189    33.8963    87.3892

 400.00  VIB.     0.3486D+02                  4515.7769    26.6895    18.3464
         ROT.     0.4112D+06                  1192.3226     2.9808    28.6691
         INT.     0.1433D+08                  5708.0994    29.6703    47.0156
         TRA.     0.1552D+28                  1987.2043     4.9680    41.2412
         TOT.                       77.693    7695.3037    34.6383    88.2568

   *: NOTE: HEATS OF FORMATION ARE RELATIVE TO THE
            ELEMENTS IN THEIR STANDARD STATE AT 298K
              (=  Standard Enthalpy of Formation).

            Hvib:  Zero-point energy is not included.
                   frequencies of less than zero cm-1 are not included.
            Hrot = (3/2)RT
            Htra = (3/2)RT + pV = (5/2)RT

            Heat capacity is Cp, not Cv

          For more information, see: HTTP://OpenMOPAC.net/Manual/thermochemistry.html


           FORCE CONSTANT IN CARTESIAN COORDINATES (Millidynes/A)

    ATOM   CHEMICAL       X               Y               Z
   NUMBER   SYMBOL  FORCE CONSTANT  FORCE CONSTANT  FORCE CONSTANT

      1       C       12.467585       13.528848        2.560149
      2       C       11.970258       12.264875        2.319999
      3       C       12.048554       12.149268        2.320342
      4       C       12.100699       12.038723        2.324874
      5       C       12.043743       12.098430        2.330983
      6       C       12.058518       12.113205        2.325073
      7       C        7.860316       19.574616        1.505173
      8       C        6.856369       18.131819        1.268967
      9       H        1.873009        4.053490        0.353508
     10       H        5.158178        0.758608        0.353076
     11       H        1.856750        4.064981        0.351990
     12       H        1.856697        4.060072        0.352777
     13       H        5.165180        0.760815        0.353897
     14       H        1.742956        4.619095        0.319336

 **********************
 *                    *
 * JOB ENDED NORMALLY *
 *                    *
 **********************



 TOTAL JOB TIME:             0.93 SECONDS

 == MOPAC DONE ==
