 *******************************************************************************
 **                                                                           **
 **                              MOPAC v23.1.2                                **
 **                                                                           **
 *******************************************************************************
 **          Digital Object Identifier (DOI): 10.5281/zenodo.6511958          **
 **    Visit the DOI location for information on how to cite this program.    **
 *******************************************************************************

                              PM3 CALCULATION RESULTS

 *******************************************************************************
 *  CALCULATION DONE: (MAX THREADS = 1)              Tue Jun  3 16:29:56 2025  *
 *  PM3        - The PM3 Hamiltonian to be used
 *  PRECISE    - TIGHTER CRITERIA TO BE USED
 *  NOSYM      - POINT-GROUP SYMMETRY SET TO C1
 *  THREADS=1  - MULTI-THREADING NOT USED
 *  T=         - A TIME OF 172800.0 SECONDS REQUESTED
 *  DUMP=N     - RESTART FILE WRITTEN EVERY 7200.0 SECONDS REQUESTED
 *******************************************************************************
pm3  precise nosym THREADS=1
 InChI=1S/C10H8/c1-2-6-10-8-4-3-7-9(10)5-1/h1-8H

   ATOM   CHEMICAL          X               Y               Z
  NUMBER   SYMBOL      (ANGSTROMS)     (ANGSTROMS)     (ANGSTROMS)

     1       C         -0.02490000  *   0.70780000  *  -0.02460000  *
     2       C          0.02490000  *  -0.70780000  *   0.02460000  *
     3       C          1.16100000  *   1.44870000  *   0.09670000  *
     4       C          1.25940000  *  -1.35360000  *   0.19390000  *
     5       C         -1.25940000  *   1.35360000  *  -0.19390000  *
     6       C         -1.16100000  *  -1.44870000  *  -0.09670000  *
     7       C          2.38390000  *   0.79250000  *   0.26500000  *
     8       C          2.43290000  *  -0.60340000  *   0.31340000  *
     9       C         -2.43290000  *   0.60340000  *  -0.31340000  *
    10       C         -2.38390000  *  -0.79250000  *  -0.26500000  *
    11       H          3.29620000  *   1.36750000  *   0.35810000  *
    12       H          3.38300000  *  -1.10520000  *   0.44390000  *
    13       H          1.14200000  *   2.53150000  *   0.06150000  *
    14       H          1.31640000  *  -2.43490000  *   0.23380000  *
    15       H         -1.31640000  *   2.43490000  *  -0.23380000  *
    16       H         -1.14200000  *  -2.53150000  *  -0.06150000  *
    17       H         -3.38300000  *   1.10520000  *  -0.44390000  *
    18       H         -3.29620000  *  -1.36750000  *  -0.35810000  *



          CARTESIAN COORDINATES 

    NO.       ATOM           X           Y           Z

     1         C         -0.0249      0.7078     -0.0246
     2         C          0.0249     -0.7078      0.0246
     3         C          1.1610      1.4487      0.0967
     4         C          1.2594     -1.3536      0.1939
     5         C         -1.2594      1.3536     -0.1939
     6         C         -1.1610     -1.4487     -0.0967
     7         C          2.3839      0.7925      0.2650
     8         C          2.4329     -0.6034      0.3134
     9         C         -2.4329      0.6034     -0.3134
    10         C         -2.3839     -0.7925     -0.2650
    11         H          3.2962      1.3675      0.3581
    12         H          3.3830     -1.1052      0.4439
    13         H          1.1420      2.5315      0.0615
    14         H          1.3164     -2.4349      0.2338
    15         H         -1.3164      2.4349     -0.2338
    16         H         -1.1420     -2.5315     -0.0615
    17         H         -3.3830      1.1052     -0.4439
    18         H         -3.2962     -1.3675     -0.3581

  H: (PM3): J. J. P. STEWART, J. COMP. CHEM. 10, 209 (1989).
  C: (PM3): J. J. P. STEWART, J. COMP. CHEM. 10, 209 (1989).

           Empirical Formula: C10 H8  =    18 atoms



      MOLECULAR POINT GROUP   :   C1  


      RHF CALCULATION, NO. OF DOUBLY OCCUPIED LEVELS = 24


          Geometry optimization using EF

          DIAGONAL MATRIX USED AS START HESSIAN

 CYCLE:     1 TIME:   0.008 TIME LEFT:  2.00D  GRAD.:   128.205 HEAT:  43.73788
 CYCLE:     2 TIME:   0.012 TIME LEFT:  2.00D  GRAD.:   140.998 HEAT:  43.64277
 CYCLE:     3 TIME:   0.008 TIME LEFT:  2.00D  GRAD.:    98.135 HEAT:  42.13841
 CYCLE:     4 TIME:   0.012 TIME LEFT:  2.00D  GRAD.:    47.706 HEAT:  41.02088
 CYCLE:     5 TIME:   0.008 TIME LEFT:  2.00D  GRAD.:    29.955 HEAT:  40.81710
 CYCLE:     6 TIME:   0.004 TIME LEFT:  2.00D  GRAD.:    24.589 HEAT:  40.70480
 CYCLE:     7 TIME:   0.008 TIME LEFT:  2.00D  GRAD.:     9.683 HEAT:  40.58822
 CYCLE:     8 TIME:   0.008 TIME LEFT:  2.00D  GRAD.:     7.256 HEAT:  40.57676
 CYCLE:     9 TIME:   0.004 TIME LEFT:  2.00D  GRAD.:     6.403 HEAT:  40.57319
 CYCLE:    10 TIME:   0.008 TIME LEFT:  2.00D  GRAD.:     6.577 HEAT:  40.57271
 CYCLE:    11 TIME:   0.004 TIME LEFT:  2.00D  GRAD.:     4.639 HEAT:  40.56606
 CYCLE:    12 TIME:   0.008 TIME LEFT:  2.00D  GRAD.:     1.397 HEAT:  40.56218
 CYCLE:    13 TIME:   0.004 TIME LEFT:  2.00D  GRAD.:     1.900 HEAT:  40.56154
 CYCLE:    14 TIME:   0.008 TIME LEFT:  2.00D  GRAD.:     1.023 HEAT:  40.56048
 CYCLE:    15 TIME:   0.004 TIME LEFT:  2.00D  GRAD.:     2.494 HEAT:  40.56080
 CYCLE:    16 TIME:   0.008 TIME LEFT:  2.00D  GRAD.:     0.401 HEAT:  40.55967
 CYCLE:    17 TIME:   0.004 TIME LEFT:  2.00D  GRAD.:     0.308 HEAT:  40.55961
 CYCLE:    18 TIME:   0.008 TIME LEFT:  2.00D  GRAD.:     0.123 HEAT:  40.55955
 CYCLE:    19 TIME:   0.004 TIME LEFT:  2.00D  GRAD.:     0.117 HEAT:  40.55952
 CYCLE:    20 TIME:   0.004 TIME LEFT:  2.00D  GRAD.:     0.199 HEAT:  40.55947
 CYCLE:    21 TIME:   0.008 TIME LEFT:  2.00D  GRAD.:     0.165 HEAT:  40.55946
 CYCLE:    22 TIME:   0.004 TIME LEFT:  2.00D  GRAD.:     0.189 HEAT:  40.55945
 CYCLE:    23 TIME:   0.008 TIME LEFT:  2.00D  GRAD.:     0.221 HEAT:  40.55946
 CYCLE:    24 TIME:   0.008 TIME LEFT:  2.00D  GRAD.:     0.066 HEAT:  40.55945
 CYCLE:    25 TIME:   0.004 TIME LEFT:  2.00D  GRAD.:     0.047 HEAT:  40.55945

     GRADIENT =  0.04682 IS LESS THAN CUTOFF =  0.05000



 -------------------------------------------------------------------------------
 pm3  precise nosym THREADS=1
 InChI=1S/C10H8/c1-2-6-10-8-4-3-7-9(10)5-1/h1-8H



     GEOMETRY OPTIMISED USING EIGENVECTOR FOLLOWING (EF).     
     SCF FIELD WAS ACHIEVED                                   


                              PM3 CALCULATION
                                                       MOPAC v23.1.2 MacOS
                                                       Tue Jun  3 16:29:56 2025




          FINAL HEAT OF FORMATION =         40.55945 KCAL/MOL =     169.70073 KJ/MOL


          COSMO AREA              =        164.91 SQUARE ANGSTROMS
          COSMO VOLUME            =        163.31 CUBIC ANGSTROMS

          GRADIENT NORM           =          0.04682          =       0.01104 PER ATOM
          IONIZATION POTENTIAL    =          8.835693 EV
          HOMO LUMO ENERGIES (EV) =         -8.836 -0.408
          NO. OF FILLED LEVELS    =         24
          MOLECULAR WEIGHT        =        128.1732         POINT GROUP:  C1  

          MOLECULAR DIMENSIONS (Angstroms)

            Atom       Atom       Distance
            H    18    H    11     7.19294
            H    15    H    14     5.53528
            H    16    H    13     0.00019


          SCF CALCULATIONS        =         29

          WALL-CLOCK TIME         =      0.180 SECONDS
          COMPUTATION TIME        =      0.112 SECONDS




   ATOM   CHEMICAL          X               Y               Z
  NUMBER   SYMBOL      (ANGSTROMS)     (ANGSTROMS)     (ANGSTROMS)

     1       C         -0.02471333  *   0.70413063  *  -0.02443217  *
     2       C          0.02472156  *  -0.70412838  *   0.02443968  *
     3       C          1.18036949  *   1.44724386  *   0.09908116  *
     4       C          1.27859684  *  -1.35067286  *   0.19614596  *
     5       C         -1.27860189  *   1.35067877  *  -0.19615102  *
     6       C         -1.18037435  *  -1.44725430  *  -0.09908754  *
     7       C          2.37518660  *   0.80071999  *   0.26370631  *
     8       C          2.42479774  *  -0.61221332  *   0.31271614  *
     9       C         -2.42479674  *   0.61221601  *  -0.31271650  *
    10       C         -2.37518588  *  -0.80072079  *  -0.26370228  *
    11       H          3.30639556  *   1.36865405  *   0.35934209  *
    12       H          3.39323996  *  -1.10553491  *   0.44520484  *
    13       H          1.13368651  *   2.54136430  *   0.06009750  *
    14       H          1.30876321  *  -2.44544141  *   0.23308829  *
    15       H         -1.30876305  *   2.44543866  *  -0.23308739  *
    16       H         -1.13368648  *  -2.54136004  *  -0.06009698  *
    17       H         -3.39324010  *   1.10553524  *  -0.44520484  *
    18       H         -3.30639576  *  -1.36865456  *  -0.35934257  *

                             CARTESIAN COORDINATES

   1    C       -0.024713333     0.704130628    -0.024432166
   2    C        0.024721557    -0.704128376     0.024439677
   3    C        1.180369489     1.447243862     0.099081155
   4    C        1.278596842    -1.350672861     0.196145955
   5    C       -1.278601892     1.350678768    -0.196151025
   6    C       -1.180374347    -1.447254301    -0.099087538
   7    C        2.375186598     0.800719989     0.263706314
   8    C        2.424797744    -0.612213319     0.312716135
   9    C       -2.424796737     0.612216012    -0.312716497
  10    C       -2.375185878    -0.800720787    -0.263702278
  11    H        3.306395564     1.368654052     0.359342086
  12    H        3.393239962    -1.105534912     0.445204837
  13    H        1.133686506     2.541364296     0.060097497
  14    H        1.308763211    -2.445441407     0.233088286
  15    H       -1.308763052     2.445438663    -0.233087394
  16    H       -1.133686481    -2.541360035    -0.060096979
  17    H       -3.393240096     1.105535238    -0.445204839
  18    H       -3.306395763    -1.368654561    -0.359342573


           Empirical Formula: C10 H8  =    18 atoms



      MOLECULAR POINT GROUP   :   C1  


                  EIGENVALUES  
 -41.06090 -35.72229 -31.50186 -28.48355 -27.39901 -22.24446 -21.66500 -21.37096
 -18.05055 -17.45450 -17.08844 -15.68801 -15.15873 -15.02041 -14.46944 -13.95826
 -13.79854 -13.03443 -12.42982 -12.10822 -11.97293 -10.67720  -9.43558  -8.83569
  -0.40753   0.06465   1.08177   2.00466   3.05994   3.22056   3.23718   3.36450
   3.38635   3.48564   3.68240   3.82001   3.83061   4.06448   4.73210   4.76144
   4.91747   4.91900   5.29244   5.47120   5.69836   5.85449   6.34362   6.44883


              NET ATOMIC CHARGES AND DIPOLE CONTRIBUTIONS

  ATOM NO.   TYPE          CHARGE      No. of ELECS.   s-Pop       p-Pop       
    1          C          -0.036972        4.0370     1.16299     2.87399
    2          C          -0.036973        4.0370     1.16299     2.87399
    3          C          -0.087914        4.0879     1.17824     2.90967
    4          C          -0.087916        4.0879     1.17824     2.90967
    5          C          -0.087914        4.0879     1.17824     2.90967
    6          C          -0.087913        4.0879     1.17824     2.90967
    7          C          -0.101032        4.1010     1.17900     2.92204
    8          C          -0.101031        4.1010     1.17899     2.92204
    9          C          -0.101030        4.1010     1.17899     2.92204
   10          C          -0.101032        4.1010     1.17900     2.92204
   11          H           0.102626        0.8974     0.89737
   12          H           0.102627        0.8974     0.89737
   13          H           0.104806        0.8952     0.89519
   14          H           0.104805        0.8952     0.89519
   15          H           0.104805        0.8952     0.89520
   16          H           0.104807        0.8952     0.89519
   17          H           0.102626        0.8974     0.89737
   18          H           0.102625        0.8974     0.89737
 DIPOLE           X         Y         Z       TOTAL
 POINT-CHG.    -0.000     0.000     0.000     0.000
 HYBRID         0.000    -0.000     0.000     0.000
 SUM           -0.000    -0.000     0.000     0.000


          ATOMIC ORBITAL ELECTRON POPULATIONS

     Atom    s        px        py        pz   
    1  C   1.16299   0.94024   0.93537   0.99837
    2  C   1.16299   0.94024   0.93537   0.99837
    3  C   1.17824   0.93231   0.97907   0.99829
    4  C   1.17824   0.93123   0.98028   0.99816
    5  C   1.17824   0.93123   0.98028   0.99816
    6  C   1.17824   0.93231   0.97907   0.99829
    7  C   1.17900   0.97148   0.95004   1.00051
    8  C   1.17899   0.97400   0.94723   1.00081
    9  C   1.17899   0.97400   0.94723   1.00081
   10  C   1.17900   0.97148   0.95004   1.00051
   11  H   0.89737
   12  H   0.89737
   13  H   0.89519
   14  H   0.89519
   15  H   0.89520
   16  H   0.89519
   17  H   0.89737
   18  H   0.89737
 *******************************************************************************
 **                                                                           **
 **                              MOPAC v23.1.2                                **
 **                                                                           **
 *******************************************************************************
 **          Digital Object Identifier (DOI): 10.5281/zenodo.6511958          **
 **    Visit the DOI location for information on how to cite this program.    **
 *******************************************************************************

                              PM3 CALCULATION RESULTS

 *******************************************************************************
 *  CALCULATION DONE: (MAX THREADS = 1)              Tue Jun  3 16:29:56 2025  *
 *  PM3        - The PM3 Hamiltonian to be used
 *  OLDGEO     - PREVIOUS GEOMETRY TO BE USED
 *  PRECISE    - TIGHTER CRITERIA TO BE USED
 *  NOSYM      - POINT-GROUP SYMMETRY SET TO C1
 *  THREADS=1  - MULTI-THREADING NOT USED
 *  T=         - A TIME OF 172800.0 SECONDS REQUESTED
 *  DUMP=N     - RESTART FILE WRITTEN EVERY 7200.0 SECONDS REQUESTED
 *  THERMO     - THERMODYNAMIC QUANTITIES TO BE CALCULATED
 *******************************************************************************
oldgeo thermo nosym precise THREADS=1  pm3
 InChI=1S/C10H8/c1-2-6-10-8-4-3-7-9(10)5-1/h1-8H

   ATOM   CHEMICAL          X               Y               Z
  NUMBER   SYMBOL      (ANGSTROMS)     (ANGSTROMS)     (ANGSTROMS)

     1       C         -0.02471333  *   0.70413063  *  -0.02443217  *
     2       C          0.02472156  *  -0.70412838  *   0.02443968  *
     3       C          1.18036949  *   1.44724386  *   0.09908116  *
     4       C          1.27859684  *  -1.35067286  *   0.19614596  *
     5       C         -1.27860189  *   1.35067877  *  -0.19615102  *
     6       C         -1.18037435  *  -1.44725430  *  -0.09908754  *
     7       C          2.37518660  *   0.80071999  *   0.26370631  *
     8       C          2.42479774  *  -0.61221332  *   0.31271614  *
     9       C         -2.42479674  *   0.61221601  *  -0.31271650  *
    10       C         -2.37518588  *  -0.80072079  *  -0.26370228  *
    11       H          3.30639556  *   1.36865405  *   0.35934209  *
    12       H          3.39323996  *  -1.10553491  *   0.44520484  *
    13       H          1.13368651  *   2.54136430  *   0.06009750  *
    14       H          1.30876321  *  -2.44544141  *   0.23308829  *
    15       H         -1.30876305  *   2.44543866  *  -0.23308739  *
    16       H         -1.13368648  *  -2.54136004  *  -0.06009698  *
    17       H         -3.39324010  *   1.10553524  *  -0.44520484  *
    18       H         -3.30639576  *  -1.36865456  *  -0.35934257  *



          CARTESIAN COORDINATES 

    NO.       ATOM           X           Y           Z

     1         C         -0.0247      0.7041     -0.0244
     2         C          0.0247     -0.7041      0.0244
     3         C          1.1804      1.4472      0.0991
     4         C          1.2786     -1.3507      0.1961
     5         C         -1.2786      1.3507     -0.1962
     6         C         -1.1804     -1.4473     -0.0991
     7         C          2.3752      0.8007      0.2637
     8         C          2.4248     -0.6122      0.3127
     9         C         -2.4248      0.6122     -0.3127
    10         C         -2.3752     -0.8007     -0.2637
    11         H          3.3064      1.3687      0.3593
    12         H          3.3932     -1.1055      0.4452
    13         H          1.1337      2.5414      0.0601
    14         H          1.3088     -2.4454      0.2331
    15         H         -1.3088      2.4454     -0.2331
    16         H         -1.1337     -2.5414     -0.0601
    17         H         -3.3932      1.1055     -0.4452
    18         H         -3.3064     -1.3687     -0.3593

  H: (PM3): J. J. P. STEWART, J. COMP. CHEM. 10, 209 (1989).
  C: (PM3): J. J. P. STEWART, J. COMP. CHEM. 10, 209 (1989).

           Empirical Formula: C10 H8  =    18 atoms



      MOLECULAR POINT GROUP   :   C1  


      RHF CALCULATION, NO. OF DOUBLY OCCUPIED LEVELS = 24



          HEAT OF FORMATION =      40.559448 KCALS/MOLE


          CARTESIAN COORDINATE DERIVATIVES

   NUMBER  ATOM         X            Y            Z

     1       C      0.010516     0.014977    -0.006126
     2       C     -0.014151     0.008542     0.006230
     3       C      0.007972     0.005240     0.004440
     4       C     -0.006014     0.005627    -0.007757
     5       C     -0.006883    -0.015353     0.003515
     6       C      0.014899    -0.016151    -0.001801
     7       C     -0.006437    -0.021056    -0.013341
     8       C      0.014448    -0.001695     0.015098
     9       C     -0.013255     0.000395    -0.003350
    10       C      0.001786     0.018818     0.002181
    11       H     -0.002343     0.006582     0.001123
    12       H     -0.004474    -0.006847    -0.000629
    13       H     -0.004295    -0.000454     0.000631
    14       H      0.002288     0.000185    -0.001742
    15       H      0.004050     0.000118     0.001191
    16       H     -0.005555     0.000739     0.000680
    17       H      0.004271     0.007147    -0.000638
    18       H      0.003178    -0.006814     0.000296



          GRADIENT NORM =   0.06064

          MOLECULAR WEIGHT =  128.17



          ROTATIONAL CONSTANTS IN CM(-1)

          A =    0.10435410   B =    0.04141888   C =    0.02965042



           PRINCIPAL MOMENTS OF INERTIA IN UNITS OF 10**(-40)*GRAM-CM**2

          A =      268.2478   B =      675.8453   C =      944.0930


          ORIENTATION OF MOLECULE IN FORCE CALCULATION

    NO.       ATOM         X         Y         Z

     1          C      -0.7050    0.0000   -0.0000
     2          C       0.7050    0.0000   -0.0000
     3          C      -1.4007    1.2393   -0.0000
     4          C       1.4007    1.2393   -0.0000
     5          C      -1.4007   -1.2393    0.0000
     6          C       1.4007   -1.2393   -0.0000
     7          C      -0.7073    2.4191   -0.0000
     8          C       0.7073    2.4191    0.0001
     9          C      -0.7073   -2.4191   -0.0000
    10          C       0.7073   -2.4191   -0.0000
    11          H      -1.2386    3.3765   -0.0000
    12          H       1.2386    3.3764    0.0001
    13          H      -2.4964    1.2309   -0.0000
    14          H       2.4964    1.2309   -0.0001
    15          H      -2.4964   -1.2309    0.0001
    16          H       2.4964   -1.2309   -0.0000
    17          H      -1.2386   -3.3764   -0.0001
    18          H       1.2386   -3.3765   -0.0000


    FIRST DERIVATIVES WILL BE USED IN THE CALCULATION OF SECOND DERIVATIVES

          ESTIMATED TIME TO COMPLETE CALCULATION =        0.84 SECONDS

    FOR POINT-GROUP C1   THERE ARE   1 UNIQUE SYMMETRY FUNCTIONS.

 STEP:   1 TIME =     0.02 SECS, INTEGRAL =      0.02 TIME LEFT: 172799.98
 STEP:   2 TIME =     0.02 SECS, INTEGRAL =      0.04 TIME LEFT: 172799.95
 STEP:   3 TIME =     0.02 SECS, INTEGRAL =      0.06 TIME LEFT: 172799.93
 STEP:   4 TIME =     0.02 SECS, INTEGRAL =      0.08 TIME LEFT: 172799.91
 STEP:   5 TIME =     0.02 SECS, INTEGRAL =      0.10 TIME LEFT: 172799.89
 STEP:   6 TIME =     0.02 SECS, INTEGRAL =      0.12 TIME LEFT: 172799.88
 STEP:   7 TIME =     0.02 SECS, INTEGRAL =      0.14 TIME LEFT: 172799.86
 STEP:   8 TIME =     0.02 SECS, INTEGRAL =      0.16 TIME LEFT: 172799.83
 STEP:   9 TIME =     0.02 SECS, INTEGRAL =      0.19 TIME LEFT: 172799.81
 STEP:  10 TIME =     0.02 SECS, INTEGRAL =      0.20 TIME LEFT: 172799.79
 STEP:  11 TIME =     0.02 SECS, INTEGRAL =      0.23 TIME LEFT: 172799.77
 STEP:  12 TIME =     0.02 SECS, INTEGRAL =      0.25 TIME LEFT: 172799.75
 STEP:  13 TIME =     0.02 SECS, INTEGRAL =      0.26 TIME LEFT: 172799.73
 STEP:  14 TIME =     0.02 SECS, INTEGRAL =      0.29 TIME LEFT: 172799.71
 STEP:  15 TIME =     0.02 SECS, INTEGRAL =      0.30 TIME LEFT: 172799.69
 STEP:  16 TIME =     0.02 SECS, INTEGRAL =      0.32 TIME LEFT: 172799.67
 STEP:  17 TIME =     0.02 SECS, INTEGRAL =      0.35 TIME LEFT: 172799.65
 STEP:  18 TIME =     0.02 SECS, INTEGRAL =      0.37 TIME LEFT: 172799.62
 STEP:  19 TIME =     0.02 SECS, INTEGRAL =      0.39 TIME LEFT: 172799.61
 STEP:  20 TIME =     0.02 SECS, INTEGRAL =      0.41 TIME LEFT: 172799.59
 STEP:  21 TIME =     0.02 SECS, INTEGRAL =      0.43 TIME LEFT: 172799.57
 STEP:  22 TIME =     0.02 SECS, INTEGRAL =      0.45 TIME LEFT: 172799.55
 STEP:  23 TIME =     0.02 SECS, INTEGRAL =      0.47 TIME LEFT: 172799.53
 STEP:  24 TIME =     0.02 SECS, INTEGRAL =      0.49 TIME LEFT: 172799.50
 STEP:  25 TIME =     0.02 SECS, INTEGRAL =      0.52 TIME LEFT: 172799.48
 STEP:  26 TIME =     0.02 SECS, INTEGRAL =      0.54 TIME LEFT: 172799.46
 STEP:  27 TIME =     0.02 SECS, INTEGRAL =      0.55 TIME LEFT: 172799.44
 STEP:  28 TIME =     0.02 SECS, INTEGRAL =      0.58 TIME LEFT: 172799.42
 STEP:  29 TIME =     0.02 SECS, INTEGRAL =      0.60 TIME LEFT: 172799.40
 STEP:  30 TIME =     0.02 SECS, INTEGRAL =      0.62 TIME LEFT: 172799.38
 STEP:  31 TIME =     0.02 SECS, INTEGRAL =      0.64 TIME LEFT: 172799.36
 STEP:  32 TIME =     0.02 SECS, INTEGRAL =      0.65 TIME LEFT: 172799.34
 STEP:  33 TIME =     0.02 SECS, INTEGRAL =      0.67 TIME LEFT: 172799.32
 STEP:  34 TIME =     0.02 SECS, INTEGRAL =      0.69 TIME LEFT: 172799.31
 STEP:  35 TIME =     0.02 SECS, INTEGRAL =      0.70 TIME LEFT: 172799.29
 STEP:  36 TIME =     0.02 SECS, INTEGRAL =      0.72 TIME LEFT: 172799.27
 STEP:  37 TIME =     0.02 SECS, INTEGRAL =      0.74 TIME LEFT: 172799.26
 STEP:  38 TIME =     0.02 SECS, INTEGRAL =      0.76 TIME LEFT: 172799.24
 STEP:  39 TIME =     0.02 SECS, INTEGRAL =      0.78 TIME LEFT: 172799.22
 STEP:  40 TIME =     0.02 SECS, INTEGRAL =      0.80 TIME LEFT: 172799.20
 STEP:  41 TIME =     0.02 SECS, INTEGRAL =      0.82 TIME LEFT: 172799.18
 STEP:  42 TIME =     0.02 SECS, INTEGRAL =      0.84 TIME LEFT: 172799.16
 STEP:  43 TIME =     0.02 SECS, INTEGRAL =      0.86 TIME LEFT: 172799.14
 STEP:  44 TIME =     0.02 SECS, INTEGRAL =      0.88 TIME LEFT: 172799.12
 STEP:  45 TIME =     0.02 SECS, INTEGRAL =      0.89 TIME LEFT: 172799.10
 STEP:  46 TIME =     0.02 SECS, INTEGRAL =      0.91 TIME LEFT: 172799.08
 STEP:  47 TIME =     0.02 SECS, INTEGRAL =      0.93 TIME LEFT: 172799.06
 STEP:  48 TIME =     0.02 SECS, INTEGRAL =      0.95 TIME LEFT: 172799.04
 STEP:  49 TIME =     0.02 SECS, INTEGRAL =      0.97 TIME LEFT: 172799.03
 STEP:  50 TIME =     0.02 SECS, INTEGRAL =      0.98 TIME LEFT: 172799.01
 STEP:  51 TIME =     0.02 SECS, INTEGRAL =      1.00 TIME LEFT: 172798.99
 STEP:  52 TIME =     0.02 SECS, INTEGRAL =      1.02 TIME LEFT: 172798.97
 STEP:  53 TIME =     0.02 SECS, INTEGRAL =      1.04 TIME LEFT: 172798.95
 STEP:  54 TIME =     0.02 SECS, INTEGRAL =      1.06 TIME LEFT: 172798.93

(To convert to Hartree/Bohr^2, multiply by (10^(-21) x N x a0^2)/(4.184 x 627.51) =  0.0642)


           FORCE MATRIX IN MILLIDYNES/ANGSTROM


                  C  1       C  2       C  3       C  4       C  5       C  6
 ------------------------------------------------------------------------------
     C    1  18.215510
     C    2   6.604950  18.206879
     C    3   5.820861   1.650525  17.515465
     C    4   1.647757   5.819623   1.480127  17.515448
     C    5   5.820481   1.650122   1.473418   0.535914  17.515932
     C    6   1.647340   5.819333   0.535920   1.473401   1.479218  17.515992
     C    7   2.035159   1.287052   8.106673   2.220671   0.601976   0.521832
     C    8   1.284554   2.037337   2.220896   8.106672   0.521902   0.602039
     C    9   2.034962   1.286938   0.602092   0.521943   8.107136   2.220135
     C   10   1.284567   2.037408   0.522134   0.602266   2.220496   8.106957
     H   11   0.105511   0.006787   0.438393   0.070237   0.008048   0.007858
     H   12   0.006753   0.105529   0.070234   0.438368   0.007856   0.008038
     H   13   0.444993   0.067489   4.828901   0.011284   0.040431   0.008949
     H   14   0.067492   0.445019   0.011284   4.828970   0.008949   0.040431
     H   15   0.444988   0.067490   0.040425   0.008953   4.829202   0.011287
     H   16   0.067494   0.445014   0.008952   0.040426   0.011287   4.829279
     H   17   0.105519   0.006781   0.008043   0.007857   0.438383   0.070232
     H   18   0.006762   0.105526   0.007857   0.008047   0.070231   0.438392


                  C  7       C  8       C  9       C 10       H 11       H 12
 ------------------------------------------------------------------------------
     C    7  17.442143
     C    8   6.166742  17.442175
     C    9   0.489958   0.468502  17.442564
     C   10   0.468623   0.490202   6.166647  17.441711
     H   11   4.860253   0.437561   0.005194   0.001413   5.224038
     H   12   0.437552   4.860806   0.001401   0.005190   0.034829   5.224576
     H   13   0.440185   0.105456   0.002941   0.002941   0.050994   0.007094
     H   14   0.105474   0.440187   0.002940   0.002943   0.007093   0.050996
     H   15   0.002944   0.002945   0.440186   0.105470   0.001716   0.000613
     H   16   0.002945   0.002947   0.105472   0.440189   0.000613   0.001716
     H   17   0.005193   0.001407   4.860798   0.437564   0.000596   0.000840
     H   18   0.001409   0.005193   0.437551   4.860223   0.000839   0.000596


                  H 13       H 14       H 15       H 16       H 17       H 18
 ------------------------------------------------------------------------------
     H   13   5.202359
     H   14   0.008312   5.202429
     H   15   0.026497   0.002434   5.202659
     H   16   0.002434   0.026498   0.008311   5.202737
     H   17   0.001716   0.000613   0.050997   0.007094   5.224566
     H   18   0.000613   0.001716   0.007094   0.050995   0.034828   5.224001


          HEAT OF FORMATION =      40.559448 KCALS/MOLE

          ZERO POINT ENERGY      91.987 KCAL/MOL


           NORMAL COORDINATE ANALYSIS (Total motion = 1 Angstrom)


   Root No.       1         2         3         4         5         6         7         8

                 1 A       2 A       3 A       4 A       5 A       6 A       7 A       8 A   

                 157.2     158.1     335.3     390.5     428.2     462.5     520.6     523.9
  
           1    0.0000    0.0000    0.0000    0.0584    0.0000    0.0000    0.0000    0.0032
           2    0.0000   -0.0000    0.0000    0.0000   -0.0000   -0.0000    0.0510   -0.0000
           3    0.0004    0.0556    0.0000   -0.0000    0.0395    0.0685    0.0000    0.0000
           4    0.0000    0.0000    0.0000    0.0585    0.0000    0.0000   -0.0000   -0.0032
           5   -0.0000   -0.0000   -0.0000    0.0000    0.0000    0.0000   -0.0510    0.0000
           6    0.0004    0.0556   -0.0000   -0.0000   -0.0395    0.0685    0.0000   -0.0000
           7    0.0000    0.0000   -0.0000    0.0107    0.0000    0.0000   -0.0319    0.0433
           8    0.0000   -0.0000    0.0000   -0.0319   -0.0000   -0.0000    0.0465    0.0374
           9   -0.0460    0.0264    0.0489   -0.0000    0.0192   -0.0317   -0.0000   -0.0000
          10   -0.0000    0.0000    0.0000    0.0107    0.0000   -0.0000   -0.0320   -0.0433
          11   -0.0000   -0.0000   -0.0000    0.0319    0.0000    0.0000   -0.0464    0.0375
          12    0.0463    0.0256    0.0489    0.0000   -0.0192   -0.0317   -0.0000    0.0000
          13    0.0000    0.0000   -0.0000    0.0107   -0.0000   -0.0000    0.0320    0.0433
          14    0.0000   -0.0000    0.0000    0.0319    0.0000   -0.0000    0.0464   -0.0375
          15    0.0463    0.0256   -0.0489    0.0000    0.0192   -0.0317   -0.0000    0.0000
          16    0.0000    0.0000   -0.0000    0.0107    0.0000    0.0000    0.0319   -0.0433
          17   -0.0000   -0.0000   -0.0000   -0.0319    0.0000   -0.0000   -0.0465   -0.0374
          18   -0.0460    0.0264   -0.0489    0.0000   -0.0192   -0.0317   -0.0000   -0.0000
          19    0.0000   -0.0000   -0.0000   -0.0354    0.0000    0.0000   -0.0359    0.0011
          20    0.0000   -0.0000    0.0000   -0.0108   -0.0000   -0.0000    0.0463    0.0705
          21   -0.0369   -0.0484   -0.0235    0.0000   -0.0438    0.0119    0.0000    0.0000
          22   -0.0000   -0.0000   -0.0000   -0.0354   -0.0000    0.0000   -0.0359   -0.0011
          23   -0.0000    0.0000    0.0000    0.0108   -0.0000    0.0000   -0.0462    0.0705
          24    0.0363   -0.0490   -0.0235   -0.0000    0.0438    0.0119   -0.0000    0.0000
          25   -0.0000   -0.0000    0.0000   -0.0354   -0.0000   -0.0000    0.0359    0.0011
          26    0.0000    0.0000   -0.0000    0.0108    0.0000   -0.0000    0.0462   -0.0705
          27    0.0363   -0.0490    0.0235   -0.0000   -0.0438    0.0119    0.0000   -0.0000
          28   -0.0000   -0.0000    0.0000   -0.0354   -0.0000   -0.0000    0.0359   -0.0011
          29    0.0000    0.0000   -0.0000   -0.0108    0.0000    0.0000   -0.0463   -0.0705
          30   -0.0369   -0.0484    0.0235    0.0000    0.0438    0.0119    0.0000    0.0000
          31    0.0000   -0.0000   -0.0000   -0.0642    0.0000   -0.0000    0.0058   -0.0246
          32    0.0000   -0.0000    0.0000   -0.0271   -0.0000   -0.0000    0.0691    0.0568
          33   -0.0791   -0.1036   -0.0572    0.0000   -0.1432   -0.0099    0.0000    0.0000
          34   -0.0000   -0.0000   -0.0000   -0.0642   -0.0000    0.0000    0.0059    0.0245
          35   -0.0000    0.0000    0.0000    0.0271   -0.0000    0.0000   -0.0691    0.0569
          36    0.0777   -0.1049   -0.0572   -0.0000    0.1433   -0.0099   -0.0000    0.0000
          37    0.0000   -0.0000   -0.0000    0.0105    0.0000    0.0000   -0.0317    0.0431
          38   -0.0000   -0.0000    0.0000   -0.0797   -0.0000   -0.0000    0.0247    0.0398
          39   -0.0884    0.0439    0.1204    0.0000    0.0239   -0.1622   -0.0000   -0.0000
          40    0.0000    0.0000    0.0000    0.0105   -0.0000   -0.0000   -0.0318   -0.0431
          41    0.0000   -0.0000   -0.0000    0.0798    0.0000    0.0000   -0.0246    0.0398
          42    0.0890    0.0425    0.1203    0.0000   -0.0240   -0.1622   -0.0000    0.0000
          43    0.0000    0.0000   -0.0000    0.0105    0.0000   -0.0000    0.0318    0.0431
          44    0.0000   -0.0000    0.0000    0.0797    0.0000    0.0000    0.0246   -0.0398
          45    0.0889    0.0426   -0.1204    0.0000    0.0239   -0.1622   -0.0000    0.0000
          46    0.0000   -0.0000   -0.0000    0.0105    0.0000    0.0000    0.0317   -0.0431
          47   -0.0000   -0.0000    0.0000   -0.0798    0.0000   -0.0000   -0.0247   -0.0398
          48   -0.0884    0.0440   -0.1203    0.0000   -0.0240   -0.1622   -0.0000   -0.0000
          49   -0.0000   -0.0000    0.0000   -0.0642   -0.0000   -0.0000   -0.0059   -0.0246
          50   -0.0000    0.0000   -0.0000    0.0272    0.0000   -0.0000    0.0691   -0.0569
          51    0.0778   -0.1049    0.0572    0.0000   -0.1433   -0.0099   -0.0000   -0.0000
          52   -0.0000   -0.0000    0.0000   -0.0642   -0.0000   -0.0000   -0.0058    0.0245
          53    0.0000    0.0000   -0.0000   -0.0271   -0.0000    0.0000   -0.0692   -0.0568
          54   -0.0791   -0.1036    0.0572    0.0000    0.1433   -0.0099    0.0000    0.0000


   Root No.       9        10        11        12        13        14        15        16

                 9 A      10 A      11 A      12 A      13 A      14 A      15 A      16 A   

                 543.8     636.4     742.8     747.6     798.5     808.2     849.6     910.3
  
           1    0.0000    0.0000   -0.0000   -0.0000    0.0000    0.0164    0.0000    0.0000
           2    0.0000   -0.0464    0.0000    0.0000    0.0000    0.0000    0.0000   -0.0000
           3    0.0000   -0.0000   -0.0711   -0.0000    0.0220   -0.0000   -0.0000   -0.0376
           4    0.0000    0.0000   -0.0000    0.0000    0.0000    0.0164    0.0000   -0.0000
           5    0.0000   -0.0464   -0.0000    0.0000    0.0000    0.0000    0.0000   -0.0000
           6    0.0000   -0.0000    0.0711    0.0000    0.0220   -0.0000    0.0000    0.0376
           7    0.0000    0.0741   -0.0000   -0.0000    0.0000    0.0236    0.0000    0.0000
           8    0.0000   -0.0105   -0.0000   -0.0000    0.0000    0.0302    0.0000   -0.0000
           9    0.0290    0.0000    0.0019    0.0132   -0.0123    0.0000   -0.0211    0.0195
          10   -0.0000   -0.0741   -0.0000   -0.0000    0.0000    0.0236    0.0000   -0.0000
          11    0.0000   -0.0105    0.0000    0.0000   -0.0000   -0.0302   -0.0000   -0.0000
          12   -0.0290    0.0000   -0.0019    0.0132   -0.0123    0.0000    0.0211   -0.0195
          13    0.0000   -0.0741    0.0000    0.0000    0.0000    0.0236    0.0000    0.0000
          14    0.0000   -0.0105    0.0000    0.0000   -0.0000   -0.0302   -0.0000    0.0000
          15   -0.0290   -0.0000    0.0019   -0.0132   -0.0123    0.0000    0.0211    0.0195
          16   -0.0000    0.0741   -0.0000   -0.0000    0.0000    0.0236   -0.0000   -0.0000
          17   -0.0000   -0.0105   -0.0000   -0.0000    0.0000    0.0302    0.0000    0.0000
          18    0.0290   -0.0000   -0.0019   -0.0132   -0.0123    0.0000   -0.0211   -0.0195
          19    0.0000    0.0062    0.0000    0.0000   -0.0000   -0.0353   -0.0000   -0.0000
          20    0.0000    0.0341   -0.0000   -0.0000    0.0000    0.0690    0.0000    0.0000
          21   -0.0315   -0.0000   -0.0189    0.0124   -0.0163    0.0000   -0.0151    0.0197
          22   -0.0000   -0.0062    0.0000    0.0000   -0.0000   -0.0353   -0.0000    0.0000
          23   -0.0000    0.0341    0.0000    0.0000   -0.0000   -0.0690   -0.0000   -0.0000
          24    0.0315    0.0000    0.0189    0.0124   -0.0163    0.0000    0.0151   -0.0198
          25   -0.0000   -0.0062   -0.0000    0.0000   -0.0000   -0.0353   -0.0000    0.0000
          26   -0.0000    0.0341    0.0000    0.0000   -0.0000   -0.0690   -0.0000    0.0000
          27    0.0315   -0.0000   -0.0189   -0.0124   -0.0163    0.0000    0.0151    0.0198
          28   -0.0000    0.0062    0.0000    0.0000   -0.0000   -0.0353   -0.0000    0.0000
          29   -0.0000    0.0341   -0.0000   -0.0000    0.0000    0.0690    0.0000    0.0000
          30   -0.0315   -0.0000    0.0189   -0.0124   -0.0163    0.0000   -0.0151   -0.0197
          31    0.0000   -0.0423    0.0000    0.0000   -0.0000    0.0183   -0.0000    0.0000
          32    0.0000    0.0067   -0.0000   -0.0000    0.0000    0.0996    0.0000    0.0000
          33   -0.1136   -0.0000   -0.0152   -0.1284    0.1495   -0.0002    0.0771   -0.1153
          34   -0.0000    0.0423   -0.0000    0.0000    0.0000    0.0183    0.0000   -0.0000
          35   -0.0000    0.0067    0.0000    0.0000   -0.0000   -0.0996   -0.0000   -0.0000
          36    0.1137   -0.0000    0.0154   -0.1284    0.1495   -0.0002   -0.0769    0.1153
          37    0.0000    0.0737   -0.0000   -0.0000    0.0000    0.0243   -0.0000    0.0000
          38    0.0000   -0.0112    0.0000    0.0000   -0.0000   -0.0046    0.0000   -0.0000
          39    0.0758    0.0000    0.1784   -0.0959    0.0608   -0.0001    0.1368   -0.0767
          40   -0.0000   -0.0737   -0.0000   -0.0000    0.0000    0.0243   -0.0000    0.0000
          41    0.0000   -0.0112    0.0000    0.0000   -0.0000    0.0046    0.0000   -0.0000
          42   -0.0758   -0.0000   -0.1783   -0.0961    0.0609   -0.0001   -0.1368    0.0766
          43   -0.0000   -0.0737    0.0000    0.0000    0.0000    0.0243   -0.0000   -0.0000
          44    0.0000   -0.0112    0.0000    0.0000   -0.0000    0.0046    0.0000    0.0000
          45   -0.0759    0.0000    0.1784    0.0961    0.0609   -0.0000   -0.1368   -0.0766
          46   -0.0000    0.0737    0.0000   -0.0000    0.0000    0.0243   -0.0000   -0.0000
          47   -0.0000   -0.0112    0.0000   -0.0000   -0.0000   -0.0046   -0.0000    0.0000
          48    0.0758    0.0000   -0.1785    0.0960    0.0608   -0.0001    0.1368    0.0767
          49   -0.0000    0.0423   -0.0000   -0.0000    0.0000    0.0183    0.0000   -0.0000
          50   -0.0000    0.0067    0.0000   -0.0000   -0.0000   -0.0996   -0.0000    0.0000
          51    0.1137    0.0000   -0.0154    0.1284    0.1495   -0.0001   -0.0770   -0.1153
          52    0.0000   -0.0423   -0.0000   -0.0000    0.0000    0.0183    0.0000    0.0000
          53   -0.0000    0.0067   -0.0000   -0.0000    0.0000    0.0996    0.0000   -0.0000
          54   -0.1136    0.0000    0.0152    0.1284    0.1494   -0.0002    0.0771    0.1153


   Root No.      17        18        19        20        21        22        23        24

                17 A      18 A      19 A      20 A      21 A      22 A      23 A      24 A   

                 911.9     918.8     952.8     979.7    1001.0    1018.1    1087.0    1114.6
  
           1   -0.0252   -0.0000    0.0000    0.0000   -0.0000    0.0000   -0.0000    0.0026
           2   -0.0000    0.0217    0.0000    0.0000   -0.0000    0.0000   -0.0053   -0.0000
           3   -0.0000    0.0000    0.0000    0.0159    0.0000    0.0231    0.0000   -0.0000
           4    0.0252    0.0000   -0.0000    0.0000    0.0000   -0.0000   -0.0000   -0.0027
           5    0.0000   -0.0217   -0.0000    0.0000    0.0000   -0.0000   -0.0053    0.0000
           6    0.0000    0.0000   -0.0000    0.0159   -0.0000   -0.0231   -0.0000    0.0000
           7   -0.0474   -0.0565   -0.0000    0.0000    0.0000   -0.0000    0.0080   -0.0194
           8    0.0289    0.0050   -0.0000   -0.0000    0.0000   -0.0000    0.0023    0.0024
           9   -0.0000   -0.0000    0.0239   -0.0286    0.0207   -0.0264   -0.0000    0.0000
          10    0.0474   -0.0565   -0.0000   -0.0000   -0.0000    0.0000   -0.0080    0.0195
          11    0.0289   -0.0050   -0.0000    0.0000    0.0000   -0.0000    0.0022    0.0024
          12   -0.0000   -0.0000    0.0239   -0.0286   -0.0206    0.0264    0.0000   -0.0000
          13   -0.0474    0.0565    0.0000   -0.0000   -0.0000    0.0000   -0.0080   -0.0193
          14   -0.0289    0.0050    0.0000    0.0000    0.0000    0.0000    0.0022   -0.0024
          15    0.0000    0.0000   -0.0240   -0.0286   -0.0207   -0.0264    0.0000    0.0000
          16    0.0474    0.0565    0.0000   -0.0000    0.0000   -0.0000    0.0080    0.0195
          17   -0.0289   -0.0050    0.0000   -0.0000   -0.0000    0.0000    0.0022   -0.0024
          18   -0.0000    0.0000   -0.0239   -0.0285    0.0207    0.0264    0.0000   -0.0000
          19   -0.0037    0.0271    0.0000    0.0000    0.0000   -0.0000    0.0149   -0.0199
          20    0.0112   -0.0380   -0.0000    0.0000   -0.0000    0.0000   -0.0129    0.0162
          21    0.0000   -0.0000   -0.0183    0.0161   -0.0330    0.0292    0.0000   -0.0000
          22    0.0037    0.0271    0.0000   -0.0000   -0.0000    0.0000   -0.0149    0.0199
          23    0.0112    0.0380    0.0000   -0.0000   -0.0000    0.0000   -0.0129    0.0162
          24   -0.0000    0.0000   -0.0183    0.0162    0.0329   -0.0292   -0.0000    0.0000
          25   -0.0037   -0.0271   -0.0000   -0.0000    0.0000   -0.0000   -0.0149   -0.0199
          26   -0.0112   -0.0380   -0.0000   -0.0000   -0.0000   -0.0000   -0.0129   -0.0162
          27    0.0000   -0.0000    0.0183    0.0161    0.0330    0.0292   -0.0000   -0.0000
          28    0.0037   -0.0271   -0.0000    0.0000    0.0000    0.0000    0.0149    0.0199
          29   -0.0112    0.0380    0.0000   -0.0000   -0.0000    0.0000   -0.0129   -0.0162
          30   -0.0000   -0.0000    0.0183    0.0161   -0.0330   -0.0292   -0.0000    0.0000
          31    0.0517    0.0494   -0.0000    0.0000   -0.0000   -0.0000    0.0800   -0.0861
          32    0.0442   -0.0263   -0.0000    0.0000   -0.0000   -0.0000    0.0227   -0.0192
          33   -0.0000    0.0000    0.0935   -0.0721    0.1223   -0.0962    0.0000   -0.0000
          34   -0.0517    0.0494   -0.0000    0.0000   -0.0000    0.0000   -0.0800    0.0856
          35    0.0442    0.0263   -0.0000    0.0000    0.0000   -0.0000    0.0227   -0.0190
          36    0.0000    0.0000    0.0935   -0.0722   -0.1222    0.0961    0.0000   -0.0000
          37   -0.0491   -0.0580    0.0000   -0.0000    0.0000   -0.0000    0.0084   -0.0213
          38    0.0895    0.0548   -0.0000   -0.0000    0.0000   -0.0000    0.1358   -0.1135
          39   -0.0000    0.0000   -0.1141    0.1252   -0.0741    0.0868    0.0000   -0.0000
          40    0.0491   -0.0580   -0.0000    0.0000    0.0000   -0.0000   -0.0084    0.0214
          41    0.0896   -0.0548    0.0000   -0.0000    0.0000   -0.0000    0.1358   -0.1136
          42   -0.0000    0.0000   -0.1142    0.1253    0.0740   -0.0867    0.0000   -0.0000
          43   -0.0491    0.0580    0.0000    0.0000    0.0000    0.0000   -0.0084   -0.0213
          44   -0.0895    0.0548    0.0000   -0.0000    0.0000    0.0000    0.1359    0.1133
          45    0.0000   -0.0000    0.1143    0.1252    0.0741    0.0867    0.0000   -0.0000
          46    0.0491    0.0580   -0.0000   -0.0000    0.0000    0.0000    0.0084    0.0214
          47   -0.0896   -0.0548    0.0000   -0.0000    0.0000    0.0000    0.1359    0.1137
          48    0.0000   -0.0000    0.1142    0.1251   -0.0742   -0.0867    0.0000    0.0000
          49    0.0517   -0.0494   -0.0000   -0.0000   -0.0000   -0.0000   -0.0801   -0.0863
          50   -0.0442   -0.0263    0.0000    0.0000    0.0000    0.0000    0.0227    0.0193
          51   -0.0000   -0.0000   -0.0935   -0.0721   -0.1222   -0.0960    0.0000    0.0000
          52   -0.0517   -0.0494    0.0000    0.0000   -0.0000    0.0000    0.0800    0.0854
          53   -0.0442    0.0263    0.0000    0.0000   -0.0000    0.0000    0.0227    0.0189
          54    0.0000    0.0000   -0.0936   -0.0720    0.1223    0.0961    0.0000    0.0000


   Root No.      25        26        27        28        29        30        31        32

                25 A      26 A      27 A      28 A      29 A      30 A      31 A      32 A   

                1123.6    1127.5    1155.6    1156.9    1185.6    1231.6    1275.5    1411.1
  
           1    0.0145    0.0000   -0.0000    0.0091   -0.0000   -0.0247   -0.0000    0.0632
           2    0.0000   -0.0047   -0.0014    0.0000   -0.0221    0.0000    0.0811    0.0000
           3   -0.0000   -0.0000   -0.0000    0.0000    0.0000    0.0000   -0.0000   -0.0000
           4    0.0145    0.0000    0.0001   -0.0091   -0.0000   -0.0247    0.0000    0.0634
           5   -0.0000    0.0047   -0.0014   -0.0000    0.0221   -0.0000    0.0811   -0.0000
           6   -0.0000    0.0000   -0.0000   -0.0000   -0.0000    0.0000   -0.0000   -0.0000
           7   -0.0181   -0.0056    0.0023    0.0001    0.0008    0.0047    0.0197   -0.0431
           8   -0.0056   -0.0068   -0.0004    0.0007   -0.0117    0.0083   -0.0199    0.0299
           9   -0.0000   -0.0000    0.0000   -0.0000    0.0000   -0.0000    0.0000   -0.0000
          10   -0.0180   -0.0056   -0.0024   -0.0001    0.0008    0.0047   -0.0197   -0.0430
          11    0.0056    0.0068   -0.0004    0.0007    0.0117   -0.0083   -0.0199   -0.0300
          12    0.0000    0.0000   -0.0000   -0.0000    0.0000   -0.0000    0.0000    0.0000
          13   -0.0181    0.0056   -0.0024    0.0001   -0.0008    0.0048   -0.0197   -0.0431
          14    0.0056   -0.0068   -0.0004   -0.0007   -0.0117   -0.0083   -0.0199   -0.0299
          15    0.0000   -0.0000   -0.0000    0.0000   -0.0000   -0.0000    0.0000    0.0000
          16   -0.0180    0.0055    0.0023   -0.0001   -0.0008    0.0047    0.0197   -0.0430
          17   -0.0056    0.0068   -0.0004   -0.0007    0.0117    0.0083   -0.0199    0.0300
          18    0.0000    0.0000    0.0000    0.0000    0.0000   -0.0000    0.0000    0.0000
          19    0.0014    0.0013    0.0027   -0.0009   -0.0128    0.0111    0.0567    0.0223
          20   -0.0032    0.0024    0.0026    0.0027    0.0017    0.0065   -0.0109    0.0139
          21   -0.0000   -0.0000    0.0000   -0.0000   -0.0000    0.0000    0.0000    0.0000
          22    0.0015    0.0012   -0.0027    0.0009   -0.0128    0.0111   -0.0567    0.0222
          23    0.0033   -0.0024    0.0026    0.0027   -0.0017   -0.0065   -0.0109   -0.0138
          24   -0.0000   -0.0000   -0.0000    0.0000   -0.0000   -0.0000   -0.0000   -0.0000
          25    0.0014   -0.0012   -0.0027   -0.0010    0.0128    0.0111   -0.0567    0.0223
          26    0.0032    0.0024    0.0026   -0.0027    0.0017   -0.0065   -0.0109   -0.0139
          27   -0.0000    0.0000    0.0000   -0.0000   -0.0000   -0.0000   -0.0000   -0.0000
          28    0.0015   -0.0013    0.0027    0.0009    0.0128    0.0111    0.0567    0.0221
          29   -0.0033   -0.0024    0.0026   -0.0027   -0.0017    0.0065   -0.0109    0.0138
          30   -0.0000    0.0000   -0.0000   -0.0000    0.0000    0.0000   -0.0000    0.0000
          31    0.1296    0.1088    0.1305    0.1246    0.0790   -0.0462   -0.0196   -0.0821
          32    0.0671    0.0613    0.0741    0.0730    0.0535   -0.0259   -0.0583   -0.0427
          33    0.0000    0.0000    0.0000    0.0000    0.0000   -0.0000   -0.0000   -0.0000
          34    0.1302    0.1088   -0.1304   -0.1245    0.0789   -0.0462    0.0196   -0.0820
          35   -0.0673   -0.0614    0.0740    0.0730   -0.0535    0.0259   -0.0582    0.0427
          36    0.0000    0.0000    0.0000   -0.0000   -0.0000   -0.0000   -0.0000    0.0000
          37   -0.0186   -0.0049    0.0036    0.0009    0.0003    0.0049    0.0230   -0.0472
          38   -0.0715   -0.1112   -0.0919   -0.0990    0.1189   -0.1622   -0.0578   -0.0009
          39    0.0000   -0.0000    0.0000    0.0000   -0.0000    0.0000   -0.0000    0.0000
          40   -0.0185   -0.0050   -0.0036   -0.0009    0.0002    0.0049   -0.0230   -0.0472
          41    0.0712    0.1114   -0.0918   -0.0986   -0.1189    0.1624   -0.0578    0.0006
          42    0.0000    0.0000   -0.0000   -0.0000   -0.0000    0.0000   -0.0000    0.0000
          43   -0.0186    0.0049   -0.0037    0.0009   -0.0002    0.0049   -0.0230   -0.0472
          44    0.0720   -0.1113   -0.0928    0.0978    0.1190    0.1622   -0.0579    0.0010
          45    0.0000   -0.0000   -0.0000    0.0000    0.0000    0.0000   -0.0000    0.0000
          46   -0.0185    0.0049    0.0036   -0.0009   -0.0002    0.0049    0.0230   -0.0472
          47   -0.0713    0.1111   -0.0930    0.0979   -0.1189   -0.1623   -0.0578   -0.0006
          48   -0.0000    0.0000   -0.0000    0.0000   -0.0000   -0.0000   -0.0000   -0.0000
          49    0.1299   -0.1086   -0.1317    0.1232   -0.0789   -0.0461    0.0196   -0.0821
          50   -0.0673    0.0612    0.0748   -0.0722    0.0535    0.0259   -0.0583    0.0427
          51   -0.0000    0.0000    0.0000   -0.0000    0.0000    0.0000   -0.0000    0.0000
          52    0.1304   -0.1085    0.1318   -0.1232   -0.0791   -0.0462   -0.0196   -0.0820
          53    0.0674   -0.0612    0.0748   -0.0722   -0.0536   -0.0259   -0.0583   -0.0427
          54    0.0000   -0.0000    0.0000   -0.0000   -0.0000   -0.0000   -0.0000   -0.0000


   Root No.      33        34        35        36        37        38        39        40

                33 A      34 A      35 A      36 A      37 A      38 A      39 A      40 A   

                1447.6    1486.5    1586.9    1592.9    1677.6    1777.4    1796.0    1827.5
  
           1    0.0000    0.0341    0.1076    0.0000   -0.0000   -0.1092   -0.0153   -0.0000
           2   -0.0118   -0.0000    0.0000   -0.0847    0.0740    0.0000   -0.0000    0.0818
           3    0.0000   -0.0000   -0.0000    0.0000   -0.0000    0.0000    0.0000   -0.0000
           4   -0.0000   -0.0339   -0.1071    0.0000    0.0000    0.1092   -0.0153   -0.0000
           5   -0.0118   -0.0000    0.0000    0.0847    0.0740    0.0000    0.0000   -0.0818
           6    0.0000    0.0000    0.0000    0.0000    0.0000   -0.0000   -0.0000   -0.0000
           7    0.0223   -0.0011    0.0070   -0.0356    0.0360    0.0370   -0.0198   -0.0083
           8    0.0613   -0.0317    0.0795   -0.0016   -0.0177    0.0272   -0.0777   -0.0799
           9   -0.0000    0.0000    0.0000   -0.0000    0.0000    0.0000   -0.0000   -0.0000
          10   -0.0223    0.0010   -0.0072   -0.0356   -0.0360   -0.0371   -0.0198   -0.0083
          11    0.0613   -0.0317    0.0794    0.0016   -0.0177    0.0273    0.0777    0.0799
          12    0.0000   -0.0000    0.0000    0.0000    0.0000    0.0000    0.0000    0.0000
          13   -0.0223   -0.0011    0.0070    0.0356   -0.0360    0.0370   -0.0198    0.0083
          14    0.0613    0.0317   -0.0795   -0.0016   -0.0177   -0.0272    0.0778   -0.0798
          15    0.0000    0.0000   -0.0000   -0.0000    0.0000   -0.0000    0.0000   -0.0000
          16    0.0223    0.0010   -0.0072    0.0356    0.0360   -0.0371   -0.0198    0.0083
          17    0.0613    0.0317   -0.0795    0.0015   -0.0177   -0.0273   -0.0777    0.0798
          18   -0.0000    0.0000   -0.0000    0.0000   -0.0000    0.0000   -0.0000    0.0000
          19    0.0014   -0.0486   -0.0274    0.0296   -0.0714   -0.0668    0.0341    0.0259
          20   -0.0446    0.0101   -0.0469    0.0460   -0.0249   -0.0348    0.0595    0.0450
          21    0.0000   -0.0000   -0.0000    0.0000   -0.0000   -0.0000    0.0000    0.0000
          22   -0.0014    0.0487    0.0274    0.0296    0.0714    0.0669    0.0340    0.0259
          23   -0.0447    0.0101   -0.0470   -0.0460   -0.0249   -0.0348   -0.0594   -0.0450
          24   -0.0000    0.0000   -0.0000   -0.0000    0.0000   -0.0000   -0.0000   -0.0000
          25   -0.0014   -0.0486   -0.0273   -0.0296    0.0714   -0.0668    0.0341   -0.0259
          26   -0.0446   -0.0101    0.0469    0.0460   -0.0249    0.0348   -0.0595    0.0450
          27   -0.0000   -0.0000    0.0000    0.0000   -0.0000    0.0000   -0.0000    0.0000
          28    0.0014    0.0487    0.0274   -0.0296   -0.0714    0.0669    0.0340   -0.0259
          29   -0.0446   -0.0101    0.0470   -0.0460   -0.0249    0.0348    0.0594   -0.0450
          30   -0.0000   -0.0000    0.0000   -0.0000   -0.0000    0.0000    0.0000   -0.0000
          31   -0.0091    0.0216   -0.0093   -0.0727    0.0275    0.0198   -0.0506   -0.0333
          32   -0.0591    0.0549   -0.0448   -0.0046    0.0300    0.0106    0.0223    0.0192
          33    0.0000    0.0000    0.0000   -0.0000    0.0000    0.0000   -0.0000   -0.0000
          34    0.0091   -0.0217    0.0090   -0.0727   -0.0275   -0.0198   -0.0506   -0.0333
          35   -0.0591    0.0549   -0.0448    0.0046    0.0300    0.0106   -0.0223   -0.0192
          36   -0.0000    0.0000   -0.0000   -0.0000    0.0000    0.0000   -0.0000   -0.0000
          37    0.0272   -0.0020    0.0132   -0.0428    0.0430    0.0433   -0.0283   -0.0127
          38   -0.0693    0.0926    0.0098   -0.0121    0.0369   -0.0281    0.0258    0.0363
          39    0.0000   -0.0000    0.0000    0.0000    0.0000    0.0000   -0.0000   -0.0000
          40   -0.0272    0.0019   -0.0135   -0.0429   -0.0430   -0.0433   -0.0283   -0.0127
          41   -0.0693    0.0925    0.0096    0.0121    0.0369   -0.0281   -0.0258   -0.0363
          42   -0.0000    0.0000   -0.0000    0.0000    0.0000   -0.0000   -0.0000   -0.0000
          43   -0.0272   -0.0020    0.0132    0.0428   -0.0430    0.0433   -0.0283    0.0127
          44   -0.0693   -0.0926   -0.0097   -0.0121    0.0369    0.0281   -0.0258    0.0363
          45    0.0000   -0.0000    0.0000   -0.0000    0.0000   -0.0000    0.0000   -0.0000
          46    0.0272    0.0019   -0.0135    0.0428    0.0430   -0.0433   -0.0283    0.0127
          47   -0.0693   -0.0925   -0.0095    0.0121    0.0369    0.0281    0.0258   -0.0363
          48    0.0000   -0.0000    0.0000    0.0000    0.0000   -0.0000   -0.0000    0.0000
          49    0.0091    0.0216   -0.0093    0.0726   -0.0275    0.0197   -0.0506    0.0333
          50   -0.0590   -0.0549    0.0449   -0.0046    0.0300   -0.0106   -0.0223    0.0192
          51    0.0000   -0.0000   -0.0000   -0.0000    0.0000   -0.0000    0.0000   -0.0000
          52   -0.0091   -0.0217    0.0091    0.0727    0.0275   -0.0198   -0.0506    0.0333
          53   -0.0590   -0.0550    0.0448    0.0046    0.0300   -0.0106    0.0223   -0.0192
          54    0.0000   -0.0000   -0.0000    0.0000    0.0000   -0.0000   -0.0000    0.0000


   Root No.      41        42        43        44        45        46        47        48

                41 A      42 A      43 A      44 A      45 A      46 A      47 A      48 A   

                3050.3    3051.2    3052.3    3053.7    3064.1    3064.9    3076.0    3076.1
  
           1    0.0004    0.0000   -0.0000    0.0000   -0.0003    0.0000    0.0000   -0.0001
           2   -0.0000    0.0002    0.0000    0.0008    0.0000    0.0006    0.0009    0.0001
           3    0.0000    0.0000    0.0000    0.0000   -0.0000   -0.0000    0.0000   -0.0000
           4    0.0004    0.0000    0.0000    0.0000   -0.0003    0.0000   -0.0000    0.0001
           5    0.0000   -0.0002    0.0000    0.0008   -0.0000   -0.0006    0.0009    0.0001
           6    0.0000   -0.0000   -0.0000   -0.0000   -0.0000   -0.0000    0.0000   -0.0000
           7   -0.0114    0.0104    0.0135    0.0126    0.0096    0.0097    0.0085   -0.0059
           8   -0.0000   -0.0001    0.0001   -0.0001    0.0009    0.0007    0.0010   -0.0008
           9   -0.0000    0.0000    0.0000    0.0000    0.0000    0.0000    0.0000   -0.0000
          10   -0.0112    0.0097   -0.0141   -0.0128    0.0095    0.0096   -0.0086    0.0059
          11    0.0000    0.0001    0.0001   -0.0001   -0.0009   -0.0007    0.0010   -0.0008
          12    0.0000   -0.0000    0.0000    0.0000   -0.0000   -0.0000    0.0000   -0.0000
          13   -0.0106   -0.0104    0.0133   -0.0135    0.0090   -0.0100   -0.0063   -0.0084
          14    0.0000   -0.0001   -0.0001   -0.0001   -0.0008    0.0007    0.0007    0.0011
          15    0.0000    0.0000   -0.0000    0.0000   -0.0000    0.0000    0.0000    0.0000
          16   -0.0107   -0.0109   -0.0128    0.0133    0.0092   -0.0102    0.0063    0.0083
          17   -0.0000    0.0001   -0.0001   -0.0001    0.0009   -0.0007    0.0007    0.0011
          18   -0.0000   -0.0000   -0.0000    0.0000    0.0000   -0.0000    0.0000    0.0000
          19    0.0046   -0.0046   -0.0035   -0.0036    0.0047    0.0042    0.0075   -0.0056
          20   -0.0079    0.0081    0.0051    0.0053   -0.0105   -0.0096   -0.0140    0.0104
          21    0.0000   -0.0000   -0.0000   -0.0000    0.0000    0.0000    0.0000   -0.0000
          22    0.0045   -0.0044    0.0037    0.0036    0.0046    0.0041   -0.0076    0.0056
          23    0.0077   -0.0078    0.0055    0.0054    0.0105    0.0095   -0.0142    0.0105
          24    0.0000   -0.0000    0.0000    0.0000    0.0000    0.0000   -0.0000    0.0000
          25    0.0043    0.0047   -0.0035    0.0038    0.0044   -0.0043   -0.0054   -0.0077
          26    0.0073    0.0083   -0.0052    0.0056    0.0100   -0.0099   -0.0102   -0.0145
          27    0.0000    0.0000   -0.0000    0.0000    0.0000   -0.0000   -0.0000   -0.0000
          28    0.0043    0.0049    0.0033   -0.0038    0.0044   -0.0044    0.0054    0.0077
          29   -0.0074   -0.0085   -0.0049    0.0056   -0.0101    0.0100   -0.0101   -0.0143
          30   -0.0000   -0.0000    0.0000    0.0000   -0.0000    0.0000   -0.0000   -0.0000
          31   -0.0525    0.0533    0.0374    0.0382   -0.0618   -0.0558   -0.0848    0.0631
          32    0.0941   -0.0958   -0.0644   -0.0661    0.1139    0.1030    0.1515   -0.1126
          33   -0.0000    0.0000    0.0000    0.0000   -0.0000   -0.0000   -0.0000    0.0000
          34   -0.0514    0.0512   -0.0403   -0.0390   -0.0612   -0.0552    0.0858   -0.0638
          35   -0.0922    0.0920   -0.0696   -0.0674   -0.1129   -0.1019    0.1532   -0.1139
          36   -0.0000    0.0000   -0.0000   -0.0000   -0.0000   -0.0000    0.0000   -0.0000
          37    0.1313   -0.1200   -0.1550   -0.1455   -0.1063   -0.1079   -0.0895    0.0615
          38   -0.0005   -0.0001    0.0003   -0.0005   -0.0009   -0.0014   -0.0014    0.0007
          39    0.0000   -0.0000   -0.0000   -0.0000   -0.0000   -0.0000   -0.0000    0.0000
          40    0.1282   -0.1126    0.1624    0.1485   -0.1048   -0.1068    0.0903   -0.0622
          41    0.0005    0.0001    0.0003   -0.0005    0.0009    0.0013   -0.0014    0.0007
          42   -0.0000    0.0000   -0.0000   -0.0000    0.0000    0.0000   -0.0000    0.0000
          43    0.1224    0.1200   -0.1536    0.1558   -0.1001    0.1117    0.0667    0.0877
          44    0.0005   -0.0001   -0.0003   -0.0005    0.0008   -0.0014   -0.0012   -0.0011
          45   -0.0000   -0.0000    0.0000   -0.0000    0.0000   -0.0000   -0.0000   -0.0000
          46    0.1230    0.1258    0.1479   -0.1536   -0.1018    0.1133   -0.0663   -0.0871
          47   -0.0005    0.0000   -0.0003   -0.0005   -0.0008    0.0014   -0.0011   -0.0011
          48    0.0000    0.0000    0.0000   -0.0000   -0.0000    0.0000   -0.0000   -0.0000
          49   -0.0489   -0.0543    0.0379   -0.0407   -0.0585    0.0578    0.0617    0.0876
          50   -0.0877   -0.0977    0.0655   -0.0703   -0.1079    0.1067    0.1103    0.1564
          51   -0.0000   -0.0000    0.0000   -0.0000   -0.0000    0.0000    0.0000    0.0000
          52   -0.0494   -0.0562   -0.0359    0.0407   -0.0589    0.0583   -0.0610   -0.0866
          53    0.0887    0.1009    0.0619   -0.0703    0.1086   -0.1076    0.1090    0.1546
          54    0.0000    0.0000    0.0000   -0.0000    0.0000   -0.0000    0.0000    0.0000


           MASS-WEIGHTED COORDINATE ANALYSIS (NORMAL COORDINATES)


   Root No.       1         2         3         4         5         6         7         8

                 1 A       2 A       3 A       4 A       5 A       6 A       7 A       8 A   

                 157.2     158.1     335.3     390.5     428.2     462.5     520.6     523.9
  
           1    0.0000    0.0000    0.0000    0.4067    0.0000    0.0000    0.0000    0.0169
           2    0.0000   -0.0000    0.0000    0.0000   -0.0000   -0.0000    0.2773   -0.0001
           3    0.0026    0.3696    0.0000   -0.0000    0.2840    0.4534    0.0000    0.0000
           4    0.0000    0.0000    0.0000    0.4070    0.0000    0.0000   -0.0000   -0.0168
           5   -0.0000   -0.0000   -0.0000    0.0000    0.0000    0.0000   -0.2772    0.0001
           6    0.0026    0.3695   -0.0000   -0.0000   -0.2840    0.4534    0.0000   -0.0000
           7    0.0000    0.0000   -0.0000    0.0743    0.0000    0.0000   -0.1738    0.2301
           8    0.0000   -0.0000    0.0000   -0.2222   -0.0000   -0.0000    0.2528    0.1987
           9   -0.3372    0.1752    0.3674   -0.0000    0.1381   -0.2099   -0.0000   -0.0000
          10   -0.0000    0.0000    0.0000    0.0743    0.0000   -0.0000   -0.1740   -0.2300
          11   -0.0000   -0.0000   -0.0000    0.2220    0.0000    0.0000   -0.2527    0.1989
          12    0.3398    0.1703    0.3673    0.0000   -0.1382   -0.2098   -0.0000    0.0000
          13    0.0000    0.0000   -0.0000    0.0743   -0.0000   -0.0000    0.1740    0.2300
          14    0.0000   -0.0000    0.0000    0.2222    0.0000   -0.0000    0.2527   -0.1989
          15    0.3397    0.1704   -0.3673    0.0000    0.1381   -0.2099   -0.0000    0.0000
          16    0.0000    0.0000   -0.0000    0.0743    0.0000    0.0000    0.1738   -0.2301
          17   -0.0000   -0.0000   -0.0000   -0.2220    0.0000   -0.0000   -0.2528   -0.1988
          18   -0.3373    0.1752   -0.3673    0.0000   -0.1382   -0.2099   -0.0000   -0.0000
          19    0.0000   -0.0000   -0.0000   -0.2463    0.0000    0.0000   -0.1953    0.0058
          20    0.0000   -0.0000    0.0000   -0.0750   -0.0000   -0.0000    0.2517    0.3743
          21   -0.2709   -0.3217   -0.1764    0.0000   -0.3147    0.0787    0.0000    0.0000
          22   -0.0000   -0.0000   -0.0000   -0.2465   -0.0000    0.0000   -0.1954   -0.0058
          23   -0.0000    0.0000    0.0000    0.0750   -0.0000    0.0000   -0.2515    0.3744
          24    0.2662   -0.3254   -0.1765   -0.0000    0.3148    0.0786   -0.0000    0.0000
          25   -0.0000   -0.0000    0.0000   -0.2463   -0.0000   -0.0000    0.1954    0.0057
          26    0.0000    0.0000   -0.0000    0.0750    0.0000   -0.0000    0.2515   -0.3744
          27    0.2662   -0.3255    0.1764   -0.0000   -0.3147    0.0787    0.0000   -0.0000
          28   -0.0000   -0.0000    0.0000   -0.2465   -0.0000   -0.0000    0.1954   -0.0059
          29    0.0000    0.0000   -0.0000   -0.0750    0.0000    0.0000   -0.2517   -0.3743
          30   -0.2708   -0.3216    0.1765    0.0000    0.3148    0.0787    0.0000    0.0000
          31    0.0000   -0.0000   -0.0000   -0.1294    0.0000   -0.0000    0.0092   -0.0378
          32    0.0000   -0.0000    0.0000   -0.0547   -0.0000   -0.0000    0.1090    0.0874
          33   -0.1681   -0.1994   -0.1244    0.0000   -0.2983   -0.0189    0.0000    0.0000
          34   -0.0000   -0.0000   -0.0000   -0.1294   -0.0000    0.0000    0.0092    0.0377
          35   -0.0000    0.0000    0.0000    0.0547   -0.0000    0.0000   -0.1089    0.0875
          36    0.1653   -0.2018   -0.1244   -0.0000    0.2984   -0.0190   -0.0000    0.0000
          37    0.0000   -0.0000   -0.0000    0.0213    0.0000    0.0000   -0.0500    0.0664
          38   -0.0000   -0.0000    0.0000   -0.1608   -0.0000   -0.0000    0.0389    0.0612
          39   -0.1879    0.0846    0.2617    0.0000    0.0498   -0.3108   -0.0000   -0.0000
          40    0.0000    0.0000    0.0000    0.0213   -0.0000   -0.0000   -0.0501   -0.0663
          41    0.0000   -0.0000   -0.0000    0.1608    0.0000    0.0000   -0.0388    0.0612
          42    0.1891    0.0819    0.2617    0.0000   -0.0499   -0.3107   -0.0000    0.0000
          43    0.0000    0.0000   -0.0000    0.0213    0.0000   -0.0000    0.0501    0.0663
          44    0.0000   -0.0000    0.0000    0.1608    0.0000    0.0000    0.0388   -0.0612
          45    0.1891    0.0819   -0.2617    0.0000    0.0499   -0.3108   -0.0000    0.0000
          46    0.0000   -0.0000   -0.0000    0.0213    0.0000    0.0000    0.0500   -0.0664
          47   -0.0000   -0.0000    0.0000   -0.1608    0.0000   -0.0000   -0.0389   -0.0612
          48   -0.1879    0.0846   -0.2617    0.0000   -0.0499   -0.3108   -0.0000   -0.0000
          49   -0.0000   -0.0000    0.0000   -0.1294   -0.0000   -0.0000   -0.0092   -0.0378
          50   -0.0000    0.0000   -0.0000    0.0547    0.0000   -0.0000    0.1089   -0.0875
          51    0.1653   -0.2018    0.1244    0.0000   -0.2984   -0.0190   -0.0000   -0.0000
          52   -0.0000   -0.0000    0.0000   -0.1294   -0.0000   -0.0000   -0.0092    0.0377
          53    0.0000    0.0000   -0.0000   -0.0547   -0.0000    0.0000   -0.1090   -0.0874
          54   -0.1681   -0.1994    0.1244    0.0000    0.2984   -0.0190    0.0000    0.0000


   Root No.       9        10        11        12        13        14        15        16

                 9 A      10 A      11 A      12 A      13 A      14 A      15 A      16 A   

                 543.8     636.4     742.8     747.6     798.5     808.2     849.6     910.3
  
           1    0.0000    0.0000   -0.0000   -0.0000    0.0001    0.0886    0.0000    0.0000
           2    0.0000   -0.2516    0.0000    0.0000    0.0000    0.0000    0.0000   -0.0000
           3    0.0001   -0.0000   -0.4760   -0.0001    0.2064   -0.0001   -0.0000   -0.3382
           4    0.0000    0.0000   -0.0000    0.0000    0.0001    0.0887    0.0000   -0.0000
           5    0.0000   -0.2516   -0.0000    0.0000    0.0000    0.0000    0.0000   -0.0000
           6    0.0000   -0.0000    0.4760    0.0002    0.2065   -0.0001    0.0002    0.3382
           7    0.0000    0.4020   -0.0000   -0.0000    0.0001    0.1277    0.0000    0.0000
           8    0.0000   -0.0570   -0.0000   -0.0000    0.0001    0.1635    0.0000   -0.0000
           9    0.2485    0.0000    0.0125    0.1321   -0.1156    0.0001   -0.2015    0.1757
          10   -0.0000   -0.4019   -0.0000   -0.0000    0.0001    0.1276    0.0000   -0.0000
          11    0.0000   -0.0570    0.0000    0.0000   -0.0001   -0.1636   -0.0000   -0.0000
          12   -0.2486    0.0000   -0.0126    0.1321   -0.1157    0.0001    0.2014   -0.1755
          13    0.0000   -0.4019    0.0000    0.0000    0.0001    0.1277    0.0000    0.0000
          14    0.0000   -0.0570    0.0000    0.0000   -0.0001   -0.1635   -0.0000    0.0000
          15   -0.2485   -0.0000    0.0126   -0.1321   -0.1157    0.0000    0.2014    0.1754
          16   -0.0000    0.4019   -0.0000   -0.0000    0.0001    0.1276   -0.0000   -0.0000
          17   -0.0000   -0.0570   -0.0000   -0.0000    0.0001    0.1636    0.0000    0.0000
          18    0.2485   -0.0000   -0.0125   -0.1321   -0.1156    0.0001   -0.2016   -0.1757
          19    0.0000    0.0334    0.0000    0.0000   -0.0001   -0.1913   -0.0000   -0.0000
          20    0.0000    0.1848   -0.0000   -0.0000    0.0003    0.3737    0.0000    0.0000
          21   -0.2703   -0.0000   -0.1264    0.1242   -0.1528    0.0001   -0.1440    0.1778
          22   -0.0000   -0.0334    0.0000    0.0000   -0.0001   -0.1914   -0.0000    0.0000
          23   -0.0000    0.1848    0.0000    0.0000   -0.0002   -0.3737   -0.0000   -0.0000
          24    0.2702    0.0000    0.1263    0.1245   -0.1531    0.0001    0.1439   -0.1779
          25   -0.0000   -0.0334   -0.0000    0.0000   -0.0001   -0.1913   -0.0000    0.0000
          26   -0.0000    0.1848    0.0000    0.0000   -0.0002   -0.3737   -0.0000    0.0000
          27    0.2702   -0.0000   -0.1263   -0.1245   -0.1531    0.0001    0.1440    0.1778
          28   -0.0000    0.0334    0.0000    0.0000   -0.0001   -0.1913   -0.0000    0.0000
          29   -0.0000    0.1848   -0.0000   -0.0000    0.0002    0.3737    0.0000    0.0000
          30   -0.2703   -0.0000    0.1264   -0.1242   -0.1528    0.0001   -0.1440   -0.1777
          31    0.0000   -0.0665    0.0000    0.0000   -0.0000    0.0287   -0.0000    0.0000
          32    0.0000    0.0105   -0.0000   -0.0000    0.0001    0.1563    0.0000    0.0000
          33   -0.2823   -0.0000   -0.0296   -0.3731    0.4057   -0.0003    0.2132   -0.3007
          34   -0.0000    0.0665   -0.0000    0.0000    0.0000    0.0287    0.0000   -0.0000
          35   -0.0000    0.0105    0.0000    0.0000   -0.0001   -0.1563   -0.0000   -0.0000
          36    0.2824   -0.0000    0.0299   -0.3732    0.4059   -0.0003   -0.2129    0.3007
          37    0.0000    0.1159   -0.0000   -0.0000    0.0000    0.0381   -0.0000    0.0000
          38    0.0000   -0.0175    0.0000    0.0000   -0.0000   -0.0071    0.0000   -0.0000
          39    0.1884    0.0000    0.3460   -0.2788    0.1650   -0.0001    0.3786   -0.2001
          40   -0.0000   -0.1159   -0.0000   -0.0000    0.0000    0.0381   -0.0000    0.0000
          41    0.0000   -0.0175    0.0000    0.0000   -0.0000    0.0072    0.0000   -0.0000
          42   -0.1884   -0.0000   -0.3459   -0.2791    0.1653   -0.0001   -0.3785    0.1998
          43   -0.0000   -0.1159    0.0000    0.0000    0.0000    0.0381   -0.0000   -0.0000
          44    0.0000   -0.0175    0.0000    0.0000   -0.0000    0.0071    0.0000    0.0000
          45   -0.1884    0.0000    0.3459    0.2791    0.1653   -0.0000   -0.3784   -0.1997
          46   -0.0000    0.1159    0.0000   -0.0000    0.0000    0.0381   -0.0000   -0.0000
          47   -0.0000   -0.0175    0.0000   -0.0000   -0.0000   -0.0072   -0.0000    0.0000
          48    0.1884    0.0000   -0.3462    0.2789    0.1650   -0.0001    0.3786    0.2000
          49   -0.0000    0.0665   -0.0000   -0.0000    0.0000    0.0287    0.0000   -0.0000
          50   -0.0000    0.0105    0.0000   -0.0000   -0.0001   -0.1563   -0.0000    0.0000
          51    0.2823    0.0000   -0.0298    0.3732    0.4058   -0.0002   -0.2130   -0.3007
          52    0.0000   -0.0665   -0.0000   -0.0000    0.0000    0.0287    0.0000    0.0000
          53   -0.0000    0.0105   -0.0000   -0.0000    0.0001    0.1563    0.0000   -0.0000
          54   -0.2823    0.0000    0.0295    0.3732    0.4056   -0.0003    0.2132    0.3006


   Root No.      17        18        19        20        21        22        23        24

                17 A      18 A      19 A      20 A      21 A      22 A      23 A      24 A   

                 911.9     918.8     952.8     979.7    1001.0    1018.1    1087.0    1114.6
  
           1   -0.1816   -0.0000    0.0000    0.0000   -0.0000    0.0000   -0.0000    0.0243
           2   -0.0000    0.1355    0.0000    0.0000   -0.0000    0.0000   -0.0520   -0.0000
           3   -0.0000    0.0000    0.0002    0.1467    0.0000    0.2034    0.0000   -0.0000
           4    0.1816    0.0000   -0.0000    0.0000    0.0000   -0.0000   -0.0000   -0.0252
           5    0.0000   -0.1356   -0.0000    0.0000    0.0000   -0.0000   -0.0520    0.0001
           6    0.0000    0.0000   -0.0001    0.1466   -0.0001   -0.2035   -0.0000    0.0000
           7   -0.3418   -0.3524   -0.0000    0.0000    0.0000   -0.0000    0.0785   -0.1825
           8    0.2087    0.0311   -0.0000   -0.0000    0.0000   -0.0000    0.0220    0.0224
           9   -0.0000   -0.0000    0.2286   -0.2627    0.1819   -0.2326   -0.0000    0.0000
          10    0.3420   -0.3523   -0.0000   -0.0000   -0.0000    0.0000   -0.0785    0.1835
          11    0.2087   -0.0310   -0.0000    0.0000    0.0000   -0.0000    0.0220    0.0223
          12   -0.0000   -0.0000    0.2287   -0.2629   -0.1817    0.2326    0.0000   -0.0000
          13   -0.3419    0.3523    0.0000   -0.0000   -0.0000    0.0000   -0.0785   -0.1824
          14   -0.2087    0.0310    0.0000    0.0000    0.0000    0.0000    0.0220   -0.0225
          15    0.0000    0.0000   -0.2289   -0.2627   -0.1818   -0.2324    0.0000    0.0000
          16    0.3419    0.3524    0.0000   -0.0000    0.0000   -0.0000    0.0786    0.1835
          17   -0.2087   -0.0311    0.0000   -0.0000   -0.0000    0.0000    0.0220   -0.0222
          18   -0.0000    0.0000   -0.2287   -0.2625    0.1820    0.2325    0.0000   -0.0000
          19   -0.0266    0.1689    0.0000    0.0000    0.0000   -0.0000    0.1462   -0.1877
          20    0.0807   -0.2370   -0.0000    0.0000   -0.0000    0.0000   -0.1262    0.1526
          21    0.0000   -0.0000   -0.1752    0.1483   -0.2900    0.2573    0.0000   -0.0000
          22    0.0265    0.1689    0.0000   -0.0000   -0.0000    0.0000   -0.1462    0.1875
          23    0.0806    0.2371    0.0000   -0.0000   -0.0000    0.0000   -0.1263    0.1524
          24   -0.0000    0.0000   -0.1752    0.1485    0.2899   -0.2573   -0.0000    0.0000
          25   -0.0266   -0.1689   -0.0000   -0.0000    0.0000   -0.0000   -0.1463   -0.1876
          26   -0.0807   -0.2371   -0.0000   -0.0000   -0.0000   -0.0000   -0.1263   -0.1526
          27    0.0000   -0.0000    0.1753    0.1485    0.2900    0.2571   -0.0000   -0.0000
          28    0.0265   -0.1689   -0.0000    0.0000    0.0000    0.0000    0.1463    0.1875
          29   -0.0807    0.2371    0.0000   -0.0000   -0.0000    0.0000   -0.1263   -0.1524
          30   -0.0000   -0.0000    0.1753    0.1482   -0.2902   -0.2572   -0.0000    0.0000
          31    0.1081    0.0893   -0.0000    0.0000   -0.0000   -0.0000    0.2268   -0.2353
          32    0.0925   -0.0475   -0.0000    0.0000   -0.0000   -0.0000    0.0644   -0.0525
          33   -0.0000    0.0000    0.2589   -0.1920    0.3117   -0.2454    0.0000   -0.0000
          34   -0.1082    0.0893   -0.0000    0.0000   -0.0000    0.0000   -0.2270    0.2338
          35    0.0925    0.0475   -0.0000    0.0000    0.0000   -0.0000    0.0645   -0.0519
          36    0.0000    0.0000    0.2587   -0.1923   -0.3114    0.2452    0.0000   -0.0000
          37   -0.1026   -0.1047    0.0000   -0.0000    0.0000   -0.0000    0.0239   -0.0581
          38    0.1872    0.0989   -0.0000   -0.0000    0.0000   -0.0000    0.3853   -0.3100
          39   -0.0000    0.0000   -0.3159    0.3337   -0.1890    0.2214    0.0000   -0.0000
          40    0.1026   -0.1047   -0.0000    0.0000    0.0000   -0.0000   -0.0239    0.0584
          41    0.1873   -0.0989    0.0000   -0.0000    0.0000   -0.0000    0.3852   -0.3103
          42   -0.0000    0.0000   -0.3161    0.3339    0.1887   -0.2213    0.0000   -0.0000
          43   -0.1026    0.1047    0.0000    0.0000    0.0000    0.0000   -0.0239   -0.0581
          44   -0.1872    0.0989    0.0000   -0.0000    0.0000    0.0000    0.3853    0.3094
          45    0.0000   -0.0000    0.3163    0.3337    0.1889    0.2211    0.0000   -0.0000
          46    0.1026    0.1047   -0.0000   -0.0000    0.0000    0.0000    0.0239    0.0584
          47   -0.1873   -0.0989    0.0000   -0.0000    0.0000    0.0000    0.3854    0.3106
          48    0.0000   -0.0000    0.3161    0.3334   -0.1891   -0.2212    0.0000    0.0000
          49    0.1082   -0.0893   -0.0000   -0.0000   -0.0000   -0.0000   -0.2271   -0.2356
          50   -0.0925   -0.0475    0.0000    0.0000    0.0000    0.0000    0.0645    0.0528
          51   -0.0000   -0.0000   -0.2589   -0.1921   -0.3116   -0.2450    0.0000    0.0000
          52   -0.1081   -0.0893    0.0000    0.0000   -0.0000    0.0000    0.2268    0.2332
          53   -0.0925    0.0475    0.0000    0.0000   -0.0000    0.0000    0.0644    0.0515
          54    0.0000    0.0000   -0.2591   -0.1919    0.3119    0.2452    0.0000    0.0000


   Root No.      25        26        27        28        29        30        31        32

                25 A      26 A      27 A      28 A      29 A      30 A      31 A      32 A   

                1123.6    1127.5    1155.6    1156.9    1185.6    1231.6    1275.5    1411.1
  
           1    0.1387    0.0001   -0.0004    0.0895   -0.0000   -0.2251   -0.0000    0.3964
           2    0.0001   -0.0476   -0.0133    0.0000   -0.2206    0.0000    0.4521    0.0001
           3   -0.0000   -0.0000   -0.0000    0.0000    0.0000    0.0000   -0.0000   -0.0000
           4    0.1389    0.0002    0.0005   -0.0895   -0.0001   -0.2256    0.0000    0.3982
           5   -0.0001    0.0476   -0.0133   -0.0001    0.2207   -0.0000    0.4520   -0.0000
           6   -0.0000    0.0000   -0.0000   -0.0000   -0.0000    0.0000   -0.0000   -0.0000
           7   -0.1734   -0.0564    0.0227    0.0010    0.0081    0.0433    0.1099   -0.2702
           8   -0.0531   -0.0689   -0.0040    0.0071   -0.1173    0.0755   -0.1108    0.1878
           9   -0.0000   -0.0000    0.0000   -0.0000    0.0000   -0.0000    0.0000   -0.0000
          10   -0.1724   -0.0566   -0.0229   -0.0011    0.0081    0.0431   -0.1100   -0.2700
          11    0.0532    0.0689   -0.0039    0.0071    0.1172   -0.0753   -0.1108   -0.1884
          12    0.0000    0.0000   -0.0000   -0.0000    0.0000   -0.0000    0.0000    0.0000
          13   -0.1735    0.0562   -0.0229    0.0008   -0.0081    0.0433   -0.1099   -0.2703
          14    0.0533   -0.0688   -0.0039   -0.0071   -0.1173   -0.0755   -0.1108   -0.1879
          15    0.0000   -0.0000   -0.0000    0.0000   -0.0000   -0.0000    0.0000    0.0000
          16   -0.1725    0.0560    0.0227   -0.0008   -0.0081    0.0431    0.1099   -0.2701
          17   -0.0533    0.0688   -0.0039   -0.0072    0.1173    0.0753   -0.1108    0.1883
          18    0.0000    0.0000    0.0000    0.0000    0.0000   -0.0000    0.0000    0.0000
          19    0.0137    0.0128    0.0264   -0.0089   -0.1277    0.1010    0.3159    0.1401
          20   -0.0307    0.0242    0.0251    0.0265    0.0171    0.0590   -0.0609    0.0872
          21   -0.0000   -0.0000    0.0000   -0.0000   -0.0000    0.0000    0.0000    0.0000
          22    0.0145    0.0126   -0.0264    0.0090   -0.1278    0.1012   -0.3159    0.1390
          23    0.0315   -0.0245    0.0251    0.0265   -0.0171   -0.0593   -0.0609   -0.0866
          24   -0.0000   -0.0000   -0.0000    0.0000   -0.0000   -0.0000   -0.0000   -0.0000
          25    0.0136   -0.0125   -0.0263   -0.0094    0.1278    0.1009   -0.3159    0.1402
          26    0.0306    0.0245    0.0254   -0.0262    0.0171   -0.0590   -0.0610   -0.0872
          27   -0.0000    0.0000    0.0000   -0.0000   -0.0000   -0.0000   -0.0000   -0.0000
          28    0.0146   -0.0129    0.0264    0.0092    0.1278    0.1011    0.3159    0.1390
          29   -0.0316   -0.0243    0.0254   -0.0262   -0.0171    0.0593   -0.0609    0.0867
          30   -0.0000    0.0000   -0.0000   -0.0000    0.0000    0.0000   -0.0000    0.0000
          31    0.3591    0.3189    0.3676    0.3545    0.2290   -0.1220   -0.0316   -0.1492
          32    0.1860    0.1797    0.2087    0.2078    0.1551   -0.0685   -0.0941   -0.0777
          33    0.0000    0.0000    0.0000    0.0000    0.0000   -0.0000   -0.0000   -0.0000
          34    0.3608    0.3189   -0.3672   -0.3542    0.2287   -0.1219    0.0316   -0.1492
          35   -0.1866   -0.1799    0.2084    0.2076   -0.1550    0.0683   -0.0940    0.0777
          36    0.0000    0.0000    0.0000   -0.0000   -0.0000   -0.0000   -0.0000    0.0000
          37   -0.0515   -0.0145    0.0102    0.0026    0.0007    0.0129    0.0372   -0.0859
          38   -0.1982   -0.3259   -0.2588   -0.2816    0.3445   -0.4284   -0.0934   -0.0017
          39    0.0000   -0.0000    0.0000    0.0000   -0.0000    0.0000   -0.0000    0.0000
          40   -0.0512   -0.0145   -0.0103   -0.0026    0.0007    0.0128   -0.0372   -0.0858
          41    0.1973    0.3266   -0.2586   -0.2806   -0.3447    0.4288   -0.0933    0.0011
          42    0.0000    0.0000   -0.0000   -0.0000   -0.0000    0.0000   -0.0000    0.0000
          43   -0.0515    0.0144   -0.0103    0.0025   -0.0007    0.0129   -0.0372   -0.0859
          44    0.1994   -0.3263   -0.2614    0.2782    0.3449    0.4283   -0.0935    0.0018
          45    0.0000   -0.0000   -0.0000    0.0000    0.0000    0.0000   -0.0000    0.0000
          46   -0.0512    0.0143    0.0102   -0.0025   -0.0007    0.0128    0.0372   -0.0858
          47   -0.1974    0.3254   -0.2618    0.2785   -0.3446   -0.4286   -0.0934   -0.0011
          48   -0.0000    0.0000   -0.0000    0.0000   -0.0000   -0.0000   -0.0000   -0.0000
          49    0.3600   -0.3181   -0.3708    0.3506   -0.2286   -0.1219    0.0316   -0.1492
[...]
 EFFECTIVE MASS     11.6673
 FORCE CONSTANT      1.4831

 VIBRATION         32   32A           ATOM PAIR      ENERGY CONTRIBUTION    RADIAL
 FREQUENCY          1411.13         C  2 -- C  6         +12.5% ( 53.4%)     50.1%
 TRANSITION DIPOLE   0.5959         C  2 -- C  4         +12.5% ( 53.4%)     50.1%
 TRAVEL (Ang.)       0.1994         C  1 -- C  5         +12.4% ( 53.3%)     50.1%
 REDUCED MASS        1.2014         C  1 -- C  3         +12.4% ( 53.3%)     50.1%
 EFFECTIVE MASS     10.7729
 FORCE CONSTANT      1.4095

 VIBRATION         33   33A           ATOM PAIR      ENERGY CONTRIBUTION    RADIAL
 FREQUENCY          1447.64         C  4 -- C  8         +10.5% ( 53.9%)     89.1%
 TRANSITION DIPOLE   0.5103         C  3 -- C  7         +10.5% ( 53.9%)     89.1%
 TRAVEL (Ang.)       0.1876         C  6 -- C 10         +10.5% ( 53.9%)     89.1%
 REDUCED MASS        1.3237         C  5 -- C  9         +10.5% ( 53.9%)     89.1%
 EFFECTIVE MASS     11.3046
 FORCE CONSTANT      1.6344

 VIBRATION         34   34A           ATOM PAIR      ENERGY CONTRIBUTION    RADIAL
 FREQUENCY          1486.52         C  7 -- C  8         +12.7% ( 51.6%)    100.0%
 TRANSITION DIPOLE   0.0006         C  9 -- C 10         +12.7% ( 51.6%)    100.0%
 TRAVEL (Ang.)       0.2225         C  1 -- C  2          +6.4% ( 36.8%)    100.0%
 REDUCED MASS        0.9164         C  6 -- C 10          +5.9% ( 35.2%)      3.6%
 EFFECTIVE MASS      9.7904
 FORCE CONSTANT      1.1931

 VIBRATION         35   35A           ATOM PAIR      ENERGY CONTRIBUTION    RADIAL
 FREQUENCY          1586.93         C  1 -- C  2         +15.6% ( 62.7%)    100.0%
 TRANSITION DIPOLE   0.0016         C  1 -- C  5          +9.1% ( 47.9%)     85.5%
 TRAVEL (Ang.)       0.1690         C  1 -- C  3          +9.1% ( 47.9%)     85.5%
 REDUCED MASS        1.4878         C  2 -- C  6          +9.1% ( 47.8%)     85.7%
 EFFECTIVE MASS     11.9660
 FORCE CONSTANT      2.2075

 VIBRATION         36   36A           ATOM PAIR      ENERGY CONTRIBUTION    RADIAL
 FREQUENCY          1592.89         C  1 -- C  2         +16.0% ( 60.2%)      0.0%
 TRANSITION DIPOLE   0.0001         C  2 -- C  4          +8.8% ( 44.7%)     98.9%
 TRAVEL (Ang.)       0.1668         C  2 -- C  6          +8.8% ( 44.7%)     98.9%
 REDUCED MASS        1.5224         C  1 -- C  3          +8.8% ( 44.7%)     98.9%
 EFFECTIVE MASS     11.4832
 FORCE CONSTANT      2.2758

 VIBRATION         37   37A           ATOM PAIR      ENERGY CONTRIBUTION    RADIAL
 FREQUENCY          1677.64         C  9 -- C 10         +11.1% ( 47.4%)    100.0%
 TRANSITION DIPOLE   0.3176         C  7 -- C  8         +11.1% ( 47.4%)    100.0%
 TRAVEL (Ang.)       0.1709         C  1 -- C  2          +6.8% ( 37.1%)     95.6%
 REDUCED MASS        1.3763         C  1 -- C  3          +6.7% ( 36.7%)     98.1%
 EFFECTIVE MASS     11.7087
 FORCE CONSTANT      2.2823

 VIBRATION         38   38A           ATOM PAIR      ENERGY CONTRIBUTION    RADIAL
 FREQUENCY          1777.44         C  1 -- C  2         +17.6% ( 59.4%)    100.0%
 TRANSITION DIPOLE   0.0003         C  2 -- C  6          +7.6% ( 38.9%)     10.3%
 TRAVEL (Ang.)       0.1518         C  2 -- C  4          +7.6% ( 38.9%)     10.3%
 REDUCED MASS        1.6465         C  1 -- C  3          +7.6% ( 38.9%)     10.3%
 EFFECTIVE MASS     11.8933
 FORCE CONSTANT      3.0648

 VIBRATION         39   39A           ATOM PAIR      ENERGY CONTRIBUTION    RADIAL
 FREQUENCY          1796.01         C  5 -- C  9         +10.7% ( 46.0%)     97.6%
 TRANSITION DIPOLE   0.3824         C  3 -- C  7         +10.7% ( 46.0%)     97.6%
 TRAVEL (Ang.)       0.1632         C  6 -- C 10         +10.7% ( 45.9%)     97.5%
 REDUCED MASS        1.4103         C  4 -- C  8         +10.7% ( 45.9%)     97.5%
 EFFECTIVE MASS     11.8067
 FORCE CONSTANT      2.6802

 VIBRATION         40   40A           ATOM PAIR      ENERGY CONTRIBUTION    RADIAL
 FREQUENCY          1827.49         C  1 -- C  3          +9.1% ( 42.6%)     71.5%
 TRANSITION DIPOLE   0.0001         C  2 -- C  4          +9.1% ( 42.6%)     71.5%
 TRAVEL (Ang.)       0.1673         C  1 -- C  5          +9.1% ( 42.6%)     71.5%
 REDUCED MASS        1.3181         C  2 -- C  6          +9.1% ( 42.6%)     71.5%
 EFFECTIVE MASS     11.8337
 FORCE CONSTANT      2.5937

 VIBRATION         41   41A           ATOM PAIR      ENERGY CONTRIBUTION    RADIAL
 FREQUENCY          3050.31         C  3 -- H 13         +15.7% ( 40.3%)    100.0%
 TRANSITION DIPOLE   0.3436         C  4 -- H 14         +15.0% ( 39.3%)    100.0%
 TRAVEL (Ang.)       0.4272         C  6 -- H 16         +13.8% ( 37.7%)    100.0%
 REDUCED MASS        0.1211         C  5 -- H 15         +13.6% ( 37.5%)    100.0%
 EFFECTIVE MASS      1.4944         C  7 -- H 11         +10.6% ( 33.1%)    100.0%
 FORCE CONSTANT      0.6639         C  8 -- H 12         +10.1% ( 32.4%)    100.0%

 VIBRATION         42   42A           ATOM PAIR      ENERGY CONTRIBUTION    RADIAL
 FREQUENCY          3051.23         C  6 -- H 16         +14.5% ( 38.7%)    100.0%
 TRANSITION DIPOLE   0.0084         C  3 -- H 13         +13.2% ( 36.9%)    100.0%
 TRAVEL (Ang.)       0.4334         C  5 -- H 15         +13.2% ( 36.9%)    100.0%
 REDUCED MASS        0.1176         C 10 -- H 18         +12.2% ( 35.6%)    100.0%
 EFFECTIVE MASS      1.4868         C  4 -- H 14         +11.6% ( 34.6%)    100.0%
 FORCE CONSTANT      0.6452         C  9 -- H 17         +11.5% ( 34.4%)    100.0%
                            C  7 -- H 11         +11.0% ( 33.7%)    100.0%
                            C  8 -- H 12         +10.2% ( 32.4%)    100.0%

 VIBRATION         43   43A           ATOM PAIR      ENERGY CONTRIBUTION    RADIAL
 FREQUENCY          3052.29         C  4 -- H 14         +21.6% ( 47.2%)    100.0%
 TRANSITION DIPOLE   0.0070         C  3 -- H 13         +19.7% ( 45.1%)    100.0%
 TRAVEL (Ang.)       0.3701         C  5 -- H 15         +19.3% ( 44.7%)    100.0%
 REDUCED MASS        0.1613         C  6 -- H 16         +17.9% ( 43.0%)    100.0%
 EFFECTIVE MASS      1.4915
 FORCE CONSTANT      0.8852

 VIBRATION         44   44A           ATOM PAIR      ENERGY CONTRIBUTION    RADIAL
 FREQUENCY          3053.71         C  5 -- H 15         +20.3% ( 45.8%)    100.0%
 TRANSITION DIPOLE   0.2952         C  6 -- H 16         +19.8% ( 45.1%)    100.0%
 TRAVEL (Ang.)       0.3781         C  4 -- H 14         +18.5% ( 43.6%)    100.0%
 REDUCED MASS        0.1545         C  3 -- H 13         +17.7% ( 42.8%)    100.0%
 EFFECTIVE MASS      1.4870
 FORCE CONSTANT      0.8487

 VIBRATION         45   45A           ATOM PAIR      ENERGY CONTRIBUTION    RADIAL
 FREQUENCY          3064.10         C  7 -- H 11         +15.3% ( 39.7%)     99.9%
 TRANSITION DIPOLE   0.6441         C  8 -- H 12         +15.0% ( 39.4%)     99.9%
 TRAVEL (Ang.)       0.4263         C 10 -- H 18         +13.9% ( 37.9%)     99.9%
 REDUCED MASS        0.1211         C  9 -- H 17         +13.7% ( 37.6%)     99.9%
 EFFECTIVE MASS      1.5484         C  3 -- H 13         +10.3% ( 32.5%)    100.0%
 FORCE CONSTANT      0.6699

 VIBRATION         46   46A           ATOM PAIR      ENERGY CONTRIBUTION    RADIAL
 FREQUENCY          3064.91         C 10 -- H 18         +13.8% ( 37.7%)     99.9%
 TRANSITION DIPOLE   0.0153         C  9 -- H 17         +13.5% ( 37.4%)     99.9%
 TRAVEL (Ang.)       0.4329         C  7 -- H 11         +12.6% ( 36.1%)     99.9%
 REDUCED MASS        0.1174         C  8 -- H 12         +12.3% ( 35.7%)     99.9%
 EFFECTIVE MASS      1.5475         C  6 -- H 16         +11.8% ( 34.8%)    100.0%
 FORCE CONSTANT      0.6496         C  5 -- H 15         +11.4% ( 34.3%)    100.0%
                            C  3 -- H 13         +10.7% ( 33.2%)    100.0%
                            C  4 -- H 14         +10.4% ( 32.8%)    100.0%

 VIBRATION         47   47A           ATOM PAIR      ENERGY CONTRIBUTION    RADIAL
 FREQUENCY          3076.03         C  8 -- H 12         +25.3% ( 51.0%)    100.0%
 TRANSITION DIPOLE   0.6323         C  7 -- H 11         +24.7% ( 50.4%)    100.0%
 TRAVEL (Ang.)       0.3590         C  9 -- H 17         +13.1% ( 36.7%)    100.0%
 REDUCED MASS        0.1701         C 10 -- H 18         +12.8% ( 36.3%)    100.0%
 EFFECTIVE MASS      1.5941
 FORCE CONSTANT      0.9481

 VIBRATION         48   48A           ATOM PAIR      ENERGY CONTRIBUTION    RADIAL
 FREQUENCY          3076.08         C  9 -- H 17         +25.8% ( 51.5%)    100.0%
 TRANSITION DIPOLE   0.1009         C 10 -- H 18         +25.2% ( 50.9%)    100.0%
 TRAVEL (Ang.)       0.3530         C  8 -- H 12         +13.7% ( 37.5%)    100.0%
 REDUCED MASS        0.1760         C  7 -- H 11         +13.4% ( 37.0%)    100.0%
 EFFECTIVE MASS      1.5904
 FORCE CONSTANT      0.9810

      SYMMETRY NUMBER FOR POINT-GROUP C1  =  1


          SYSTEM IS A GROUND STATE



 InChI=1S/C10H8/c1-2-6-10-8-4-3-7-9(10)5-1/h1-8H


          MOLECULE IS NOT LINEAR

          THERE ARE 48 GENUINE VIBRATIONS IN THIS SYSTEM
          THIS THERMODYNAMICS CALCULATION IS LIMITED TO
          MOLECULES WHICH HAVE NO INTERNAL ROTATIONS




                    CALCULATED THERMODYNAMIC PROPERTIES
                                          *
   TEMP. (K)   PARTITION FUNCTION   H.O.F.    ENTHALPY  HEAT CAPACITY ENTROPY
                                   KCAL/MOL   CAL/MOLE    CAL/K/MOL  CAL/K/MOL


 298.00  VIB.     0.1110D+02                  2617.1190    23.0874    13.5651
         ROT.     0.4667D+06                   888.2803     2.9808    28.9207
         INT.     0.5180D+07                  3505.3993    26.0682    42.4858
         TRA.     0.1403D+28                  1480.4672     4.9680    40.4556
         TOT.                       40.559    4985.8665    31.0362    82.9415

 200.00  VIB.     0.3070D+01                   891.8417    12.2878     6.6879
         ROT.     0.2566D+06                   596.1613     2.9808    27.7320
         INT.     0.7877D+06                  1488.0030    15.2686    34.4199
         TRA.     0.7713D+27                   993.6021     4.9680    38.4745
         TOT.                       38.055    2481.6051    20.2366    72.8944

 210.00  VIB.     0.3441D+01                  1019.8929    13.3264     7.3125
         ROT.     0.2761D+06                   625.9693     2.9808    27.8774
         INT.     0.9501D+06                  1645.8623    16.3073    35.1899
         TRA.     0.8299D+27                  1043.2822     4.9680    38.7169
         TOT.                       38.263    2689.1445    21.2753    73.9068

 220.00  VIB.     0.3874D+01                  1158.4461    14.3877     7.9569
         ROT.     0.2960D+06                   655.7774     2.9808    28.0161
         INT.     0.1147D+07                  1814.2235    17.3685    35.9730
         TRA.     0.8899D+27                  1092.9623     4.9680    38.9480
         TOT.                       38.481    2907.1858    22.3365    74.9210

 230.00  VIB.     0.4378D+01                  1307.7117    15.4684     8.6202
         ROT.     0.3165D+06                   685.5855     2.9808    28.1486
         INT.     0.1386D+07                  1993.2972    18.4492    36.7688
         TRA.     0.9512D+27                  1142.6424     4.9680    39.1689
         TOT.                       38.710    3135.9397    23.4172    75.9376

 240.00  VIB.     0.4968D+01                  1467.8686    16.5654     9.3016
         ROT.     0.3373D+06                   715.3935     2.9808    28.2755
         INT.     0.1676D+07                  2183.2621    19.5462    37.5771
         TRA.     0.1014D+28                  1192.3226     4.9680    39.3803
         TOT.                       38.949    3375.5847    24.5142    76.9574

 250.00  VIB.     0.5658D+01                  1639.0630    17.6754    10.0003
         ROT.     0.3586D+06                   745.2016     2.9808    28.3971
         INT.     0.2029D+07                  2384.2646    20.6562    38.3975
         TRA.     0.1078D+28                  1242.0027     4.9680    39.5831
         TOT.                       39.200    3626.2673    25.6242    77.9806

 260.00  VIB.     0.6468D+01                  1821.4092    18.7952    10.7154
         ROT.     0.3803D+06                   775.0097     2.9808    28.5141
         INT.     0.2460D+07                  2596.4188    21.7760    39.2294
         TRA.     0.1143D+28                  1291.6828     4.9680    39.7779
         TOT.                       39.462    3888.1016    26.7440    79.0074

 270.00  VIB.     0.7421D+01                  2014.9896    19.9218    11.4458
         ROT.     0.4025D+06                   804.8177     2.9808    28.6266
         INT.     0.2987D+07                  2819.8074    22.9026    40.0724
         TRA.     0.1210D+28                  1341.3629     4.9680    39.9654
         TOT.                       39.735    4161.1702    27.8706    80.0378

 280.00  VIB.     0.8543D+01                  2219.8569    21.0521    12.1907
         ROT.     0.4251D+06                   834.6258     2.9808    28.7350
         INT.     0.3631D+07                  3054.4827    24.0329    40.9257
         TRA.     0.1278D+28                  1391.0430     4.9680    40.1461
         TOT.                       40.019    4445.5257    29.0009    81.0718

 290.00  VIB.     0.9867D+01                  2436.0346    22.1834    12.9492
         ROT.     0.4480D+06                   864.4339     2.9808    28.8396
         INT.     0.4421D+07                  3300.4685    25.1642    41.7888
         TRA.     0.1347D+28                  1440.7231     4.9680    40.3205
         TOT.                       40.315    4741.1916    30.1322    82.1092

 300.00  VIB.     0.1143D+02                  2663.5196    23.3131    13.7203
         ROT.     0.4714D+06                   894.2419     2.9808    28.9406
         INT.     0.5390D+07                  3557.7615    26.2939    42.6609
         TRA.     0.1417D+28                  1490.4032     4.9680    40.4889
         TOT.                       40.622    5048.1647    31.2619    83.1498

 310.00  VIB.     0.1329D+02                  2902.2836    24.4388    14.5031
         ROT.     0.4952D+06                   924.0500     2.9808    29.0383
         INT.     0.6581D+07                  3826.3336    27.4196    43.5415
         TRA.     0.1488D+28                  1540.0833     4.9680    40.6518
         TOT.                       40.940    5366.4169    32.3877    84.1933

 320.00  VIB.     0.1549D+02                  3152.2757    25.5584    15.2967
         ROT.     0.5193D+06                   953.8580     2.9808    29.1330
         INT.     0.8047D+07                  4106.1337    28.5392    44.4297
         TRA.     0.1561D+28                  1589.7634     4.9680    40.8095
         TOT.                       41.269    5695.8971    33.5072    85.2392

 330.00  VIB.     0.1812D+02                  3413.4243    26.6698    16.1002
         ROT.     0.5439D+06                   983.6661     2.9808    29.2247
         INT.     0.9853D+07                  4397.0904    29.6506    45.3250
         TRA.     0.1635D+28                  1639.4435     4.9680    40.9624
         TOT.                       41.610    6036.5339    34.6186    86.2873

 340.00  VIB.     0.2124D+02                  3685.6392    27.7714    16.9128
         ROT.     0.5688D+06                  1013.4742     2.9808    29.3137
         INT.     0.1208D+08                  4699.1134    30.7522    46.2265
         TRA.     0.1710D+28                  1689.1236     4.9680    41.1107
         TOT.                       41.962    6388.2370    35.7202    87.3372

 350.00  VIB.     0.2497D+02                  3968.8140    28.8615    17.7336
         ROT.     0.5940D+06                  1043.2822     2.9808    29.4001
         INT.     0.1483D+08                  5012.0963    31.8424    47.1337
         TRA.     0.1786D+28                  1738.8037     4.9680    41.2547
         TOT.                       42.324    6750.9000    36.8104    88.3884

 360.00  VIB.     0.2943D+02                  4262.8277    29.9390    18.5618
         ROT.     0.6197D+06                  1073.0903     2.9808    29.4841
         INT.     0.1824D+08                  5335.9180    32.9198    48.0458
         TRA.     0.1863D+28                  1788.4838     4.9680    41.3947
         TOT.                       42.698    7124.4019    37.8878    89.4405

 370.00  VIB.     0.3477D+02                  4567.5470    31.0025    19.3966
         ROT.     0.6457D+06                  1102.8984     2.9808    29.5657
         INT.     0.2245D+08                  5670.4454    33.9833    48.9623
         TRA.     0.1941D+28                  1838.1639     4.9680    41.5308
         TOT.                       43.082    7508.6093    38.9513    90.4931

 380.00  VIB.     0.4117D+02                  4882.8279    32.0511    20.2373
         ROT.     0.6720D+06                  1132.7064     2.9808    29.6452
         INT.     0.2767D+08                  6015.5343    35.0319    49.8826
         TRA.     0.2020D+28                  1887.8440     4.9680    41.6633
         TOT.                       43.477    7903.3784    40.0000    91.5458

 390.00  VIB.     0.4886D+02                  5208.5176    33.0841    21.0833
         ROT.     0.6987D+06                  1162.5145     2.9808    29.7227
         INT.     0.3414D+08                  6371.0321    36.0649    50.8059
         TRA.     0.2100D+28                  1937.5242     4.9680    41.7923
         TOT.                       43.882    8308.5562    41.0329    92.5983

 400.00  VIB.     0.5811D+02                  5544.4558    34.1008    21.9337
         ROT.     0.7258D+06                  1192.3226     2.9808    29.7981
         INT.     0.4217D+08                  6736.7783    37.0816    51.7319
         TRA.     0.2182D+28                  1987.2043     4.9680    41.9181
         TOT.                       44.298    8723.9826    42.0496    93.6500

   *: NOTE: HEATS OF FORMATION ARE RELATIVE TO THE
            ELEMENTS IN THEIR STANDARD STATE AT 298K
              (=  Standard Enthalpy of Formation).

            Hvib:  Zero-point energy is not included.
                   frequencies of less than zero cm-1 are not included.
            Hrot = (3/2)RT
            Htra = (3/2)RT + pV = (5/2)RT

            Heat capacity is Cp, not Cv

          For more information, see: HTTP://OpenMOPAC.net/Manual/thermochemistry.html


           FORCE CONSTANT IN CARTESIAN COORDINATES (Millidynes/A)

    ATOM   CHEMICAL       X               Y               Z
   NUMBER   SYMBOL  FORCE CONSTANT  FORCE CONSTANT  FORCE CONSTANT

      1       C       12.558509       12.928034        2.637157
      2       C       12.546063       12.927893        2.637489
      3       C       11.924028       12.528142        2.307608
      4       C       11.924177       12.528021        2.307356
      5       C       11.924197       12.528564        2.307639
      6       C       11.924438       12.528438        2.307505
      7       C       11.522189       12.862456        2.294868
      8       C       11.521600       12.862950        2.295514
      9       C       11.522205       12.863008        2.294960
     10       C       11.521555       12.862394        2.295139
     11       H        1.798919        4.117344        0.350584
     12       H        1.798998        4.117763        0.350482
     13       H        5.131977        0.777799        0.349177
     14       H        5.132050        0.777793        0.349183
     15       H        5.132287        0.777779        0.349147
     16       H        5.132368        0.777769        0.349142
     17       H        1.798977        4.117750        0.350492
     18       H        1.798919        4.117304        0.350577

 **********************
 *                    *
 * JOB ENDED NORMALLY *
 *                    *
 **********************



 TOTAL JOB TIME:             1.52 SECONDS

 == MOPAC DONE ==
