 *******************************************************************************
 **                                                                           **
 **                              MOPAC v23.1.2                                **
 **                                                                           **
 *******************************************************************************
 **          Digital Object Identifier (DOI): 10.5281/zenodo.6511958          **
 **    Visit the DOI location for information on how to cite this program.    **
 *******************************************************************************

                              PM3 CALCULATION RESULTS

 *******************************************************************************
 *  CALCULATION DONE: (MAX THREADS = 1)              Tue Jun  3 16:36:10 2025  *
 *  PM3        - The PM3 Hamiltonian to be used
 *  PRECISE    - TIGHTER CRITERIA TO BE USED
 *  NOSYM      - POINT-GROUP SYMMETRY SET TO C1
 *  THREADS=1  - MULTI-THREADING NOT USED
 *  T=         - A TIME OF 172800.0 SECONDS REQUESTED
 *  DUMP=N     - RESTART FILE WRITTEN EVERY 7200.0 SECONDS REQUESTED
 *******************************************************************************
pm3  precise nosym THREADS=1
 InChI=1S/C12H20/c1-5-6-12-10(3)8-7-9(2)11(12)4/h5-12H,1-4H3

   ATOM   CHEMICAL          X               Y               Z
  NUMBER   SYMBOL      (ANGSTROMS)     (ANGSTROMS)     (ANGSTROMS)

     1       C         -0.39860000  *   1.10810000  *  -0.17790000  *
     2       C          0.21440000  *  -0.28230000  *   0.15120000  *
     3       C         -1.89510000  *   1.15460000  *   0.23160000  *
     4       C         -0.55430000  *  -1.42510000  *  -0.56860000  *
     5       C         -0.23330000  *   1.49490000  *  -1.66250000  *
     6       C         -0.19060000  *  -2.79420000  *   0.02470000  *
     7       C         -2.07410000  *   1.33310000  *   1.74580000  *
     8       C          4.04970000  *   0.30420000  *   0.23780000  *
     9       C         -2.05760000  *  -1.24120000  *  -0.51010000  *
    10       C         -2.65200000  *  -0.07100000  *  -0.22480000  *
    11       C          1.69530000  *  -0.32180000  *  -0.17220000  *
    12       C          2.58970000  *   0.35200000  *   0.56490000  *
    13       H          0.14740000  *   1.88050000  *   0.40900000  *
    14       H         -0.26990000  *  -1.43670000  *  -1.64370000  *
    15       H         -2.36900000  *   2.04000000  *  -0.24750000  *
    16       H          0.11870000  *  -0.44960000  *   1.24690000  *
    17       H         -3.14980000  *   1.47770000  *   1.98440000  *
    18       H         -0.70900000  *  -3.60420000  *  -0.53210000  *
    19       H          0.90170000  *  -2.97730000  *  -0.05180000  *
    20       H         -0.48890000  *  -2.84860000  *   1.09400000  *
    21       H         -1.52320000  *   2.23120000  *   2.09730000  *
    22       H         -1.71190000  *   0.44500000  *   2.30430000  *
    23       H         -0.60910000  *   2.52690000  *  -1.82840000  *
    24       H          0.83620000  *   1.48000000  *  -1.95860000  *
    25       H         -0.80020000  *   0.80810000  *  -2.32490000  *
    26       H          4.61660000  *   0.92430000  *   0.96320000  *
    27       H          4.22140000  *   0.70080000  *  -0.78520000  *
    28       H          4.41680000  *  -0.74230000  *   0.29550000  *
    29       H         -2.68890000  *  -2.06970000  *  -0.81960000  *
    30       H         -3.73700000  *  -0.02240000  *  -0.24560000  *
    31       H          2.26170000  *   0.94370000  *   1.41510000  *
    32       H          2.04310000  *  -0.91860000  *  -1.01220000  *



          CARTESIAN COORDINATES 

    NO.       ATOM           X           Y           Z

     1         C         -0.3986      1.1081     -0.1779
     2         C          0.2144     -0.2823      0.1512
     3         C         -1.8951      1.1546      0.2316
     4         C         -0.5543     -1.4251     -0.5686
     5         C         -0.2333      1.4949     -1.6625
     6         C         -0.1906     -2.7942      0.0247
     7         C         -2.0741      1.3331      1.7458
     8         C          4.0497      0.3042      0.2378
     9         C         -2.0576     -1.2412     -0.5101
    10         C         -2.6520     -0.0710     -0.2248
    11         C          1.6953     -0.3218     -0.1722
    12         C          2.5897      0.3520      0.5649
    13         H          0.1474      1.8805      0.4090
    14         H         -0.2699     -1.4367     -1.6437
    15         H         -2.3690      2.0400     -0.2475
    16         H          0.1187     -0.4496      1.2469
    17         H         -3.1498      1.4777      1.9844
    18         H         -0.7090     -3.6042     -0.5321
    19         H          0.9017     -2.9773     -0.0518
    20         H         -0.4889     -2.8486      1.0940
    21         H         -1.5232      2.2312      2.0973
    22         H         -1.7119      0.4450      2.3043
    23         H         -0.6091      2.5269     -1.8284
    24         H          0.8362      1.4800     -1.9586
    25         H         -0.8002      0.8081     -2.3249
    26         H          4.6166      0.9243      0.9632
    27         H          4.2214      0.7008     -0.7852
    28         H          4.4168     -0.7423      0.2955
    29         H         -2.6889     -2.0697     -0.8196
    30         H         -3.7370     -0.0224     -0.2456
    31         H          2.2617      0.9437      1.4151
    32         H          2.0431     -0.9186     -1.0122

  H: (PM3): J. J. P. STEWART, J. COMP. CHEM. 10, 209 (1989).
  C: (PM3): J. J. P. STEWART, J. COMP. CHEM. 10, 209 (1989).

           Empirical Formula: C12 H20  =    32 atoms



      MOLECULAR POINT GROUP   :   C1  


      RHF CALCULATION, NO. OF DOUBLY OCCUPIED LEVELS = 34


          Geometry optimization using EF

          DIAGONAL MATRIX USED AS START HESSIAN

 CYCLE:     1 TIME:   0.012 TIME LEFT:  2.00D  GRAD.:    76.396 HEAT: -3.617302
 CYCLE:     2 TIME:   0.027 TIME LEFT:  2.00D  GRAD.:    55.206 HEAT: -5.380825
 CYCLE:     3 TIME:   0.020 TIME LEFT:  2.00D  GRAD.:    40.189 HEAT: -6.146457
 CYCLE:     4 TIME:   0.008 TIME LEFT:  2.00D  GRAD.:    38.896 HEAT: -6.433010
 CYCLE:     5 TIME:   0.012 TIME LEFT:  2.00D  GRAD.:    49.196 HEAT: -6.444047
 CYCLE:     6 TIME:   0.012 TIME LEFT:  2.00D  GRAD.:    48.626 HEAT: -6.663049
 CYCLE:     7 TIME:   0.016 TIME LEFT:  2.00D  GRAD.:    31.943 HEAT: -7.032303
 CYCLE:     8 TIME:   0.012 TIME LEFT:  2.00D  GRAD.:    24.088 HEAT: -7.143417
 CYCLE:     9 TIME:   0.020 TIME LEFT:  2.00D  GRAD.:     9.945 HEAT: -7.281993
 CYCLE:    10 TIME:   0.016 TIME LEFT:  2.00D  GRAD.:     7.383 HEAT: -7.321208
 CYCLE:    11 TIME:   0.012 TIME LEFT:  2.00D  GRAD.:     7.987 HEAT: -7.365263
 CYCLE:    12 TIME:   0.012 TIME LEFT:  2.00D  GRAD.:    11.379 HEAT: -7.418478
 CYCLE:    13 TIME:   0.016 TIME LEFT:  2.00D  GRAD.:    10.369 HEAT: -7.454492
 CYCLE:    14 TIME:   0.012 TIME LEFT:  2.00D  GRAD.:    10.801 HEAT: -7.471434
 CYCLE:    15 TIME:   0.020 TIME LEFT:  2.00D  GRAD.:     7.939 HEAT: -7.495315
 CYCLE:    16 TIME:   0.012 TIME LEFT:  2.00D  GRAD.:     8.469 HEAT: -7.497368
 CYCLE:    17 TIME:   0.008 TIME LEFT:  2.00D  GRAD.:     6.235 HEAT: -7.515077
 CYCLE:    18 TIME:   0.020 TIME LEFT:  2.00D  GRAD.:     6.179 HEAT: -7.520113
 CYCLE:    19 TIME:   0.012 TIME LEFT:  2.00D  GRAD.:     4.852 HEAT: -7.528073
 CYCLE:    20 TIME:   0.016 TIME LEFT:  2.00D  GRAD.:     3.804 HEAT: -7.534212
 CYCLE:    21 TIME:   0.008 TIME LEFT:  2.00D  GRAD.:     2.707 HEAT: -7.539984
 CYCLE:    22 TIME:   0.012 TIME LEFT:  2.00D  GRAD.:     4.623 HEAT: -7.546927
 CYCLE:    23 TIME:   0.012 TIME LEFT:  2.00D  GRAD.:     6.925 HEAT: -7.548498
 CYCLE:    24 TIME:   0.012 TIME LEFT:  2.00D  GRAD.:     4.286 HEAT: -7.564459
 CYCLE:    25 TIME:   0.016 TIME LEFT:  2.00D  GRAD.:     3.556 HEAT: -7.570281
 CYCLE:    26 TIME:   0.012 TIME LEFT:  2.00D  GRAD.:     2.823 HEAT: -7.577830
 CYCLE:    27 TIME:   0.012 TIME LEFT:  2.00D  GRAD.:     5.311 HEAT: -7.585292
 CYCLE:    28 TIME:   0.008 TIME LEFT:  2.00D  GRAD.:     4.256 HEAT: -7.595505
 CYCLE:    29 TIME:   0.012 TIME LEFT:  2.00D  GRAD.:     4.008 HEAT: -7.603276
 CYCLE:    30 TIME:   0.012 TIME LEFT:  2.00D  GRAD.:     3.113 HEAT: -7.609877
 CYCLE:    31 TIME:   0.012 TIME LEFT:  2.00D  GRAD.:     2.509 HEAT: -7.617193
 CYCLE:    32 TIME:   0.008 TIME LEFT:  2.00D  GRAD.:     4.135 HEAT: -7.626387
 CYCLE:    33 TIME:   0.012 TIME LEFT:  2.00D  GRAD.:     4.622 HEAT: -7.638865
 CYCLE:    34 TIME:   0.016 TIME LEFT:  2.00D  GRAD.:     3.171 HEAT: -7.653590
 CYCLE:    35 TIME:   0.008 TIME LEFT:  2.00D  GRAD.:     3.253 HEAT: -7.668065
 CYCLE:    36 TIME:   0.012 TIME LEFT:  2.00D  GRAD.:     5.162 HEAT: -7.684734
 CYCLE:    37 TIME:   0.012 TIME LEFT:  2.00D  GRAD.:     4.199 HEAT: -7.698383
 CYCLE:    38 TIME:   0.008 TIME LEFT:  2.00D  GRAD.:     3.768 HEAT: -7.710035
 CYCLE:    39 TIME:   0.012 TIME LEFT:  2.00D  GRAD.:     2.802 HEAT: -7.723397
 CYCLE:    40 TIME:   0.012 TIME LEFT:  2.00D  GRAD.:     3.554 HEAT: -7.735117
 CYCLE:    41 TIME:   0.012 TIME LEFT:  2.00D  GRAD.:     4.639 HEAT: -7.744272
 CYCLE:    42 TIME:   0.012 TIME LEFT:  2.00D  GRAD.:     3.201 HEAT: -7.757395
 CYCLE:    43 TIME:   0.012 TIME LEFT:  2.00D  GRAD.:     3.035 HEAT: -7.771218
 CYCLE:    44 TIME:   0.008 TIME LEFT:  2.00D  GRAD.:     3.506 HEAT: -7.784193
 CYCLE:    45 TIME:   0.012 TIME LEFT:  2.00D  GRAD.:     3.695 HEAT: -7.793629
 CYCLE:    46 TIME:   0.012 TIME LEFT:  2.00D  GRAD.:     3.441 HEAT: -7.802438
 CYCLE:    47 TIME:   0.012 TIME LEFT:  2.00D  GRAD.:     2.234 HEAT: -7.810316
 CYCLE:    48 TIME:   0.012 TIME LEFT:  2.00D  GRAD.:     3.032 HEAT: -7.815765
 CYCLE:    49 TIME:   0.016 TIME LEFT:  2.00D  GRAD.:     2.674 HEAT: -7.824010
 CYCLE:    50 TIME:   0.008 TIME LEFT:  2.00D  GRAD.:     2.347 HEAT: -7.835097
 CYCLE:    51 TIME:   0.012 TIME LEFT:  2.00D  GRAD.:     2.235 HEAT: -7.847814
 CYCLE:    52 TIME:   0.012 TIME LEFT:  2.00D  GRAD.:     2.098 HEAT: -7.856042
 CYCLE:    53 TIME:   0.012 TIME LEFT:  2.00D  GRAD.:     1.909 HEAT: -7.864690
 CYCLE:    54 TIME:   0.008 TIME LEFT:  2.00D  GRAD.:     2.672 HEAT: -7.879003
 CYCLE:    55 TIME:   0.016 TIME LEFT:  2.00D  GRAD.:     2.993 HEAT: -7.890864
 CYCLE:    56 TIME:   0.012 TIME LEFT:  2.00D  GRAD.:     2.720 HEAT: -7.907916
 CYCLE:    57 TIME:   0.012 TIME LEFT:  2.00D  GRAD.:     3.332 HEAT: -7.930140
 CYCLE:    58 TIME:   0.008 TIME LEFT:  2.00D  GRAD.:     4.228 HEAT: -7.954967
 CYCLE:    59 TIME:   0.012 TIME LEFT:  2.00D  GRAD.:     5.708 HEAT: -7.985540
 CYCLE:    60 TIME:   0.016 TIME LEFT:  2.00D  GRAD.:     5.471 HEAT: -8.031373
 CYCLE:    61 TIME:   0.008 TIME LEFT:  2.00D  GRAD.:     9.427 HEAT: -8.063170
 CYCLE:    62 TIME:   0.012 TIME LEFT:  2.00D  GRAD.:     5.875 HEAT: -8.119978
 CYCLE:    63 TIME:   0.012 TIME LEFT:  2.00D  GRAD.:     4.817 HEAT: -8.163891
 CYCLE:    64 TIME:   0.012 TIME LEFT:  2.00D  GRAD.:     8.091 HEAT: -8.200145
 CYCLE:    65 TIME:   0.012 TIME LEFT:  2.00D  GRAD.:     3.845 HEAT: -8.229616
 CYCLE:    66 TIME:   0.012 TIME LEFT:  2.00D  GRAD.:     2.954 HEAT: -8.255581
 CYCLE:    67 TIME:   0.012 TIME LEFT:  2.00D  GRAD.:     4.789 HEAT: -8.287404
 CYCLE:    68 TIME:   0.008 TIME LEFT:  2.00D  GRAD.:     2.707 HEAT: -8.307547
 CYCLE:    69 TIME:   0.012 TIME LEFT:  2.00D  GRAD.:     2.638 HEAT: -8.321829
 CYCLE:    70 TIME:   0.012 TIME LEFT:  2.00D  GRAD.:     3.738 HEAT: -8.346530
 CYCLE:    71 TIME:   0.012 TIME LEFT:  2.00D  GRAD.:     3.272 HEAT: -8.363768
 CYCLE:    72 TIME:   0.012 TIME LEFT:  2.00D  GRAD.:     3.048 HEAT: -8.388091
 CYCLE:    73 TIME:   0.008 TIME LEFT:  2.00D  GRAD.:     2.745 HEAT: -8.402344
 CYCLE:    74 TIME:   0.012 TIME LEFT:  2.00D  GRAD.:     2.366 HEAT: -8.413243
 CYCLE:    75 TIME:   0.012 TIME LEFT:  2.00D  GRAD.:     1.943 HEAT: -8.423841
 CYCLE:    76 TIME:   0.012 TIME LEFT:  2.00D  GRAD.:     1.697 HEAT: -8.432305
 CYCLE:    77 TIME:   0.008 TIME LEFT:  2.00D  GRAD.:     1.934 HEAT: -8.440504
 CYCLE:    78 TIME:   0.012 TIME LEFT:  2.00D  GRAD.:     1.931 HEAT: -8.448279
 CYCLE:    79 TIME:   0.012 TIME LEFT:  2.00D  GRAD.:     1.943 HEAT: -8.455642
 CYCLE:    80 TIME:   0.012 TIME LEFT:  2.00D  GRAD.:     1.643 HEAT: -8.461639
 CYCLE:    81 TIME:   0.008 TIME LEFT:  2.00D  GRAD.:     1.791 HEAT: -8.466055
 CYCLE:    82 TIME:   0.012 TIME LEFT:  2.00D  GRAD.:     1.731 HEAT: -8.469522
 CYCLE:    83 TIME:   0.012 TIME LEFT:  2.00D  GRAD.:     1.459 HEAT: -8.472591
 CYCLE:    84 TIME:   0.012 TIME LEFT:  2.00D  GRAD.:     0.968 HEAT: -8.475372
 CYCLE:    85 TIME:   0.012 TIME LEFT:  2.00D  GRAD.:     1.080 HEAT: -8.477565
 CYCLE:    86 TIME:   0.012 TIME LEFT:  2.00D  GRAD.:     1.037 HEAT: -8.479613
 CYCLE:    87 TIME:   0.012 TIME LEFT:  2.00D  GRAD.:     1.030 HEAT: -8.481488
 CYCLE:    88 TIME:   0.008 TIME LEFT:  2.00D  GRAD.:     0.997 HEAT: -8.483576
 CYCLE:    89 TIME:   0.012 TIME LEFT:  2.00D  GRAD.:     1.204 HEAT: -8.485876
 CYCLE:    90 TIME:   0.012 TIME LEFT:  2.00D  GRAD.:     1.507 HEAT: -8.488949
 CYCLE:    91 TIME:   0.012 TIME LEFT:  2.00D  GRAD.:     1.973 HEAT: -8.494565
 CYCLE:    92 TIME:   0.012 TIME LEFT:  2.00D  GRAD.:     1.664 HEAT: -8.498411
 CYCLE:    93 TIME:   0.012 TIME LEFT:  2.00D  GRAD.:     1.605 HEAT: -8.503399
 CYCLE:    94 TIME:   0.012 TIME LEFT:  2.00D  GRAD.:     1.080 HEAT: -8.505419
 CYCLE:    95 TIME:   0.012 TIME LEFT:  2.00D  GRAD.:     0.771 HEAT: -8.507472
 CYCLE:    96 TIME:   0.012 TIME LEFT:  2.00D  GRAD.:     0.887 HEAT: -8.510045
 CYCLE:    97 TIME:   0.012 TIME LEFT:  2.00D  GRAD.:     0.817 HEAT: -8.511846
 CYCLE:    98 TIME:   0.012 TIME LEFT:  2.00D  GRAD.:     0.870 HEAT: -8.513365
 CYCLE:    99 TIME:   0.008 TIME LEFT:  2.00D  GRAD.:     0.569 HEAT: -8.514338
 CYCLE:   100 TIME:   0.012 TIME LEFT:  2.00D  GRAD.:     0.453 HEAT: -8.514984
 CYCLE:   101 TIME:   0.012 TIME LEFT:  2.00D  GRAD.:     0.340 HEAT: -8.515257
 CYCLE:   102 TIME:   0.012 TIME LEFT:  2.00D  GRAD.:     0.425 HEAT: -8.515452
 CYCLE:   103 TIME:   0.012 TIME LEFT:  2.00D  GRAD.:     0.378 HEAT: -8.515660
 CYCLE:   104 TIME:   0.012 TIME LEFT:  2.00D  GRAD.:     0.402 HEAT: -8.515950
 CYCLE:   105 TIME:   0.012 TIME LEFT:  2.00D  GRAD.:     0.396 HEAT: -8.516282
 CYCLE:   106 TIME:   0.008 TIME LEFT:  2.00D  GRAD.:     0.318 HEAT: -8.516488
 CYCLE:   107 TIME:   0.012 TIME LEFT:  2.00D  GRAD.:     0.411 HEAT: -8.516880
 CYCLE:   108 TIME:   0.012 TIME LEFT:  2.00D  GRAD.:     0.290 HEAT: -8.517087
 CYCLE:   109 TIME:   0.012 TIME LEFT:  2.00D  GRAD.:     0.239 HEAT: -8.517304
 CYCLE:   110 TIME:   0.012 TIME LEFT:  2.00D  GRAD.:     0.225 HEAT: -8.517434
 CYCLE:   111 TIME:   0.008 TIME LEFT:  2.00D  GRAD.:     0.226 HEAT: -8.517586
 CYCLE:   112 TIME:   0.012 TIME LEFT:  2.00D  GRAD.:     0.269 HEAT: -8.517784
 CYCLE:   113 TIME:   0.012 TIME LEFT:  2.00D  GRAD.:     0.312 HEAT: -8.517981
 CYCLE:   114 TIME:   0.012 TIME LEFT:  2.00D  GRAD.:     0.345 HEAT: -8.518200
 CYCLE:   115 TIME:   0.008 TIME LEFT:  2.00D  GRAD.:     0.381 HEAT: -8.518494
 CYCLE:   116 TIME:   0.012 TIME LEFT:  2.00D  GRAD.:     0.346 HEAT: -8.518698
 CYCLE:   117 TIME:   0.012 TIME LEFT:  2.00D  GRAD.:     0.354 HEAT: -8.519136
 CYCLE:   118 TIME:   0.012 TIME LEFT:  2.00D  GRAD.:     0.320 HEAT: -8.519355
 CYCLE:   119 TIME:   0.012 TIME LEFT:  2.00D  GRAD.:     0.351 HEAT: -8.519814
 CYCLE:   120 TIME:   0.012 TIME LEFT:  2.00D  GRAD.:     0.258 HEAT: -8.520014
 CYCLE:   121 TIME:   0.012 TIME LEFT:  2.00D  GRAD.:     0.219 HEAT: -8.520244
 CYCLE:   122 TIME:   0.008 TIME LEFT:  2.00D  GRAD.:     0.189 HEAT: -8.520517
 CYCLE:   123 TIME:   0.012 TIME LEFT:  2.00D  GRAD.:     0.198 HEAT: -8.520654
 CYCLE:   124 TIME:   0.012 TIME LEFT:  2.00D  GRAD.:     0.194 HEAT: -8.520820
 CYCLE:   125 TIME:   0.012 TIME LEFT:  2.00D  GRAD.:     0.149 HEAT: -8.520876
 CYCLE:   126 TIME:   0.008 TIME LEFT:  2.00D  GRAD.:     0.763 HEAT: -8.520091
 CYCLE:   127 TIME:   0.012 TIME LEFT:  2.00D  GRAD.:     0.163 HEAT: -8.521026
 CYCLE:   128 TIME:   0.012 TIME LEFT:  2.00D  GRAD.:     0.145 HEAT: -8.521063
 CYCLE:   129 TIME:   0.012 TIME LEFT:  2.00D  GRAD.:     0.180 HEAT: -8.521171
 CYCLE:   130 TIME:   0.012 TIME LEFT:  2.00D  GRAD.:     0.211 HEAT: -8.521252
 CYCLE:   131 TIME:   0.012 TIME LEFT:  2.00D  GRAD.:     0.202 HEAT: -8.521361
 CYCLE:   132 TIME:   0.008 TIME LEFT:  2.00D  GRAD.:     0.231 HEAT: -8.521484
 CYCLE:   133 TIME:   0.012 TIME LEFT:  2.00D  GRAD.:     0.201 HEAT: -8.521581
 CYCLE:   134 TIME:   0.012 TIME LEFT:  2.00D  GRAD.:     0.174 HEAT: -8.521747
 CYCLE:   135 TIME:   0.012 TIME LEFT:  2.00D  GRAD.:     0.271 HEAT: -8.521979
 CYCLE:   136 TIME:   0.012 TIME LEFT:  2.00D  GRAD.:     0.337 HEAT: -8.522173
 CYCLE:   137 TIME:   0.012 TIME LEFT:  2.00D  GRAD.:     0.337 HEAT: -8.522495
 CYCLE:   138 TIME:   0.012 TIME LEFT:  2.00D  GRAD.:     0.350 HEAT: -8.522755
 CYCLE:   139 TIME:   0.012 TIME LEFT:  2.00D  GRAD.:     0.408 HEAT: -8.523119
 CYCLE:   140 TIME:   0.012 TIME LEFT:  2.00D  GRAD.:     0.438 HEAT: -8.523562
 CYCLE:   141 TIME:   0.008 TIME LEFT:  2.00D  GRAD.:     0.410 HEAT: -8.524126
 CYCLE:   142 TIME:   0.016 TIME LEFT:  2.00D  GRAD.:     0.298 HEAT: -8.524333
 CYCLE:   143 TIME:   0.008 TIME LEFT:  2.00D  GRAD.:     0.508 HEAT: -8.524386
 CYCLE:   144 TIME:   0.012 TIME LEFT:  2.00D  GRAD.:     0.307 HEAT: -8.524625
 CYCLE:   145 TIME:   0.012 TIME LEFT:  2.00D  GRAD.:     0.169 HEAT: -8.524720
 CYCLE:   146 TIME:   0.012 TIME LEFT:  2.00D  GRAD.:     0.153 HEAT: -8.524857
 CYCLE:   147 TIME:   0.012 TIME LEFT:  2.00D  GRAD.:     0.338 HEAT: -8.525086
 CYCLE:   148 TIME:   0.012 TIME LEFT:  2.00D  GRAD.:     0.244 HEAT: -8.525221
 CYCLE:   149 TIME:   0.020 TIME LEFT:  2.00D  GRAD.:     0.119 HEAT: -8.525366
 CYCLE:   150 TIME:   0.012 TIME LEFT:  2.00D  GRAD.:     0.133 HEAT: -8.525415
 CYCLE:   151 TIME:   0.016 TIME LEFT:  2.00D  GRAD.:     0.169 HEAT: -8.525460
 CYCLE:   152 TIME:   0.012 TIME LEFT:  2.00D  GRAD.:     0.169 HEAT: -8.525505
 CYCLE:   153 TIME:   0.012 TIME LEFT:  2.00D  GRAD.:     0.178 HEAT: -8.525603
 CYCLE:   154 TIME:   0.008 TIME LEFT:  2.00D  GRAD.:     0.170 HEAT: -8.525670
 CYCLE:   155 TIME:   0.012 TIME LEFT:  2.00D  GRAD.:     0.188 HEAT: -8.525752
 CYCLE:   156 TIME:   0.016 TIME LEFT:  2.00D  GRAD.:     0.140 HEAT: -8.525828
 CYCLE:   157 TIME:   0.012 TIME LEFT:  2.00D  GRAD.:     0.140 HEAT: -8.525998
 CYCLE:   158 TIME:   0.008 TIME LEFT:  2.00D  GRAD.:     0.203 HEAT: -8.526112
 CYCLE:   159 TIME:   0.016 TIME LEFT:  2.00D  GRAD.:     0.193 HEAT: -8.526181
 CYCLE:   160 TIME:   0.008 TIME LEFT:  2.00D  GRAD.:     0.163 HEAT: -8.526277
 CYCLE:   161 TIME:   0.016 TIME LEFT:  2.00D  GRAD.:     0.136 HEAT: -8.526347
 CYCLE:   162 TIME:   0.008 TIME LEFT:  2.00D  GRAD.:     0.182 HEAT: -8.526390
 CYCLE:   163 TIME:   0.016 TIME LEFT:  2.00D  GRAD.:     0.098 HEAT: -8.526455
 CYCLE:   164 TIME:   0.008 TIME LEFT:  2.00D  GRAD.:     0.130 HEAT: -8.526488
 CYCLE:   165 TIME:   0.012 TIME LEFT:  2.00D  GRAD.:     0.170 HEAT: -8.526508
 CYCLE:   166 TIME:   0.012 TIME LEFT:  2.00D  GRAD.:     0.138 HEAT: -8.526561
 CYCLE:   167 TIME:   0.012 TIME LEFT:  2.00D  GRAD.:     0.149 HEAT: -8.526665
 CYCLE:   168 TIME:   0.012 TIME LEFT:  2.00D  GRAD.:     0.122 HEAT: -8.526737
 CYCLE:   169 TIME:   0.012 TIME LEFT:  2.00D  GRAD.:     0.153 HEAT: -8.526841
 CYCLE:   170 TIME:   0.012 TIME LEFT:  2.00D  GRAD.:     0.110 HEAT: -8.526909
 CYCLE:   171 TIME:   0.012 TIME LEFT:  2.00D  GRAD.:     0.054 HEAT: -8.526942
 CYCLE:   172 TIME:   0.012 TIME LEFT:  2.00D  GRAD.:     0.092 HEAT: -8.526971
 CYCLE:   173 TIME:   0.016 TIME LEFT:  2.00D  GRAD.:     0.055 HEAT: -8.526990
 CYCLE:   174 TIME:   0.012 TIME LEFT:  2.00D  GRAD.:     0.108 HEAT: -8.526972
 CYCLE:   175 TIME:   0.008 TIME LEFT:  2.00D  GRAD.:     0.026 HEAT: -8.526999

     GRADIENT =  0.02626 IS LESS THAN CUTOFF =  0.05000



 -------------------------------------------------------------------------------
 pm3  precise nosym THREADS=1
 InChI=1S/C12H20/c1-5-6-12-10(3)8-7-9(2)11(12)4/h5-12H,1-4H3



     GEOMETRY OPTIMISED USING EIGENVECTOR FOLLOWING (EF).     
     SCF FIELD WAS ACHIEVED                                   


                              PM3 CALCULATION
                                                       MOPAC v23.1.2 MacOS
                                                       Tue Jun  3 16:36:12 2025




          FINAL HEAT OF FORMATION =         -8.52700 KCAL/MOL =     -35.67696 KJ/MOL


          COSMO AREA              =        223.69 SQUARE ANGSTROMS
          COSMO VOLUME            =        246.20 CUBIC ANGSTROMS

          GRADIENT NORM           =          0.02626          =       0.00464 PER ATOM
          IONIZATION POTENTIAL    =          9.680685 EV
          HOMO LUMO ENERGIES (EV) =         -9.681  1.077
          NO. OF FILLED LEVELS    =         34
          MOLECULAR WEIGHT        =        164.2900         POINT GROUP:  C1  

          MOLECULAR DIMENSIONS (Angstroms)

            Atom       Atom       Distance
            H    30    H    28     8.37713
            H    18    H    21     6.52523
            H    23    H    20     4.73301


          SCF CALCULATIONS        =        187

          WALL-CLOCK TIME         =      2.062 SECONDS
          COMPUTATION TIME        =      1.542 SECONDS




   ATOM   CHEMICAL          X               Y               Z
  NUMBER   SYMBOL      (ANGSTROMS)     (ANGSTROMS)     (ANGSTROMS)

     1       C         -0.45011190  *   1.13149955  *  -0.21544848  *
     2       C          0.19273330  *  -0.22902152  *   0.10977656  *
     3       C         -1.92702975  *   1.14363987  *   0.21817050  *
     4       C         -0.53101961  *  -1.37940241  *  -0.60823472  *
     5       C         -0.32580781  *   1.51104537  *  -1.68335114  *
     6       C         -0.05863607  *  -2.72603961  *  -0.08024518  *
     7       C         -2.06681984  *   1.44795820  *   1.70383653  *
     8       C          4.03066484  *   0.16147512  *   0.33585248  *
     9       C         -2.01241595  *  -1.25996769  *  -0.45856711  *
    10       C         -2.63035698  *  -0.13682901  *  -0.09500347  *
    11       C          1.65100395  *  -0.21390506  *  -0.22957645  *
    12       C          2.58679474  *   0.13074935  *   0.65683369  *
    13       H          0.09767237  *   1.90525556  *   0.37943064  *
    14       H         -0.30848552  *  -1.32463135  *  -1.70459490  *
    15       H         -2.44821691  *   1.95358804  *  -0.35229455  *
    16       H          0.07892453  *  -0.39276459  *   1.21331636  *
    17       H         -3.12030255  *   1.44087891  *   2.01259273  *
    18       H         -0.52836143  *  -3.55636172  *  -0.62339632  *
    19       H          1.02931174  *  -2.82959602  *  -0.18868976  *
    20       H         -0.29752798  *  -2.85189932  *   0.98405495  *
    21       H         -1.65687756  *   2.43645482  *   1.94954563  *
    22       H         -1.53897740  *   0.70955659  *   2.32289328  *
    23       H         -0.68600938  *   2.53346816  *  -1.86020069  *
    24       H          0.71894543  *   1.46800616  *  -2.01929844  *
    25       H         -0.90855995  *   0.84293731  *  -2.33203239  *
    26       H          4.43714727  *   1.17042266  *   0.48815275  *
    27       H          4.24582877  *  -0.12941749  *  -0.70103612  *
    28       H          4.58570463  *  -0.52099298  *   0.99354573  *
    29       H         -2.58840098  *  -2.16682578  *  -0.67909442  *
    30       H         -3.72234698  *  -0.11012900  *   0.00171144  *
    31       H          2.31582044  *   0.41276207  *   1.68224548  *
    32       H          1.92051199  *  -0.49801196  *  -1.25557490  *

                             CARTESIAN COORDINATES

   1    C       -0.450111897     1.131499554    -0.215448478
   2    C        0.192733298    -0.229021523     0.109776558
   3    C       -1.927029749     1.143639872     0.218170504
   4    C       -0.531019610    -1.379402407    -0.608234720
   5    C       -0.325807807     1.511045375    -1.683351140
   6    C       -0.058636074    -2.726039605    -0.080245176
   7    C       -2.066819843     1.447958199     1.703836532
   8    C        4.030664840     0.161475122     0.335852480
   9    C       -2.012415955    -1.259967686    -0.458567112
  10    C       -2.630356984    -0.136829007    -0.095003467
  11    C        1.651003949    -0.213905059    -0.229576451
  12    C        2.586794742     0.130749354     0.656833686
  13    H        0.097672371     1.905255556     0.379430641
  14    H       -0.308485523    -1.324631345    -1.704594901
  15    H       -2.448216911     1.953588037    -0.352294551
  16    H        0.078924528    -0.392764591     1.213316357
  17    H       -3.120302546     1.440878907     2.012592726
  18    H       -0.528361431    -3.556361718    -0.623396318
  19    H        1.029311743    -2.829596017    -0.188689760
  20    H       -0.297527983    -2.851899323     0.984054946
  21    H       -1.656877562     2.436454825     1.949545630
  22    H       -1.538977401     0.709556589     2.322893280
  23    H       -0.686009379     2.533468156    -1.860200695
  24    H        0.718945430     1.468006161    -2.019298445
  25    H       -0.908559948     0.842937307    -2.332032394
  26    H        4.437147272     1.170422656     0.488152755
  27    H        4.245828769    -0.129417489    -0.701036117
  28    H        4.585704634    -0.520992985     0.993545727
  29    H       -2.588400981    -2.166825777    -0.679094415
  30    H       -3.722346980    -0.110129000     0.001711444
  31    H        2.315820437     0.412762070     1.682245480
  32    H        1.920511987    -0.498011959    -1.255574904


           Empirical Formula: C12 H20  =    32 atoms



      MOLECULAR POINT GROUP   :   C1  


                  EIGENVALUES  
 -42.55277 -35.82983 -34.30504 -31.68650 -28.92591 -27.48985 -24.29505 -23.26568
 -21.12856 -20.66784 -19.20689 -17.15849 -17.05810 -16.13109 -15.65618 -15.16047
 -15.12588 -14.83033 -14.36010 -14.18660 -13.76670 -13.57472 -13.20197 -13.04255
 -12.93700 -12.64941 -12.45200 -12.34741 -12.19506 -11.66969 -11.36911 -11.19148
  -9.77513  -9.68068   1.07662   1.18125   3.23263   3.41980   3.47439   3.59604
   3.71690   3.71999   3.79999   3.88487   3.95471   4.02579   4.06705   4.17306
   4.23217   4.29876   4.34289   4.40419   4.45766   4.51818   4.55281   4.57106
   4.67501   4.69000   4.81300   4.89644   4.96323   5.08855   5.17774   5.23134
   5.67320   5.85869   5.97051   6.05727


              NET ATOMIC CHARGES AND DIPOLE CONTRIBUTIONS

  ATOM NO.   TYPE          CHARGE      No. of ELECS.   s-Pop       p-Pop       
    1          C          -0.066031        4.0660     1.18032     2.88571
    2          C          -0.042408        4.0424     1.17032     2.87209
    3          C          -0.040262        4.0403     1.16624     2.87402
    4          C          -0.037905        4.0379     1.16398     2.87392
    5          C          -0.118050        4.1181     1.14266     2.97539
    6          C          -0.109737        4.1097     1.14169     2.96805
    7          C          -0.108305        4.1083     1.14170     2.96661
    8          C          -0.073609        4.0736     1.12507     2.94854
    9          C          -0.142442        4.1424     1.19675     2.94569
   10          C          -0.145882        4.1459     1.19571     2.95017
   11          C          -0.148652        4.1487     1.19864     2.95002
   12          C          -0.148795        4.1488     1.19375     2.95504
   13          H           0.065503        0.9345     0.93450
   14          H           0.071943        0.9281     0.92806
   15          H           0.067673        0.9323     0.93233
   16          H           0.073386        0.9266     0.92661
   17          H           0.039902        0.9601     0.96010
   18          H           0.038266        0.9617     0.96173
   19          H           0.044026        0.9560     0.95597
   20          H           0.041958        0.9580     0.95804
   21          H           0.038530        0.9615     0.96147
   22          H           0.043223        0.9568     0.95678
   23          H           0.038854        0.9611     0.96115
   24          H           0.044227        0.9558     0.95577
   25          H           0.045364        0.9546     0.95464
   26          H           0.043666        0.9563     0.95633
   27          H           0.040647        0.9594     0.95935
   28          H           0.043743        0.9563     0.95626
   29          H           0.099374        0.9006     0.90063
   30          H           0.097204        0.9028     0.90280
   31          H           0.098998        0.9010     0.90100
   32          H           0.105592        0.8944     0.89441
 DIPOLE           X         Y         Z       TOTAL
 POINT-CHG.     0.275     0.128     0.027     0.305
 HYBRID        -0.041    -0.028     0.016     0.052
 SUM            0.234     0.100     0.043     0.258


          ATOMIC ORBITAL ELECTRON POPULATIONS

     Atom    s        px        py        pz   
    1  C   1.18032   0.95107   0.96585   0.96879
    2  C   1.17032   0.92255   0.94540   1.00413
    3  C   1.16624   0.95074   0.96174   0.96154
    4  C   1.16398   0.93051   0.94698   0.99644
    5  C   1.14266   1.01400   1.00453   0.95687
    6  C   1.14169   1.00671   0.95588   1.00546
    7  C   1.14170   1.01027   1.00518   0.95115
    8  C   1.12507   0.93892   1.00452   1.00510
    9  C   1.19675   0.96212   0.97507   1.00850
   10  C   1.19571   0.98479   0.95451   1.01086
   11  C   1.19864   0.95026   1.00972   0.99004
   12  C   1.19375   0.95640   1.00831   0.99033
   13  H   0.93450
   14  H   0.92806
   15  H   0.93233
   16  H   0.92661
   17  H   0.96010
   18  H   0.96173
   19  H   0.95597
   20  H   0.95804
   21  H   0.96147
   22  H   0.95678
   23  H   0.96115
   24  H   0.95577
   25  H   0.95464
   26  H   0.95633
   27  H   0.95935
   28  H   0.95626
   29  H   0.90063
   30  H   0.90280
   31  H   0.90100
   32  H   0.89441
 *******************************************************************************
 **                                                                           **
 **                              MOPAC v23.1.2                                **
 **                                                                           **
 *******************************************************************************
 **          Digital Object Identifier (DOI): 10.5281/zenodo.6511958          **
 **    Visit the DOI location for information on how to cite this program.    **
 *******************************************************************************

                              PM3 CALCULATION RESULTS

 *******************************************************************************
 *  CALCULATION DONE: (MAX THREADS = 1)              Tue Jun  3 16:36:12 2025  *
 *  PM3        - The PM3 Hamiltonian to be used
 *  OLDGEO     - PREVIOUS GEOMETRY TO BE USED
 *  PRECISE    - TIGHTER CRITERIA TO BE USED
 *  NOSYM      - POINT-GROUP SYMMETRY SET TO C1
 *  THREADS=1  - MULTI-THREADING NOT USED
 *  T=         - A TIME OF 172800.0 SECONDS REQUESTED
 *  DUMP=N     - RESTART FILE WRITTEN EVERY 7200.0 SECONDS REQUESTED
 *  THERMO     - THERMODYNAMIC QUANTITIES TO BE CALCULATED
 *******************************************************************************
oldgeo thermo nosym precise THREADS=1  pm3
 InChI=1S/C12H20/c1-5-6-12-10(3)8-7-9(2)11(12)4/h5-12H,1-4H3

   ATOM   CHEMICAL          X               Y               Z
  NUMBER   SYMBOL      (ANGSTROMS)     (ANGSTROMS)     (ANGSTROMS)

     1       C         -0.45011190  *   1.13149955  *  -0.21544848  *
     2       C          0.19273330  *  -0.22902152  *   0.10977656  *
     3       C         -1.92702975  *   1.14363987  *   0.21817050  *
     4       C         -0.53101961  *  -1.37940241  *  -0.60823472  *
     5       C         -0.32580781  *   1.51104537  *  -1.68335114  *
     6       C         -0.05863607  *  -2.72603961  *  -0.08024518  *
     7       C         -2.06681984  *   1.44795820  *   1.70383653  *
     8       C          4.03066484  *   0.16147512  *   0.33585248  *
     9       C         -2.01241595  *  -1.25996769  *  -0.45856711  *
    10       C         -2.63035698  *  -0.13682901  *  -0.09500347  *
    11       C          1.65100395  *  -0.21390506  *  -0.22957645  *
    12       C          2.58679474  *   0.13074935  *   0.65683369  *
    13       H          0.09767237  *   1.90525556  *   0.37943064  *
    14       H         -0.30848552  *  -1.32463135  *  -1.70459490  *
    15       H         -2.44821691  *   1.95358804  *  -0.35229455  *
    16       H          0.07892453  *  -0.39276459  *   1.21331636  *
    17       H         -3.12030255  *   1.44087891  *   2.01259273  *
    18       H         -0.52836143  *  -3.55636172  *  -0.62339632  *
    19       H          1.02931174  *  -2.82959602  *  -0.18868976  *
    20       H         -0.29752798  *  -2.85189932  *   0.98405495  *
    21       H         -1.65687756  *   2.43645482  *   1.94954563  *
    22       H         -1.53897740  *   0.70955659  *   2.32289328  *
    23       H         -0.68600938  *   2.53346816  *  -1.86020069  *
    24       H          0.71894543  *   1.46800616  *  -2.01929844  *
    25       H         -0.90855995  *   0.84293731  *  -2.33203239  *
    26       H          4.43714727  *   1.17042266  *   0.48815275  *
    27       H          4.24582877  *  -0.12941749  *  -0.70103612  *
    28       H          4.58570463  *  -0.52099298  *   0.99354573  *
    29       H         -2.58840098  *  -2.16682578  *  -0.67909442  *
    30       H         -3.72234698  *  -0.11012900  *   0.00171144  *
    31       H          2.31582044  *   0.41276207  *   1.68224548  *
    32       H          1.92051199  *  -0.49801196  *  -1.25557490  *



          CARTESIAN COORDINATES 

    NO.       ATOM           X           Y           Z

     1         C         -0.4501      1.1315     -0.2154
     2         C          0.1927     -0.2290      0.1098
     3         C         -1.9270      1.1436      0.2182
     4         C         -0.5310     -1.3794     -0.6082
     5         C         -0.3258      1.5110     -1.6834
     6         C         -0.0586     -2.7260     -0.0802
     7         C         -2.0668      1.4480      1.7038
     8         C          4.0307      0.1615      0.3359
     9         C         -2.0124     -1.2600     -0.4586
    10         C         -2.6304     -0.1368     -0.0950
    11         C          1.6510     -0.2139     -0.2296
    12         C          2.5868      0.1307      0.6568
    13         H          0.0977      1.9053      0.3794
    14         H         -0.3085     -1.3246     -1.7046
    15         H         -2.4482      1.9536     -0.3523
    16         H          0.0789     -0.3928      1.2133
    17         H         -3.1203      1.4409      2.0126
    18         H         -0.5284     -3.5564     -0.6234
    19         H          1.0293     -2.8296     -0.1887
    20         H         -0.2975     -2.8519      0.9841
    21         H         -1.6569      2.4365      1.9495
    22         H         -1.5390      0.7096      2.3229
    23         H         -0.6860      2.5335     -1.8602
    24         H          0.7189      1.4680     -2.0193
    25         H         -0.9086      0.8429     -2.3320
    26         H          4.4371      1.1704      0.4882
    27         H          4.2458     -0.1294     -0.7010
    28         H          4.5857     -0.5210      0.9935
    29         H         -2.5884     -2.1668     -0.6791
    30         H         -3.7223     -0.1101      0.0017
    31         H          2.3158      0.4128      1.6822
    32         H          1.9205     -0.4980     -1.2556

  H: (PM3): J. J. P. STEWART, J. COMP. CHEM. 10, 209 (1989).
  C: (PM3): J. J. P. STEWART, J. COMP. CHEM. 10, 209 (1989).

           Empirical Formula: C12 H20  =    32 atoms



      MOLECULAR POINT GROUP   :   C1  


      RHF CALCULATION, NO. OF DOUBLY OCCUPIED LEVELS = 34



          HEAT OF FORMATION =      -8.526999 KCALS/MOLE


          CARTESIAN COORDINATE DERIVATIVES

   NUMBER  ATOM         X            Y            Z

     1       C     -0.000925    -0.000800     0.000954
     2       C      0.002423    -0.000569    -0.001071
     3       C     -0.000315    -0.002749    -0.000095
     4       C      0.002139    -0.001328     0.000275
     5       C      0.001025    -0.000016     0.000699
     6       C      0.000688     0.000881    -0.001920
     7       C      0.000559    -0.002987     0.001648
     8       C     -0.002325     0.000369    -0.001204
     9       C     -0.000537    -0.002858    -0.001330
    10       C      0.001002    -0.004865    -0.000335
    11       C     -0.007805     0.000702    -0.002314
    12       C      0.005360     0.000016    -0.000616
    13       H     -0.004572     0.001959     0.001167
    14       H     -0.002241     0.008054     0.003924
    15       H      0.000857     0.001930     0.000988
    16       H      0.002194    -0.000677     0.000628
    17       H      0.001606     0.000080     0.000862
    18       H      0.002754    -0.000042     0.000682
    19       H      0.003543     0.003316     0.000693
    20       H     -0.002289     0.001159     0.000971
    21       H      0.002580    -0.005047    -0.001946
    22       H      0.002960    -0.005315    -0.001863
    23       H     -0.002780     0.004454     0.002784
    24       H     -0.001322    -0.002621    -0.000550
    25       H      0.001495    -0.000322     0.001709
    26       H     -0.003327     0.011718     0.001817
    27       H     -0.001239     0.000034    -0.003607
    28       H      0.002465     0.000860     0.002036
    29       H     -0.003348    -0.001359     0.000767
    30       H      0.001557    -0.001368    -0.001885
    31       H      0.000860     0.000188    -0.007507
    32       H     -0.003042    -0.002798     0.003640



          GRADIENT NORM =   0.02752

          MOLECULAR WEIGHT =  164.29



          ROTATIONAL CONSTANTS IN CM(-1)

          A =    0.04203019   B =    0.02169892   C =    0.01794675



           PRINCIPAL MOMENTS OF INERTIA IN UNITS OF 10**(-40)*GRAM-CM**2

          A =      666.0154   B =     1290.0526   C =     1559.7671


          ORIENTATION OF MOLECULE IN FORCE CALCULATION

    NO.       ATOM         X         Y         Z

     1          C      -1.2100   -0.1417   -0.1301
     2          C       0.3295   -0.1417   -0.1301
     3          C      -1.7458    1.3013   -0.1301
     4          C       0.8922    0.5826    1.1034
     5          C      -1.8036   -0.9272    1.0295
     6          C       2.3911    0.8030    0.9615
     7          C      -1.7593    1.8884   -1.5353
     8          C       1.6348   -3.5138   -1.4933
     9          C       0.1997    1.8876    1.3237
    10          C      -0.9741    2.2029    0.7776
    11          C       0.8534   -1.5415   -0.2194
    12          C       1.1268   -2.1285   -1.3860
    13          H      -1.5394   -0.6394   -1.0769
    14          H       0.7052   -0.0436    2.0130
    15          H      -2.7998    1.2788    0.2464
    16          H       0.6598    0.4277   -1.0380
    17          H      -2.1277    2.9225   -1.5294
    18          H       2.8140    1.2706    1.8602
    19          H       2.9140   -0.1498    0.8037
    20          H       2.6274    1.4540    0.1094
    21          H      -2.4098    1.3094   -2.2040
    22          H      -0.7555    1.9007   -1.9819
    23          H      -2.8949   -1.0084    0.9358
    24          H      -1.4003   -1.9481    1.0676
    25          H      -1.5936   -0.4533    1.9980
    26          H       0.9450   -4.1317   -2.0839
    27          H       1.7626   -4.0006   -0.5172
    28          H       2.6086   -3.5284   -2.0010
    29          H       0.7141    2.5942    1.9863
    30          H      -1.4332    3.1793    0.9733
    31          H       0.9811   -1.5948   -2.3338
    32          H       1.0002   -2.0735    0.7301


    FIRST DERIVATIVES WILL BE USED IN THE CALCULATION OF SECOND DERIVATIVES

          ESTIMATED TIME TO COMPLETE CALCULATION =        6.00 SECONDS

    FOR POINT-GROUP C1   THERE ARE   1 UNIQUE SYMMETRY FUNCTIONS.

 STEP:   1 TIME =     0.04 SECS, INTEGRAL =      0.04 TIME LEFT: 172799.95
 STEP:   2 TIME =     0.04 SECS, INTEGRAL =      0.07 TIME LEFT: 172799.91
 STEP:   3 TIME =     0.04 SECS, INTEGRAL =      0.11 TIME LEFT: 172799.88
 STEP:   4 TIME =     0.04 SECS, INTEGRAL =      0.14 TIME LEFT: 172799.84
 STEP:   5 TIME =     0.04 SECS, INTEGRAL =      0.18 TIME LEFT: 172799.80
 STEP:   6 TIME =     0.04 SECS, INTEGRAL =      0.22 TIME LEFT: 172799.77
 STEP:   7 TIME =     0.04 SECS, INTEGRAL =      0.26 TIME LEFT: 172799.73
 STEP:   8 TIME =     0.04 SECS, INTEGRAL =      0.29 TIME LEFT: 172799.69
 STEP:   9 TIME =     0.04 SECS, INTEGRAL =      0.33 TIME LEFT: 172799.65
 STEP:  10 TIME =     0.04 SECS, INTEGRAL =      0.37 TIME LEFT: 172799.62
 STEP:  11 TIME =     0.04 SECS, INTEGRAL =      0.40 TIME LEFT: 172799.58
 STEP:  12 TIME =     0.04 SECS, INTEGRAL =      0.44 TIME LEFT: 172799.55
 STEP:  13 TIME =     0.04 SECS, INTEGRAL =      0.48 TIME LEFT: 172799.51
 STEP:  14 TIME =     0.04 SECS, INTEGRAL =      0.51 TIME LEFT: 172799.47
 STEP:  15 TIME =     0.04 SECS, INTEGRAL =      0.55 TIME LEFT: 172799.44
 STEP:  16 TIME =     0.04 SECS, INTEGRAL =      0.59 TIME LEFT: 172799.40
 STEP:  17 TIME =     0.04 SECS, INTEGRAL =      0.62 TIME LEFT: 172799.36
 STEP:  18 TIME =     0.04 SECS, INTEGRAL =      0.67 TIME LEFT: 172799.32
 STEP:  19 TIME =     0.04 SECS, INTEGRAL =      0.71 TIME LEFT: 172799.28
 STEP:  20 TIME =     0.04 SECS, INTEGRAL =      0.75 TIME LEFT: 172799.24
 STEP:  21 TIME =     0.04 SECS, INTEGRAL =      0.78 TIME LEFT: 172799.20
 STEP:  22 TIME =     0.04 SECS, INTEGRAL =      0.82 TIME LEFT: 172799.16
 STEP:  23 TIME =     0.04 SECS, INTEGRAL =      0.86 TIME LEFT: 172799.13
 STEP:  24 TIME =     0.04 SECS, INTEGRAL =      0.89 TIME LEFT: 172799.09
 STEP:  25 TIME =     0.04 SECS, INTEGRAL =      0.93 TIME LEFT: 172799.05
 STEP:  26 TIME =     0.04 SECS, INTEGRAL =      0.97 TIME LEFT: 172799.01
 STEP:  27 TIME =     0.04 SECS, INTEGRAL =      1.01 TIME LEFT: 172798.97
 STEP:  28 TIME =     0.04 SECS, INTEGRAL =      1.05 TIME LEFT: 172798.93
 STEP:  29 TIME =     0.04 SECS, INTEGRAL =      1.09 TIME LEFT: 172798.89
 STEP:  30 TIME =     0.04 SECS, INTEGRAL =      1.13 TIME LEFT: 172798.86
 STEP:  31 TIME =     0.04 SECS, INTEGRAL =      1.17 TIME LEFT: 172798.81
 STEP:  32 TIME =     0.04 SECS, INTEGRAL =      1.21 TIME LEFT: 172798.77
 STEP:  33 TIME =     0.04 SECS, INTEGRAL =      1.25 TIME LEFT: 172798.74
 STEP:  34 TIME =     0.04 SECS, INTEGRAL =      1.29 TIME LEFT: 172798.70
 STEP:  35 TIME =     0.04 SECS, INTEGRAL =      1.32 TIME LEFT: 172798.66
 STEP:  36 TIME =     0.04 SECS, INTEGRAL =      1.36 TIME LEFT: 172798.62
 STEP:  37 TIME =     0.04 SECS, INTEGRAL =      1.40 TIME LEFT: 172798.58
 STEP:  38 TIME =     0.04 SECS, INTEGRAL =      1.44 TIME LEFT: 172798.54
 STEP:  39 TIME =     0.04 SECS, INTEGRAL =      1.48 TIME LEFT: 172798.50
 STEP:  40 TIME =     0.04 SECS, INTEGRAL =      1.52 TIME LEFT: 172798.46
 STEP:  41 TIME =     0.04 SECS, INTEGRAL =      1.56 TIME LEFT: 172798.43
 STEP:  42 TIME =     0.04 SECS, INTEGRAL =      1.59 TIME LEFT: 172798.39
 STEP:  43 TIME =     0.04 SECS, INTEGRAL =      1.63 TIME LEFT: 172798.36
 STEP:  44 TIME =     0.04 SECS, INTEGRAL =      1.67 TIME LEFT: 172798.31
 STEP:  45 TIME =     0.04 SECS, INTEGRAL =      1.71 TIME LEFT: 172798.27
 STEP:  46 TIME =     0.04 SECS, INTEGRAL =      1.75 TIME LEFT: 172798.23
 STEP:  47 TIME =     0.04 SECS, INTEGRAL =      1.79 TIME LEFT: 172798.20
 STEP:  48 TIME =     0.04 SECS, INTEGRAL =      1.82 TIME LEFT: 172798.16
 STEP:  49 TIME =     0.04 SECS, INTEGRAL =      1.86 TIME LEFT: 172798.13
 STEP:  50 TIME =     0.04 SECS, INTEGRAL =      1.89 TIME LEFT: 172798.09
 STEP:  51 TIME =     0.04 SECS, INTEGRAL =      1.93 TIME LEFT: 172798.05
 STEP:  52 TIME =     0.04 SECS, INTEGRAL =      1.97 TIME LEFT: 172798.02
 STEP:  53 TIME =     0.04 SECS, INTEGRAL =      2.00 TIME LEFT: 172797.98
 STEP:  54 TIME =     0.04 SECS, INTEGRAL =      2.04 TIME LEFT: 172797.95
 STEP:  55 TIME =     0.04 SECS, INTEGRAL =      2.07 TIME LEFT: 172797.91
 STEP:  56 TIME =     0.04 SECS, INTEGRAL =      2.11 TIME LEFT: 172797.87
 STEP:  57 TIME =     0.04 SECS, INTEGRAL =      2.16 TIME LEFT: 172797.83
 STEP:  58 TIME =     0.04 SECS, INTEGRAL =      2.20 TIME LEFT: 172797.79
 STEP:  59 TIME =     0.04 SECS, INTEGRAL =      2.23 TIME LEFT: 172797.75
 STEP:  60 TIME =     0.04 SECS, INTEGRAL =      2.27 TIME LEFT: 172797.72
 STEP:  61 TIME =     0.04 SECS, INTEGRAL =      2.30 TIME LEFT: 172797.68
 STEP:  62 TIME =     0.04 SECS, INTEGRAL =      2.34 TIME LEFT: 172797.64
 STEP:  63 TIME =     0.04 SECS, INTEGRAL =      2.38 TIME LEFT: 172797.61
 STEP:  64 TIME =     0.04 SECS, INTEGRAL =      2.41 TIME LEFT: 172797.57
 STEP:  65 TIME =     0.04 SECS, INTEGRAL =      2.45 TIME LEFT: 172797.53
 STEP:  66 TIME =     0.04 SECS, INTEGRAL =      2.49 TIME LEFT: 172797.49
 STEP:  67 TIME =     0.04 SECS, INTEGRAL =      2.53 TIME LEFT: 172797.46
 STEP:  68 TIME =     0.04 SECS, INTEGRAL =      2.57 TIME LEFT: 172797.41
 STEP:  69 TIME =     0.04 SECS, INTEGRAL =      2.61 TIME LEFT: 172797.37
 STEP:  70 TIME =     0.04 SECS, INTEGRAL =      2.65 TIME LEFT: 172797.33
 STEP:  71 TIME =     0.04 SECS, INTEGRAL =      2.69 TIME LEFT: 172797.30
 STEP:  72 TIME =     0.04 SECS, INTEGRAL =      2.73 TIME LEFT: 172797.25
 STEP:  73 TIME =     0.04 SECS, INTEGRAL =      2.77 TIME LEFT: 172797.21
 STEP:  74 TIME =     0.04 SECS, INTEGRAL =      2.81 TIME LEFT: 172797.17
 STEP:  75 TIME =     0.04 SECS, INTEGRAL =      2.85 TIME LEFT: 172797.13
 STEP:  76 TIME =     0.04 SECS, INTEGRAL =      2.89 TIME LEFT: 172797.09
 STEP:  77 TIME =     0.04 SECS, INTEGRAL =      2.93 TIME LEFT: 172797.05
 STEP:  78 TIME =     0.04 SECS, INTEGRAL =      2.97 TIME LEFT: 172797.02
 STEP:  79 TIME =     0.04 SECS, INTEGRAL =      3.01 TIME LEFT: 172796.97
 STEP:  80 TIME =     0.04 SECS, INTEGRAL =      3.05 TIME LEFT: 172796.93
 STEP:  81 TIME =     0.04 SECS, INTEGRAL =      3.09 TIME LEFT: 172796.90
 STEP:  82 TIME =     0.04 SECS, INTEGRAL =      3.12 TIME LEFT: 172796.86
 STEP:  83 TIME =     0.04 SECS, INTEGRAL =      3.16 TIME LEFT: 172796.82
 STEP:  84 TIME =     0.04 SECS, INTEGRAL =      3.20 TIME LEFT: 172796.79
 STEP:  85 TIME =     0.04 SECS, INTEGRAL =      3.23 TIME LEFT: 172796.75
 STEP:  86 TIME =     0.04 SECS, INTEGRAL =      3.27 TIME LEFT: 172796.71
 STEP:  87 TIME =     0.04 SECS, INTEGRAL =      3.31 TIME LEFT: 172796.67
 STEP:  88 TIME =     0.04 SECS, INTEGRAL =      3.35 TIME LEFT: 172796.63
 STEP:  89 TIME =     0.04 SECS, INTEGRAL =      3.39 TIME LEFT: 172796.59
 STEP:  90 TIME =     0.04 SECS, INTEGRAL =      3.43 TIME LEFT: 172796.55
 STEP:  91 TIME =     0.04 SECS, INTEGRAL =      3.47 TIME LEFT: 172796.52
 STEP:  92 TIME =     0.04 SECS, INTEGRAL =      3.51 TIME LEFT: 172796.48
 STEP:  93 TIME =     0.04 SECS, INTEGRAL =      3.54 TIME LEFT: 172796.44
 STEP:  94 TIME =     0.04 SECS, INTEGRAL =      3.59 TIME LEFT: 172796.40
 STEP:  95 TIME =     0.04 SECS, INTEGRAL =      3.62 TIME LEFT: 172796.36
 STEP:  96 TIME =     0.04 SECS, INTEGRAL =      3.66 TIME LEFT: 172796.32

(To convert to Hartree/Bohr^2, multiply by (10^(-21) x N x a0^2)/(4.184 x 627.51) =  0.0642)


           FORCE MATRIX IN MILLIDYNES/ANGSTROM


                  C  1       C  2       C  3       C  4       C  5       C  6
 ------------------------------------------------------------------------------
     C    1  14.124478
     C    2   3.508921  14.514541
     C    3   3.570225   0.615446  14.596439
     C    4   0.598015   3.625804   0.099202  14.646810
     C    5   4.154802   0.581308   0.640893   0.049291  14.327875
     C    6   0.051100   0.627853   0.009925   4.136108   0.003337  14.358340
     C    7   0.613726   0.040125   4.080188   0.017066   0.047647   0.001753
     C    8   0.021239   0.143601   0.004038   0.015192   0.000949   0.000939
     C    9   0.057457   0.668876   0.791520   4.740358   0.017520   0.722029
     C   10   0.633667   0.066385   4.745556   0.803071   0.028473   0.046949
     C   11   0.655788   4.627826   0.049490   0.652432   0.063190   0.055390
     C   12   0.040107   0.804297   0.003609   0.045582   0.004691   0.003999
     H   13   4.169204   0.420879   0.427354   0.047048   0.416122   0.008832
     H   14   0.012721   0.438394   0.013781   4.118596   0.015121   0.424983
     H   15   0.427122   0.042394   4.152796   0.009600   0.076878   0.000882
     H   16   0.423030   4.096273   0.032720   0.428194   0.047226   0.039116
     H   17   0.048083   0.002093   0.455110   0.001223   0.008536   0.000583
     H   18   0.009133   0.049175   0.001346   0.455623   0.000563   4.737105
     H   19   0.001965   0.029471   0.001948   0.454443   0.000616   4.725798
     H   20   0.001724   0.022782   0.001027   0.467466   0.000638   4.732358
     H   21   0.026703   0.002279   0.456501   0.002919   0.001971   0.000602
     H   22   0.018886   0.020649   0.466481   0.001348   0.001259   0.000690
     H   23   0.455821   0.049807   0.029565   0.003640   4.721055   0.000585
     H   24   0.455711   0.024728   0.048913   0.004022   4.718293   0.000585
     H   25   0.469607   0.011303   0.023219   0.020157   4.710374   0.001040
     H   26   0.003427   0.019246   0.000917   0.001505   0.000340   0.000254
     H   27   0.000500   0.002215   0.000162   0.000696   0.000221   0.000174
     H   28   0.002695   0.019405   0.000378   0.002790   0.000295   0.000292
     H   29   0.003052   0.039741   0.124533   0.433581   0.001196   0.040834
     H   30   0.042076   0.004848   0.429684   0.124252   0.001369   0.015516
     H   31   0.014044   0.085410   0.002955   0.005813   0.001257   0.000793
     H   32   0.011292   0.434562   0.002184   0.037888   0.014144   0.008167


                  C  7       C  8       C  9       C 10       C 11       C 12
 ------------------------------------------------------------------------------
     C    7  14.294063
     C    8   0.000330  14.718875
     C    9   0.036602   0.003202  18.275138
     C   10   0.723971   0.000499  10.755741  18.226127
     C   11   0.003447   0.846541   0.053589   0.004749  18.072194
     C   12   0.000557   5.269119   0.008717   0.001574  10.655681  18.163135
     H   13   0.063877   0.000978   0.003987   0.045120   0.031325   0.005120
     H   14   0.002778   0.000786   0.390293   0.030173   0.037757   0.002045
     H   15   0.423878   0.000737   0.040572   0.403894   0.008201   0.000634
     H   16   0.019656   0.005244   0.015819   0.008498   0.431090   0.055269
     H   17   4.738706   0.000139   0.002703   0.036043   0.000984   0.000138
     H   18   0.000591   0.000295   0.031903   0.002459   0.003053   0.000355
     H   19   0.000469   0.000440   0.052586   0.008619   0.012978   0.005274
     H   20   0.000566   0.000209   0.017703   0.002743   0.002171   0.000552
     H   21   4.730205   0.000113   0.006615   0.050485   0.000816   0.000267
     H   22   4.705718   0.000235   0.003209   0.015205   0.001524   0.000467
     H   23   0.001840   0.000256   0.001633   0.001837   0.004663   0.000589
     H   24   0.008573   0.000458   0.001041   0.002239   0.027437   0.004099
     H   25   0.001386   0.000315   0.004856   0.005544   0.002672   0.000599
     H   26   0.000117   4.705356   0.000223   0.000142   0.034628   0.439169
     H   27   0.000088   4.723362   0.000192   0.000134   0.041274   0.480060
     H   28   0.000125   4.705685   0.000803   0.000170   0.036823   0.438449
     H   29   0.019635   0.000670   4.789216   0.441716   0.008201   0.001375
     H   30   0.017168   0.000133   0.442705   4.794791   0.001472   0.000270
     H   31   0.000569   0.424561   0.001594   0.000633   0.471701   4.770286
     H   32   0.001067   0.085704   0.002913   0.001274   4.744203   0.467749


                  H 13       H 14       H 15       H 16       H 17       H 18
 ------------------------------------------------------------------------------
     H   13   4.644968
     H   14   0.001540   4.592866
     H   15   0.015984   0.000850   4.617480
     H   16   0.037639   0.040900   0.002095   4.559371
     H   17   0.002437   0.000486   0.028757   0.001171   5.479140
     H   18   0.001761   0.030619   0.000285   0.002152   0.000153   5.475495
     H   19   0.000470   0.027048   0.000288   0.002642   0.000137   0.563957
     H   20   0.000359   0.046075   0.000276   0.024512   0.000140   0.572249
     H   21   0.030296   0.000594   0.030873   0.000426   0.568948   0.000171
     H   22   0.005208   0.000533   0.046759   0.032965   0.574676   0.000176
     H   23   0.034570   0.001018   0.031103   0.007959   0.000345   0.000151
     H   24   0.028525   0.001771   0.002355   0.002273   0.001685   0.000136
     H   25   0.046427   0.022073   0.007890   0.001784   0.000452   0.000193
     H   26   0.000271   0.000114   0.000198   0.001007   0.000036   0.000104
     H   27   0.000215   0.000210   0.000049   0.000467   0.000038   0.000082
     H   28   0.000232   0.000178   0.000068   0.000474   0.000034   0.000134
     H   29   0.000652   0.016834   0.014785   0.001310   0.000764   0.026411
     H   30   0.006538   0.016929   0.036499   0.000570   0.015117   0.000583
     H   31   0.004300   0.000674   0.000478   0.030466   0.000193   0.000245
     H   32   0.002026   0.030250   0.000603   0.033467   0.000265   0.000753


                  H 19       H 20       H 21       H 22       H 23       H 24
 ------------------------------------------------------------------------------
     H   19   5.455632
     H   20   0.570453   5.470865
     H   21   0.000159   0.000151   5.468568
     H   22   0.000172   0.000275   0.570180   5.435233
     H   23   0.000145   0.000211   0.000273   0.000439   5.462327
     H   24   0.000201   0.000172   0.000388   0.000429   0.569555   5.461187
     H   25   0.000230   0.000329   0.000447   0.000472   0.575095   0.568798
     H   26   0.000207   0.000109   0.000027   0.000057   0.000122   0.000236
     H   27   0.000147   0.000088   0.000043   0.000067   0.000076   0.000208
     H   28   0.000196   0.000071   0.000025   0.000056   0.000077   0.000206
     H   29   0.002231   0.003673   0.003167   0.000783   0.000463   0.000422
     H   30   0.002606   0.000636   0.001538   0.002290   0.000486   0.000405
     H   31   0.000591   0.000320   0.000249   0.000300   0.000315   0.000646
     H   32   0.007637   0.000697   0.000205   0.000354   0.000572   0.028987


                  H 25       H 26       H 27       H 28       H 29       H 30
 ------------------------------------------------------------------------------
     H   25   5.450537
     H   26   0.000127   5.424736
     H   27   0.000095   0.565829   5.449704
     H   28   0.000073   0.576245   0.565635   5.425014
     H   29   0.000716   0.000082   0.000068   0.000184   5.169364
     H   30   0.000770   0.000056   0.000054   0.000050   0.072192   5.170870
     H   31   0.000332   0.023584   0.041878   0.023743   0.000309   0.000239
     H   32   0.000614   0.009644   0.029747   0.009809   0.000594   0.000564


                  H 31       H 32
 ------------------------------
     H   31   5.149374
     H   32   0.107021   5.132663


          HEAT OF FORMATION =      -8.526999 KCALS/MOLE

          ZERO POINT ENERGY     180.355 KCAL/MOL


           NORMAL COORDINATE ANALYSIS (Total motion = 1 Angstrom)


   Root No.       1         2         3         4         5         6         7         8

                 1 A       2 A       3 A       4 A       5 A       6 A       7 A       8 A   

                  40.0      60.4      74.0     112.8     147.7     167.5     180.4     183.8
  
           1   -0.0170   -0.0046   -0.0053   -0.0094    0.0057    0.0015   -0.0024   -0.0013
           2    0.0037   -0.0014   -0.0087    0.0027   -0.0028    0.0005   -0.0028    0.0003
           3    0.0077   -0.0020    0.0197    0.0002    0.0010   -0.0018    0.0040   -0.0023
           4   -0.0170   -0.0047   -0.0054   -0.0098    0.0068    0.0018   -0.0030   -0.0005
           5   -0.0077   -0.0033   -0.0044   -0.0037    0.0017    0.0014   -0.0034    0.0086
           6   -0.0033   -0.0056    0.0100   -0.0029    0.0044   -0.0103    0.0108   -0.0163
           7   -0.0043    0.0004    0.0024   -0.0016    0.0008   -0.0035    0.0008   -0.0073
           8    0.0087    0.0001   -0.0062    0.0061   -0.0052   -0.0012   -0.0018   -0.0019
           9    0.0061   -0.0036   -0.0119    0.0011   -0.0014   -0.0037    0.0029    0.0019
          10   -0.0028    0.0037   -0.0060   -0.0044    0.0033   -0.0029    0.0024   -0.0045
          11   -0.0098   -0.0003   -0.0018   -0.0065    0.0037   -0.0026    0.0061    0.0027
          12   -0.0084   -0.0108    0.0084   -0.0034    0.0043   -0.0056    0.0022   -0.0104
          13   -0.0173   -0.0037    0.0015   -0.0111    0.0031    0.0131   -0.0102    0.0181
          14    0.0139    0.0032    0.0222    0.0067   -0.0051    0.0145   -0.0149    0.0016
          15    0.0145    0.0014    0.0440    0.0019   -0.0017    0.0150   -0.0091    0.0089
          16   -0.0019   -0.0040   -0.0061   -0.0034    0.0017   -0.0013    0.0027   -0.0013
          17   -0.0232    0.0336   -0.0013   -0.0152    0.0142   -0.0085   -0.0010   -0.0125
          18   -0.0187   -0.0437    0.0106   -0.0065    0.0032    0.0089   -0.0088    0.0103
          19   -0.0070    0.0447    0.0360    0.0044   -0.0056   -0.0039    0.0121    0.0071
          20    0.0044    0.0154   -0.0286    0.0086   -0.0113    0.0136   -0.0032    0.0065
          21    0.0044    0.0024   -0.0216    0.0020   -0.0038    0.0028    0.0015    0.0051
          22    0.0348   -0.0006   -0.0022    0.0290   -0.0406   -0.0031    0.0015   -0.0054
          23    0.0085   -0.0098    0.0167    0.0066   -0.0099   -0.0091    0.0099   -0.0077
          24    0.0053    0.0129   -0.0343    0.0067   -0.0086    0.0051   -0.0102    0.0145
          25    0.0095   -0.0158   -0.0082    0.0024   -0.0032   -0.0041    0.0048   -0.0052
          26   -0.0035   -0.0162   -0.0007   -0.0038    0.0011   -0.0033    0.0088    0.0013
          27   -0.0073    0.0219   -0.0000   -0.0004    0.0018   -0.0033   -0.0066   -0.0042
          28    0.0088   -0.0179   -0.0042    0.0024   -0.0014   -0.0070    0.0004   -0.0140
          29    0.0047   -0.0152   -0.0016    0.0014   -0.0014   -0.0038    0.0022   -0.0050
          30   -0.0010    0.0271   -0.0099    0.0026   -0.0037    0.0020   -0.0009    0.0108
          31   -0.0247   -0.0067   -0.0007   -0.0041   -0.0068    0.0012   -0.0035    0.0032
          32   -0.0104   -0.0045   -0.0013   -0.0016   -0.0030    0.0009   -0.0036    0.0106
          33   -0.0024    0.0002   -0.0024   -0.0021    0.0035   -0.0108    0.0136   -0.0176
          34    0.0371    0.0019   -0.0068    0.0020    0.0490    0.0089   -0.0079    0.0092
          35    0.0096   -0.0081    0.0130   -0.0026    0.0218   -0.0033    0.0043    0.0003
          36    0.0021    0.0041   -0.0113   -0.0001    0.0040   -0.0069    0.0085   -0.0109
          37   -0.0280   -0.0083   -0.0123   -0.0138    0.0093   -0.0053    0.0030   -0.0104
          38    0.0032   -0.0017   -0.0308    0.0043   -0.0037   -0.0095    0.0023   -0.0021
          39    0.0119   -0.0004    0.0340    0.0010    0.0002    0.0062   -0.0010    0.0025
          40   -0.0022    0.0373   -0.0069   -0.0062    0.0083   -0.0112    0.0057   -0.0173
          41   -0.0063   -0.0128    0.0008   -0.0060    0.0025   -0.0054    0.0170    0.0009
          42   -0.0059   -0.0125    0.0099   -0.0034    0.0043   -0.0089    0.0103   -0.0136
          43   -0.0024   -0.0103   -0.0046   -0.0022    0.0015   -0.0052   -0.0010   -0.0103
          44    0.0193   -0.0001    0.0065    0.0112   -0.0068   -0.0101    0.0009   -0.0071
          45    0.0121   -0.0342   -0.0315   -0.0006    0.0009   -0.0085   -0.0025   -0.0075
          46   -0.0205   -0.0080   -0.0137   -0.0109    0.0080    0.0012   -0.0037   -0.0076
          47   -0.0105   -0.0076    0.0010   -0.0039    0.0023    0.0023   -0.0080    0.0127
          48   -0.0065   -0.0098    0.0098   -0.0036    0.0052   -0.0090    0.0071   -0.0160
          49    0.0014    0.0513    0.0542    0.0113   -0.0059   -0.1627   -0.0370    0.0661
          50    0.0074    0.0177   -0.0221    0.0111   -0.0114   -0.0427   -0.0207    0.0274
          51    0.0031    0.0033   -0.0448    0.0033   -0.0069   -0.0040   -0.0088    0.0146
          52    0.0083    0.0082   -0.0086    0.0010    0.0009   -0.0089   -0.0044   -0.0253
          53   -0.0263    0.0280    0.0039   -0.0165    0.0070   -0.0066    0.0890    0.0740
          54   -0.0219   -0.0466    0.0091   -0.0079    0.0073    0.0116   -0.0522   -0.0232
          55   -0.0115    0.0119   -0.0051   -0.0090    0.0067   -0.0034    0.0071    0.0009
          56   -0.0279    0.0471   -0.0017   -0.0184    0.0191   -0.0112   -0.0147   -0.0292
          57   -0.0217   -0.0720    0.0168   -0.0063   -0.0087    0.0184    0.0885    0.1184
          58   -0.0019   -0.0386   -0.0047   -0.0014   -0.0042    0.0103    0.0069    0.0252
          59   -0.0258    0.0525   -0.0056   -0.0177    0.0252   -0.0130   -0.0843   -0.0967
          60   -0.0207   -0.0389    0.0076   -0.0078    0.0099    0.0088   -0.0714   -0.0465
          61   -0.0152    0.0605    0.0375    0.0016   -0.0087    0.1265    0.0586   -0.0340
          62    0.0076    0.0267   -0.0285    0.0142   -0.0146   -0.0754   -0.0337    0.0463
          63    0.0096   -0.0227   -0.0230   -0.0000    0.0019   -0.0471   -0.0174    0.0108
          64   -0.0092    0.0580    0.0442    0.0052   -0.0078    0.0217    0.0243    0.0026
          65   -0.0052    0.0137   -0.0540    0.0027   -0.0133    0.1753    0.0447   -0.0489
          66   -0.0009    0.0317   -0.0045    0.0036   -0.0087    0.0659    0.0302   -0.0072
          67   -0.0195   -0.0050    0.0027   -0.0108   -0.0014    0.0164   -0.0172    0.0183
          68    0.0307    0.0123    0.0066    0.0050    0.0316   -0.0194    0.0456   -0.0117
          69    0.0253    0.0084    0.0439   -0.0003    0.0179    0.0068    0.0205    0.0194
          70   -0.0335   -0.0119    0.0142   -0.0094   -0.0306    0.0414   -0.0616    0.0299
          71    0.0075   -0.0000    0.0285    0.0076   -0.0193    0.0270   -0.0373    0.0064
          72    0.0119   -0.0014    0.0781    0.0067   -0.0278    0.0490   -0.0628    0.0135
          73   -0.0004    0.0069   -0.0069   -0.0140    0.0370   -0.0105    0.0442    0.0206
          74    0.0118    0.0017    0.0564    0.0109   -0.0298    0.0488   -0.0653    0.0115
          75    0.0119   -0.0002    0.0291    0.0004    0.0030    0.0035    0.0036    0.0037
          76    0.0635    0.0035   -0.0044   -0.0661   -0.1229   -0.0094    0.0039   -0.0094
          77    0.0230   -0.0097    0.0222   -0.0592    0.0299   -0.0074    0.0116   -0.0088
          78   -0.0434    0.0079   -0.0375    0.1861    0.0449    0.0106   -0.0149    0.0204
          79   -0.0214   -0.0114    0.0074    0.2317   -0.0118   -0.0082    0.0100   -0.0183
          80   -0.0097   -0.0075    0.0039    0.0842   -0.0052   -0.0021   -0.0008    0.0064
          81    0.0037    0.0155   -0.0420    0.0189   -0.0101    0.0093   -0.0168    0.0234
          82    0.0625    0.0043   -0.0062   -0.0684   -0.0752   -0.0033   -0.0008   -0.0021
          83    0.0118   -0.0139    0.0278   -0.0022   -0.0854   -0.0236    0.0245   -0.0291
          84    0.0583    0.0225   -0.0422   -0.1793   -0.0718    0.0054   -0.0151    0.0216
          85    0.0196   -0.0271   -0.0126    0.0068   -0.0077   -0.0038    0.0072   -0.0046
          86   -0.0060   -0.0285    0.0013   -0.0070    0.0032   -0.0040    0.0153    0.0016
          87   -0.0124    0.0437    0.0013   -0.0004    0.0031   -0.0028   -0.0153   -0.0051
          88    0.0180   -0.0313   -0.0050    0.0061   -0.0029   -0.0098   -0.0015   -0.0228
          89    0.0090   -0.0268   -0.0006    0.0026   -0.0013   -0.0064    0.0018   -0.0121
          90   -0.0008    0.0532   -0.0175    0.0054   -0.0079    0.0075   -0.0034    0.0253
          91    0.0950    0.0116   -0.0159   -0.0151    0.1423    0.0221   -0.0171    0.0223
          92    0.0278   -0.0106    0.0244   -0.0120    0.0596   -0.0060    0.0117   -0.0094
          93    0.0034    0.0012   -0.0036   -0.0027    0.0108   -0.0103    0.0139   -0.0180
          94   -0.0814   -0.0158    0.0064    0.0060   -0.0881   -0.0069   -0.0004   -0.0018
          95   -0.0292   -0.0034   -0.0092    0.0033   -0.0335   -0.0000   -0.0041    0.0127
          96   -0.0041    0.0023   -0.0082   -0.0008   -0.0012   -0.0098    0.0124   -0.0151


   Root No.       9        10        11        12        13        14        15        16

                 9 A      10 A      11 A      12 A      13 A      14 A      15 A      16 A   

                 192.1     217.7     268.6     305.7     330.2     346.0     373.1     442.8
  
           1   -0.0030    0.0069    0.0037   -0.0063   -0.0036   -0.0061   -0.0083    0.0245
           2    0.0007    0.0069   -0.0025    0.0009    0.0082   -0.0044   -0.0223   -0.0005
           3    0.0014   -0.0071   -0.0053    0.0145   -0.0007    0.0091    0.0031    0.0027
           4   -0.0029    0.0074    0.0053   -0.0027   -0.0092   -0.0064   -0.0062    0.0181
           5    0.0062   -0.0074   -0.0156   -0.0068   -0.0027   -0.0092   -0.0070   -0.0033
           6   -0.0103    0.0004    0.0012   -0.0067   -0.0003    0.0059    0.0126    0.0300
           7   -0.0041    0.0075   -0.0085    0.0013    0.0063    0.0053   -0.0016    0.0057
           8   -0.0000    0.0076   -0.0054    0.0050    0.0135    0.0066   -0.0204   -0.0099
           9   -0.0001   -0.0128   -0.0035    0.0198    0.0024    0.0066   -0.0149   -0.0030
          10   -0.0062    0.0017   -0.0026    0.0003   -0.0207   -0.0279    0.0062   -0.0029
          11    0.0016   -0.0144    0.0106    0.0014   -0.0072   -0.0027   -0.0159    0.0143
          12   -0.0052    0.0088   -0.0104   -0.0075    0.0092    0.0127    0.0116    0.0346
          13    0.0197    0.0069    0.0105   -0.0228    0.0542   -0.0126   -0.0069    0.0027
          14   -0.0035    0.0283    0.0080   -0.0086   -0.0341   -0.0028   -0.0131    0.0081
          15    0.0100    0.0081    0.0067   -0.0001    0.0004    0.0074    0.0145   -0.0033
          16   -0.0038   -0.0031   -0.0005   -0.0022   -0.0259   -0.0324    0.0030   -0.0045
          17   -0.0090    0.0202    0.0059    0.0417    0.0050   -0.0083    0.0138   -0.0095
          18    0.0131    0.0061    0.0117    0.0284   -0.0069   -0.0180    0.0044   -0.0131
          19    0.0086   -0.0282    0.0003    0.0115    0.0096    0.0041    0.0022   -0.0015
          20   -0.0019    0.0075    0.0334   -0.0102    0.0073    0.0128    0.0362    0.0026
          21   -0.0016   -0.0112    0.0122    0.0139   -0.0023    0.0092    0.0068    0.0029
          22    0.0038    0.0097    0.0081    0.0110    0.0036   -0.0018   -0.0084    0.0058
          23   -0.0002   -0.0083   -0.0128   -0.0208    0.0023   -0.0241    0.0178   -0.0071
          24    0.0101   -0.0078   -0.0303   -0.0033   -0.0022   -0.0107    0.0182    0.0051
          25   -0.0026   -0.0110   -0.0021    0.0116   -0.0054   -0.0072    0.0081   -0.0090
          26    0.0038   -0.0232    0.0149    0.0099    0.0015    0.0098   -0.0130    0.0241
          27   -0.0058    0.0239   -0.0288   -0.0113    0.0113    0.0074   -0.0167    0.0010
          28   -0.0061    0.0096   -0.0207    0.0097    0.0160    0.0070    0.0143   -0.0163
          29    0.0015   -0.0011   -0.0031    0.0158    0.0261    0.0238   -0.0193    0.0031
          30    0.0002   -0.0075    0.0024   -0.0001   -0.0182   -0.0120   -0.0310    0.0020
          31   -0.0016   -0.0012   -0.0008   -0.0131   -0.0321    0.0569    0.0014   -0.0159
          32    0.0073   -0.0120   -0.0250   -0.0117   -0.0133    0.0102    0.0050   -0.0146
          33   -0.0113   -0.0019    0.0237   -0.0293    0.0056   -0.0063   -0.0044   -0.0237
          34   -0.0077   -0.0034    0.0045    0.0013   -0.0071    0.0287   -0.0050   -0.0080
          35   -0.0026   -0.0130   -0.0185   -0.0195   -0.0027   -0.0105    0.0197   -0.0053
          36   -0.0076   -0.0023    0.0208   -0.0238    0.0064   -0.0041   -0.0122   -0.0296
          37   -0.0139    0.0028    0.0009   -0.0136   -0.0185   -0.0137   -0.0027    0.0453
          38   -0.0018    0.0002   -0.0033    0.0102    0.0190    0.0012   -0.0304   -0.0036
          39    0.0065   -0.0015   -0.0031    0.0114   -0.0012    0.0093    0.0062   -0.0032
          40   -0.0163    0.0182   -0.0147   -0.0057   -0.0158   -0.0280    0.0160    0.0012
          41   -0.0000   -0.0283    0.0268   -0.0008   -0.0121    0.0017   -0.0124    0.0367
          42   -0.0078    0.0024   -0.0012   -0.0106    0.0061    0.0149    0.0149    0.0490
          43   -0.0063    0.0119   -0.0124    0.0031    0.0113    0.0079   -0.0006    0.0023
          44    0.0010    0.0076   -0.0209    0.0143    0.0165    0.0119   -0.0165   -0.0291
          45   -0.0068    0.0022   -0.0151    0.0241    0.0142    0.0138   -0.0123   -0.0121
          46   -0.0055    0.0181    0.0154   -0.0116    0.0064   -0.0191   -0.0139    0.0367
          47    0.0094   -0.0081   -0.0343   -0.0046   -0.0077    0.0032    0.0056    0.0078
          48   -0.0087    0.0045   -0.0064   -0.0082    0.0026    0.0084    0.0173    0.0430
          49    0.0058   -0.0297    0.0302    0.0075    0.0096    0.0067    0.0157    0.0006
          50   -0.0029    0.0070    0.0443   -0.0116    0.0074    0.0140    0.0418    0.0035
          51   -0.0071   -0.0003    0.0462   -0.0030   -0.0087    0.0160    0.0609    0.0181
          52   -0.0002   -0.0207   -0.0111   -0.0425   -0.0194   -0.0074   -0.0052    0.0447
          53   -0.0789    0.0764   -0.0110    0.0585    0.0187   -0.0049    0.0260   -0.0143
          54    0.0477   -0.0146    0.0257    0.0396   -0.0172   -0.0321    0.0023   -0.0350
          55   -0.0162    0.0247   -0.0025    0.0338   -0.0179   -0.0389    0.0267   -0.0335
          56   -0.0050    0.0276    0.0063    0.0595    0.0092   -0.0106    0.0277   -0.0229
          57   -0.0532    0.0554    0.0035    0.0464   -0.0046   -0.0276    0.0029   -0.0324
          58    0.0067   -0.0168    0.0139   -0.0005   -0.0440   -0.0534   -0.0173   -0.0257
          59    0.0484   -0.0144    0.0192    0.0485   -0.0003   -0.0134    0.0200   -0.0198
          60    0.0601   -0.0243    0.0261    0.0341   -0.0165   -0.0283    0.0032   -0.0275
          61    0.0177   -0.0467   -0.0199    0.0219    0.0132    0.0024   -0.0066   -0.0088
          62   -0.0046    0.0067    0.0729   -0.0206    0.0051    0.0194    0.0796    0.0119
          63   -0.0080    0.0072   -0.0015    0.0128   -0.0036    0.0056   -0.0206    0.0021
          64    0.0137   -0.0416   -0.0019    0.0174    0.0121    0.0041    0.0013   -0.0058
          65    0.0001    0.0093    0.0191   -0.0119    0.0060    0.0139    0.0483    0.0060
          66    0.0097   -0.0403    0.0072    0.0264    0.0030    0.0092    0.0056   -0.0059
          67    0.0043   -0.0002    0.0096   -0.0214    0.0592   -0.0142   -0.0078    0.0026
          68    0.1018    0.0808    0.0088   -0.0078   -0.1054    0.0132   -0.0096    0.0239
          69    0.0993    0.0461    0.0180   -0.0207    0.0133    0.0136    0.0237   -0.0182
          70   -0.0697   -0.0397    0.0085   -0.0237    0.1185   -0.0227   -0.0098   -0.0140
          71   -0.0423    0.0093    0.0075   -0.0090   -0.0103   -0.0073   -0.0141    0.0021
          72   -0.0807   -0.0115    0.0141   -0.0029   -0.0111   -0.0058    0.0189    0.0058
          73    0.1454    0.0631    0.0201   -0.0405    0.0356   -0.0007    0.0028   -0.0033
          74   -0.0763    0.0133    0.0178   -0.0181   -0.0294   -0.0150   -0.0070    0.0087
          75    0.0184    0.0036    0.0001    0.0080    0.0020    0.0108    0.0094   -0.0023
          76    0.0138    0.0158    0.0023    0.0184    0.0069   -0.0200   -0.0060    0.0218
          77   -0.0130   -0.0142    0.0055   -0.0360   -0.0021    0.0028    0.0063   -0.0369
          78    0.0120   -0.0087   -0.0430    0.0039   -0.0013   -0.0184    0.0279    0.0182
          79    0.0015    0.0174    0.0246    0.0122    0.0150   -0.0226   -0.0192    0.0058
          80    0.0114   -0.0101   -0.0458   -0.0057   -0.0008   -0.0367    0.0399    0.0226
          81    0.0163   -0.0098   -0.0495    0.0042   -0.0053   -0.0144    0.0313    0.0206
          82    0.0077    0.0089    0.0003    0.0130    0.0007   -0.0008   -0.0035    0.0114
          83    0.0032    0.0047    0.0099   -0.0214    0.0158   -0.0533    0.0019   -0.0080
          84    0.0175   -0.0099   -0.0464    0.0003   -0.0082   -0.0076    0.0287    0.0158
          85    0.0017   -0.0290    0.0081    0.0258   -0.0016    0.0025    0.0096   -0.0083
          86    0.0046   -0.0384    0.0294    0.0147   -0.0086    0.0056    0.0066    0.0441
          87   -0.0103    0.0544   -0.0520   -0.0268    0.0191    0.0041   -0.0386   -0.0212
          88   -0.0079    0.0196   -0.0339    0.0200    0.0396    0.0225    0.0316   -0.0329
          89    0.0003    0.0045   -0.0120    0.0229    0.0444    0.0380   -0.0046   -0.0024
          90    0.0018   -0.0120    0.0160   -0.0121   -0.0543   -0.0460   -0.0621   -0.0081
          91   -0.0169   -0.0096    0.0036    0.0168    0.0183   -0.0102   -0.0069    0.0206
          92   -0.0150   -0.0133    0.0014   -0.0282    0.0104   -0.0280    0.0156   -0.0072
          93   -0.0129   -0.0016    0.0310   -0.0307    0.0097   -0.0081   -0.0134   -0.0341
          94    0.0051   -0.0004   -0.0096   -0.0264   -0.0580    0.1154    0.0105   -0.0452
          95    0.0131   -0.0122   -0.0216   -0.0184   -0.0228    0.0299   -0.0049   -0.0464
          96   -0.0089   -0.0023    0.0260   -0.0307    0.0044   -0.0041   -0.0110   -0.0366


   Root No.      17        18        19        20        21        22        23        24

                17 A      18 A      19 A      20 A      21 A      22 A      23 A      24 A   

                 484.2     521.2     551.4     579.4     637.4     783.0     789.7     839.1
  
           1   -0.0138    0.0093   -0.0004   -0.0222    0.0325   -0.0071   -0.0010   -0.0063
           2    0.0100   -0.0312   -0.0027   -0.0101    0.0127   -0.0212   -0.0009   -0.0184
           3    0.0309   -0.0003    0.0063   -0.0185    0.0363   -0.0169   -0.0025   -0.0133
           4   -0.0061    0.0022   -0.0047   -0.0210    0.0245   -0.0115   -0.0075    0.0175
           5    0.0056    0.0096   -0.0310    0.0223    0.0247    0.0022    0.0046    0.0017
           6    0.0145   -0.0227    0.0063    0.0061   -0.0194    0.0031    0.0163   -0.0064
           7   -0.0088    0.0397    0.0318    0.0087    0.0096    0.0371    0.0086   -0.0157
           8    0.0170   -0.0237    0.0156   -0.0047    0.0013    0.0031   -0.0016    0.0114
           9   -0.0193   -0.0072   -0.0130   -0.0131   -0.0060    0.0018    0.0011    0.0031
          10    0.0219   -0.0081   -0.0102   -0.0043   -0.0085    0.0061    0.0015   -0.0003
          11    0.0159    0.0291   -0.0024    0.0014   -0.0229   -0.0174   -0.0103   -0.0020
          12    0.0008   -0.0246   -0.0138    0.0271    0.0028    0.0104    0.0083    0.0047
          13   -0.0079   -0.0138    0.0008    0.0025   -0.0066   -0.0029    0.0026   -0.0075
          14   -0.0291   -0.0101   -0.0102   -0.0020   -0.0088   -0.0073    0.0030   -0.0147
          15    0.0149    0.0116    0.0058   -0.0002    0.0136   -0.0009   -0.0044    0.0065
          16    0.0314   -0.0053   -0.0147   -0.0101   -0.0216    0.0234   -0.0030    0.0010
          17   -0.0056   -0.0035    0.0041    0.0068   -0.0034   -0.0015   -0.0026   -0.0005
          18    0.0032    0.0003    0.0025    0.0029   -0.0040    0.0008    0.0013    0.0012
          19   -0.0080    0.0013   -0.0072   -0.0040   -0.0012    0.0082    0.0028   -0.0064
          20    0.0195    0.0048    0.0061    0.0010    0.0061   -0.0015   -0.0076    0.0079
          21   -0.0274    0.0084   -0.0236   -0.0170   -0.0095    0.0048    0.0178   -0.0081
          22    0.0060    0.0008   -0.0066    0.0068    0.0003    0.0006    0.0018   -0.0119
          23   -0.0163    0.0011    0.0152   -0.0179   -0.0007   -0.0013   -0.0038   -0.0022
          24   -0.0075   -0.0023    0.0106   -0.0102   -0.0020    0.0004   -0.0003   -0.0006
          25   -0.0137   -0.0038    0.0159    0.0362    0.0016   -0.0269    0.0062    0.0043
          26   -0.0010    0.0215    0.0106    0.0208   -0.0166   -0.0174   -0.0041    0.0022
          27    0.0097    0.0308   -0.0090    0.0085   -0.0202   -0.0152   -0.0434   -0.0009
          28   -0.0079    0.0130   -0.0028    0.0164   -0.0063   -0.0276    0.0091    0.0027
          29    0.0047    0.0062    0.0045   -0.0331   -0.0038    0.0406    0.0180    0.0128
          30   -0.0063   -0.0099    0.0302    0.0200    0.0054    0.0166   -0.0299    0.0045
          31   -0.0001   -0.0120    0.0113   -0.0115   -0.0052   -0.0062   -0.0069    0.0283
          32    0.0037    0.0039   -0.0219    0.0247    0.0174    0.0156    0.0141    0.0029
          33   -0.0097    0.0003    0.0057   -0.0103   -0.0004   -0.0055   -0.0062    0.0045
          34    0.0060   -0.0068    0.0001    0.0043   -0.0056    0.0006    0.0012   -0.0159
          35   -0.0120   -0.0034    0.0158   -0.0147   -0.0056   -0.0021   -0.0019   -0.0051
          36   -0.0025    0.0058   -0.0162    0.0126    0.0143    0.0077    0.0049   -0.0020
          37   -0.0124   -0.0002   -0.0160   -0.0187    0.0362   -0.0159    0.0100   -0.0015
          38    0.0057   -0.0415    0.0021   -0.0176   -0.0011   -0.0105    0.0023   -0.0160
          39    0.0323    0.0085    0.0092   -0.0151    0.0414   -0.0191   -0.0082   -0.0140
          40    0.0346   -0.0222   -0.0234   -0.0107   -0.0318    0.0384   -0.0139   -0.0108
          41    0.0186    0.0153    0.0140    0.0080   -0.0377   -0.0194    0.0307   -0.0043
          42    0.0058   -0.0354   -0.0044    0.0289   -0.0125    0.0146    0.0334    0.0006
          43   -0.0129    0.0438    0.0270    0.0064    0.0030    0.0321    0.0195   -0.0102
          44    0.0241   -0.0247    0.0137    0.0121   -0.0149   -0.0121    0.0006    0.0187
          45   -0.0313    0.0077   -0.0243   -0.0179   -0.0255   -0.0118    0.0328    0.0148
          46   -0.0254   -0.0135   -0.0035   -0.0247    0.0185   -0.0188   -0.0090    0.0177
          47    0.0085   -0.0014   -0.0475    0.0488    0.0352    0.0308    0.0311    0.0108
          48    0.0098   -0.0348   -0.0040    0.0219   -0.0149    0.0184    0.0314   -0.0001
          49   -0.0084   -0.0104   -0.0292   -0.0149   -0.0075   -0.0219    0.0051    0.0102
          50    0.0197    0.0013   -0.0017   -0.0031    0.0041   -0.0117   -0.0068    0.0133
          51   -0.0229    0.0572   -0.0205   -0.0102    0.0047    0.0199    0.0348   -0.0523
          52    0.0383   -0.0111   -0.0334    0.0064   -0.0207    0.0257   -0.0049    0.0149
          53   -0.0203   -0.0199    0.0063    0.0182    0.0121    0.0055    0.0099    0.0047
          54    0.0076    0.0116    0.0107   -0.0107   -0.0130   -0.0037   -0.0044   -0.0085
          55    0.0090   -0.0328   -0.0015   -0.0011    0.0010    0.0417    0.0192    0.0031
          56   -0.0185   -0.0211    0.0111    0.0141    0.0108    0.0093    0.0121    0.0021
          57    0.0028    0.0111    0.0079   -0.0068   -0.0114   -0.0038   -0.0087   -0.0070
          58    0.0539    0.0348   -0.0113   -0.0419   -0.0565    0.0096   -0.0345   -0.0177
[...]
 TRANSITION DIPOLE   0.0363         C  2 -- H 16          +1.6% ( 12.9%)    100.0%
 TRAVEL (Ang.)       0.1639         C  1 -- C  5          +1.0% ( 10.4%)      8.2%
 REDUCED MASS        0.8776         C  1 -- C  3          +1.0% ( 10.4%)     10.7%
 EFFECTIVE MASS      1.4446
 FORCE CONSTANT      4.2335

 VIBRATION         75   75A           ATOM PAIR      ENERGY CONTRIBUTION    RADIAL
 FREQUENCY          3032.20         C 11 -- H 32         +96.5% ( 99.6%)    100.0%
 TRANSITION DIPOLE   0.2678         C 11 -- C 12          +1.4% ( 12.0%)     39.7%
 TRAVEL (Ang.)       0.1559         C  2 -- C 11          +1.3% ( 11.7%)     15.3%
 REDUCED MASS        0.9149         C 12 -- H 31          +0.6% (  7.9%)     97.0%
 EFFECTIVE MASS      1.5009
 FORCE CONSTANT      4.9563

 VIBRATION         76   76A           ATOM PAIR      ENERGY CONTRIBUTION    RADIAL
 FREQUENCY          3035.89         C  9 -- H 29         +51.6% ( 72.9%)    100.0%
 TRANSITION DIPOLE   0.2715         C 10 -- H 30         +46.0% ( 68.8%)    100.0%
 TRAVEL (Ang.)       0.2183         C  9 -- C 10          +1.1% ( 10.5%)      0.1%
 REDUCED MASS        0.4661         C  4 -- C  9          +0.7% (  8.3%)     18.3%
 EFFECTIVE MASS      1.4552
 FORCE CONSTANT      2.5310

 VIBRATION         77   77A           ATOM PAIR      ENERGY CONTRIBUTION    RADIAL
 FREQUENCY          3037.91         C 12 -- H 31         +94.1% ( 98.6%)    100.0%
 TRANSITION DIPOLE   0.2150         C 11 -- C 12          +1.6% ( 12.7%)     38.7%
 TRAVEL (Ang.)       0.1590         C  8 -- H 27          +1.4% ( 12.2%)     98.1%
 REDUCED MASS        0.8782         C  8 -- C 12          +1.4% ( 12.0%)     11.0%
 EFFECTIVE MASS      1.5262
 FORCE CONSTANT      4.7753

 VIBRATION         78   78A           ATOM PAIR      ENERGY CONTRIBUTION    RADIAL
 FREQUENCY          3056.14         C 10 -- H 30         +51.0% ( 72.4%)     99.9%
 TRANSITION DIPOLE   0.2707         C  9 -- H 29         +45.3% ( 68.3%)     99.9%
 TRAVEL (Ang.)       0.2174         C  9 -- C 10          +2.0% ( 14.4%)     99.9%
 REDUCED MASS        0.4670         C  3 -- C 10          +0.8% (  9.2%)     10.5%
 EFFECTIVE MASS      1.5856
 FORCE CONSTANT      2.5697

 VIBRATION         79   79A           ATOM PAIR      ENERGY CONTRIBUTION    RADIAL
 FREQUENCY          3069.89         C  8 -- H 26         +49.2% ( 72.4%)     97.1%
 TRANSITION DIPOLE   0.0211         C  8 -- H 28         +48.9% ( 72.1%)     97.0%
 TRAVEL (Ang.)       0.2077         C  8 -- C 12          +1.0% ( 10.2%)      0.0%
 REDUCED MASS        0.5093         C  8 -- H 27          +0.9% (  9.9%)      0.0%
 EFFECTIVE MASS      1.5012
 FORCE CONSTANT      2.8281

 VIBRATION         80   80A           ATOM PAIR      ENERGY CONTRIBUTION    RADIAL
 FREQUENCY          3074.47         C  7 -- H 22         +68.2% ( 85.2%)     99.0%
 TRANSITION DIPOLE   0.0112         C  7 -- H 21         +18.6% ( 44.5%)     86.5%
 TRAVEL (Ang.)       0.2011         C  7 -- H 17         +12.0% ( 35.7%)     78.4%
 REDUCED MASS        0.5426         C  3 -- C  7          +1.0% ( 10.3%)      0.0%
 EFFECTIVE MASS      1.5034
 FORCE CONSTANT      3.0217

 VIBRATION         81   81A           ATOM PAIR      ENERGY CONTRIBUTION    RADIAL
 FREQUENCY          3075.48         C  8 -- H 27         +62.3% ( 81.4%)     98.9%
 TRANSITION DIPOLE   0.0579         C  8 -- H 28         +17.2% ( 42.8%)     85.1%
 TRAVEL (Ang.)       0.2151         C  8 -- H 26         +16.9% ( 42.3%)     84.7%
 REDUCED MASS        0.4738         C 12 -- H 31          +2.0% ( 14.5%)    100.0%
 EFFECTIVE MASS      1.5084
 FORCE CONSTANT      2.6402

 VIBRATION         82   82A           ATOM PAIR      ENERGY CONTRIBUTION    RADIAL
 FREQUENCY          3075.72         C  5 -- H 25         +61.9% ( 81.2%)     98.6%
 TRANSITION DIPOLE   0.0326         C  5 -- H 23         +31.0% ( 57.4%)     93.1%
 TRAVEL (Ang.)       0.2072         C  5 -- H 24          +5.4% ( 24.0%)     57.0%
 REDUCED MASS        0.5107         C  1 -- C  5          +1.0% ( 10.3%)      0.0%
 EFFECTIVE MASS      1.5038
 FORCE CONSTANT      2.8465

 VIBRATION         83   83A           ATOM PAIR      ENERGY CONTRIBUTION    RADIAL
 FREQUENCY          3077.86         C  5 -- H 24         +60.5% ( 80.3%)     98.5%
 TRANSITION DIPOLE   0.0341         C  5 -- H 23         +33.7% ( 59.9%)     93.9%
 TRAVEL (Ang.)       0.2069         C  5 -- H 25          +4.7% ( 22.3%)     51.5%
 REDUCED MASS        0.5116         C  1 -- C  5          +1.0% ( 10.5%)      0.0%
 EFFECTIVE MASS      1.5080
 FORCE CONSTANT      2.8553

 VIBRATION         84   84A           ATOM PAIR      ENERGY CONTRIBUTION    RADIAL
 FREQUENCY          3079.23         C  6 -- H 19         +55.1% ( 76.6%)     97.8%
 TRANSITION DIPOLE   0.0340         C  6 -- H 20         +42.5% ( 67.3%)     96.0%
 TRAVEL (Ang.)       0.2065         C  6 -- H 18          +1.3% ( 11.5%)      7.9%
 REDUCED MASS        0.5138         C  4 -- C  6          +1.0% ( 10.4%)      0.0%
 EFFECTIVE MASS      1.5066
 FORCE CONSTANT      2.8700

 VIBRATION         85   85A           ATOM PAIR      ENERGY CONTRIBUTION    RADIAL
 FREQUENCY          3082.09         C  6 -- H 18         +63.5% ( 82.2%)     98.8%
 TRANSITION DIPOLE   0.0064         C  6 -- H 20         +22.4% ( 48.8%)     88.8%
 TRAVEL (Ang.)       0.2091         C  6 -- H 19         +13.0% ( 37.3%)     79.6%
 REDUCED MASS        0.5002         C  4 -- C  6          +1.0% ( 10.5%)      0.0%
 EFFECTIVE MASS      1.5074
 FORCE CONSTANT      2.7993

 VIBRATION         86   86A           ATOM PAIR      ENERGY CONTRIBUTION    RADIAL
 FREQUENCY          3082.34         C  7 -- H 17         +50.9% ( 73.6%)     97.4%
 TRANSITION DIPOLE   0.0098         C  7 -- H 21         +46.7% ( 70.5%)     96.6%
 TRAVEL (Ang.)       0.2077         C  7 -- H 22          +1.3% ( 12.0%)      8.7%
 REDUCED MASS        0.5072         C  3 -- C  7          +1.0% ( 10.5%)      0.0%
 EFFECTIVE MASS      1.5078
 FORCE CONSTANT      2.8394

 VIBRATION         87   87A           ATOM PAIR      ENERGY CONTRIBUTION    RADIAL
 FREQUENCY          3169.42         C  8 -- H 27         +34.5% ( 56.6%)     97.2%
 TRANSITION DIPOLE   0.0663         C  8 -- H 28         +32.6% ( 55.0%)     97.1%
 TRAVEL (Ang.)       0.2550         C  8 -- H 26         +32.6% ( 54.9%)     97.0%
 REDUCED MASS        0.3272         C  8 -- C 12          +0.3% (  5.4%)    100.0%
 EFFECTIVE MASS      1.1393
 FORCE CONSTANT      1.9365

 VIBRATION         88   88A           ATOM PAIR      ENERGY CONTRIBUTION    RADIAL
 FREQUENCY          3175.17         C  5 -- H 23         +34.5% ( 56.5%)     97.3%
 TRANSITION DIPOLE   0.0297         C  5 -- H 24         +33.1% ( 55.4%)     97.1%
 TRAVEL (Ang.)       0.2548         C  5 -- H 25         +32.1% ( 54.5%)     96.9%
 REDUCED MASS        0.3271         C  1 -- C  5          +0.3% (  5.0%)     99.9%
 EFFECTIVE MASS      1.1351
 FORCE CONSTANT      1.9428

 VIBRATION         89   89A           ATOM PAIR      ENERGY CONTRIBUTION    RADIAL
 FREQUENCY          3176.18         C  7 -- H 17         +36.7% ( 58.3%)     97.6%
 TRANSITION DIPOLE   0.0241         C  7 -- H 21         +33.9% ( 56.1%)     97.2%
 TRAVEL (Ang.)       0.2539         C  7 -- H 22         +29.0% ( 51.8%)     96.3%
 REDUCED MASS        0.3293         C  3 -- C  7          +0.3% (  5.0%)     99.1%
 EFFECTIVE MASS      1.1353
 FORCE CONSTANT      1.9572

 VIBRATION         90   90A           ATOM PAIR      ENERGY CONTRIBUTION    RADIAL
 FREQUENCY          3176.61         C  6 -- H 18         +34.6% ( 56.6%)     97.3%
 TRANSITION DIPOLE   0.0319         C  6 -- H 20         +34.4% ( 56.5%)     97.3%
 TRAVEL (Ang.)       0.2545         C  6 -- H 19         +30.7% ( 53.3%)     96.6%
 REDUCED MASS        0.3279         C  4 -- C  6          +0.3% (  5.0%)     99.8%
 EFFECTIVE MASS      1.1344
 FORCE CONSTANT      1.9492

      SYMMETRY NUMBER FOR POINT-GROUP C1  =  1


          SYSTEM IS A GROUND STATE



 InChI=1S/C12H20/c1-5-6-12-10(3)8-7-9(2)11(12)4/h5-12H,1-4H3


          MOLECULE IS NOT LINEAR

          THERE ARE 90 GENUINE VIBRATIONS IN THIS SYSTEM
          THIS THERMODYNAMICS CALCULATION IS LIMITED TO
          MOLECULES WHICH HAVE NO INTERNAL ROTATIONS




                    CALCULATED THERMODYNAMIC PROPERTIES
                                          *
   TEMP. (K)   PARTITION FUNCTION   H.O.F.    ENTHALPY  HEAT CAPACITY ENTROPY
                                   KCAL/MOL   CAL/MOLE    CAL/K/MOL  CAL/K/MOL


 298.00  VIB.     0.3268D+05                  6923.7462    46.3718    43.8902
         ROT.     0.1306D+07                   888.2803     2.9808    30.9654
         INT.     0.4268D+11                  7812.0265    49.3526    74.8557
         TRA.     0.2036D+28                  1480.4672     4.9680    41.1956
         TOT.                       -8.527    9292.4937    54.3206   116.0513

 200.00  VIB.     0.6859D+03                  3161.9134    30.8855    28.7874
         ROT.     0.7180D+06                   596.1613     2.9808    29.7768
         INT.     0.4925D+09                  3758.0747    33.8663    58.5642
         TRA.     0.1119D+28                   993.6021     4.9680    39.2145
         TOT.                      -13.068    4751.6768    38.8343    97.7787

 210.00  VIB.     0.1020D+04                  3477.9288    32.3230    30.3290
         ROT.     0.7725D+06                   625.9693     2.9808    29.9222
         INT.     0.7884D+09                  4103.8982    35.3038    60.2512
         TRA.     0.1204D+28                  1043.2822     4.9680    39.4569
         TOT.                      -12.672    5147.1804    40.2718    99.7081

 220.00  VIB.     0.1517D+04                  3808.4862    33.7943    31.8665
         ROT.     0.8284D+06                   655.7774     2.9808    30.0609
         INT.     0.1257D+10                  4464.2636    36.7751    61.9273
         TRA.     0.1291D+28                  1092.9623     4.9680    39.6880
         TOT.                      -12.262    5557.2259    41.7431   101.6154

 230.00  VIB.     0.2253D+04                  4153.9332    35.3011    33.4018
         ROT.     0.8855D+06                   685.5855     2.9808    30.1934
         INT.     0.1995D+10                  4839.5187    38.2819    63.5952
         TRA.     0.1380D+28                  1142.6424     4.9680    39.9088
         TOT.                      -11.837    5982.1611    43.2499   103.5040

 240.00  VIB.     0.3344D+04                  4514.6258    36.8433    34.9367
         ROT.     0.9439D+06                   715.3935     2.9808    30.3202
         INT.     0.3156D+10                  5230.0193    39.8241    65.2569
         TRA.     0.1471D+28                  1192.3226     4.9680    40.1203
         TOT.                      -11.397    6422.3419    44.7921   105.3772

 250.00  VIB.     0.4959D+04                  4890.9138    38.4198    36.4725
         ROT.     0.1003D+07                   745.2016     2.9808    30.4419
         INT.     0.4976D+10                  5636.1154    41.4006    66.9144
         TRA.     0.1564D+28                  1242.0027     4.9680    40.3231
         TOT.                      -10.941    6878.1181    46.3687   107.2375

 260.00  VIB.     0.7350D+04                  5283.1292    40.0283    38.0106
         ROT.     0.1064D+07                   775.0097     2.9808    30.5588
         INT.     0.7822D+10                  6058.1389    43.0092    68.5694
         TRA.     0.1659D+28                  1291.6828     4.9680    40.5179
         TOT.                      -10.470    7349.8217    47.9772   109.0874

 270.00  VIB.     0.1089D+05                  5691.5772    41.6658    39.5519
         ROT.     0.1126D+07                   804.8177     2.9808    30.6713
         INT.     0.1226D+11                  6496.3949    44.6466    70.2232
         TRA.     0.1756D+28                  1341.3629     4.9680    40.7054
         TOT.                       -9.982    7837.7578    49.6146   110.9287

 280.00  VIB.     0.1613D+05                  6116.5287    43.3284    41.0972
         ROT.     0.1189D+07                   834.6258     2.9808    30.7797
         INT.     0.1918D+11                  6951.1545    46.3092    71.8769
         TRA.     0.1854D+28                  1391.0430     4.9680    40.8861
         TOT.                       -9.477    8342.1975    51.2772   112.7630

 290.00  VIB.     0.2388D+05                  6558.2164    45.0123    42.6469
         ROT.     0.1254D+07                   864.4339     2.9808    30.8843
         INT.     0.2994D+11                  7422.6502    47.9931    73.5313
         TRA.     0.1954D+28                  1440.7231     4.9680    41.0604
         TOT.                       -8.956    8863.3733    52.9611   114.5917

 300.00  VIB.     0.3535D+05                  7016.8310    46.7131    44.2016
         ROT.     0.1319D+07                   894.2419     2.9808    30.9854
         INT.     0.4663D+11                  7911.0730    49.6939    75.1869
         TRA.     0.2056D+28                  1490.4032     4.9680    41.2289
         TOT.                       -8.418    9401.4762    54.6619   116.4158

 310.00  VIB.     0.5233D+05                  7492.5207    48.4266    45.7612
         ROT.     0.1386D+07                   924.0500     2.9808    31.0831
         INT.     0.7251D+11                  8416.5706    51.4074    76.8443
         TRA.     0.2160D+28                  1540.0833     4.9680    41.3918
         TOT.                       -7.863    9956.6539    56.3754   118.2361

 320.00  VIB.     0.7748D+05                  7985.3902    50.1484    47.3258
         ROT.     0.1453D+07                   953.8580     2.9808    31.1778
         INT.     0.1126D+12                  8939.2482    53.1292    78.5036
         TRA.     0.2265D+28                  1589.7634     4.9680    41.5495
         TOT.                       -7.290   10529.0116    58.0972   120.0531

 330.00  VIB.     0.1147D+06                  8495.5025    51.8745    48.8954
         ROT.     0.1522D+07                   983.6661     2.9808    31.2695
         INT.     0.1746D+12                  9479.1686    54.8553    80.1649
         TRA.     0.2372D+28                  1639.4435     4.9680    41.7024
         TOT.                       -6.701   11118.6121    59.8233   121.8673

 340.00  VIB.     0.1699D+06                  9022.8804    53.6009    50.4696
         ROT.     0.1592D+07                  1013.4742     2.9808    31.3585
         INT.     0.2704D+12                 10036.3546    56.5817    81.8281
         TRA.     0.2481D+28                  1689.1236     4.9680    41.8507
         TOT.                       -6.094   11725.4782    61.5497   123.6788

 350.00  VIB.     0.2517D+06                  9567.5086    55.3239    52.0483
         ROT.     0.1662D+07                  1043.2822     2.9808    31.4449
         INT.     0.4183D+12                 10610.7908    58.3047    83.4931
         TRA.     0.2591D+28                  1738.8037     4.9680    41.9947
         TOT.                       -5.470   12349.5946    63.2728   125.4878

 360.00  VIB.     0.3729D+06                 10129.3368    57.0403    53.6309
         ROT.     0.1734D+07                  1073.0903     2.9808    31.5289
         INT.     0.6466D+12                 11202.4271    60.0211    85.1597
         TRA.     0.2703D+28                  1788.4838     4.9680    42.1347
         TOT.                       -4.829   12990.9109    64.9891   127.2944

 370.00  VIB.     0.5526D+06                 10708.2825    58.7470    55.2170
         ROT.     0.1807D+07                  1102.8984     2.9808    31.6105
         INT.     0.9985D+12                 11811.1808    61.7278    86.8275
         TRA.     0.2817D+28                  1838.1639     4.9680    42.2708
         TOT.                       -4.170   13649.3448    66.6958   129.0983

 380.00  VIB.     0.8193D+06                 11304.2343    60.4411    56.8062
         ROT.     0.1880D+07                  1132.7064     2.9808    31.6900
         INT.     0.1541D+13                 12436.9407    63.4219    88.4962
         TRA.     0.2932D+28                  1887.8440     4.9680    42.4033
         TOT.                       -3.495   14324.7847    68.3899   130.8995

 390.00  VIB.     0.1215D+07                 11917.0549    62.1204    58.3980
         ROT.     0.1955D+07                  1162.5145     2.9808    31.7674
         INT.     0.2376D+13                 13079.5694    65.1012    90.1654
         TRA.     0.3048D+28                  1937.5242     4.9680    42.5323
         TOT.                       -2.802   15017.0936    70.0692   132.6977

 400.00  VIB.     0.1803D+07                 12546.5846    63.7826    59.9917
         ROT.     0.2031D+07                  1192.3226     2.9808    31.8429
         INT.     0.3661D+13                 13738.9072    66.7634    91.8346
         TRA.     0.3166D+28                  1987.2043     4.9680    42.6581
         TOT.                       -2.093   15726.1114    71.7314   134.4927

   *: NOTE: HEATS OF FORMATION ARE RELATIVE TO THE
            ELEMENTS IN THEIR STANDARD STATE AT 298K
              (=  Standard Enthalpy of Formation).

            Hvib:  Zero-point energy is not included.
                   frequencies of less than zero cm-1 are not included.
            Hrot = (3/2)RT
            Htra = (3/2)RT + pV = (5/2)RT

            Heat capacity is Cp, not Cv

          For more information, see: HTTP://OpenMOPAC.net/Manual/thermochemistry.html


           FORCE CONSTANT IN CARTESIAN COORDINATES (Millidynes/A)

    ATOM   CHEMICAL       X               Y               Z
   NUMBER   SYMBOL  FORCE CONSTANT  FORCE CONSTANT  FORCE CONSTANT

      1       C        7.855308        8.114731        8.476840
      2       C        7.764469        9.096275        8.201388
      3       C        8.568653        8.313531        8.371761
      4       C        8.630453        8.743813        7.950800
      5       C        8.365733        8.366547        8.078626
      6       C        8.147566        8.384694        8.331963
      7       C        8.244355        8.380645        8.127151
      8       C        8.086618        8.980939        8.384901
      9       C       12.671173        8.498266        6.114854
     10       C       12.396962        8.711290        6.173033
     11       C        3.692772        9.659193       13.748149
     12       C        3.494584       10.019492       13.632859
     13       H        1.056273        1.522975        3.439378
     14       H        0.802274        1.852323        3.223223
     15       H        4.062365        0.773943        1.117238
     16       H        1.054161        1.690448        3.169384
     17       H        1.208852        4.845267        0.738291
     18       H        1.366495        1.519423        3.904951
     19       H        1.711093        4.287110        0.759367
     20       H        0.904534        2.336611        3.536901
     21       H        2.352057        2.065076        2.365259
     22       H        4.636772        0.667439        1.412104
     23       H        5.301242        0.714362        0.764608
     24       H        1.380739        4.699381        0.705657
     25       H        0.875855        1.619125        4.252728
     26       H        2.588262        2.054231        2.018661
     27       H        0.723101        1.577511        4.465352
     28       H        4.337835        0.665122        1.659591
     29       H        1.619693        2.531629        2.081771
     30       H        1.422341        4.153041        0.649163
     31       H        0.476521        1.756253        3.978482
     32       H        0.489508        1.770213        3.963355

 **********************
 *                    *
 * JOB ENDED NORMALLY *
 *                    *
 **********************



 TOTAL JOB TIME:             7.96 SECONDS

 == MOPAC DONE ==
