 *******************************************************************************
 **                                                                           **
 **                              MOPAC v23.1.2                                **
 **                                                                           **
 *******************************************************************************
 **          Digital Object Identifier (DOI): 10.5281/zenodo.6511958          **
 **    Visit the DOI location for information on how to cite this program.    **
 *******************************************************************************

                              PM3 CALCULATION RESULTS

 *******************************************************************************
 *  CALCULATION DONE: (MAX THREADS = 1)              Tue Jun  3 16:28:12 2025  *
 *  PM3        - The PM3 Hamiltonian to be used
 *  PRECISE    - TIGHTER CRITERIA TO BE USED
 *  NOSYM      - POINT-GROUP SYMMETRY SET TO C1
 *  THREADS=1  - MULTI-THREADING NOT USED
 *  T=         - A TIME OF 172800.0 SECONDS REQUESTED
 *  DUMP=N     - RESTART FILE WRITTEN EVERY 7200.0 SECONDS REQUESTED
 *******************************************************************************
pm3  precise nosym THREADS=1
 InChI=1S/C6H6/c1-2-4-6-5-3-1/h1-6H

   ATOM   CHEMICAL          X               Y               Z
  NUMBER   SYMBOL      (ANGSTROMS)     (ANGSTROMS)     (ANGSTROMS)

     1       C          1.26800000  *   0.59090000  *   0.02040000  *
     2       C          1.14600000  *  -0.80160000  *  -0.03740000  *
     3       C          0.12200000  *   1.39250000  *   0.05770000  *
     4       C         -0.12200000  *  -1.39250000  *  -0.05770000  *
     5       C         -1.14600000  *   0.80160000  *   0.03740000  *
     6       C         -1.26800000  *  -0.59090000  *  -0.02040000  *
     7       H          2.24890000  *   1.04800000  *   0.03610000  *
     8       H          2.03260000  *  -1.42180000  *  -0.06630000  *
     9       H          0.21630000  *   2.46980000  *   0.10240000  *
    10       H         -0.21630000  *  -2.46980000  *  -0.10240000  *
    11       H         -2.03260000  *   1.42180000  *   0.06630000  *
    12       H         -2.24890000  *  -1.04800000  *  -0.03610000  *



          CARTESIAN COORDINATES 

    NO.       ATOM           X           Y           Z

     1         C          1.2680      0.5909      0.0204
     2         C          1.1460     -0.8016     -0.0374
     3         C          0.1220      1.3925      0.0577
     4         C         -0.1220     -1.3925     -0.0577
     5         C         -1.1460      0.8016      0.0374
     6         C         -1.2680     -0.5909     -0.0204
     7         H          2.2489      1.0480      0.0361
     8         H          2.0326     -1.4218     -0.0663
     9         H          0.2163      2.4698      0.1024
    10         H         -0.2163     -2.4698     -0.1024
    11         H         -2.0326      1.4218      0.0663
    12         H         -2.2489     -1.0480     -0.0361

  H: (PM3): J. J. P. STEWART, J. COMP. CHEM. 10, 209 (1989).
  C: (PM3): J. J. P. STEWART, J. COMP. CHEM. 10, 209 (1989).

           Empirical Formula: C6 H6  =    12 atoms



      MOLECULAR POINT GROUP   :   C1  


      RHF CALCULATION, NO. OF DOUBLY OCCUPIED LEVELS = 15


          Geometry optimization using EF

          DIAGONAL MATRIX USED AS START HESSIAN

 CYCLE:     1 TIME:   0.004 TIME LEFT:  2.00D  GRAD.:    57.349 HEAT:  24.02067
 CYCLE:     2 TIME:   0.012 TIME LEFT:  2.00D  GRAD.:     3.831 HEAT:  23.39104
 CYCLE:     3 TIME:   0.008 TIME LEFT:  2.00D  GRAD.:     9.016 HEAT:  23.40019
 CYCLE:     4 TIME:   0.008 TIME LEFT:  2.00D  GRAD.:     6.845 HEAT:  23.39575
 CYCLE:     5 TIME:   0.008 TIME LEFT:  2.00D  GRAD.:     1.721 HEAT:  23.38655
 CYCLE:     6 TIME:   0.004 TIME LEFT:  2.00D  GRAD.:     2.144 HEAT:  23.38667
 CYCLE:     7 TIME:   0.004 TIME LEFT:  2.00D  GRAD.:     0.878 HEAT:  23.38610
 CYCLE:     8 TIME:   0.012 TIME LEFT:  2.00D  GRAD.:     0.661 HEAT:  23.38603
 CYCLE:     9 TIME:   0.008 TIME LEFT:  2.00D  GRAD.:     0.325 HEAT:  23.38596
 CYCLE:    10 TIME:   0.004 TIME LEFT:  2.00D  GRAD.:     0.474 HEAT:  23.38597
 CYCLE:    11 TIME:   0.004 TIME LEFT:  2.00D  GRAD.:     0.064 HEAT:  23.38592
 CYCLE:    12 TIME:   0.004 TIME LEFT:  2.00D  GRAD.:     0.051 HEAT:  23.38591
 CYCLE:    13 TIME:   0.012 TIME LEFT:  2.00D  GRAD.:     0.038 HEAT:  23.38591

     GRADIENT =  0.03795 IS LESS THAN CUTOFF =  0.05000



 -------------------------------------------------------------------------------
 pm3  precise nosym THREADS=1
 InChI=1S/C6H6/c1-2-4-6-5-3-1/h1-6H



     GEOMETRY OPTIMISED USING EIGENVECTOR FOLLOWING (EF).     
     SCF FIELD WAS ACHIEVED                                   


                              PM3 CALCULATION
                                                       MOPAC v23.1.2 MacOS
                                                       Tue Jun  3 16:28:12 2025




          FINAL HEAT OF FORMATION =         23.38591 KCAL/MOL =      97.84663 KJ/MOL


          COSMO AREA              =        118.75 SQUARE ANGSTROMS
          COSMO VOLUME            =        107.31 CUBIC ANGSTROMS

          GRADIENT NORM           =          0.03795          =       0.01096 PER ATOM
          IONIZATION POTENTIAL    =          9.751282 EV
          HOMO LUMO ENERGIES (EV) =         -9.751  0.396
          NO. OF FILLED LEVELS    =         15
          MOLECULAR WEIGHT        =         78.1134         POINT GROUP:  C1  

          MOLECULAR DIMENSIONS (Angstroms)

            Atom       Atom       Distance
            H    12    H     7     4.97171
            H    10    H     9     4.30565
            H    11    H     8     0.00004


          SCF CALCULATIONS        =         17

          WALL-CLOCK TIME         =      0.117 SECONDS
          COMPUTATION TIME        =      0.057 SECONDS




   ATOM   CHEMICAL          X               Y               Z
  NUMBER   SYMBOL      (ANGSTROMS)     (ANGSTROMS)     (ANGSTROMS)

     1       C          1.26077901  *   0.58753710  *   0.02023550  *
     2       C          1.13948773  *  -0.79707280  *  -0.03715265  *
     3       C          0.12127534  *   1.38461174  *   0.05741611  *
     4       C         -0.12127534  *  -1.38461176  *  -0.05741612  *
     5       C         -1.13948773  *   0.79707281  *   0.03715265  *
     6       C         -1.26077901  *  -0.58753708  *  -0.02023550  *
     7       H          2.25296708  *   1.04990582  *   0.03617094  *
     8       H          2.03621877  *  -1.42435149  *  -0.06640004  *
     9       H          0.21670735  *   2.47426367  *   0.10259161  *
    10       H         -0.21670735  *  -2.47426366  *  -0.10259161  *
    11       H         -2.03621877  *   1.42435149  *   0.06640004  *
    12       H         -2.25296708  *  -1.04990582  *  -0.03617094  *

                             CARTESIAN COORDINATES

   1    C        1.260779006     0.587537095     0.020235503
   2    C        1.139487733    -0.797072803    -0.037152652
   3    C        0.121275337     1.384611743     0.057416114
   4    C       -0.121275338    -1.384611761    -0.057416116
   5    C       -1.139487730     0.797072807     0.037152653
   6    C       -1.260779009    -0.587537084    -0.020235502
   7    H        2.252967081     1.049905820     0.036170941
   8    H        2.036218770    -1.424351494    -0.066400042
   9    H        0.216707352     2.474263672     0.102591613
  10    H       -0.216707351    -2.474263664    -0.102591613
  11    H       -2.036218770     1.424351493     0.066400042
  12    H       -2.252967081    -1.049905820    -0.036170941


           Empirical Formula: C6 H6  =    12 atoms



      MOLECULAR POINT GROUP   :   C1  


                  EIGENVALUES  
 -39.40671 -29.57998 -29.57982 -21.41578 -21.41563 -18.51075 -16.28645 -15.15144
 -14.63734 -14.63730 -13.23545 -12.37606 -12.37594  -9.75139  -9.75128   0.39609
   0.39618   2.86560   3.27284   3.49917   3.49921   3.62905   4.00763   4.00765
   5.01768   5.01775   5.24600   5.24604   6.12656   6.31816


              NET ATOMIC CHARGES AND DIPOLE CONTRIBUTIONS

  ATOM NO.   TYPE          CHARGE      No. of ELECS.   s-Pop       p-Pop       
    1          C          -0.102107        4.1021     1.17946     2.92264
    2          C          -0.102111        4.1021     1.17946     2.92265
    3          C          -0.102110        4.1021     1.17946     2.92265
    4          C          -0.102110        4.1021     1.17946     2.92265
    5          C          -0.102111        4.1021     1.17946     2.92265
    6          C          -0.102107        4.1021     1.17946     2.92264
    7          H           0.102111        0.8979     0.89789
    8          H           0.102107        0.8979     0.89789
    9          H           0.102110        0.8979     0.89789
   10          H           0.102110        0.8979     0.89789
   11          H           0.102107        0.8979     0.89789
   12          H           0.102111        0.8979     0.89789
 DIPOLE           X         Y         Z       TOTAL
 POINT-CHG.    -0.000     0.000     0.000     0.000
 HYBRID         0.000    -0.000    -0.000     0.000
 SUM           -0.000    -0.000     0.000     0.000


          ATOMIC ORBITAL ELECTRON POPULATIONS

     Atom    s        px        py        pz   
    1  C   1.17946   0.97471   0.94803   0.99990
    2  C   1.17946   0.96845   0.95428   0.99993
    3  C   1.17946   0.94081   0.98187   0.99997
    4  C   1.17946   0.94081   0.98187   0.99997
    5  C   1.17946   0.96845   0.95428   0.99993
    6  C   1.17946   0.97471   0.94803   0.99990
    7  H   0.89789
    8  H   0.89789
    9  H   0.89789
   10  H   0.89789
   11  H   0.89789
   12  H   0.89789
 *******************************************************************************
 **                                                                           **
 **                              MOPAC v23.1.2                                **
 **                                                                           **
 *******************************************************************************
 **          Digital Object Identifier (DOI): 10.5281/zenodo.6511958          **
 **    Visit the DOI location for information on how to cite this program.    **
 *******************************************************************************

                              PM3 CALCULATION RESULTS

 *******************************************************************************
 *  CALCULATION DONE: (MAX THREADS = 1)              Tue Jun  3 16:28:12 2025  *
 *  PM3        - The PM3 Hamiltonian to be used
 *  OLDGEO     - PREVIOUS GEOMETRY TO BE USED
 *  PRECISE    - TIGHTER CRITERIA TO BE USED
 *  NOSYM      - POINT-GROUP SYMMETRY SET TO C1
 *  THREADS=1  - MULTI-THREADING NOT USED
 *  T=         - A TIME OF 172800.0 SECONDS REQUESTED
 *  DUMP=N     - RESTART FILE WRITTEN EVERY 7200.0 SECONDS REQUESTED
 *  THERMO     - THERMODYNAMIC QUANTITIES TO BE CALCULATED
 *******************************************************************************
oldgeo thermo nosym precise THREADS=1  pm3
 InChI=1S/C6H6/c1-2-4-6-5-3-1/h1-6H

   ATOM   CHEMICAL          X               Y               Z
  NUMBER   SYMBOL      (ANGSTROMS)     (ANGSTROMS)     (ANGSTROMS)

     1       C          1.26077901  *   0.58753710  *   0.02023550  *
     2       C          1.13948773  *  -0.79707280  *  -0.03715265  *
     3       C          0.12127534  *   1.38461174  *   0.05741611  *
     4       C         -0.12127534  *  -1.38461176  *  -0.05741612  *
     5       C         -1.13948773  *   0.79707281  *   0.03715265  *
     6       C         -1.26077901  *  -0.58753708  *  -0.02023550  *
     7       H          2.25296708  *   1.04990582  *   0.03617094  *
     8       H          2.03621877  *  -1.42435149  *  -0.06640004  *
     9       H          0.21670735  *   2.47426367  *   0.10259161  *
    10       H         -0.21670735  *  -2.47426366  *  -0.10259161  *
    11       H         -2.03621877  *   1.42435149  *   0.06640004  *
    12       H         -2.25296708  *  -1.04990582  *  -0.03617094  *



          CARTESIAN COORDINATES 

    NO.       ATOM           X           Y           Z

     1         C          1.2608      0.5875      0.0202
     2         C          1.1395     -0.7971     -0.0372
     3         C          0.1213      1.3846      0.0574
     4         C         -0.1213     -1.3846     -0.0574
     5         C         -1.1395      0.7971      0.0372
     6         C         -1.2608     -0.5875     -0.0202
     7         H          2.2530      1.0499      0.0362
     8         H          2.0362     -1.4244     -0.0664
     9         H          0.2167      2.4743      0.1026
    10         H         -0.2167     -2.4743     -0.1026
    11         H         -2.0362      1.4244      0.0664
    12         H         -2.2530     -1.0499     -0.0362

  H: (PM3): J. J. P. STEWART, J. COMP. CHEM. 10, 209 (1989).
  C: (PM3): J. J. P. STEWART, J. COMP. CHEM. 10, 209 (1989).

           Empirical Formula: C6 H6  =    12 atoms



      MOLECULAR POINT GROUP   :   C1  


      RHF CALCULATION, NO. OF DOUBLY OCCUPIED LEVELS = 15



          HEAT OF FORMATION =      23.385906 KCALS/MOLE


          CARTESIAN COORDINATE DERIVATIVES

   NUMBER  ATOM         X            Y            Z

     1       C      0.006810    -0.011467     0.006422
     2       C      0.002437     0.004735    -0.006269
     3       C      0.002921     0.017071    -0.006296
     4       C     -0.002875    -0.017072     0.006297
     5       C     -0.002447    -0.004748     0.006269
     6       C     -0.006833     0.011480    -0.006422
     7       H      0.000230    -0.000490    -0.000560
     8       H     -0.001928     0.005795     0.000475
     9       H     -0.004401     0.001144     0.000490
    10       H      0.004384    -0.001144    -0.000490
    11       H      0.001929    -0.005795    -0.000475
    12       H     -0.000228     0.000491     0.000561



          GRADIENT NORM =   0.03703

          MOLECULAR WEIGHT =   78.11



          ROTATIONAL CONSTANTS IN CM(-1)

          A =    0.19066687   B =    0.19066619   C =    0.09533327



           PRINCIPAL MOMENTS OF INERTIA IN UNITS OF 10**(-40)*GRAM-CM**2

          A =      146.8150   B =      146.8155   C =      293.6305


          ORIENTATION OF MOLECULE IN FORCE CALCULATION

    NO.       ATOM         X         Y         Z

     1          C      -0.6956   -1.2047   -0.0000
     2          C       0.6955   -1.2047   -0.0000
     3          C      -1.3911    0.0000   -0.0000
     4          C       1.3911   -0.0000    0.0000
     5          C      -0.6955    1.2047    0.0000
     6          C       0.6956    1.2047    0.0000
     7          H      -1.2429   -2.1528   -0.0001
     8          H       1.2429   -2.1528   -0.0000
     9          H      -2.4859    0.0000   -0.0000
    10          H       2.4859   -0.0000    0.0000
    11          H      -1.2429    2.1528    0.0000
    12          H       1.2429    2.1528    0.0001


    FIRST DERIVATIVES WILL BE USED IN THE CALCULATION OF SECOND DERIVATIVES

          ESTIMATED TIME TO COMPLETE CALCULATION =        0.56 SECONDS

    FOR POINT-GROUP C1   THERE ARE   1 UNIQUE SYMMETRY FUNCTIONS.

 STEP:   1 TIME =     0.01 SECS, INTEGRAL =      0.01 TIME LEFT: 172799.98
 STEP:   2 TIME =     0.01 SECS, INTEGRAL =      0.02 TIME LEFT: 172799.97
 STEP:   3 TIME =     0.01 SECS, INTEGRAL =      0.04 TIME LEFT: 172799.96
 STEP:   4 TIME =     0.01 SECS, INTEGRAL =      0.05 TIME LEFT: 172799.95
 STEP:   5 TIME =     0.01 SECS, INTEGRAL =      0.06 TIME LEFT: 172799.94
 STEP:   6 TIME =     0.02 SECS, INTEGRAL =      0.07 TIME LEFT: 172799.92
 STEP:   7 TIME =     0.01 SECS, INTEGRAL =      0.09 TIME LEFT: 172799.91
 STEP:   8 TIME =     0.02 SECS, INTEGRAL =      0.10 TIME LEFT: 172799.89
 STEP:   9 TIME =     0.02 SECS, INTEGRAL =      0.12 TIME LEFT: 172799.88
 STEP:  10 TIME =     0.01 SECS, INTEGRAL =      0.13 TIME LEFT: 172799.87
 STEP:  11 TIME =     0.02 SECS, INTEGRAL =      0.15 TIME LEFT: 172799.85
 STEP:  12 TIME =     0.02 SECS, INTEGRAL =      0.16 TIME LEFT: 172799.83
 STEP:  13 TIME =     0.02 SECS, INTEGRAL =      0.18 TIME LEFT: 172799.81
 STEP:  14 TIME =     0.01 SECS, INTEGRAL =      0.20 TIME LEFT: 172799.80
 STEP:  15 TIME =     0.01 SECS, INTEGRAL =      0.21 TIME LEFT: 172799.79
 STEP:  16 TIME =     0.01 SECS, INTEGRAL =      0.22 TIME LEFT: 172799.78
 STEP:  17 TIME =     0.01 SECS, INTEGRAL =      0.23 TIME LEFT: 172799.77
 STEP:  18 TIME =     0.02 SECS, INTEGRAL =      0.25 TIME LEFT: 172799.75
 STEP:  19 TIME =     0.01 SECS, INTEGRAL =      0.26 TIME LEFT: 172799.74
 STEP:  20 TIME =     0.01 SECS, INTEGRAL =      0.27 TIME LEFT: 172799.73
 STEP:  21 TIME =     0.01 SECS, INTEGRAL =      0.28 TIME LEFT: 172799.71
 STEP:  22 TIME =     0.01 SECS, INTEGRAL =      0.29 TIME LEFT: 172799.71
 STEP:  23 TIME =     0.01 SECS, INTEGRAL =      0.30 TIME LEFT: 172799.70
 STEP:  24 TIME =     0.01 SECS, INTEGRAL =      0.30 TIME LEFT: 172799.69
 STEP:  25 TIME =     0.01 SECS, INTEGRAL =      0.31 TIME LEFT: 172799.68
 STEP:  26 TIME =     0.01 SECS, INTEGRAL =      0.32 TIME LEFT: 172799.67
 STEP:  27 TIME =     0.01 SECS, INTEGRAL =      0.34 TIME LEFT: 172799.66
 STEP:  28 TIME =     0.01 SECS, INTEGRAL =      0.35 TIME LEFT: 172799.65
 STEP:  29 TIME =     0.01 SECS, INTEGRAL =      0.36 TIME LEFT: 172799.64
 STEP:  30 TIME =     0.01 SECS, INTEGRAL =      0.37 TIME LEFT: 172799.63
 STEP:  31 TIME =     0.01 SECS, INTEGRAL =      0.38 TIME LEFT: 172799.62
 STEP:  32 TIME =     0.01 SECS, INTEGRAL =      0.39 TIME LEFT: 172799.61
 STEP:  33 TIME =     0.01 SECS, INTEGRAL =      0.39 TIME LEFT: 172799.60
 STEP:  34 TIME =     0.01 SECS, INTEGRAL =      0.40 TIME LEFT: 172799.59
 STEP:  35 TIME =     0.01 SECS, INTEGRAL =      0.41 TIME LEFT: 172799.58
 STEP:  36 TIME =     0.01 SECS, INTEGRAL =      0.43 TIME LEFT: 172799.57

(To convert to Hartree/Bohr^2, multiply by (10^(-21) x N x a0^2)/(4.184 x 627.51) =  0.0642)


           FORCE MATRIX IN MILLIDYNES/ANGSTROM


                  C  1       C  2       C  3       C  4       C  5       C  6
 ------------------------------------------------------------------------------
     C    1  17.273794
     C    2   6.998059  17.274032
     C    3   7.006987   2.540848  17.249452
     C    4   2.540702   7.007472   1.908429  17.249587
     C    5   2.519293   1.870774   7.007468   2.540765  17.274210
     C    6   1.870612   2.519425   2.540798   7.006967   6.998077  17.273596
     H    7   4.865247   0.439524   0.439571   0.091050   0.091010   0.010635
     H    8   0.439466   4.865435   0.091048   0.439562   0.010614   0.091011
     H    9   0.440060   0.091016   4.864958   0.011124   0.440061   0.091014
     H   10   0.091012   0.440063   0.011124   4.864962   0.091011   0.440063
     H   11   0.091013   0.010640   0.439581   0.091049   4.865428   0.439522
     H   12   0.010604   0.091005   0.091044   0.439533   0.439466   4.865267


                  H  7       H  8       H  9       H 10       H 11       H 12
 ------------------------------------------------------------------------------
     H    7   5.231306
     H    8   0.041757   5.231482
     H    9   0.041760   0.007236   5.231064
     H   10   0.007237   0.041765   0.008698   5.231069
     H   11   0.007207   0.008717   0.041766   0.007237   5.231479
     H   12   0.008717   0.007205   0.007236   0.041759   0.041756   5.231328


          HEAT OF FORMATION =      23.385906 KCALS/MOLE

          ZERO POINT ENERGY      62.003 KCAL/MOL


           NORMAL COORDINATE ANALYSIS (Total motion = 1 Angstrom)


   Root No.       1         2         3         4         5         6         7         8

                 1 A       2 A       3 A       4 A       5 A       6 A       7 A       8 A   

                 354.8     355.1     618.4     620.2     620.4     712.4     848.3     848.5
  
           1    0.0000    0.0000   -0.0000    0.0692    0.0045    0.0000   -0.0000    0.0000
           2    0.0000    0.0000   -0.0000    0.0731   -0.0691    0.0000   -0.0000   -0.0000
           3   -0.0627   -0.0366    0.0352    0.0000   -0.0000   -0.0129    0.0313    0.0173
           4   -0.0000    0.0000   -0.0000    0.0690   -0.0066    0.0000    0.0000    0.0000
           5   -0.0000    0.0000    0.0000   -0.0752   -0.0669    0.0000   -0.0000    0.0000
           6    0.0668   -0.0302   -0.0352   -0.0000   -0.0000   -0.0129    0.0326   -0.0154
           7    0.0000   -0.0000    0.0000    0.0017    0.1122    0.0000    0.0000   -0.0000
           8    0.0000   -0.0000    0.0000    0.0455   -0.0007    0.0000    0.0000   -0.0000
           9   -0.0041    0.0668   -0.0353   -0.0000    0.0000   -0.0128   -0.0013    0.0325
          10   -0.0000   -0.0000   -0.0000   -0.0017   -0.1122    0.0000   -0.0000    0.0000
          11    0.0000   -0.0000   -0.0000   -0.0455    0.0007    0.0000    0.0000    0.0000
          12   -0.0041    0.0668    0.0352    0.0000   -0.0000   -0.0128    0.0013   -0.0325
          13   -0.0000    0.0000    0.0000   -0.0690    0.0066    0.0000    0.0000    0.0000
          14   -0.0000    0.0000   -0.0000    0.0752    0.0669   -0.0000    0.0000   -0.0000
          15    0.0668   -0.0302    0.0352    0.0000    0.0000   -0.0129   -0.0326    0.0154
          16    0.0000    0.0000    0.0000   -0.0692   -0.0045   -0.0000    0.0000    0.0000
          17    0.0000    0.0000    0.0000   -0.0731    0.0691   -0.0000    0.0000   -0.0000
          18   -0.0627   -0.0366   -0.0352   -0.0000    0.0000   -0.0129   -0.0313   -0.0173
          19    0.0000    0.0000   -0.0000    0.0269   -0.0646   -0.0000    0.0000    0.0000
          20    0.0000    0.0000   -0.0000    0.0970   -0.0289   -0.0000    0.0000    0.0000
          21   -0.1720   -0.1004    0.1315    0.0000   -0.0000    0.1538   -0.2090   -0.1151
          22   -0.0000    0.0000    0.0000    0.0288    0.0638   -0.0000    0.0000   -0.0000
          23   -0.0000    0.0000    0.0000   -0.0978   -0.0260   -0.0000    0.0000   -0.0000
          24    0.1832   -0.0830   -0.1315   -0.0000    0.0000    0.1538   -0.2174    0.1023
          25    0.0000   -0.0000    0.0000    0.0017    0.1117   -0.0000   -0.0000    0.0000
          26    0.0000   -0.0000    0.0000   -0.0492    0.0007   -0.0000   -0.0000    0.0000
          27   -0.0112    0.1830   -0.1313   -0.0000    0.0000    0.1537    0.0084   -0.2173
          28   -0.0000   -0.0000   -0.0000   -0.0017   -0.1117   -0.0000   -0.0000   -0.0000
          29    0.0000   -0.0000   -0.0000    0.0492   -0.0007   -0.0000    0.0000   -0.0000
          30   -0.0112    0.1830    0.1313    0.0000   -0.0000    0.1537   -0.0084    0.2173
          31   -0.0000    0.0000   -0.0000   -0.0289   -0.0638   -0.0000   -0.0000    0.0000
          32   -0.0000    0.0000   -0.0000    0.0978    0.0260   -0.0000   -0.0000    0.0000
          33    0.1832   -0.0830    0.1315    0.0000   -0.0000    0.1538    0.2174   -0.1023
          34    0.0000    0.0000    0.0000   -0.0269    0.0646   -0.0000   -0.0000   -0.0000
          35    0.0000    0.0000    0.0000   -0.0970    0.0289   -0.0000   -0.0000   -0.0000
          36   -0.1720   -0.1003   -0.1315   -0.0000    0.0000    0.1538    0.2090    0.1151


   Root No.       9        10        11        12        13        14        15        16

                 9 A      10 A      11 A      12 A      13 A      14 A      15 A      16 A   

                 975.6     977.1     977.2    1023.6    1068.5    1068.6    1147.6    1147.7
  
           1   -0.0411    0.0000    0.0000    0.0000   -0.0149    0.0024    0.0048    0.0077
           2   -0.0712    0.0000    0.0000    0.0000   -0.0185   -0.0133    0.0019   -0.0061
           3    0.0000    0.0448    0.0249    0.0397    0.0000    0.0000    0.0000   -0.0000
           4   -0.0411    0.0000    0.0000    0.0000    0.0150   -0.0016    0.0073   -0.0052
           5    0.0713   -0.0000   -0.0000    0.0000   -0.0147    0.0177    0.0005   -0.0064
           6   -0.0000   -0.0468    0.0219   -0.0397   -0.0000    0.0000    0.0000   -0.0000
           7    0.0822   -0.0000   -0.0000    0.0000   -0.0032   -0.0265   -0.0009    0.0044
           8   -0.0000   -0.0000    0.0000    0.0000    0.0087   -0.0012    0.0097    0.0020
           9   -0.0000    0.0019   -0.0468   -0.0398    0.0000   -0.0000    0.0000   -0.0000
          10    0.0822   -0.0000   -0.0000   -0.0000   -0.0032   -0.0265    0.0009   -0.0044
          11   -0.0000   -0.0000    0.0000   -0.0000    0.0087   -0.0012   -0.0098   -0.0020
          12   -0.0000    0.0019   -0.0468    0.0398    0.0000   -0.0000   -0.0000    0.0000
          13   -0.0411    0.0000    0.0000    0.0000    0.0150   -0.0016   -0.0073    0.0052
          14    0.0713   -0.0000   -0.0000   -0.0000   -0.0147    0.0177   -0.0005    0.0064
          15   -0.0000   -0.0468    0.0219    0.0397   -0.0000    0.0000   -0.0000    0.0000
          16   -0.0411    0.0000    0.0000    0.0000   -0.0149    0.0024   -0.0048   -0.0078
          17   -0.0712    0.0000    0.0000    0.0000   -0.0185   -0.0133   -0.0019    0.0061
          18    0.0000    0.0448    0.0248   -0.0397    0.0000   -0.0000   -0.0000   -0.0000
          19   -0.0421    0.0000    0.0000   -0.0000   -0.0860    0.1814    0.0701    0.2054
          20   -0.0732    0.0000    0.0000    0.0000    0.0223   -0.1167   -0.0335   -0.1210
          21   -0.0001   -0.1948   -0.1080   -0.1268   -0.0000   -0.0000    0.0000    0.0000
          22   -0.0421    0.0000    0.0000   -0.0000    0.1267    0.1528    0.1418   -0.1612
          23    0.0732   -0.0000   -0.0000   -0.0000    0.0495    0.1071    0.0764   -0.0981
          24    0.0001    0.2032   -0.0951    0.1268    0.0000    0.0000    0.0000   -0.0000
          25    0.0844   -0.0000   -0.0000   -0.0000   -0.0033   -0.0268   -0.0013    0.0064
          26   -0.0000   -0.0000   -0.0000   -0.0000    0.2211   -0.0296    0.2390    0.0501
          27    0.0000   -0.0084    0.2035    0.1271    0.0000    0.0000    0.0000    0.0000
          28    0.0844   -0.0000   -0.0000    0.0000   -0.0033   -0.0268    0.0013   -0.0064
          29   -0.0000   -0.0000   -0.0000    0.0000    0.2211   -0.0297   -0.2387   -0.0497
          30    0.0000   -0.0084    0.2034   -0.1271    0.0000   -0.0000   -0.0000   -0.0000
          31   -0.0421    0.0000    0.0000   -0.0000    0.1267    0.1529   -0.1420    0.1609
          32    0.0732   -0.0000   -0.0000   -0.0000    0.0496    0.1071   -0.0765    0.0979
          33    0.0000    0.2032   -0.0951   -0.1268    0.0000    0.0000   -0.0000    0.0000
          34   -0.0421    0.0000    0.0000   -0.0000   -0.0860    0.1813   -0.0699   -0.2052
          35   -0.0732    0.0000    0.0000   -0.0000    0.0223   -0.1167    0.0334    0.1209
          36   -0.0001   -0.1948   -0.1080    0.1269   -0.0000    0.0000    0.0000    0.0000


   Root No.      17        18        19        20        21        22        23        24

                17 A      18 A      19 A      20 A      21 A      22 A      23 A      24 A   

                1154.6    1224.8    1229.0    1333.5    1546.9    1547.0    1784.7    1784.7
  
           1   -0.0042    0.0188   -0.0393    0.1056   -0.0528    0.0486   -0.0878   -0.0944
           2    0.0025   -0.0109   -0.0680   -0.0615   -0.0322   -0.0547    0.0873    0.0031
           3   -0.0000   -0.0000   -0.0000    0.0000   -0.0000   -0.0000    0.0000   -0.0000
           4    0.0042    0.0188    0.0392   -0.1056    0.0630    0.0344    0.0161    0.1273
           5    0.0025    0.0109   -0.0680   -0.0615   -0.0180    0.0609   -0.0540    0.0679
           6    0.0000    0.0000   -0.0000   -0.0000   -0.0000    0.0000   -0.0000    0.0000
           7   -0.0000   -0.0000   -0.0785   -0.0000   -0.0072   -0.0587    0.0232    0.0494
           8   -0.0049   -0.0217    0.0000    0.1229    0.0745   -0.0092   -0.1328    0.0609
           9   -0.0000   -0.0000   -0.0000    0.0000    0.0000   -0.0000   -0.0000    0.0000
          10    0.0000    0.0000    0.0785    0.0000   -0.0072   -0.0587   -0.0232   -0.0494
          11   -0.0049    0.0217   -0.0000    0.1229    0.0745   -0.0092    0.1328   -0.0609
          12    0.0000    0.0000    0.0000    0.0000    0.0000   -0.0000    0.0000   -0.0000
          13    0.0042   -0.0188   -0.0392   -0.1056    0.0630    0.0344   -0.0161   -0.1273
          14    0.0025   -0.0109    0.0680   -0.0615   -0.0180    0.0609    0.0540   -0.0679
          15    0.0000   -0.0000    0.0000   -0.0000   -0.0000    0.0000    0.0000   -0.0000
          16   -0.0042   -0.0188    0.0392    0.1056   -0.0528    0.0486    0.0878    0.0944
          17    0.0025    0.0109    0.0680   -0.0615   -0.0322   -0.0547   -0.0873   -0.0031
          18   -0.0000    0.0000    0.0000    0.0000   -0.0000   -0.0000    0.0000   -0.0000
          19    0.1401   -0.1256   -0.0440    0.0373    0.0100   -0.1131    0.0599    0.0023
          20   -0.0808    0.0725   -0.0764   -0.0223   -0.0800    0.0337    0.0087   -0.0621
          21    0.0000    0.0000   -0.0000   -0.0000   -0.0000    0.0000   -0.0000    0.0000
          22   -0.1402   -0.1256    0.0441   -0.0373   -0.0370   -0.1074    0.0370   -0.0466
          23   -0.0809   -0.0725   -0.0764   -0.0223   -0.0857   -0.0134   -0.0536   -0.0336
          24   -0.0000   -0.0000    0.0000   -0.0000   -0.0000   -0.0000   -0.0000   -0.0000
          25   -0.0000   -0.0000   -0.0882   -0.0000   -0.0085   -0.0695    0.0274    0.0585
          26    0.1611    0.1448   -0.0000    0.0458   -0.1235    0.0152    0.0527   -0.0241
          27    0.0000    0.0000   -0.0000    0.0000   -0.0000    0.0000    0.0000    0.0000
          28    0.0000    0.0000    0.0882    0.0000   -0.0085   -0.0695   -0.0274   -0.0585
          29    0.1615   -0.1447    0.0000    0.0458   -0.1235    0.0152   -0.0527    0.0241
          30    0.0000   -0.0000    0.0000    0.0000   -0.0000   -0.0000   -0.0000   -0.0000
          31   -0.1404    0.1256   -0.0441   -0.0374   -0.0370   -0.1074   -0.0370    0.0466
          32   -0.0810    0.0725    0.0764   -0.0223   -0.0857   -0.0134    0.0536    0.0336
          33   -0.0000    0.0000    0.0000   -0.0000   -0.0000   -0.0000    0.0000    0.0000
          34    0.1405    0.1256    0.0440    0.0372    0.0100   -0.1131   -0.0599   -0.0023
          35   -0.0811   -0.0725    0.0764   -0.0223   -0.0800    0.0337   -0.0087    0.0622
          36    0.0000   -0.0000    0.0000   -0.0000   -0.0000   -0.0000   -0.0000    0.0000


   Root No.      25        26        27        28        29        30

                25 A      26 A      27 A      28 A      29 A      30 A   

                3054.8    3059.1    3059.2    3072.4    3072.5    3084.4
  
           1    0.0066   -0.0075   -0.0071   -0.0059   -0.0091    0.0072
           2    0.0114   -0.0112   -0.0138   -0.0124   -0.0137    0.0124
           3    0.0000   -0.0000   -0.0000   -0.0000   -0.0000    0.0000
           4    0.0066    0.0040   -0.0095   -0.0022    0.0107   -0.0072
           5   -0.0114   -0.0049    0.0172    0.0066   -0.0176    0.0125
           6   -0.0000   -0.0000    0.0000    0.0000   -0.0000    0.0000
           7   -0.0133    0.0198   -0.0043   -0.0205    0.0041    0.0143
           8   -0.0000    0.0002    0.0011    0.0003    0.0015    0.0000
           9   -0.0000    0.0000   -0.0000   -0.0000    0.0000    0.0000
          10   -0.0132   -0.0198    0.0043   -0.0205    0.0041   -0.0143
          11   -0.0000   -0.0002   -0.0011    0.0003    0.0015   -0.0000
          12   -0.0000   -0.0000    0.0000   -0.0000    0.0000   -0.0000
          13    0.0066   -0.0040    0.0096   -0.0022    0.0107    0.0072
          14   -0.0114    0.0049   -0.0173    0.0066   -0.0176   -0.0125
          15   -0.0000    0.0000   -0.0000    0.0000   -0.0000   -0.0000
          16    0.0066    0.0075    0.0071   -0.0059   -0.0091   -0.0072
          17    0.0114    0.0113    0.0138   -0.0124   -0.0137   -0.0124
          18    0.0000    0.0000    0.0000   -0.0000   -0.0000   -0.0000
          19   -0.0768    0.0801    0.0887    0.0751    0.0929   -0.0762
          20   -0.1329    0.1351    0.1569    0.1335    0.1579   -0.1319
          21   -0.0000    0.0000    0.0000    0.0000    0.0000   -0.0000
          22   -0.0765   -0.0384    0.1142    0.0365   -0.1155    0.0763
          23    0.1325    0.0619   -0.1994   -0.0674    0.1985   -0.1322
          24    0.0000    0.0000   -0.0000   -0.0000    0.0000   -0.0000
          25    0.1539   -0.2306    0.0503    0.2290   -0.0456   -0.1519
          26   -0.0000   -0.0005   -0.0024   -0.0004   -0.0023    0.0000
          27    0.0000   -0.0000    0.0000    0.0000   -0.0000   -0.0000
          28    0.1538    0.2306   -0.0502    0.2290   -0.0457    0.1519
          29   -0.0000    0.0005    0.0024   -0.0004   -0.0023   -0.0000
          30    0.0000    0.0000   -0.0000    0.0000   -0.0000    0.0000
          31   -0.0765    0.0383   -0.1143    0.0365   -0.1155   -0.0763
          32    0.1325   -0.0618    0.1994   -0.0675    0.1985    0.1322
          33    0.0000   -0.0000    0.0000   -0.0000    0.0000    0.0000
          34   -0.0767   -0.0801   -0.0887    0.0751    0.0930    0.0762
          35   -0.1329   -0.1351   -0.1569    0.1334    0.1579    0.1320
          36   -0.0000   -0.0000   -0.0000    0.0000    0.0000    0.0000


           MASS-WEIGHTED COORDINATE ANALYSIS (NORMAL COORDINATES)


   Root No.       1         2         3         4         5         6         7         8

                 1 A       2 A       3 A       4 A       5 A       6 A       7 A       8 A   

                 354.8     355.1     618.4     620.2     620.4     712.4     848.3     848.5
  
           1    0.0000    0.0000   -0.0000    0.3122    0.0206    0.0000   -0.0000    0.0000
           2    0.0000    0.0000   -0.0000    0.3300   -0.3169    0.0000   -0.0000   -0.0000
           3   -0.3786   -0.2471    0.2772    0.0000   -0.0000   -0.1139    0.2252    0.1409
           4   -0.0000    0.0000   -0.0000    0.3114   -0.0301    0.0000    0.0000    0.0000
           5   -0.0000    0.0000    0.0000   -0.3394   -0.3068    0.0000   -0.0000    0.0000
           6    0.4033   -0.2043   -0.2772   -0.0000   -0.0000   -0.1138    0.2343   -0.1252
           7    0.0000   -0.0000    0.0000    0.0078    0.5147    0.0000    0.0000   -0.0000
           8    0.0000   -0.0000    0.0000    0.2054   -0.0031    0.0000    0.0000   -0.0000
           9   -0.0247    0.4516   -0.2774   -0.0000    0.0000   -0.1130   -0.0090    0.2649
          10   -0.0000   -0.0000   -0.0000   -0.0078   -0.5146    0.0000   -0.0000    0.0000
          11    0.0000   -0.0000   -0.0000   -0.2054    0.0031    0.0000    0.0000    0.0000
          12   -0.0247    0.4516    0.2774    0.0000   -0.0000   -0.1131    0.0090   -0.2649
          13   -0.0000    0.0000    0.0000   -0.3114    0.0301    0.0000    0.0000    0.0000
          14   -0.0000    0.0000   -0.0000    0.3394    0.3068   -0.0000    0.0000   -0.0000
          15    0.4033   -0.2043    0.2772    0.0000    0.0000   -0.1139   -0.2343    0.1252
          16    0.0000    0.0000    0.0000   -0.3122   -0.0207   -0.0000    0.0000    0.0000
          17    0.0000    0.0000    0.0000   -0.3300    0.3169   -0.0000    0.0000   -0.0000
          18   -0.3786   -0.2471   -0.2772   -0.0000    0.0000   -0.1138   -0.2251   -0.1408
          19    0.0000    0.0000   -0.0000    0.0352   -0.0859   -0.0000    0.0000    0.0000
          20    0.0000    0.0000   -0.0000    0.1268   -0.0384   -0.0000    0.0000    0.0000
          21   -0.3007   -0.1964    0.2998    0.0000   -0.0000    0.3922   -0.4350   -0.2714
          22   -0.0000    0.0000    0.0000    0.0377    0.0848   -0.0000    0.0000   -0.0000
          23   -0.0000    0.0000    0.0000   -0.1279   -0.0345   -0.0000    0.0000   -0.0000
          24    0.3203   -0.1625   -0.2997   -0.0000    0.0000    0.3923   -0.4525    0.2411
          25    0.0000   -0.0000    0.0000    0.0022    0.1484   -0.0000   -0.0000    0.0000
          26    0.0000   -0.0000    0.0000   -0.0643    0.0010   -0.0000   -0.0000    0.0000
          27   -0.0196    0.3582   -0.2993   -0.0000    0.0000    0.3920    0.0175   -0.5124
          28   -0.0000   -0.0000   -0.0000   -0.0022   -0.1484   -0.0000   -0.0000   -0.0000
          29    0.0000   -0.0000   -0.0000    0.0643   -0.0010   -0.0000    0.0000   -0.0000
          30   -0.0196    0.3582    0.2994    0.0000   -0.0000    0.3919   -0.0175    0.5124
          31   -0.0000    0.0000   -0.0000   -0.0377   -0.0848   -0.0000   -0.0000    0.0000
          32   -0.0000    0.0000   -0.0000    0.1279    0.0345   -0.0000   -0.0000    0.0000
          33    0.3203   -0.1625    0.2999    0.0000   -0.0000    0.3921    0.4525   -0.2411
          34    0.0000    0.0000    0.0000   -0.0352    0.0859   -0.0000   -0.0000   -0.0000
          35    0.0000    0.0000    0.0000   -0.1268    0.0384   -0.0000   -0.0000   -0.0000
          36   -0.3007   -0.1964   -0.2997   -0.0000    0.0000    0.3922    0.4350    0.2714


   Root No.       9        10        11        12        13        14        15        16

                 9 A      10 A      11 A      12 A      13 A      14 A      15 A      16 A   

                 975.6     977.1     977.2    1023.6    1068.5    1068.6    1147.6    1147.7
  
           1   -0.1956    0.0000    0.0000    0.0000   -0.1225    0.0185    0.0388    0.0606
           2   -0.3390    0.0001    0.0000    0.0000   -0.1520   -0.1038    0.0157   -0.0478
           3    0.0001    0.3042    0.1907    0.2995    0.0000    0.0000    0.0000   -0.0000
           4   -0.1956    0.0000    0.0000    0.0000    0.1232   -0.0129    0.0594   -0.0407
           5    0.3390   -0.0001   -0.0001    0.0000   -0.1210    0.1386    0.0041   -0.0501
           6   -0.0000   -0.3173    0.1679   -0.2995   -0.0000    0.0000    0.0000   -0.0000
           7    0.3912   -0.0001   -0.0000    0.0000   -0.0265   -0.2076   -0.0069    0.0342
           8   -0.0000   -0.0000    0.0000    0.0000    0.0711   -0.0090    0.0788    0.0159
           9   -0.0000    0.0131   -0.3588   -0.2998    0.0000   -0.0000    0.0000   -0.0000
          10    0.3912   -0.0001   -0.0000   -0.0000   -0.0265   -0.2076    0.0069   -0.0341
          11   -0.0000   -0.0000    0.0000   -0.0000    0.0711   -0.0091   -0.0789   -0.0160
          12   -0.0000    0.0132   -0.3588    0.2999    0.0000   -0.0000   -0.0000    0.0000
          13   -0.1956    0.0000    0.0000    0.0000    0.1232   -0.0129   -0.0593    0.0408
          14    0.3390   -0.0001   -0.0000   -0.0000   -0.1210    0.1387   -0.0041    0.0501
          15   -0.0000   -0.3173    0.1679    0.2995   -0.0000    0.0000   -0.0000    0.0000
          16   -0.1956    0.0000    0.0000    0.0000   -0.1225    0.0185   -0.0389   -0.0607
          17   -0.3390    0.0001    0.0000    0.0000   -0.1520   -0.1038   -0.0157    0.0478
          18    0.0001    0.3042    0.1907   -0.2996    0.0000   -0.0000   -0.0000   -0.0000
          19   -0.0580    0.0000    0.0000   -0.0000   -0.2047    0.4112    0.1642    0.4662
          20   -0.1008    0.0000    0.0000    0.0000    0.0531   -0.2646   -0.0786   -0.2746
          21   -0.0001   -0.3830   -0.2400   -0.2771   -0.0000   -0.0000    0.0000    0.0000
          22   -0.0581    0.0000    0.0000   -0.0000    0.3015    0.3466    0.3321   -0.3658
          23    0.1008   -0.0000   -0.0000   -0.0000    0.1179    0.2428    0.1789   -0.2226
          24    0.0001    0.3996   -0.2113    0.2770    0.0000    0.0000    0.0000   -0.0000
          25    0.1163   -0.0000   -0.0000   -0.0000   -0.0077   -0.0607   -0.0030    0.0146
          26   -0.0000   -0.0000   -0.0000   -0.0000    0.5261   -0.0672    0.5596    0.1137
          27    0.0001   -0.0166    0.4522    0.2777    0.0000    0.0000    0.0000    0.0000
          28    0.1163   -0.0000   -0.0000    0.0000   -0.0077   -0.0607    0.0030   -0.0146
          29   -0.0000   -0.0000   -0.0000    0.0000    0.5261   -0.0673   -0.5591   -0.1129
          30    0.0001   -0.0166    0.4522   -0.2777    0.0000   -0.0000   -0.0000   -0.0000
          31   -0.0581    0.0000    0.0000   -0.0000    0.3015    0.3466   -0.3326    0.3651
          32    0.1008   -0.0000   -0.0000   -0.0000    0.1179    0.2428   -0.1791    0.2222
          33    0.0001    0.3995   -0.2113   -0.2771    0.0000    0.0000   -0.0000    0.0000
          34   -0.0580    0.0000    0.0000   -0.0000   -0.2046    0.4111   -0.1638   -0.4656
          35   -0.1008    0.0000    0.0000   -0.0000    0.0531   -0.2646    0.0783    0.2743
          36   -0.0001   -0.3830   -0.2400    0.2771   -0.0000    0.0000    0.0000    0.0000


   Root No.      17        18        19        20        21        22        23        24

                17 A      18 A      19 A      20 A      21 A      22 A      23 A      24 A   

                1154.6    1224.8    1229.0    1333.5    1546.9    1547.0    1784.7    1784.7
  
           1   -0.0365    0.1625   -0.1942    0.3502   -0.2927    0.2688   -0.3200   -0.3479
           2    0.0216   -0.0939   -0.3361   -0.2040   -0.1784   -0.3026    0.3181    0.0114
           3   -0.0000   -0.0000   -0.0000    0.0000   -0.0000   -0.0000    0.0000   -0.0000
           4    0.0364    0.1625    0.1941   -0.3502    0.3490    0.1901    0.0586    0.4691
           5    0.0217    0.0938   -0.3361   -0.2039   -0.0999    0.3368   -0.1970    0.2501
           6    0.0000    0.0000   -0.0000   -0.0000   -0.0000    0.0000   -0.0000    0.0000
           7   -0.0001   -0.0001   -0.3882   -0.0000   -0.0398   -0.3244    0.0844    0.1821
           8   -0.0429   -0.1877    0.0000    0.4076    0.4129   -0.0507   -0.4840    0.2243
           9   -0.0000   -0.0000   -0.0000    0.0000    0.0000   -0.0000   -0.0000    0.0000
          10    0.0000    0.0000    0.3882    0.0000   -0.0398   -0.3244   -0.0844   -0.1821
          11   -0.0428    0.1878   -0.0001    0.4075    0.4129   -0.0507    0.4840   -0.2243
          12    0.0000    0.0000    0.0000    0.0000    0.0000   -0.0000    0.0000   -0.0000
          13    0.0364   -0.1626   -0.1941   -0.3502    0.3490    0.1901   -0.0586   -0.4691
          14    0.0216   -0.0938    0.3362   -0.2039   -0.0999    0.3368    0.1970   -0.2501
          15    0.0000   -0.0000    0.0000   -0.0000   -0.0000    0.0000    0.0000   -0.0000
          16   -0.0363   -0.1624    0.1941    0.3502   -0.2927    0.2688    0.3201    0.3479
          17    0.0216    0.0938    0.3362   -0.2040   -0.1784   -0.3026   -0.3181   -0.0114
          18   -0.0000    0.0000    0.0000    0.0000   -0.0000   -0.0000    0.0000   -0.0000
          19    0.3517   -0.3142   -0.0631    0.0359    0.0160   -0.1812    0.0632    0.0024
          20   -0.2029    0.1814   -0.1095   -0.0215   -0.1284    0.0540    0.0092   -0.0664
          21    0.0000    0.0000   -0.0000   -0.0000   -0.0000    0.0000   -0.0000    0.0000
          22   -0.3520   -0.3142    0.0632   -0.0358   -0.0594   -0.1719    0.0390   -0.0498
          23   -0.2030   -0.1814   -0.1094   -0.0214   -0.1377   -0.0214   -0.0566   -0.0359
          24   -0.0000   -0.0000    0.0000   -0.0000   -0.0000   -0.0000   -0.0000   -0.0000
          25   -0.0000   -0.0000   -0.1264   -0.0000   -0.0137   -0.1113    0.0289    0.0624
          26    0.4044    0.3621   -0.0001    0.0440   -0.1983    0.0243    0.0556   -0.0258
          27    0.0000    0.0000   -0.0000    0.0000   -0.0000    0.0000    0.0000    0.0000
          28    0.0000    0.0000    0.1264    0.0000   -0.0137   -0.1113   -0.0289   -0.0624
          29    0.4054   -0.3621    0.0000    0.0440   -0.1983    0.0243   -0.0556    0.0258
          30    0.0000   -0.0000    0.0000    0.0000   -0.0000   -0.0000   -0.0000   -0.0000
          31   -0.3523    0.3141   -0.0631   -0.0359   -0.0594   -0.1719   -0.0390    0.0498
          32   -0.2032    0.1813    0.1094   -0.0215   -0.1377   -0.0214    0.0566    0.0359
          33   -0.0000    0.0000    0.0000   -0.0000   -0.0000   -0.0000    0.0000    0.0000
          34    0.3528    0.3143    0.0631    0.0357    0.0160   -0.1812   -0.0632   -0.0024
          35   -0.2035   -0.1814    0.1095   -0.0214   -0.1284    0.0540   -0.0092    0.0664
          36    0.0000   -0.0000    0.0000   -0.0000   -0.0000   -0.0000   -0.0000    0.0000


   Root No.      25        26        27        28        29        30

                25 A      26 A      27 A      28 A      29 A      30 A   

                3054.8    3059.1    3059.2    3072.4    3072.5    3084.4
  
           1    0.0582   -0.0605   -0.0558   -0.0479   -0.0711    0.0632
           2    0.1008   -0.0913   -0.1088   -0.1014   -0.1074    0.1094
           3    0.0000   -0.0000   -0.0000   -0.0000   -0.0000    0.0000
           4    0.0580    0.0328   -0.0754   -0.0180    0.0839   -0.0633
           5   -0.1005   -0.0395    0.1362    0.0541   -0.1377    0.1097
           6   -0.0000   -0.0000    0.0000    0.0000   -0.0000    0.0000
           7   -0.1167    0.1606   -0.0341   -0.1671    0.0320    0.1260
           8   -0.0000    0.0019    0.0089    0.0023    0.0121    0.0000
           9   -0.0000    0.0000   -0.0000   -0.0000    0.0000    0.0000
          10   -0.1166   -0.1606    0.0340   -0.1671    0.0321   -0.1261
          11   -0.0000   -0.0019   -0.0089    0.0023    0.0121   -0.0000
          12   -0.0000   -0.0000    0.0000   -0.0000    0.0000   -0.0000
          13    0.0580   -0.0328    0.0754   -0.0180    0.0839    0.0633
          14   -0.1005    0.0395   -0.1362    0.0542   -0.1376   -0.1097
          15   -0.0000    0.0000   -0.0000    0.0000   -0.0000   -0.0000
          16    0.0582    0.0605    0.0558   -0.0479   -0.0711   -0.0632
          17    0.1007    0.0913    0.1088   -0.1014   -0.1075   -0.1095
          18    0.0000    0.0000    0.0000   -0.0000   -0.0000   -0.0000
          19   -0.1958    0.1883    0.2028    0.1774    0.2111   -0.1941
          20   -0.3390    0.3176    0.3589    0.3153    0.3587   -0.3362
          21   -0.0000    0.0000    0.0000    0.0000    0.0000   -0.0000
          22   -0.1951   -0.0903    0.2613    0.0861   -0.2624    0.1946
          23    0.3380    0.1454   -0.4561   -0.1593    0.4510   -0.3370
          24    0.0000    0.0000   -0.0000   -0.0000    0.0000   -0.0000
          25    0.3924   -0.5421    0.1150    0.5409   -0.1037   -0.3871
          26   -0.0000   -0.0012   -0.0056   -0.0010   -0.0052    0.0000
          27    0.0000   -0.0000    0.0000    0.0000   -0.0000   -0.0000
          28    0.3922    0.5422   -0.1149    0.5409   -0.1037    0.3872
          29   -0.0000    0.0012    0.0056   -0.0010   -0.0052   -0.0000
          30    0.0000    0.0000   -0.0000    0.0000   -0.0000    0.0000
          31   -0.1951    0.0901   -0.2614    0.0862   -0.2623   -0.1946
          32    0.3380   -0.1452    0.4562   -0.1594    0.4509    0.3370
          33    0.0000   -0.0000    0.0000   -0.0000    0.0000    0.0000
          34   -0.1956   -0.1883   -0.2028    0.1774    0.2112    0.1942
          35   -0.3388   -0.3177   -0.3589    0.3152    0.3588    0.3363
          36   -0.0000   -0.0000   -0.0000    0.0000    0.0000    0.0000


          DESCRIPTION OF VIBRATIONS


 VIBRATION          1    1A           ATOM PAIR      ENERGY CONTRIBUTION    RADIAL
 FREQUENCY           354.79         C  1 -- C  2         +23.9% (109.7%)      0.0%
 TRANSITION DIPOLE   0.0001         C  5 -- C  6         +23.9% (109.7%)      0.0%
 TRAVEL (Ang.)       0.4036         C  2 -- C  4          +9.0% ( 67.4%)      0.0%
 REDUCED MASS        1.1668         C  3 -- C  5          +9.0% ( 67.4%)      0.0%
 EFFECTIVE MASS     17.2193
 FORCE CONSTANT      0.0865

 VIBRATION          2    2A           ATOM PAIR      ENERGY CONTRIBUTION    RADIAL
 FREQUENCY           355.06         C  4 -- C  6         +19.6% ( 99.3%)      0.0%
 TRANSITION DIPOLE   0.0007         C  1 -- C  3         +19.6% ( 99.3%)      0.0%
 TRAVEL (Ang.)       0.4032         C  2 -- C  4         +17.6% ( 94.1%)      0.0%
 REDUCED MASS        1.1679         C  3 -- C  5         +17.6% ( 94.1%)      0.0%
 EFFECTIVE MASS     17.2068
 FORCE CONSTANT      0.0868

 VIBRATION          3    3A           ATOM PAIR      ENERGY CONTRIBUTION    RADIAL
 FREQUENCY           618.44         C  4 -- C  6         +12.3% ( 44.6%)      0.0%
 TRANSITION DIPOLE   0.0002         C  1 -- C  3         +12.3% ( 44.6%)      0.0%
 TRAVEL (Ang.)       0.4793         C  3 -- C  5         +12.3% ( 44.6%)      0.0%
 REDUCED MASS        0.4747         C  2 -- C  4         +12.3% ( 44.6%)      0.0%
 EFFECTIVE MASS      8.7032         C  5 -- C  6         +12.3% ( 44.6%)      0.0%
 FORCE CONSTANT      0.1070         C  1 -- C  2         +12.3% ( 44.6%)      0.0%

 VIBRATION          4    4A           ATOM PAIR      ENERGY CONTRIBUTION    RADIAL
 FREQUENCY           620.22         C  1 -- C  2         +15.1% (118.3%)      0.0%
 TRANSITION DIPOLE   0.0000         C  5 -- C  6         +15.1% (118.3%)      0.0%
 TRAVEL (Ang.)       0.2250         C  2 -- C  4          +9.7% ( 95.0%)      1.6%
 REDUCED MASS        2.1484         C  3 -- C  5          +9.7% ( 95.0%)      1.6%
 EFFECTIVE MASS     19.9841
 FORCE CONSTANT      0.4869

 VIBRATION          5    5A           ATOM PAIR      ENERGY CONTRIBUTION    RADIAL
 FREQUENCY           620.37         C  1 -- C  3         +13.3% (111.4%)      0.2%
 TRANSITION DIPOLE   0.0000         C  4 -- C  6         +13.3% (111.4%)      0.2%
 TRAVEL (Ang.)       0.2250         C  3 -- C  5         +13.1% (110.6%)      0.2%
 REDUCED MASS        2.1479         C  2 -- C  4         +13.1% (110.6%)      0.2%
 EFFECTIVE MASS     19.9791
 FORCE CONSTANT      0.4870

 VIBRATION          6    6A           ATOM PAIR      ENERGY CONTRIBUTION    RADIAL
 FREQUENCY           712.44         C  2 -- H  8         +16.1% ( 49.3%)      0.0%
 TRANSITION DIPOLE   0.8008         C  1 -- H  7         +16.1% ( 49.3%)      0.0%
 TRAVEL (Ang.)       0.7815         C  5 -- H 11         +16.1% ( 49.3%)      0.0%
 REDUCED MASS        0.1550         C  6 -- H 12         +16.1% ( 49.3%)      0.0%
 EFFECTIVE MASS      1.4278         C  3 -- H  9         +16.1% ( 49.2%)      0.0%
 FORCE CONSTANT      0.0463         C  4 -- H 10         +16.1% ( 49.2%)      0.0%

 VIBRATION          7    7A           ATOM PAIR      ENERGY CONTRIBUTION    RADIAL
 FREQUENCY           848.27         C  5 -- H 11         +22.9% ( 53.4%)      0.0%
 TRANSITION DIPOLE   0.0000         C  2 -- H  8         +22.9% ( 53.4%)      0.0%
 TRAVEL (Ang.)       0.5228         C  6 -- H 12         +21.2% ( 51.4%)      0.0%
 REDUCED MASS        0.2908         C  1 -- H  7         +21.2% ( 51.4%)      0.0%
 EFFECTIVE MASS      2.3241
 FORCE CONSTANT      0.1233

 VIBRATION          8    8A           ATOM PAIR      ENERGY CONTRIBUTION    RADIAL
 FREQUENCY           848.54         C  4 -- H 10         +29.4% ( 60.5%)      0.0%
 TRANSITION DIPOLE   0.0000         C  3 -- H  9         +29.4% ( 60.5%)      0.0%
 TRAVEL (Ang.)       0.5232         C  6 -- H 12          +8.3% ( 32.1%)      0.0%
 REDUCED MASS        0.2903         C  1 -- H  7          +8.3% ( 32.1%)      0.0%
 EFFECTIVE MASS      2.3234
 FORCE CONSTANT      0.1231

 VIBRATION          9    9A           ATOM PAIR      ENERGY CONTRIBUTION    RADIAL
 FREQUENCY           975.64         C  5 -- C  6         +12.3% ( 70.8%)      0.0%
 TRANSITION DIPOLE   0.0004         C  1 -- C  2         +12.3% ( 70.8%)      0.0%
 TRAVEL (Ang.)       0.2022         C  2 -- C  4         +12.3% ( 70.8%)      0.0%
 REDUCED MASS        1.6910         C  3 -- C  5         +12.3% ( 70.8%)      0.0%
 EFFECTIVE MASS     15.0984         C  4 -- C  6         +12.3% ( 70.8%)      0.0%
 FORCE CONSTANT      0.9484         C  1 -- C  3         +12.3% ( 70.8%)      0.0%

 VIBRATION         10   10A           ATOM PAIR      ENERGY CONTRIBUTION    RADIAL
 FREQUENCY           977.07         C  2 -- H  8         +18.6% ( 46.5%)      0.0%
 TRANSITION DIPOLE   0.0001         C  5 -- H 11         +18.6% ( 46.5%)      0.0%
 TRAVEL (Ang.)       0.3562         C  1 -- H  7         +17.1% ( 44.6%)      0.0%
 REDUCED MASS        0.5440         C  6 -- H 12         +17.1% ( 44.6%)      0.0%
 EFFECTIVE MASS      4.0159
 FORCE CONSTANT      0.3060

 VIBRATION         11   11A           ATOM PAIR      ENERGY CONTRIBUTION    RADIAL
 FREQUENCY           977.24         C  3 -- H  9         +23.8% ( 52.6%)      0.0%
 TRANSITION DIPOLE   0.0007         C  4 -- H 10         +23.8% ( 52.6%)      0.0%
 TRAVEL (Ang.)       0.3561         C  1 -- C  3          +6.9% ( 28.4%)      0.0%
 REDUCED MASS        0.5440         C  4 -- C  6          +6.9% ( 28.4%)      0.0%
 EFFECTIVE MASS      4.0140
 FORCE CONSTANT      0.3061

 VIBRATION         12   12A           ATOM PAIR      ENERGY CONTRIBUTION    RADIAL
 FREQUENCY          1023.62         C  4 -- H 10          +9.8% ( 34.8%)      0.0%
 TRANSITION DIPOLE   0.0000         C  3 -- H  9          +9.8% ( 34.8%)      0.0%
 TRAVEL (Ang.)       0.3268         C  6 -- H 12          +9.8% ( 34.8%)      0.0%
 REDUCED MASS        0.6167         C  5 -- H 11          +9.8% ( 34.8%)      0.0%
 EFFECTIVE MASS      5.9791
 FORCE CONSTANT      0.3807

 VIBRATION         13   13A           ATOM PAIR      ENERGY CONTRIBUTION    RADIAL
 FREQUENCY          1068.51         C  4 -- H 10         +19.1% ( 54.6%)      0.2%
 TRANSITION DIPOLE   0.0427         C  3 -- H  9         +19.1% ( 54.6%)      0.2%
 TRAVEL (Ang.)       0.5153         C  5 -- H 11          +8.7% ( 37.0%)     15.6%
 REDUCED MASS        0.2377         C  2 -- H  8          +8.7% ( 37.0%)     15.6%
 EFFECTIVE MASS      3.5890
 FORCE CONSTANT      0.1599

 VIBRATION         14   14A           ATOM PAIR      ENERGY CONTRIBUTION    RADIAL
 FREQUENCY          1068.57         C  1 -- H  7         +16.8% ( 51.3%)      1.8%
 TRANSITION DIPOLE   0.0423         C  6 -- H 12         +16.8% ( 51.3%)      1.8%
 TRAVEL (Ang.)       0.5163         C  5 -- H 11         +13.2% ( 45.4%)      5.7%
 REDUCED MASS        0.2367         C  2 -- H  8         +13.2% ( 45.4%)      5.7%
 EFFECTIVE MASS      3.5889
 FORCE CONSTANT      0.1593

 VIBRATION         15   15A           ATOM PAIR      ENERGY CONTRIBUTION    RADIAL
 FREQUENCY          1147.65         C  3 -- H  9         +30.2% ( 54.0%)      0.0%
 TRANSITION DIPOLE   0.0000         C  4 -- H 10         +30.1% ( 54.0%)      0.0%
 TRAVEL (Ang.)       0.4929         C  5 -- H 11         +13.8% ( 36.6%)      0.2%
 REDUCED MASS        0.2418         C  2 -- H  8         +13.8% ( 36.5%)      0.2%
 EFFECTIVE MASS      1.3246
 FORCE CONSTANT      0.1877

 VIBRATION         16   16A           ATOM PAIR      ENERGY CONTRIBUTION    RADIAL
 FREQUENCY          1147.66         C  1 -- H  7         +28.2% ( 52.3%)      0.0%
 TRANSITION DIPOLE   0.0000         C  6 -- H 12         +28.1% ( 52.2%)      0.0%
 TRAVEL (Ang.)       0.4932         C  2 -- H  8         +17.7% ( 41.4%)      0.1%
 REDUCED MASS        0.2415         C  5 -- H 11         +17.6% ( 41.3%)      0.1%
 EFFECTIVE MASS      1.3248
 FORCE CONSTANT      0.1874

 VIBRATION         17   17A           ATOM PAIR      ENERGY CONTRIBUTION    RADIAL
 FREQUENCY          1154.62         C  6 -- H 12         +16.2% ( 41.1%)      0.0%
 TRANSITION DIPOLE   0.0002         C  5 -- H 11         +16.1% ( 41.1%)      0.0%
 TRAVEL (Ang.)       0.5957         C  2 -- H  8         +16.1% ( 41.0%)      0.0%
 REDUCED MASS        0.1646         C  1 -- H  7         +16.1% ( 41.0%)      0.0%
 EFFECTIVE MASS      1.1489         C  4 -- H 10         +16.0% ( 41.0%)      0.0%
 FORCE CONSTANT      0.1293         C  3 -- H  9         +16.0% ( 40.9%)      0.0%

 VIBRATION         18   18A           ATOM PAIR      ENERGY CONTRIBUTION    RADIAL
 FREQUENCY          1224.77         C  6 -- H 12         +12.7% ( 42.4%)      0.0%
 TRANSITION DIPOLE   0.0000         C  1 -- H  7         +12.7% ( 42.4%)      0.0%
 TRAVEL (Ang.)       0.5329         C  2 -- H  8         +12.7% ( 42.4%)      0.0%
 REDUCED MASS        0.1939         C  5 -- H 11         +12.7% ( 42.4%)      0.0%
 EFFECTIVE MASS      2.3229         C  4 -- H 10         +12.6% ( 42.3%)      0.0%
 FORCE CONSTANT      0.1714         C  3 -- H  9         +12.6% ( 42.3%)      0.0%

 VIBRATION         19   19A           ATOM PAIR      ENERGY CONTRIBUTION    RADIAL
 FREQUENCY          1229.03         C  4 -- C  6         +12.8% ( 61.1%)    100.0%
 TRANSITION DIPOLE   0.0000         C  1 -- C  3         +12.8% ( 61.1%)    100.0%
 TRAVEL (Ang.)       0.1830         C  3 -- C  5         +12.8% ( 61.1%)    100.0%
 REDUCED MASS        1.6381         C  2 -- C  4         +12.8% ( 61.1%)    100.0%
 EFFECTIVE MASS     13.7383         C  1 -- C  2         +12.8% ( 61.1%)    100.0%
 FORCE CONSTANT      1.4579         C  5 -- C  6         +12.8% ( 61.1%)    100.0%

 VIBRATION         20   20A           ATOM PAIR      ENERGY CONTRIBUTION    RADIAL
 FREQUENCY          1333.46         C  1 -- C  3         +12.1% ( 64.0%)    100.0%
 TRANSITION DIPOLE   0.0024         C  4 -- C  6         +12.1% ( 63.9%)    100.0%
 TRAVEL (Ang.)       0.1607         C  3 -- C  5         +12.1% ( 63.9%)    100.0%
 REDUCED MASS        1.9587         C  2 -- C  4         +12.1% ( 63.9%)    100.0%
 EFFECTIVE MASS     11.8753         C  5 -- C  6         +12.1% ( 63.8%)    100.0%
 FORCE CONSTANT      2.0520         C  1 -- C  2         +12.1% ( 63.8%)    100.0%

 VIBRATION         21   21A           ATOM PAIR      ENERGY CONTRIBUTION    RADIAL
 FREQUENCY          1546.90         C  5 -- C  6         +12.5% ( 51.3%)     98.5%
 TRANSITION DIPOLE   0.4909         C  1 -- C  2         +12.5% ( 51.3%)     98.5%
 TRAVEL (Ang.)       0.1725         C  1 -- C  3         +11.2% ( 48.7%)     36.0%
 REDUCED MASS        1.4642         C  4 -- C  6         +11.2% ( 48.7%)     36.0%
 EFFECTIVE MASS     10.5235         C  2 -- C  4         +10.9% ( 47.9%)     15.1%
 FORCE CONSTANT      2.0643         C  3 -- C  5         +10.9% ( 47.9%)     15.1%

 VIBRATION         22   22A           ATOM PAIR      ENERGY CONTRIBUTION    RADIAL
 FREQUENCY          1546.99         C  3 -- C  5         +12.2% ( 50.7%)     84.7%
 TRANSITION DIPOLE   0.4911         C  2 -- C  4         +12.2% ( 50.7%)     84.7%
 TRAVEL (Ang.)       0.1724         C  1 -- C  3         +11.8% ( 49.9%)     63.8%
 REDUCED MASS        1.4665         C  4 -- C  6         +11.8% ( 49.9%)     63.8%
 EFFECTIVE MASS     10.5234         C  1 -- C  2         +10.6% ( 47.4%)      1.5%
 FORCE CONSTANT      2.0678         C  5 -- C  6         +10.6% ( 47.4%)      1.5%

 VIBRATION         23   23A           ATOM PAIR      ENERGY CONTRIBUTION    RADIAL
 FREQUENCY          1784.66         C  4 -- C  6         +17.9% ( 58.2%)     99.7%
 TRANSITION DIPOLE   0.0000         C  1 -- C  3         +17.9% ( 58.2%)     99.7%
 TRAVEL (Ang.)       0.1245         C  2 -- C  4         +10.1% ( 43.7%)     55.5%
 REDUCED MASS        2.4389         C  3 -- C  5         +10.1% ( 43.7%)     55.5%
 EFFECTIVE MASS     11.8379
 FORCE CONSTANT      4.5767

 VIBRATION         24   24A           ATOM PAIR      ENERGY CONTRIBUTION    RADIAL
 FREQUENCY          1784.72         C  1 -- C  2         +15.9% ( 54.9%)     92.1%
 TRANSITION DIPOLE   0.0000         C  5 -- C  6         +15.9% ( 54.9%)     92.1%
 TRAVEL (Ang.)       0.1245         C  3 -- C  5         +14.1% ( 51.7%)     83.5%
 REDUCED MASS        2.4388         C  2 -- C  4         +14.1% ( 51.7%)     83.5%
 EFFECTIVE MASS     11.8379
 FORCE CONSTANT      4.5768

 VIBRATION         25   25A           ATOM PAIR      ENERGY CONTRIBUTION    RADIAL
 FREQUENCY          3054.82         C  3 -- H  9         +16.3% ( 41.1%)    100.0%
 TRANSITION DIPOLE   0.0020         C  4 -- H 10         +16.3% ( 41.1%)    100.0%
 TRAVEL (Ang.)       0.3774         C  1 -- H  7         +16.2% ( 41.0%)    100.0%
 REDUCED MASS        0.1550         C  6 -- H 12         +16.2% ( 41.0%)    100.0%
 EFFECTIVE MASS      1.4954         C  2 -- H  8         +16.1% ( 40.9%)    100.0%
 FORCE CONSTANT      0.8523         C  5 -- H 11         +16.1% ( 40.9%)    100.0%

 VIBRATION         26   26A           ATOM PAIR      ENERGY CONTRIBUTION    RADIAL
 FREQUENCY          3059.14         C  4 -- H 10         +31.1% ( 56.7%)    100.0%
 TRANSITION DIPOLE   0.0000         C  3 -- H  9         +31.1% ( 56.7%)    100.0%
 TRAVEL (Ang.)       0.3076         C  6 -- H 12         +14.4% ( 38.6%)     99.9%
 REDUCED MASS        0.2330         C  1 -- H  7         +14.4% ( 38.6%)     99.9%
 EFFECTIVE MASS      1.4891
 FORCE CONSTANT      1.2847

 VIBRATION         27   27A           ATOM PAIR      ENERGY CONTRIBUTION    RADIAL
 FREQUENCY          3059.21         C  5 -- H 11         +29.2% ( 55.0%)    100.0%
 TRANSITION DIPOLE   0.0001         C  2 -- H  8         +29.2% ( 55.0%)    100.0%
 TRAVEL (Ang.)       0.3082         C  1 -- H  7         +18.0% ( 43.1%)    100.0%
 REDUCED MASS        0.2321         C  6 -- H 12         +18.0% ( 43.1%)    100.0%
 EFFECTIVE MASS      1.4890
 FORCE CONSTANT      1.2797

 VIBRATION         28   28A           ATOM PAIR      ENERGY CONTRIBUTION    RADIAL
 FREQUENCY          3072.40         C  3 -- H  9         +31.0% ( 56.5%)    100.0%
 TRANSITION DIPOLE   0.5922         C  4 -- H 10         +31.0% ( 56.5%)    100.0%
 TRAVEL (Ang.)       0.3075         C  1 -- H  7         +13.9% ( 37.8%)     99.9%
 REDUCED MASS        0.2320         C  6 -- H 12         +13.9% ( 37.8%)     99.9%
 EFFECTIVE MASS      1.5468
 FORCE CONSTANT      1.2905

 VIBRATION         29   29A           ATOM PAIR      ENERGY CONTRIBUTION    RADIAL
 FREQUENCY          3072.48         C  2 -- H  8         +28.8% ( 54.5%)    100.0%
 TRANSITION DIPOLE   0.5911         C  5 -- H 11         +28.8% ( 54.5%)    100.0%
 TRAVEL (Ang.)       0.3069         C  6 -- H 12         +18.4% ( 43.5%)    100.0%
 REDUCED MASS        0.2330         C  1 -- H  7         +18.4% ( 43.5%)    100.0%
 EFFECTIVE MASS      1.5468
 FORCE CONSTANT      1.2958

 VIBRATION         30   30A           ATOM PAIR      ENERGY CONTRIBUTION    RADIAL
 FREQUENCY          3084.36         C  5 -- H 11         +16.1% ( 40.7%)    100.0%
 TRANSITION DIPOLE   0.0001         C  2 -- H  8         +16.1% ( 40.7%)    100.0%
 TRAVEL (Ang.)       0.3747         C  6 -- H 12         +16.1% ( 40.6%)    100.0%
 REDUCED MASS        0.1557         C  1 -- H  7         +16.1% ( 40.6%)    100.0%
 EFFECTIVE MASS      1.6205         C  4 -- H 10         +16.0% ( 40.5%)    100.0%
 FORCE CONSTANT      0.8728         C  3 -- H  9         +16.0% ( 40.5%)    100.0%

      SYMMETRY NUMBER FOR POINT-GROUP C1  =  1


          SYSTEM IS A GROUND STATE



 InChI=1S/C6H6/c1-2-4-6-5-3-1/h1-6H


          MOLECULE IS NOT LINEAR

          THERE ARE 30 GENUINE VIBRATIONS IN THIS SYSTEM
          THIS THERMODYNAMICS CALCULATION IS LIMITED TO
          MOLECULES WHICH HAVE NO INTERNAL ROTATIONS




                    CALCULATED THERMODYNAMIC PROPERTIES
                                          *
   TEMP. (K)   PARTITION FUNCTION   H.O.F.    ENTHALPY  HEAT CAPACITY ENTROPY
                                   KCAL/MOL   CAL/MOLE    CAL/K/MOL  CAL/K/MOL


 298.00  VIB.     0.1982D+01                  1078.9497    11.6329     4.9796
         ROT.     0.8975D+05                   888.2803     2.9808    25.6443
         INT.     0.1778D+06                  1967.2300    14.6137    30.6240
         TRA.     0.6674D+27                  1480.4672     4.9680    38.9795
         TOT.                       23.386    3447.6972    19.5818    69.6035

 200.00  VIB.     0.1237D+01                   272.7213     5.0322     1.7865
         ROT.     0.4934D+05                   596.1613     2.9808    24.4557
         INT.     0.6105D+05                   868.8826     8.0130    26.2422
         TRA.     0.3670D+27                   993.6021     4.9680    36.9983
         TOT.                       21.801    1862.4847    12.9810    63.2405

 210.00  VIB.     0.1282D+01                   326.0236     5.6324     2.0465
         ROT.     0.5309D+05                   625.9693     2.9808    24.6011
         INT.     0.6807D+05                   951.9929     8.6132    26.6476
         TRA.     0.3948D+27                  1043.2822     4.9680    37.2407
         TOT.                       21.933    1995.2752    13.5813    63.8883

 220.00  VIB.     0.1333D+01                   385.4484     6.2562     2.3228
         ROT.     0.5693D+05                   655.7774     2.9808    24.7398
         INT.     0.7587D+05                  1041.2258     9.2371    27.0626
         TRA.     0.4234D+27                  1092.9623     4.9680    37.4719
         TOT.                       22.072    2134.1882    14.2051    64.5344

 230.00  VIB.     0.1389D+01                   451.2184     6.9010     2.6151
         ROT.     0.6085D+05                   685.5855     2.9808    24.8723
         INT.     0.8454D+05                  1136.8039     9.8818    27.4873
         TRA.     0.4526D+27                  1142.6424     4.9680    37.6927
         TOT.                       22.218    2279.4463    14.8498    65.1800

 240.00  VIB.     0.1452D+01                   523.5298     7.5641     2.9227
         ROT.     0.6486D+05                   715.3935     2.9808    24.9991
         INT.     0.9419D+05                  1238.9233    10.5449    27.9219
         TRA.     0.4824D+27                  1192.3226     4.9680    37.9041
         TOT.                       22.369    2431.2459    15.5129    65.8260

 250.00  VIB.     0.1522D+01                   602.5517     8.2427     3.2452
         ROT.     0.6896D+05                   745.2016     2.9808    25.1208
         INT.     0.1050D+06                  1347.7533    11.2235    28.3660
         TRA.     0.5129D+27                  1242.0027     4.9680    38.1069
         TOT.                       22.528    2589.7559    16.1915    66.4730

 260.00  VIB.     0.1600D+01                   688.4259     8.9341     3.5819
         ROT.     0.7314D+05                   775.0097     2.9808    25.2377
         INT.     0.1170D+06                  1463.4356    11.9149    28.8196
         TRA.     0.5439D+27                  1291.6828     4.9680    38.3018
         TOT.                       22.693    2755.1183    16.8829    67.1214

 270.00  VIB.     0.1687D+01                   781.2674     9.6357     3.9322
         ROT.     0.7740D+05                   804.8177     2.9808    25.3502
         INT.     0.1305D+06                  1586.0851    12.6165    29.2824
         TRA.     0.5756D+27                  1341.3629     4.9680    38.4893
         TOT.                       22.866    2927.4480    17.5845    67.7717

 280.00  VIB.     0.1782D+01                   881.1647    10.3449     4.2955
         ROT.     0.8174D+05                   834.6258     2.9808    25.4586
         INT.     0.1457D+06                  1715.7905    13.3257    29.7541
         TRA.     0.6079D+27                  1391.0430     4.9680    38.6700
         TOT.                       23.045    3106.8335    18.2937    68.4240

 290.00  VIB.     0.1888D+01                   988.1819    11.0592     4.6709
         ROT.     0.8616D+05                   864.4339     2.9808    25.5632
         INT.     0.1627D+06                  1852.6157    14.0400    30.2341
         TRA.     0.6407D+27                  1440.7231     4.9680    38.8443
         TOT.                       23.232    3293.3388    19.0081    69.0784

 300.00  VIB.     0.2006D+01                  1102.3591    11.7765     5.0579
         ROT.     0.9065D+05                   894.2419     2.9808    25.6643
         INT.     0.1818D+06                  1996.6011    14.7573    30.7222
         TRA.     0.6742D+27                  1490.4032     4.9680    39.0127
         TOT.                       23.425    3487.0043    19.7253    69.7349

 310.00  VIB.     0.2136D+01                  1223.7152    12.4947     5.4558
         ROT.     0.9522D+05                   924.0500     2.9808    25.7620
         INT.     0.2034D+06                  2147.7652    15.4755    31.2178
         TRA.     0.7082D+27                  1540.0833     4.9680    39.1756
         TOT.                       23.626    3687.8485    20.4435    70.3934

 320.00  VIB.     0.2280D+01                  1352.2488    13.2117     5.8638
         ROT.     0.9986D+05                   953.8580     2.9808    25.8567
         INT.     0.2277D+06                  2306.1068    16.1925    31.7205
         TRA.     0.7427D+27                  1589.7634     4.9680    39.3333
         TOT.                       23.834    3895.8702    21.1605    71.0538

 330.00  VIB.     0.2440D+01                  1487.9403    13.9260     6.2813
         ROT.     0.1046D+06                   983.6661     2.9808    25.9484
         INT.     0.2552D+06                  2471.6064    16.9068    32.2297
         TRA.     0.7778D+27                  1639.4435     4.9680    39.4862
         TOT.                       24.049    4111.0500    21.8748    71.7159

 340.00  VIB.     0.2616D+01                  1630.7543    14.6360     6.7076
         ROT.     0.1094D+06                  1013.4742     2.9808    26.0374
         INT.     0.2862D+06                  2644.2285    17.6168    32.7449
         TRA.     0.8134D+27                  1689.1236     4.9680    39.6345
         TOT.                       24.272    4333.3521    22.5848    72.3795

 350.00  VIB.     0.2812D+01                  1780.6405    15.3402     7.1420
         ROT.     0.1142D+06                  1043.2822     2.9808    26.1238
         INT.     0.3212D+06                  2823.9227    18.3210    33.2658
         TRA.     0.8496D+27                  1738.8037     4.9680    39.7785
         TOT.                       24.501    4562.7265    23.2891    73.0443

 360.00  VIB.     0.3028D+01                  1937.5362    16.0377     7.5840
         ROT.     0.1192D+06                  1073.0903     2.9808    26.2077
         INT.     0.3609D+06                  3010.6265    19.0185    33.7917
         TRA.     0.8862D+27                  1788.4838     4.9680    39.9185
         TOT.                       24.737    4799.1103    23.9865    73.7102

 370.00  VIB.     0.3268D+01                  2101.3675    16.7272     8.0328
         ROT.     0.1242D+06                  1102.8984     2.9808    26.2894
         INT.     0.4058D+06                  3204.2658    19.7080    34.3222
         TRA.     0.9234D+27                  1838.1639     4.9680    40.0546
         TOT.                       24.981    5042.4298    24.6760    74.3768

 380.00  VIB.     0.3534D+01                  2272.0512    17.4080     8.4879
         ROT.     0.1292D+06                  1132.7064     2.9808    26.3689
         INT.     0.4567D+06                  3404.7576    20.3888    34.8568
         TRA.     0.9611D+27                  1887.8440     4.9680    40.1871
         TOT.                       25.231    5292.6017    25.3568    75.0439

 390.00  VIB.     0.3829D+01                  2449.4962    18.0793     8.9488
         ROT.     0.1344D+06                  1162.5145     2.9808    26.4463
         INT.     0.5145D+06                  3612.0107    21.0602    35.3952
         TRA.     0.9993D+27                  1937.5242     4.9680    40.3161
         TOT.                       25.488    5549.5348    26.0282    75.7113

 400.00  VIB.     0.4156D+01                  2633.6045    18.7406     9.4149
         ROT.     0.1396D+06                  1192.3226     2.9808    26.5218
         INT.     0.5800D+06                  3825.9271    21.7214    35.9367
         TRA.     0.1038D+28                  1987.2043     4.9680    40.4419
         TOT.                       25.751    5813.1313    26.6894    76.3786

   *: NOTE: HEATS OF FORMATION ARE RELATIVE TO THE
            ELEMENTS IN THEIR STANDARD STATE AT 298K
              (=  Standard Enthalpy of Formation).

            Hvib:  Zero-point energy is not included.
                   frequencies of less than zero cm-1 are not included.
            Hrot = (3/2)RT
            Htra = (3/2)RT + pV = (5/2)RT

            Heat capacity is Cp, not Cv

          For more information, see: HTTP://OpenMOPAC.net/Manual/thermochemistry.html


           FORCE CONSTANT IN CARTESIAN COORDINATES (Millidynes/A)

    ATOM   CHEMICAL       X               Y               Z
   NUMBER   SYMBOL  FORCE CONSTANT  FORCE CONSTANT  FORCE CONSTANT

      1       C       12.079026       12.126009        2.332411
      2       C       12.079040       12.126407        2.332044
      3       C       12.134749       12.035379        2.332618
      4       C       12.134861       12.035394        2.332956
      5       C       12.079258       12.126378        2.332387
      6       C       12.078815       12.125979        2.332200
      7       H        1.860565        4.062720        0.352304
      8       H        1.860604        4.062858        0.352295
      9       H        5.163637        0.759234        0.352763
     10       H        5.163643        0.759234        0.352751
     11       H        1.860572        4.062881        0.352283
     12       H        1.860597        4.062743        0.352334

 **********************
 *                    *
 * JOB ENDED NORMALLY *
 *                    *
 **********************



 TOTAL JOB TIME:             0.86 SECONDS

 == MOPAC DONE ==
