 *******************************************************************************
 **                                                                           **
 **                              MOPAC v23.1.2                                **
 **                                                                           **
 *******************************************************************************
 **          Digital Object Identifier (DOI): 10.5281/zenodo.6511958          **
 **    Visit the DOI location for information on how to cite this program.    **
 *******************************************************************************

                              PM3 CALCULATION RESULTS

 *******************************************************************************
 *  CALCULATION DONE: (MAX THREADS = 1)              Tue Jun  3 16:29:49 2025  *
 *  PM3        - The PM3 Hamiltonian to be used
 *  PRECISE    - TIGHTER CRITERIA TO BE USED
 *  NOSYM      - POINT-GROUP SYMMETRY SET TO C1
 *  THREADS=1  - MULTI-THREADING NOT USED
 *  T=         - A TIME OF 172800.0 SECONDS REQUESTED
 *  DUMP=N     - RESTART FILE WRITTEN EVERY 7200.0 SECONDS REQUESTED
 *******************************************************************************
pm3  precise nosym THREADS=1
 InChI=1S/C10H10/c1-2-6-10-8-4-3-7-9(10)5-1/h1-7,10H,8H2

   ATOM   CHEMICAL          X               Y               Z
  NUMBER   SYMBOL      (ANGSTROMS)     (ANGSTROMS)     (ANGSTROMS)

     1       C         -0.05490000  *  -0.68450000  *   0.35620000  *
     2       C          1.12680000  *  -1.32100000  *  -0.40150000  *
     3       C         -0.02720000  *   0.82990000  *   0.21140000  *
     4       C         -1.37080000  *  -1.27290000  *  -0.10010000  *
     5       C          2.41240000  *  -0.60090000  *  -0.08530000  *
     6       C         -1.29820000  *   1.57840000  *   0.18930000  *
     7       C          1.14910000  *   1.47520000  *   0.18290000  *
     8       C         -2.47980000  *  -0.53010000  *  -0.20290000  *
     9       C          2.41550000  *   0.71790000  *   0.14050000  *
    10       C         -2.45030000  *   0.93080000  *   0.00250000  *
    11       H          0.05730000  *  -0.92070000  *   1.43730000  *
    12       H          1.22560000  *  -2.39230000  *  -0.12300000  *
    13       H          0.94980000  *  -1.25730000  *  -1.49770000  *
    14       H         -1.44470000  *  -2.34410000  *  -0.24420000  *
    15       H          3.34830000  *  -1.14470000  *  -0.10810000  *
    16       H         -3.41850000  *  -1.00540000  *  -0.45730000  *
    17       H         -3.37710000  *   1.48860000  *  -0.03950000  *
    18       H         -1.30190000  *   2.65760000  *   0.28620000  *
    19       H          1.18560000  *   2.55770000  *   0.16400000  *
    20       H          3.35310000  *   1.23770000  *   0.28940000  *



          CARTESIAN COORDINATES 

    NO.       ATOM           X           Y           Z

     1         C         -0.0549     -0.6845      0.3562
     2         C          1.1268     -1.3210     -0.4015
     3         C         -0.0272      0.8299      0.2114
     4         C         -1.3708     -1.2729     -0.1001
     5         C          2.4124     -0.6009     -0.0853
     6         C         -1.2982      1.5784      0.1893
     7         C          1.1491      1.4752      0.1829
     8         C         -2.4798     -0.5301     -0.2029
     9         C          2.4155      0.7179      0.1405
    10         C         -2.4503      0.9308      0.0025
    11         H          0.0573     -0.9207      1.4373
    12         H          1.2256     -2.3923     -0.1230
    13         H          0.9498     -1.2573     -1.4977
    14         H         -1.4447     -2.3441     -0.2442
    15         H          3.3483     -1.1447     -0.1081
    16         H         -3.4185     -1.0054     -0.4573
    17         H         -3.3771      1.4886     -0.0395
    18         H         -1.3019      2.6576      0.2862
    19         H          1.1856      2.5577      0.1640
    20         H          3.3531      1.2377      0.2894

  H: (PM3): J. J. P. STEWART, J. COMP. CHEM. 10, 209 (1989).
  C: (PM3): J. J. P. STEWART, J. COMP. CHEM. 10, 209 (1989).

           Empirical Formula: C10 H10  =    20 atoms



      MOLECULAR POINT GROUP   :   C1  


      RHF CALCULATION, NO. OF DOUBLY OCCUPIED LEVELS = 25


          Geometry optimization using EF

          DIAGONAL MATRIX USED AS START HESSIAN

 CYCLE:     1 TIME:   0.008 TIME LEFT:  2.00D  GRAD.:    87.007 HEAT:  56.72472
 CYCLE:     2 TIME:   0.016 TIME LEFT:  2.00D  GRAD.:    32.766 HEAT:  54.83435
 CYCLE:     3 TIME:   0.008 TIME LEFT:  2.00D  GRAD.:    35.220 HEAT:  54.51616
 CYCLE:     4 TIME:   0.008 TIME LEFT:  2.00D  GRAD.:    46.301 HEAT:  54.46664
 CYCLE:     5 TIME:   0.008 TIME LEFT:  2.00D  GRAD.:    46.257 HEAT:  54.15930
 CYCLE:     6 TIME:   0.008 TIME LEFT:  2.00D  GRAD.:    29.981 HEAT:  53.86325
 CYCLE:     7 TIME:   0.008 TIME LEFT:  2.00D  GRAD.:    21.136 HEAT:  53.71636
 CYCLE:     8 TIME:   0.008 TIME LEFT:  2.00D  GRAD.:    23.401 HEAT:  53.68392
 CYCLE:     9 TIME:   0.004 TIME LEFT:  2.00D  GRAD.:    18.531 HEAT:  53.57119
 CYCLE:    10 TIME:   0.008 TIME LEFT:  2.00D  GRAD.:    21.591 HEAT:  53.56953
 CYCLE:    11 TIME:   0.004 TIME LEFT:  2.00D  GRAD.:    19.813 HEAT:  53.52436
 CYCLE:    12 TIME:   0.012 TIME LEFT:  2.00D  GRAD.:     9.102 HEAT:  53.43337
 CYCLE:    13 TIME:   0.008 TIME LEFT:  2.00D  GRAD.:    10.938 HEAT:  53.42645
 CYCLE:    14 TIME:   0.004 TIME LEFT:  2.00D  GRAD.:     5.427 HEAT:  53.39561
 CYCLE:    15 TIME:   0.012 TIME LEFT:  2.00D  GRAD.:     7.721 HEAT:  53.39438
 CYCLE:    16 TIME:   0.008 TIME LEFT:  2.00D  GRAD.:     4.297 HEAT:  53.37693
 CYCLE:    17 TIME:   0.004 TIME LEFT:  2.00D  GRAD.:     7.385 HEAT:  53.37239
 CYCLE:    18 TIME:   0.008 TIME LEFT:  2.00D  GRAD.:     5.763 HEAT:  53.35467
 CYCLE:    19 TIME:   0.012 TIME LEFT:  2.00D  GRAD.:     8.645 HEAT:  53.35279
 CYCLE:    20 TIME:   0.004 TIME LEFT:  2.00D  GRAD.:     5.054 HEAT:  53.34120
 CYCLE:    21 TIME:   0.008 TIME LEFT:  2.00D  GRAD.:     4.849 HEAT:  53.33208
 CYCLE:    22 TIME:   0.008 TIME LEFT:  2.00D  GRAD.:     2.784 HEAT:  53.32219
 CYCLE:    23 TIME:   0.004 TIME LEFT:  2.00D  GRAD.:     3.956 HEAT:  53.31745
 CYCLE:    24 TIME:   0.008 TIME LEFT:  2.00D  GRAD.:     2.696 HEAT:  53.30986
 CYCLE:    25 TIME:   0.008 TIME LEFT:  2.00D  GRAD.:     2.719 HEAT:  53.30415
 CYCLE:    26 TIME:   0.004 TIME LEFT:  2.00D  GRAD.:     2.132 HEAT:  53.29913
 CYCLE:    27 TIME:   0.008 TIME LEFT:  2.00D  GRAD.:     2.776 HEAT:  53.29479
 CYCLE:    28 TIME:   0.008 TIME LEFT:  2.00D  GRAD.:     2.104 HEAT:  53.29099
 CYCLE:    29 TIME:   0.004 TIME LEFT:  2.00D  GRAD.:     1.534 HEAT:  53.28759
 CYCLE:    30 TIME:   0.008 TIME LEFT:  2.00D  GRAD.:     1.625 HEAT:  53.28450
 CYCLE:    31 TIME:   0.012 TIME LEFT:  2.00D  GRAD.:     1.856 HEAT:  53.28112
 CYCLE:    32 TIME:   0.004 TIME LEFT:  2.00D  GRAD.:     1.493 HEAT:  53.27767
 CYCLE:    33 TIME:   0.008 TIME LEFT:  2.00D  GRAD.:     1.129 HEAT:  53.27323
 CYCLE:    34 TIME:   0.008 TIME LEFT:  2.00D  GRAD.:     0.857 HEAT:  53.27158
 CYCLE:    35 TIME:   0.008 TIME LEFT:  2.00D  GRAD.:     0.724 HEAT:  53.27032
 CYCLE:    36 TIME:   0.004 TIME LEFT:  2.00D  GRAD.:     0.786 HEAT:  53.26886
 CYCLE:    37 TIME:   0.012 TIME LEFT:  2.00D  GRAD.:     0.784 HEAT:  53.26745
 CYCLE:    38 TIME:   0.008 TIME LEFT:  2.00D  GRAD.:     0.694 HEAT:  53.26619
 CYCLE:    39 TIME:   0.004 TIME LEFT:  2.00D  GRAD.:     0.741 HEAT:  53.26540
 CYCLE:    40 TIME:   0.008 TIME LEFT:  2.00D  GRAD.:     0.569 HEAT:  53.26479
 CYCLE:    41 TIME:   0.008 TIME LEFT:  2.00D  GRAD.:     0.593 HEAT:  53.26409
 CYCLE:    42 TIME:   0.008 TIME LEFT:  2.00D  GRAD.:     0.626 HEAT:  53.26316
 CYCLE:    43 TIME:   0.008 TIME LEFT:  2.00D  GRAD.:     0.542 HEAT:  53.26245
 CYCLE:    44 TIME:   0.008 TIME LEFT:  2.00D  GRAD.:     0.458 HEAT:  53.26186
 CYCLE:    45 TIME:   0.004 TIME LEFT:  2.00D  GRAD.:     0.431 HEAT:  53.26142
 CYCLE:    46 TIME:   0.008 TIME LEFT:  2.00D  GRAD.:     0.391 HEAT:  53.26111
 CYCLE:    47 TIME:   0.008 TIME LEFT:  2.00D  GRAD.:     0.325 HEAT:  53.26081
 CYCLE:    48 TIME:   0.008 TIME LEFT:  2.00D  GRAD.:     0.205 HEAT:  53.26064
 CYCLE:    49 TIME:   0.008 TIME LEFT:  2.00D  GRAD.:     0.120 HEAT:  53.26057
 CYCLE:    50 TIME:   0.004 TIME LEFT:  2.00D  GRAD.:     0.096 HEAT:  53.26055
 CYCLE:    51 TIME:   0.008 TIME LEFT:  2.00D  GRAD.:     0.099 HEAT:  53.26053
 CYCLE:    52 TIME:   0.008 TIME LEFT:  2.00D  GRAD.:     0.071 HEAT:  53.26051
 CYCLE:    53 TIME:   0.008 TIME LEFT:  2.00D  GRAD.:     0.068 HEAT:  53.26050
 CYCLE:    54 TIME:   0.004 TIME LEFT:  2.00D  GRAD.:     0.045 HEAT:  53.26050

     GRADIENT =  0.04465 IS LESS THAN CUTOFF =  0.05000



 -------------------------------------------------------------------------------
 pm3  precise nosym THREADS=1
 InChI=1S/C10H10/c1-2-6-10-8-4-3-7-9(10)5-1/h1-7,10H,8H2



     GEOMETRY OPTIMISED USING EIGENVECTOR FOLLOWING (EF).     
     SCF FIELD WAS ACHIEVED                                   


                              PM3 CALCULATION
                                                       MOPAC v23.1.2 MacOS
                                                       Tue Jun  3 16:29:49 2025




          FINAL HEAT OF FORMATION =         53.26050 KCAL/MOL =     222.84192 KJ/MOL


          COSMO AREA              =        168.03 SQUARE ANGSTROMS
          COSMO VOLUME            =        170.45 CUBIC ANGSTROMS

          GRADIENT NORM           =          0.04465          =       0.00998 PER ATOM
          IONIZATION POTENTIAL    =          8.304219 EV
          HOMO LUMO ENERGIES (EV) =         -8.304 -0.469
          NO. OF FILLED LEVELS    =         25
          MOLECULAR WEIGHT        =        130.1890         POINT GROUP:  C1  

          MOLECULAR DIMENSIONS (Angstroms)

            Atom       Atom       Distance
            H    17    H    15     7.20480
            H    19    H    14     5.52677
            H    11    H    13     2.84532


          SCF CALCULATIONS        =         62

          WALL-CLOCK TIME         =      0.414 SECONDS
          COMPUTATION TIME        =      0.267 SECONDS




   ATOM   CHEMICAL          X               Y               Z
  NUMBER   SYMBOL      (ANGSTROMS)     (ANGSTROMS)     (ANGSTROMS)

     1       C         -0.06762468  *  -0.66596114  *   0.36351436  *
     2       C          1.11533888  *  -1.33008363  *  -0.34565313  *
     3       C         -0.02365138  *   0.83128830  *   0.24797818  *
     4       C         -1.35865377  *  -1.25615509  *  -0.09840871  *
     5       C          2.38783464  *  -0.58695528  *  -0.14117414  *
     6       C         -1.28608479  *   1.55170521  *   0.22272560  *
     7       C          1.16101826  *   1.47532416  *   0.19065043  *
     8       C         -2.46643319  *  -0.51719972  *  -0.24903905  *
     9       C          2.40006809  *   0.72814037  *   0.11861644  *
    10       C         -2.44474228  *   0.91214832  *  -0.01448718  *
    11       H          0.00479187  *  -0.88754831  *   1.46134297  *
    12       H          1.22027325  *  -2.37267934  *   0.01363869  *
    13       H          0.92698804  *  -1.40474881  *  -1.43662714  *
    14       H         -1.36205254  *  -2.33621471  *  -0.28265098  *
    15       H          3.31678535  *  -1.15642346  *  -0.24724748  *
    16       H         -3.41536183  *  -0.96786667  *  -0.55735202  *
    17       H         -3.39677143  *   1.45108459  *  -0.05171067  *
    18       H         -1.25228670  *   2.63679843  *   0.37334235  *
    19       H          1.21803114  *   2.56898345  *   0.17289269  *
    20       H          3.33619366  *   1.27856671  *   0.25552434  *

                             CARTESIAN COORDINATES

   1    C       -0.067624683    -0.665961143     0.363514356
   2    C        1.115338876    -1.330083633    -0.345653127
   3    C       -0.023651384     0.831288304     0.247978182
   4    C       -1.358653769    -1.256155090    -0.098408709
   5    C        2.387834642    -0.586955284    -0.141174139
   6    C       -1.286084792     1.551705207     0.222725603
   7    C        1.161018260     1.475324163     0.190650428
   8    C       -2.466433194    -0.517199722    -0.249039054
   9    C        2.400068089     0.728140373     0.118616443
  10    C       -2.444742277     0.912148320    -0.014487185
  11    H        0.004791869    -0.887548311     1.461342974
  12    H        1.220273247    -2.372679343     0.013638690
  13    H        0.926988044    -1.404748807    -1.436627143
  14    H       -1.362052542    -2.336214710    -0.282650977
  15    H        3.316785352    -1.156423461    -0.247247476
  16    H       -3.415361830    -0.967866670    -0.557352017
  17    H       -3.396771427     1.451084590    -0.051710666
  18    H       -1.252286704     2.636798429     0.373342351
  19    H        1.218031135     2.568983455     0.172892687
  20    H        3.336193663     1.278566708     0.255524339


           Empirical Formula: C10 H10  =    20 atoms



      MOLECULAR POINT GROUP   :   C1  


                  EIGENVALUES  
 -41.34927 -35.47041 -31.93139 -28.74025 -27.39544 -22.55134 -21.61567 -20.98054
 -17.87591 -17.49214 -16.91958 -16.50116 -15.33862 -14.95278 -14.71798 -14.28421
 -13.48445 -13.39700 -12.86013 -12.17360 -11.86302 -11.72000 -11.23636  -9.87709
  -8.30422  -0.46886   0.72748   1.81410   2.42466   3.13984   3.20946   3.35876
   3.39628   3.52431   3.70186   3.78507   3.88047   4.02979   4.10193   4.40517
   4.58713   4.67298   4.73260   5.07096   5.21246   5.43148   5.76056   5.87575
   6.24696   6.29353


              NET ATOMIC CHARGES AND DIPOLE CONTRIBUTIONS

  ATOM NO.   TYPE          CHARGE      No. of ELECS.   s-Pop       p-Pop       
    1          C           0.001945        3.9981     1.14807     2.84999
    2          C          -0.054665        4.0547     1.14814     2.90653
    3          C          -0.074037        4.0740     1.18404     2.89000
    4          C          -0.127846        4.1278     1.19811     2.92973
    5          C          -0.136887        4.1369     1.19697     2.93992
    6          C          -0.090635        4.0906     1.17977     2.91086
    7          C          -0.108577        4.1086     1.17903     2.92954
    8          C          -0.113804        4.1138     1.17861     2.93520
    9          C          -0.110592        4.1106     1.17826     2.93233
   10          C          -0.098037        4.0980     1.18028     2.91776
   11          H           0.077350        0.9226     0.92265
   12          H           0.055470        0.9445     0.94453
   13          H           0.062282        0.9377     0.93772
   14          H           0.102190        0.8978     0.89781
   15          H           0.100040        0.9000     0.89996
   16          H           0.102476        0.8975     0.89752
   17          H           0.101815        0.8982     0.89819
   18          H           0.103270        0.8967     0.89673
   19          H           0.105980        0.8940     0.89402
   20          H           0.102261        0.8977     0.89774
 DIPOLE           X         Y         Z       TOTAL
 POINT-CHG.    -0.017    -0.381     0.001     0.382
 HYBRID         0.003    -0.004    -0.034     0.034
 SUM           -0.014    -0.385    -0.032     0.387


          ATOMIC ORBITAL ELECTRON POPULATIONS

     Atom    s        px        py        pz   
    1  C   1.14807   0.93222   0.92274   0.99502
    2  C   1.14814   0.92812   0.97439   1.00402
    3  C   1.18404   0.94212   0.94792   0.99996
    4  C   1.19811   0.95084   0.98628   0.99261
    5  C   1.19697   0.97689   0.96211   1.00091
    6  C   1.17977   0.93155   0.97836   1.00096
    7  C   1.17903   0.93047   0.98012   1.01895
    8  C   1.17861   0.97524   0.94659   1.01336
    9  C   1.17826   0.96758   0.95027   1.01448
   10  C   1.18028   0.97234   0.94781   0.99761
   11  H   0.92265
   12  H   0.94453
   13  H   0.93772
   14  H   0.89781
   15  H   0.89996
   16  H   0.89752
   17  H   0.89819
   18  H   0.89673
   19  H   0.89402
   20  H   0.89774
 *******************************************************************************
 **                                                                           **
 **                              MOPAC v23.1.2                                **
 **                                                                           **
 *******************************************************************************
 **          Digital Object Identifier (DOI): 10.5281/zenodo.6511958          **
 **    Visit the DOI location for information on how to cite this program.    **
 *******************************************************************************

                              PM3 CALCULATION RESULTS

 *******************************************************************************
 *  CALCULATION DONE: (MAX THREADS = 1)              Tue Jun  3 16:29:49 2025  *
 *  PM3        - The PM3 Hamiltonian to be used
 *  OLDGEO     - PREVIOUS GEOMETRY TO BE USED
 *  PRECISE    - TIGHTER CRITERIA TO BE USED
 *  NOSYM      - POINT-GROUP SYMMETRY SET TO C1
 *  THREADS=1  - MULTI-THREADING NOT USED
 *  T=         - A TIME OF 172800.0 SECONDS REQUESTED
 *  DUMP=N     - RESTART FILE WRITTEN EVERY 7200.0 SECONDS REQUESTED
 *  THERMO     - THERMODYNAMIC QUANTITIES TO BE CALCULATED
 *******************************************************************************
oldgeo thermo nosym precise THREADS=1  pm3
 InChI=1S/C10H10/c1-2-6-10-8-4-3-7-9(10)5-1/h1-7,10H,8H2

   ATOM   CHEMICAL          X               Y               Z
  NUMBER   SYMBOL      (ANGSTROMS)     (ANGSTROMS)     (ANGSTROMS)

     1       C         -0.06762468  *  -0.66596114  *   0.36351436  *
     2       C          1.11533888  *  -1.33008363  *  -0.34565313  *
     3       C         -0.02365138  *   0.83128830  *   0.24797818  *
     4       C         -1.35865377  *  -1.25615509  *  -0.09840871  *
     5       C          2.38783464  *  -0.58695528  *  -0.14117414  *
     6       C         -1.28608479  *   1.55170521  *   0.22272560  *
     7       C          1.16101826  *   1.47532416  *   0.19065043  *
     8       C         -2.46643319  *  -0.51719972  *  -0.24903905  *
     9       C          2.40006809  *   0.72814037  *   0.11861644  *
    10       C         -2.44474228  *   0.91214832  *  -0.01448718  *
    11       H          0.00479187  *  -0.88754831  *   1.46134297  *
    12       H          1.22027325  *  -2.37267934  *   0.01363869  *
    13       H          0.92698804  *  -1.40474881  *  -1.43662714  *
    14       H         -1.36205254  *  -2.33621471  *  -0.28265098  *
    15       H          3.31678535  *  -1.15642346  *  -0.24724748  *
    16       H         -3.41536183  *  -0.96786667  *  -0.55735202  *
    17       H         -3.39677143  *   1.45108459  *  -0.05171067  *
    18       H         -1.25228670  *   2.63679843  *   0.37334235  *
    19       H          1.21803114  *   2.56898345  *   0.17289269  *
    20       H          3.33619366  *   1.27856671  *   0.25552434  *



          CARTESIAN COORDINATES 

    NO.       ATOM           X           Y           Z

     1         C         -0.0676     -0.6660      0.3635
     2         C          1.1153     -1.3301     -0.3457
     3         C         -0.0237      0.8313      0.2480
     4         C         -1.3587     -1.2562     -0.0984
     5         C          2.3878     -0.5870     -0.1412
     6         C         -1.2861      1.5517      0.2227
     7         C          1.1610      1.4753      0.1907
     8         C         -2.4664     -0.5172     -0.2490
     9         C          2.4001      0.7281      0.1186
    10         C         -2.4447      0.9121     -0.0145
    11         H          0.0048     -0.8875      1.4613
    12         H          1.2203     -2.3727      0.0136
    13         H          0.9270     -1.4047     -1.4366
    14         H         -1.3621     -2.3362     -0.2827
    15         H          3.3168     -1.1564     -0.2472
    16         H         -3.4154     -0.9679     -0.5574
    17         H         -3.3968      1.4511     -0.0517
    18         H         -1.2523      2.6368      0.3733
    19         H          1.2180      2.5690      0.1729
    20         H          3.3362      1.2786      0.2555

  H: (PM3): J. J. P. STEWART, J. COMP. CHEM. 10, 209 (1989).
  C: (PM3): J. J. P. STEWART, J. COMP. CHEM. 10, 209 (1989).

           Empirical Formula: C10 H10  =    20 atoms



      MOLECULAR POINT GROUP   :   C1  


      RHF CALCULATION, NO. OF DOUBLY OCCUPIED LEVELS = 25



          HEAT OF FORMATION =      53.260496 KCALS/MOLE


          CARTESIAN COORDINATE DERIVATIVES

   NUMBER  ATOM         X            Y            Z

     1       C     -0.004963    -0.006239    -0.005171
     2       C      0.009570     0.007304     0.000110
     3       C     -0.000023    -0.001586     0.001641
     4       C      0.004228     0.004509    -0.001433
     5       C      0.006744     0.009485     0.001982
     6       C     -0.010039     0.003539    -0.006235
     7       C     -0.009315     0.003686     0.000640
     8       C      0.004295    -0.008779     0.004081
     9       C     -0.008316    -0.006098     0.000617
    10       C      0.004191     0.008917     0.002847
    11       H     -0.005499    -0.004837    -0.008176
    12       H      0.008259    -0.000978    -0.002506
    13       H      0.005482    -0.014060     0.002604
    14       H     -0.007358    -0.005895    -0.000615
    15       H      0.008379     0.007507     0.002028
    16       H     -0.012187    -0.003457    -0.000515
    17       H      0.005315    -0.001682     0.003622
    18       H     -0.005853     0.009975    -0.005277
    19       H      0.008283    -0.000048     0.006500
    20       H     -0.001194    -0.001265     0.003255



          GRADIENT NORM =   0.04624

          MOLECULAR WEIGHT =  130.19



          ROTATIONAL CONSTANTS IN CM(-1)

          A =    0.09600400   B =    0.04044058   C =    0.02924481



           PRINCIPAL MOMENTS OF INERTIA IN UNITS OF 10**(-40)*GRAM-CM**2

          A =      291.5790   B =      692.1946   C =      957.1869


          ORIENTATION OF MOLECULE IN FORCE CALCULATION

    NO.       ATOM         X         Y         Z

     1          C       0.1595   -0.7833    0.2383
     2          C       1.6903   -0.7833    0.2383
     3          C      -0.4026    0.6099    0.2383
     4          C      -0.3681   -1.6329   -0.8700
     5          C       2.2565    0.2669    1.1270
     6          C      -1.6790    0.8314   -0.4213
     7          C       0.2601    1.6115    0.8542
     8          C      -1.4750   -1.3078   -1.5520
     9          C       1.5751    1.3841    1.4178
    10          C      -2.1870   -0.0777   -1.2717
    11          H      -0.1970   -1.2540    1.1927
    12          H       2.0573   -1.7822    0.5461
    13          H       2.0826   -0.6208   -0.7869
    14          H       0.1832   -2.5560   -1.0808
    15          H       3.2706    0.1021    1.5051
    16          H      -1.8700   -1.9558   -2.3411
    17          H      -3.1393    0.0903   -1.7847
    18          H      -2.1934    1.7786   -0.2224
    19          H      -0.1621    2.6197    0.9237
    20          H       1.9963    2.1637    2.0604


    FIRST DERIVATIVES WILL BE USED IN THE CALCULATION OF SECOND DERIVATIVES

          ESTIMATED TIME TO COMPLETE CALCULATION =        1.88 SECONDS

    FOR POINT-GROUP C1   THERE ARE   1 UNIQUE SYMMETRY FUNCTIONS.

 STEP:   1 TIME =     0.02 SECS, INTEGRAL =      0.02 TIME LEFT: 172799.97
 STEP:   2 TIME =     0.02 SECS, INTEGRAL =      0.04 TIME LEFT: 172799.95
 STEP:   3 TIME =     0.02 SECS, INTEGRAL =      0.06 TIME LEFT: 172799.93
 STEP:   4 TIME =     0.02 SECS, INTEGRAL =      0.08 TIME LEFT: 172799.91
 STEP:   5 TIME =     0.02 SECS, INTEGRAL =      0.10 TIME LEFT: 172799.89
 STEP:   6 TIME =     0.02 SECS, INTEGRAL =      0.12 TIME LEFT: 172799.87
 STEP:   7 TIME =     0.02 SECS, INTEGRAL =      0.14 TIME LEFT: 172799.85
 STEP:   8 TIME =     0.02 SECS, INTEGRAL =      0.16 TIME LEFT: 172799.83
 STEP:   9 TIME =     0.02 SECS, INTEGRAL =      0.18 TIME LEFT: 172799.81
 STEP:  10 TIME =     0.02 SECS, INTEGRAL =      0.20 TIME LEFT: 172799.79
 STEP:  11 TIME =     0.02 SECS, INTEGRAL =      0.22 TIME LEFT: 172799.77
 STEP:  12 TIME =     0.02 SECS, INTEGRAL =      0.24 TIME LEFT: 172799.75
 STEP:  13 TIME =     0.02 SECS, INTEGRAL =      0.26 TIME LEFT: 172799.73
 STEP:  14 TIME =     0.02 SECS, INTEGRAL =      0.28 TIME LEFT: 172799.71
 STEP:  15 TIME =     0.02 SECS, INTEGRAL =      0.30 TIME LEFT: 172799.69
 STEP:  16 TIME =     0.02 SECS, INTEGRAL =      0.32 TIME LEFT: 172799.67
 STEP:  17 TIME =     0.02 SECS, INTEGRAL =      0.34 TIME LEFT: 172799.65
 STEP:  18 TIME =     0.02 SECS, INTEGRAL =      0.37 TIME LEFT: 172799.62
 STEP:  19 TIME =     0.02 SECS, INTEGRAL =      0.39 TIME LEFT: 172799.61
 STEP:  20 TIME =     0.02 SECS, INTEGRAL =      0.41 TIME LEFT: 172799.59
 STEP:  21 TIME =     0.02 SECS, INTEGRAL =      0.43 TIME LEFT: 172799.57
 STEP:  22 TIME =     0.02 SECS, INTEGRAL =      0.45 TIME LEFT: 172799.55
 STEP:  23 TIME =     0.02 SECS, INTEGRAL =      0.46 TIME LEFT: 172799.53
 STEP:  24 TIME =     0.02 SECS, INTEGRAL =      0.48 TIME LEFT: 172799.51
 STEP:  25 TIME =     0.02 SECS, INTEGRAL =      0.50 TIME LEFT: 172799.49
 STEP:  26 TIME =     0.02 SECS, INTEGRAL =      0.53 TIME LEFT: 172799.46
 STEP:  27 TIME =     0.02 SECS, INTEGRAL =      0.55 TIME LEFT: 172799.45
 STEP:  28 TIME =     0.02 SECS, INTEGRAL =      0.57 TIME LEFT: 172799.42
 STEP:  29 TIME =     0.02 SECS, INTEGRAL =      0.59 TIME LEFT: 172799.40
 STEP:  30 TIME =     0.02 SECS, INTEGRAL =      0.61 TIME LEFT: 172799.38
 STEP:  31 TIME =     0.02 SECS, INTEGRAL =      0.63 TIME LEFT: 172799.36
 STEP:  32 TIME =     0.02 SECS, INTEGRAL =      0.65 TIME LEFT: 172799.34
 STEP:  33 TIME =     0.02 SECS, INTEGRAL =      0.67 TIME LEFT: 172799.32
 STEP:  34 TIME =     0.02 SECS, INTEGRAL =      0.69 TIME LEFT: 172799.30
 STEP:  35 TIME =     0.02 SECS, INTEGRAL =      0.71 TIME LEFT: 172799.29
 STEP:  36 TIME =     0.02 SECS, INTEGRAL =      0.73 TIME LEFT: 172799.27
 STEP:  37 TIME =     0.02 SECS, INTEGRAL =      0.75 TIME LEFT: 172799.24
 STEP:  38 TIME =     0.02 SECS, INTEGRAL =      0.77 TIME LEFT: 172799.22
 STEP:  39 TIME =     0.02 SECS, INTEGRAL =      0.79 TIME LEFT: 172799.20
 STEP:  40 TIME =     0.02 SECS, INTEGRAL =      0.81 TIME LEFT: 172799.18
 STEP:  41 TIME =     0.02 SECS, INTEGRAL =      0.83 TIME LEFT: 172799.16
 STEP:  42 TIME =     0.02 SECS, INTEGRAL =      0.85 TIME LEFT: 172799.14
 STEP:  43 TIME =     0.02 SECS, INTEGRAL =      0.87 TIME LEFT: 172799.12
 STEP:  44 TIME =     0.02 SECS, INTEGRAL =      0.89 TIME LEFT: 172799.11
 STEP:  45 TIME =     0.02 SECS, INTEGRAL =      0.91 TIME LEFT: 172799.08
 STEP:  46 TIME =     0.02 SECS, INTEGRAL =      0.93 TIME LEFT: 172799.06
 STEP:  47 TIME =     0.02 SECS, INTEGRAL =      0.95 TIME LEFT: 172799.04
 STEP:  48 TIME =     0.02 SECS, INTEGRAL =      0.97 TIME LEFT: 172799.02
 STEP:  49 TIME =     0.02 SECS, INTEGRAL =      0.99 TIME LEFT: 172799.00
 STEP:  50 TIME =     0.02 SECS, INTEGRAL =      1.01 TIME LEFT: 172798.98
 STEP:  51 TIME =     0.02 SECS, INTEGRAL =      1.03 TIME LEFT: 172798.96
 STEP:  52 TIME =     0.02 SECS, INTEGRAL =      1.05 TIME LEFT: 172798.94
 STEP:  53 TIME =     0.02 SECS, INTEGRAL =      1.07 TIME LEFT: 172798.92
 STEP:  54 TIME =     0.02 SECS, INTEGRAL =      1.09 TIME LEFT: 172798.90
 STEP:  55 TIME =     0.02 SECS, INTEGRAL =      1.11 TIME LEFT: 172798.88
 STEP:  56 TIME =     0.02 SECS, INTEGRAL =      1.13 TIME LEFT: 172798.86
 STEP:  57 TIME =     0.02 SECS, INTEGRAL =      1.16 TIME LEFT: 172798.84
 STEP:  58 TIME =     0.02 SECS, INTEGRAL =      1.18 TIME LEFT: 172798.82
 STEP:  59 TIME =     0.02 SECS, INTEGRAL =      1.20 TIME LEFT: 172798.80
 STEP:  60 TIME =     0.02 SECS, INTEGRAL =      1.22 TIME LEFT: 172798.77

(To convert to Hartree/Bohr^2, multiply by (10^(-21) x N x a0^2)/(4.184 x 627.51) =  0.0642)


           FORCE MATRIX IN MILLIDYNES/ANGSTROM


                  C  1       C  2       C  3       C  4       C  5       C  6
 ------------------------------------------------------------------------------
     C    1  14.992306
     C    2   3.843106  14.646573
     C    3   4.427442   0.632683  18.572799
     C    4   4.725089   0.687908   0.701718  18.012666
     C    5   0.658225   4.943996   0.182240   0.057196  17.922453
     C    6   0.613281   0.045126   5.437177   0.222076   0.057614  18.256975
     C    7   0.810278   0.118566   9.492708   0.073044   1.181993   1.165052
     C    8   0.845945   0.051337   0.197129  10.180243   0.017432   1.193744
     C    9   0.113887   0.863873   1.181791   0.023938  10.177218   0.189153
     C   10   0.141681   0.015754   1.161288   1.192506   0.025900   9.863055
     H   11   4.040303   0.433416   0.386930   0.386509   0.014122   0.018458
     H   12   0.439263   4.462797   0.050647   0.023456   0.437889   0.008560
     H   13   0.449465   4.392373   0.015505   0.033434   0.409461   0.007081
     H   14   0.431009   0.038114   0.044799   4.828333   0.002514   0.011534
     H   15   0.044540   0.425589   0.019466   0.009225   4.857941   0.011623
     H   16   0.120933   0.013831   0.005120   0.443244   0.002575   0.048895
     H   17   0.003929   0.000957   0.120423   0.048680   0.001644   0.440606
     H   18   0.042229   0.007011   0.445957   0.016593   0.002115   4.817190
     H   19   0.108644   0.008574   0.456529   0.013916   0.047010   0.077221
     H   20   0.004648   0.121173   0.046501   0.000891   0.445547   0.010376


                  C  7       C  8       C  9       C 10       H 11       H 12
 ------------------------------------------------------------------------------
     C    7  18.158890
     C    8   0.088920  18.301436
     C    9   5.619650   0.035593  18.289630
     C   10   0.196659   5.633889   0.068572  18.189354
     H   11   0.036382   0.037260   0.021730   0.018931   4.481447
     H   12   0.010748   0.002301   0.048035   0.001702   0.035198   5.060137
     H   13   0.021618   0.005512   0.036664   0.004222   0.046831   0.568933
     H   14   0.008115   0.443426   0.003534   0.124206   0.015888   0.015224
     H   15   0.124250   0.006303   0.445282   0.005511   0.005574   0.035142
     H   16   0.001374   4.857398   0.000749   0.435932   0.016087   0.000310
     H   17   0.008369   0.435092   0.010588   4.865963   0.001282   0.000308
     H   18   0.040066   0.123986   0.005628   0.442709   0.003565   0.001401
     H   19   4.839413   0.009455   0.433553   0.010655   0.015938   0.001246
     H   20   0.433081   0.001274   4.864174   0.002749   0.000949   0.012709


                  H 13       H 14       H 15       H 16       H 17       H 18
 ------------------------------------------------------------------------------
     H   13   4.997288
     H   14   0.008386   5.208220
     H   15   0.015371   0.000943   5.232256
     H   16   0.000757   0.065794   0.000547   5.222147
     H   17   0.000370   0.007651   0.000901   0.031306   5.229146
     H   18   0.000521   0.009205   0.000412   0.007323   0.063410   5.190768
     H   19   0.000788   0.003934   0.007797   0.000678   0.004774   0.025812
     H   20   0.016762   0.000371   0.065317   0.000231   0.000762   0.000663


                  H 19       H 20
 ------------------------------
     H   19   5.215675
     H   20   0.030369   5.230903


          HEAT OF FORMATION =      53.260496 KCALS/MOLE

          ZERO POINT ENERGY     105.107 KCAL/MOL


           NORMAL COORDINATE ANALYSIS (Total motion = 1 Angstrom)


   Root No.       1         2         3         4         5         6         7         8

                 1 A       2 A       3 A       4 A       5 A       6 A       7 A       8 A   

                  96.9     145.0     230.8     348.2     409.4     419.7     459.2     480.3
  
           1   -0.0090    0.0142    0.0076   -0.0216   -0.0184   -0.0160    0.0100   -0.0283
           2   -0.0072    0.0134    0.0061    0.0337   -0.0011   -0.0349    0.0123    0.0039
           3    0.0048   -0.0309   -0.0226    0.0143    0.0067    0.0352    0.0183   -0.0078
           4   -0.0087    0.0129    0.0074   -0.0253   -0.0248   -0.0133    0.0162   -0.0268
           5   -0.0319    0.0070   -0.0200   -0.0081    0.0110    0.0088   -0.0069    0.0290
           6    0.0499    0.0015    0.0283   -0.0108   -0.0051    0.0018    0.0014    0.0167
           7   -0.0037    0.0194    0.0074   -0.0075   -0.0133    0.0024   -0.0394    0.0064
           8   -0.0056    0.0158    0.0047    0.0406    0.0016   -0.0262   -0.0074    0.0108
           9    0.0066   -0.0374   -0.0128   -0.0122    0.0320    0.0109    0.0251    0.0174
          10    0.0175    0.0148    0.0061    0.0195    0.0206    0.0058    0.0322   -0.0212
          11    0.0192    0.0147    0.0078    0.0116    0.0107    0.0032    0.0410   -0.0002
          12   -0.0299   -0.0318   -0.0225    0.0168   -0.0222   -0.0089   -0.0051   -0.0245
          13    0.0005   -0.0138    0.0123    0.0055   -0.0119    0.0009    0.0222    0.0271
          14    0.0013   -0.0208    0.0189   -0.0193   -0.0195    0.0191   -0.0085    0.0242
          15    0.0028    0.0530   -0.0216   -0.0272    0.0189   -0.0173   -0.0101   -0.0042
          16   -0.0208    0.0007    0.0185   -0.0134    0.0113    0.0304   -0.0309   -0.0007
          17   -0.0155    0.0019    0.0146    0.0038    0.0039    0.0166    0.0025   -0.0337
          18    0.0342   -0.0066   -0.0298   -0.0162   -0.0134   -0.0246   -0.0016    0.0104
          19    0.0056    0.0204   -0.0188    0.0069   -0.0004    0.0047    0.0014    0.0430
          20    0.0051    0.0137   -0.0114    0.0145    0.0006   -0.0106   -0.0055    0.0058
          21   -0.0219   -0.0355    0.0422    0.0165    0.0250   -0.0195   -0.0282   -0.0033
          22    0.0176   -0.0234   -0.0260    0.0350   -0.0065    0.0051   -0.0074   -0.0315
          23    0.0228   -0.0124   -0.0147   -0.0053   -0.0218    0.0146   -0.0046   -0.0341
          24   -0.0284    0.0167    0.0176   -0.0110    0.0090   -0.0027    0.0387   -0.0265
          25    0.0133   -0.0064   -0.0034    0.0057    0.0284   -0.0121   -0.0119    0.0293
          26    0.0189   -0.0077    0.0016   -0.0293    0.0182    0.0013   -0.0329    0.0106
          27   -0.0365    0.0202    0.0080    0.0125   -0.0314    0.0176    0.0003    0.0468
          28   -0.0110   -0.0340   -0.0108   -0.0048    0.0100   -0.0149   -0.0045    0.0076
          29   -0.0034   -0.0238   -0.0042   -0.0339   -0.0109   -0.0037    0.0115   -0.0136
          30    0.0156    0.0414    0.0071    0.0155    0.0005    0.0271   -0.0276   -0.0224
          31   -0.0456   -0.0028   -0.0225   -0.0328   -0.0270   -0.0080    0.0217   -0.0512
          32   -0.0182    0.0150    0.0067    0.0622   -0.0288   -0.0562   -0.0189   -0.0206
          33   -0.0145   -0.0358   -0.0322    0.0237   -0.0108    0.0250    0.0070   -0.0287
          34   -0.0371    0.0045   -0.0265   -0.0498   -0.0064    0.0278    0.0002   -0.0298
          35   -0.0230   -0.0043   -0.0070   -0.0157   -0.0041    0.0195   -0.0083    0.0340
          36    0.1136   -0.0256    0.1135   -0.0045   -0.0789   -0.0145    0.0181    0.0363
          37    0.0227    0.0369    0.0483   -0.0372   -0.0482   -0.0574    0.0145   -0.0335
          38   -0.0965    0.0435   -0.1045   -0.0317    0.0842    0.0247   -0.0342    0.0079
          39    0.0514    0.0167    0.0309   -0.0195   -0.0041   -0.0132   -0.0032    0.0109
          40    0.0369    0.0379    0.0191    0.0497    0.0641    0.0360    0.0689   -0.0097
          41    0.0372    0.0361    0.0205    0.0269    0.0444    0.0342    0.0723    0.0032
          42   -0.0579   -0.0642   -0.0434    0.0277   -0.0574   -0.0652   -0.0485   -0.0090
          43    0.0028   -0.0414    0.0374    0.0168   -0.0244    0.0151    0.0238    0.0454
          44    0.0100   -0.0495    0.0555   -0.0244   -0.0528    0.0329    0.0058    0.0114
          45    0.0008    0.1142   -0.0716   -0.0596    0.0374   -0.0500   -0.0086   -0.0587
          46    0.0380   -0.0399   -0.0514    0.0783   -0.0170    0.0358   -0.0230   -0.0562
          47    0.0459   -0.0187   -0.0312    0.0075   -0.0314    0.0527   -0.0534   -0.0539
          48   -0.0575    0.0302    0.0438   -0.0428    0.0224   -0.0495    0.0864    0.0023
          49   -0.0225   -0.0637   -0.0149   -0.0329    0.0260   -0.0355    0.0433    0.0205
          50   -0.0133   -0.0476   -0.0019   -0.0835    0.0047   -0.0164    0.0343    0.0226
          51    0.0339    0.0889    0.0153    0.0510   -0.0246    0.0618   -0.1090   -0.0356
          52   -0.0394    0.0054    0.0430   -0.0389    0.0309    0.0784   -0.0171   -0.0306
          53   -0.0330    0.0050    0.0358   -0.0081    0.0271    0.0531    0.0158   -0.0536
          54    0.0691   -0.0094   -0.0660   -0.0278   -0.0726   -0.0733   -0.0305    0.0281
          55    0.0028    0.0314   -0.0436    0.0313   -0.0112    0.0266    0.0528    0.0776
          56    0.0047    0.0193   -0.0250    0.0226   -0.0055    0.0041    0.0198    0.0242
          57   -0.0305   -0.0510    0.0914    0.0399    0.0494   -0.0958   -0.0858   -0.0588
          58    0.0290   -0.0269    0.0072    0.0177    0.0738   -0.0346   -0.0420    0.0086
          59    0.0421   -0.0194    0.0089   -0.0541    0.0486   -0.0061   -0.0497   -0.0080
          60   -0.0749    0.0479   -0.0075    0.0348   -0.0982    0.0405    0.0407    0.0826


   Root No.       9        10        11        12        13        14        15        16

                 9 A      10 A      11 A      12 A      13 A      14 A      15 A      16 A   

                 494.9     596.4     651.6     737.7     765.1     776.8     823.1     836.7
  
           1    0.0067    0.0257    0.0057   -0.0038    0.0015   -0.0118    0.0008    0.0034
           2    0.0047    0.0089    0.0112   -0.0027   -0.0050    0.0004    0.0178   -0.0259
           3    0.0174    0.0244   -0.0356    0.0005    0.0024    0.0164   -0.0112    0.0065
           4    0.0218    0.0297    0.0185   -0.0026   -0.0113    0.0013   -0.0205    0.0127
           5    0.0233   -0.0297    0.0055    0.0064    0.0024    0.0108    0.0122   -0.0265
           6    0.0203   -0.0186   -0.0070   -0.0102   -0.0149    0.0158    0.0028    0.0186
           7   -0.0177    0.0185   -0.0446    0.0027   -0.0034   -0.0015    0.0088    0.0028
           8   -0.0097    0.0045    0.0013   -0.0014   -0.0126    0.0000   -0.0147    0.0220
           9   -0.0184    0.0429    0.0544   -0.0084    0.0071    0.0036   -0.0056    0.0051
          10   -0.0250   -0.0334   -0.0110   -0.0050    0.0182   -0.0064    0.0129    0.0141
          11    0.0198    0.0527   -0.0289   -0.0113    0.0125    0.0122    0.0269   -0.0250
          12    0.0210    0.0140   -0.0046    0.0084   -0.0022   -0.0098   -0.0023   -0.0182
          13    0.0534   -0.0245    0.0109    0.0016   -0.0189    0.0427   -0.0033    0.0031
          14    0.0006   -0.0076    0.0011    0.0096    0.0070    0.0049   -0.0037    0.0033
          15    0.0329   -0.0081    0.0075   -0.0095   -0.0138   -0.0045    0.0010   -0.0077
          16   -0.0236    0.0379   -0.0107   -0.0093    0.0014    0.0167    0.0086   -0.0222
          17   -0.0086   -0.0521    0.0268   -0.0052   -0.0001    0.0084   -0.0296   -0.0046
          18   -0.0354   -0.0141   -0.0082    0.0075   -0.0184    0.0022    0.0231   -0.0046
          19    0.0062   -0.0086    0.0030    0.0097    0.0115   -0.0178    0.0029    0.0039
          20   -0.0434    0.0456    0.0055   -0.0063   -0.0193    0.0094   -0.0128    0.0395
          21    0.0116    0.0134    0.0000   -0.0036    0.0068   -0.0094   -0.0143    0.0039
          22   -0.0055   -0.0252    0.0075   -0.0042    0.0164   -0.0063    0.0156    0.0092
          23    0.0183   -0.0054   -0.0039   -0.0028    0.0182   -0.0107    0.0179    0.0167
          24   -0.0179   -0.0316   -0.0214    0.0108    0.0070   -0.0233   -0.0078    0.0059
          25    0.0308   -0.0078    0.0065    0.0153    0.0212   -0.0126   -0.0066    0.0101
          26   -0.0036    0.0057   -0.0001    0.0153    0.0245   -0.0205   -0.0061    0.0082
          27   -0.0086   -0.0050   -0.0032   -0.0033    0.0073   -0.0403   -0.0020    0.0015
          28   -0.0531   -0.0242    0.0045   -0.0086   -0.0134    0.0266   -0.0144   -0.0306
          29   -0.0093   -0.0195   -0.0130   -0.0024    0.0065    0.0000   -0.0117   -0.0009
          30   -0.0208   -0.0159    0.0230    0.0026   -0.0178    0.0090    0.0204   -0.0086
          31    0.0250    0.0688    0.0412    0.0023    0.0067   -0.0418   -0.0354   -0.0368
          32    0.0143   -0.0040   -0.0244    0.0230   -0.0328   -0.0105    0.0226   -0.0577
          33    0.0285    0.0342   -0.0387    0.0153   -0.0085   -0.0009   -0.0203   -0.0266
          34    0.0295    0.0275   -0.0274   -0.0178   -0.0245    0.0108   -0.0499    0.0934
          35    0.0120   -0.0244    0.0074    0.0188    0.0157    0.0098    0.0019   -0.0222
          36   -0.0299    0.0043    0.0598    0.0523    0.0500   -0.0043    0.0034   -0.0698
          37    0.0070    0.0394    0.0822    0.0057   -0.0016   -0.0457   -0.0122   -0.0523
          38    0.0740   -0.0578   -0.0587   -0.0617   -0.0690    0.0205    0.0103    0.0663
          39    0.0226   -0.0184    0.0095   -0.0163   -0.0214   -0.0004    0.0054    0.0062
          40   -0.0359   -0.0197   -0.0531    0.0539   -0.0451   -0.0258   -0.0843   -0.0616
          41    0.0125    0.0624   -0.0679    0.0412   -0.0411   -0.0097   -0.0631   -0.0770
          42    0.0235    0.0033    0.0565   -0.0676    0.0654    0.0374    0.1387    0.0097
          43    0.0584   -0.0440   -0.0065   -0.0549   -0.0664   -0.0107    0.0120    0.0053
          44    0.0078   -0.0110   -0.0143   -0.0705   -0.0795   -0.0299    0.0003    0.0176
          45    0.0217    0.0444    0.0486    0.1071    0.0758    0.1227   -0.0399   -0.0054
          46    0.0492    0.0283    0.0074    0.0640   -0.0438   -0.0689   -0.0174   -0.0241
          47    0.0235   -0.0131    0.0302    0.0568   -0.0660   -0.0433   -0.0352   -0.0001
          48   -0.0500   -0.0516   -0.0498   -0.0724    0.1067    0.0348    0.0534    0.0353
          49   -0.0725   -0.0313   -0.0035    0.0472   -0.0747   -0.0179    0.0551   -0.0043
          50   -0.0388    0.0201   -0.0323    0.0448   -0.0702   -0.0145    0.0709   -0.0080
          51    0.0055    0.0108    0.0302   -0.0858    0.0709    0.0878   -0.0802   -0.0623
          52   -0.0130    0.0523    0.0211    0.0289   -0.0286   -0.0046    0.1282   -0.0047
          53   -0.0028   -0.0374    0.0667    0.0276   -0.0312   -0.0082    0.0665    0.0183
          54   -0.0367   -0.0435   -0.1150   -0.0498    0.0508    0.0274   -0.1263   -0.0670
          55   -0.0011    0.0030    0.0581   -0.0403    0.0009   -0.0562   -0.0357   -0.0003
          56   -0.0487    0.0521    0.0339   -0.0331   -0.0227   -0.0131   -0.0322    0.0339
          57    0.0487   -0.0175   -0.0716    0.0814   -0.0114    0.0841    0.0253    0.0738
          58    0.0249    0.0163   -0.0041   -0.0388    0.0026   -0.1064   -0.0182    0.0073
          59    0.0415   -0.0232   -0.0064   -0.0383   -0.0074   -0.0799    0.0036   -0.0517
          60   -0.0589    0.0150    0.0120    0.0973    0.0580    0.0928   -0.0073    0.0773


   Root No.      17        18        19        20        21        22        23        24

                17 A      18 A      19 A      20 A      21 A      22 A      23 A      24 A   

                 883.2     915.6     942.9     966.8     987.9    1013.7    1024.6    1046.3
  
           1   -0.0013    0.0043    0.0066    0.0008   -0.0008   -0.0051    0.0002    0.0227
           2    0.0095    0.0029    0.0186    0.0079    0.0060    0.0159    0.0005    0.0015
           3   -0.0256   -0.0102   -0.0249   -0.0063   -0.0103   -0.0091    0.0260    0.0002
           4   -0.0247   -0.0085   -0.0026   -0.0009    0.0048    0.0066    0.0008   -0.0202
           5    0.0323    0.0091   -0.0262   -0.0079   -0.0116   -0.0241   -0.0030    0.0116
           6    0.0075   -0.0018    0.0195    0.0045    0.0042   -0.0001   -0.0111    0.0449
           7    0.0093   -0.0129   -0.0055    0.0013   -0.0001   -0.0141   -0.0041   -0.0048
           8   -0.0023   -0.0094   -0.0108   -0.0018   -0.0007   -0.0072   -0.0002   -0.0049
           9    0.0179    0.0290    0.0069   -0.0026    0.0026    0.0254    0.0011   -0.0012
          10    0.0147   -0.0029    0.0002   -0.0113    0.0026    0.0007    0.0302    0.0023
          11   -0.0333   -0.0048    0.0180   -0.0225    0.0069   -0.0154   -0.0046   -0.0001
          12    0.0011    0.0087    0.0079    0.0126    0.0021   -0.0002   -0.0456   -0.0077
          13    0.0259   -0.0155   -0.0131   -0.0002    0.0090    0.0116    0.0021   -0.0118
          14   -0.0075   -0.0130    0.0022    0.0003    0.0135    0.0147   -0.0041    0.0086
          15    0.0029    0.0174   -0.0067    0.0017   -0.0184   -0.0100    0.0172   -0.0485
          16    0.0353    0.0069    0.0069   -0.0086   -0.0094    0.0198   -0.0040   -0.0022
          17   -0.0369   -0.0046    0.0049   -0.0169   -0.0126    0.0017   -0.0056    0.0033
          18   -0.0132   -0.0047   -0.0049    0.0201    0.0200   -0.0200    0.0041   -0.0015
          19   -0.0220    0.0252    0.0002   -0.0062    0.0067    0.0122   -0.0032    0.0018
          20    0.0239    0.0141   -0.0221   -0.0054   -0.0006   -0.0028   -0.0006   -0.0006
          21    0.0146   -0.0463    0.0074    0.0120   -0.0095   -0.0185    0.0029   -0.0087
          22    0.0059    0.0003   -0.0086    0.0138   -0.0099    0.0093   -0.0211   -0.0054
          23    0.0235    0.0028   -0.0108    0.0147   -0.0089    0.0102   -0.0170   -0.0050
          24    0.0403    0.0090    0.0148   -0.0153    0.0180   -0.0078    0.0131   -0.0048
          25   -0.0100    0.0009    0.0139    0.0065   -0.0121   -0.0082    0.0060   -0.0070
          26   -0.0243    0.0003    0.0236    0.0095   -0.0097    0.0008    0.0092   -0.0152
          27   -0.0230    0.0014   -0.0162   -0.0081    0.0232    0.0225   -0.0024    0.0096
          28   -0.0319    0.0040    0.0064    0.0036    0.0150   -0.0165    0.0035    0.0032
          29    0.0135    0.0092    0.0001    0.0101    0.0154   -0.0069    0.0100   -0.0011
          30   -0.0204   -0.0181    0.0003   -0.0152   -0.0255    0.0135   -0.0140    0.0015
          31   -0.0381    0.0468   -0.0532    0.0045   -0.0949   -0.0569    0.0720    0.1750
          32    0.0006   -0.0254    0.0186    0.1124   -0.0098    0.1368    0.2032    0.0414
          33   -0.0425   -0.0067   -0.0460    0.0467   -0.0538    0.0306    0.1521    0.0791
          34   -0.0838   -0.0419    0.0049   -0.0182    0.0381   -0.0140   -0.0233   -0.0170
          35    0.0196    0.0010   -0.0574   -0.0259   -0.0074   -0.0534   -0.0099   -0.0029
          36    0.0361    0.0152   -0.0961   -0.0345   -0.0262   -0.0731   -0.0017   -0.0071
          37    0.0061    0.0508   -0.0019    0.0114   -0.0534   -0.0310   -0.0394    0.0916
          38    0.0073    0.0071    0.0962    0.0297    0.0062    0.0093   -0.0561    0.1558
          39    0.0162    0.0211    0.0367    0.0148   -0.0166   -0.0106   -0.0345    0.1114
          40    0.0089    0.0254   -0.0062    0.0771   -0.0028    0.0293   -0.0844   -0.0272
          41   -0.0294    0.0211    0.0030    0.0570   -0.0026    0.0062   -0.0954   -0.0162
          42   -0.0320   -0.0314    0.0566   -0.1037    0.0290   -0.0198    0.0536   -0.0122
          43    0.0159    0.0561    0.0033    0.0076   -0.0382   -0.0190    0.0240   -0.0643
          44   -0.0339    0.0535    0.0215    0.0094   -0.0224    0.0117    0.0243   -0.1333
          45    0.0185   -0.1456   -0.0439   -0.0156    0.0918    0.0688   -0.0294    0.0300
          46    0.0607    0.0191    0.0845   -0.0815    0.0658   -0.0468   -0.0145   -0.0211
          47    0.0730    0.0051    0.0348   -0.0508    0.0313   -0.0078    0.0938    0.0185
          48   -0.0267   -0.0020   -0.0684    0.0860   -0.0524    0.0351   -0.0831   -0.0174
          49   -0.0445   -0.0617    0.0011   -0.0512   -0.0678    0.0266   -0.0334    0.0026
          50    0.0217   -0.0524   -0.0045   -0.0320   -0.0621    0.0571    0.0076    0.0092
          51    0.0057    0.0838    0.0095    0.0724    0.1033   -0.0459    0.0523    0.0058
          52    0.0316    0.0075   -0.0126    0.0730    0.0552   -0.0263    0.0115   -0.0037
          53   -0.0581   -0.0047   -0.0156    0.0513    0.0434   -0.0447    0.0073    0.0017
          54    0.0751   -0.0040    0.0413   -0.0931   -0.0793    0.0803   -0.0161    0.0033
          55    0.0370   -0.1072    0.0020    0.0216   -0.0093   -0.0431   -0.0057    0.0108
          56    0.0546   -0.0596   -0.0166    0.0115   -0.0096   -0.0304   -0.0003   -0.0002
          57   -0.0667    0.2140   -0.0691   -0.0635    0.0216    0.0433   -0.0133    0.0265
          58   -0.0083   -0.0181   -0.0751   -0.0293    0.0369   -0.0141   -0.0317    0.1113
          59   -0.0372   -0.0244   -0.0505   -0.0201    0.0595    0.0698    0.0084   -0.0517
          60   -0.0095    0.0433    0.1320    0.0515   -0.0924   -0.0560    0.0243   -0.0268


   Root No.      25        26        27        28        29        30        31        32

                25 A      26 A      27 A      28 A      29 A      30 A      31 A      32 A   

                1062.9    1083.5    1099.2    1107.3    1130.0    1152.5    1157.3    1185.2
  
           1   -0.0071    0.0130   -0.0315    0.0076   -0.0042    0.0042   -0.0014    0.0234
           2    0.0022    0.0056   -0.0111    0.0072    0.0126   -0.0118    0.0005    0.0081
           3    0.0000   -0.0086    0.0214   -0.0089    0.0045    0.0022   -0.0051    0.0151
           4    0.0144    0.0004    0.0181   -0.0195    0.0034    0.0023   -0.0050    0.0096
           5    0.0134    0.0106    0.0046   -0.0081   -0.0055    0.0016    0.0020    0.0056
           6    0.0043    0.0087   -0.0186    0.0080    0.0021   -0.0023    0.0007    0.0009
           7   -0.0067   -0.0047    0.0024   -0.0041   -0.0089   -0.0053   -0.0023   -0.0162
           8   -0.0020   -0.0023    0.0051    0.0125    0.0106    0.0078   -0.0022   -0.0047
           9    0.0048    0.0063   -0.0041   -0.0028   -0.0091    0.0003   -0.0029   -0.0089
          10    0.0068   -0.0109    0.0031   -0.0009    0.0103    0.0012    0.0006    0.0036
          11   -0.0094    0.0101    0.0049   -0.0007   -0.0100    0.0018    0.0006    0.0005
          12   -0.0016    0.0050   -0.0052    0.0007    0.0062    0.0008    0.0005    0.0099
          13   -0.0257   -0.0147   -0.0083   -0.0103   -0.0031   -0.0005   -0.0000   -0.0044
          14   -0.0066   -0.0065    0.0052    0.0078   -0.0019   -0.0018    0.0033    0.0067
          15   -0.0057   -0.0014   -0.0098   -0.0023   -0.0020   -0.0017    0.0023    0.0050
          16    0.0019    0.0078    0.0038    0.0051    0.0033    0.0013    0.0005   -0.0072
          17    0.0044   -0.0116   -0.0113   -0.0078   -0.0185    0.0003    0.0001   -0.0012
          18    0.0003   -0.0071    0.0004    0.0010   -0.0062    0.0001    0.0002   -0.0063
          19    0.0109    0.0052    0.0125    0.0237    0.0009    0.0003    0.0018   -0.0107
          20   -0.0102   -0.0104   -0.0092   -0.0187   -0.0086   -0.0004   -0.0039   -0.0034
          21    0.0011   -0.0019    0.0047    0.0080   -0.0005    0.0010   -0.0016   -0.0073
          22    0.0003   -0.0014   -0.0017    0.0019    0.0025    0.0024    0.0023    0.0049
          23   -0.0140    0.0240    0.0100    0.0038    0.0040   -0.0006    0.0013   -0.0100
          24   -0.0113    0.0133    0.0117    0.0033    0.0022    0.0012    0.0023   -0.0050
          25   -0.0030   -0.0006   -0.0055   -0.0139    0.0040   -0.0004    0.0011   -0.0010
          26   -0.0094   -0.0068   -0.0025   -0.0045    0.0027    0.0006   -0.0018    0.0101
          27   -0.0134   -0.0070   -0.0064   -0.0146    0.0022    0.0002   -0.0010    0.0027
          28   -0.0180    0.0235    0.0090    0.0017    0.0023    0.0022    0.0027    0.0056
          29    0.0097   -0.0165   -0.0050   -0.0035    0.0008    0.0005    0.0005   -0.0090
          30   -0.0032    0.0067   -0.0014   -0.0016   -0.0009    0.0026    0.0025   -0.0013
          31   -0.0775   -0.0648   -0.1058    0.1410    0.0411   -0.0517    0.0348   -0.0820
          32    0.0729    0.0729    0.0050   -0.0572   -0.0913    0.0367   -0.0040   -0.0280
          33    0.0071   -0.0056    0.0016    0.0100   -0.0298    0.0045    0.0066   -0.0426
          34    0.1383    0.1096   -0.0859   -0.0078    0.0301    0.0244   -0.0567   -0.0787
          35    0.0843    0.0697   -0.0338   -0.0109    0.0016    0.0152   -0.0220   -0.0397
          36    0.0786    0.0631   -0.0219   -0.0156   -0.0031    0.0161   -0.0192   -0.0379
          37    0.0083   -0.0739    0.2275   -0.0843   -0.0050    0.0436   -0.0452   -0.0335
          38    0.0227   -0.0019    0.0612   -0.0120   -0.0035    0.0156   -0.0179   -0.0335
          39    0.0040   -0.0220    0.0728   -0.0179   -0.0014    0.0159   -0.0176   -0.0231
          40    0.0716   -0.0814   -0.0361   -0.0250    0.1027   -0.0846   -0.0479   -0.0654
          41    0.0114   -0.0068   -0.0169   -0.0068    0.0243   -0.0298   -0.0165   -0.0197
          42    0.0705   -0.0900   -0.0058   -0.0350    0.0918   -0.0841   -0.0513   -0.0781
          43   -0.0186   -0.0080   -0.0176   -0.0215   -0.0027    0.0032   -0.0059    0.0016
          44    0.0537    0.0029    0.0957    0.1185   -0.0193   -0.1029    0.1711   -0.0477
          45    0.0010   -0.0153    0.0514    0.0668   -0.0104   -0.0545    0.0889   -0.0346
          46    0.0215   -0.0707   -0.0433    0.0077   -0.1382    0.1224    0.0823   -0.0650
          47   -0.0374    0.0810    0.0530   -0.0008    0.1226   -0.1033   -0.0665    0.0488
          48   -0.0030    0.0018   -0.0022    0.0043   -0.0232    0.0265    0.0190   -0.0195
          49   -0.0223    0.0326    0.0079    0.0015   -0.0200   -0.0119   -0.0072   -0.0014
          50    0.0712   -0.0757   -0.0351   -0.0025    0.1876    0.1437    0.0996    0.0637
          51    0.0241   -0.0284   -0.0090   -0.0002    0.1010    0.0779    0.0548    0.0369
          52    0.0613   -0.0910   -0.0296    0.0217   -0.0937   -0.0721   -0.0611    0.0835
          53    0.0248   -0.0553   -0.0236   -0.0014   -0.0541   -0.0275   -0.0227    0.0326
          54    0.0631   -0.0683   -0.0357    0.0089   -0.0931   -0.0567   -0.0505    0.0716
          55    0.0780    0.0081    0.0673    0.2034   -0.0213    0.0311   -0.0477    0.0814
          56    0.0140   -0.0106    0.0106    0.0486   -0.0175    0.0119   -0.0238    0.0312
          57    0.0429   -0.0035    0.0393    0.1116   -0.0150    0.0161   -0.0314    0.0512
          58    0.0517    0.0280   -0.0067   -0.1330   -0.0185   -0.0953    0.1499    0.0709
          59   -0.0575   -0.0315   -0.0048    0.0679    0.0152    0.0646   -0.1029   -0.0401
          60    0.0073    0.0023   -0.0026   -0.0231    0.0018   -0.0153    0.0241    0.0174


   Root No.      33        34        35        36        37        38        39        40

                33 A      34 A      35 A      36 A      37 A      38 A      39 A      40 A   

                1222.9    1242.3    1310.3    1378.5    1398.0    1404.7    1448.1    1505.3
  
           1   -0.0298    0.0475   -0.0208   -0.0025    0.0171    0.0418   -0.0396   -0.0213
           2    0.0252    0.0105    0.0423   -0.0020    0.0496    0.0017    0.0099    0.0841
           3    0.0044    0.0247    0.0246    0.0067    0.0283    0.0252   -0.0166    0.0275
           4    0.0022   -0.0068    0.0436    0.0452   -0.0342   -0.0183    0.0399    0.0006
           5   -0.0099    0.0186    0.0156   -0.0147   -0.0347    0.0195    0.0343   -0.0067
           6   -0.0019    0.0060    0.0201   -0.0111   -0.0295    0.0122    0.0323   -0.0034
           7   -0.0163    0.0225   -0.0025   -0.0200   -0.0048   -0.0338    0.0091    0.0954
           8    0.0214    0.0073    0.0144    0.0090   -0.0185    0.0123   -0.0423   -0.0846
           9   -0.0057    0.0152   -0.0015   -0.0094   -0.0087   -0.0155   -0.0076    0.0293
          10    0.0051    0.0073   -0.0012   -0.0102    0.0094   -0.0179    0.0100   -0.0216
          11   -0.0012   -0.0131   -0.0278   -0.0081   -0.0173   -0.0198    0.0101   -0.0275
          12    0.0021    0.0041   -0.0197   -0.0151   -0.0035   -0.0270    0.0158   -0.0369
          13   -0.0001   -0.0185   -0.0190   -0.0082    0.0175   -0.0070   -0.0197    0.0008
          14   -0.0093   -0.0166    0.0089   -0.0111    0.0008   -0.0212   -0.0410   -0.0016
          15   -0.0058   -0.0180   -0.0008   -0.0084    0.0090   -0.0153   -0.0317    0.0003
          16    0.0019   -0.0141    0.0245    0.0037    0.0245    0.0055    0.0078   -0.0751
          17   -0.0118    0.0177   -0.0071   -0.0112    0.0012   -0.0157    0.0066    0.0248
          18   -0.0027    0.0013    0.0127   -0.0039    0.0146   -0.0063    0.0074   -0.0338
          19    0.0049    0.0267    0.0171   -0.0094   -0.0327   -0.0194   -0.0456   -0.0013
          20   -0.0040   -0.0021   -0.0250    0.0019   -0.0068    0.0034    0.0217    0.0145
          21    0.0022    0.0134    0.0017   -0.0036   -0.0180   -0.0082   -0.0155    0.0040
          22    0.0085    0.0003   -0.0107   -0.0112   -0.0022   -0.0249    0.0128   -0.0160
          23   -0.0014   -0.0229    0.0055    0.0218   -0.0173    0.0350   -0.0220    0.0464
          24    0.0065   -0.0179   -0.0045    0.0066   -0.0142    0.0040   -0.0049    0.0190
          25    0.0108    0.0002   -0.0222    0.0159    0.0113    0.0321    0.0540   -0.0083
          26   -0.0029   -0.0167    0.0001    0.0032    0.0130   -0.0025   -0.0055   -0.0004
          27    0.0045   -0.0078   -0.0136    0.0091    0.0127    0.0150    0.0247   -0.0035
          28    0.0056   -0.0205   -0.0085    0.0153   -0.0158    0.0238   -0.0118    0.0293
          29   -0.0107    0.0086    0.0178   -0.0083    0.0316   -0.0100    0.0183   -0.0609
          30   -0.0039   -0.0069    0.0051    0.0046    0.0093    0.0094    0.0036   -0.0166
          31    0.0629   -0.0804    0.0247    0.0084   -0.0179   -0.0473    0.0332    0.0176
          32   -0.0610   -0.0187   -0.0641   -0.0126   -0.0488   -0.0045    0.0023   -0.0373
          33   -0.0044   -0.0374   -0.0126    0.0043   -0.0331   -0.0124    0.0076   -0.0153
          34    0.1068   -0.0819   -0.0235   -0.1773    0.0656    0.0390   -0.0192    0.0427
          35    0.0371    0.0021   -0.0421   -0.0002    0.0421   -0.0008   -0.0153    0.0147
          36    0.0248    0.0317   -0.0750    0.2264    0.0843   -0.0887   -0.0503    0.0092
          37    0.0457   -0.0220   -0.0387   -0.1533    0.0483    0.0594   -0.0384    0.0153
          38    0.0186    0.0341   -0.0698    0.2292    0.0817   -0.0904   -0.0502    0.0110
          39    0.0196    0.0043   -0.0291   -0.0247    0.0263    0.0140   -0.0154    0.0056
          40   -0.1011   -0.0217    0.0038    0.0376   -0.0224    0.0744   -0.0464    0.0227
          41   -0.0378   -0.0210   -0.0267    0.0083   -0.0286    0.0124   -0.0087   -0.0090
          42   -0.1056   -0.0439   -0.0171    0.0377   -0.0433    0.0669   -0.0430    0.0094
          43   -0.0026   -0.0242   -0.0141   -0.0071    0.0185   -0.0112   -0.0241    0.0011
          44    0.0318    0.0778   -0.0935    0.0051    0.0227    0.0687    0.0669   -0.0113
          45    0.0205    0.0302   -0.0614   -0.0030    0.0218    0.0331    0.0266   -0.0048
          46   -0.0132   -0.0482    0.0598    0.0449    0.0028    0.0731   -0.0294    0.0597
          47    0.0177    0.0159   -0.0561   -0.0250   -0.0232   -0.0464    0.0128   -0.0136
          48    0.0018   -0.0299    0.0093    0.0191   -0.0161    0.0237   -0.0137    0.0357
          49    0.0012   -0.0207    0.0012    0.0164   -0.0066    0.0273   -0.0095    0.0129
          50    0.0305    0.0011   -0.0732   -0.0038   -0.0585   -0.0150   -0.0127    0.0968
          51    0.0205   -0.0152   -0.0440    0.0089   -0.0405    0.0092   -0.0135    0.0692
          52    0.1301   -0.0280   -0.0356    0.0343   -0.0644    0.0435   -0.0480   -0.0007
          53    0.0382    0.0160   -0.0301   -0.0012   -0.0335   -0.0039   -0.0152    0.0552
          54    0.0953   -0.0132   -0.0407    0.0209   -0.0570    0.0258   -0.0361    0.0269
          55   -0.1124   -0.1030   -0.0097   -0.0060    0.0590   -0.0122    0.0440    0.0501
          56   -0.0477   -0.0518   -0.0384    0.0043    0.0271    0.0078    0.0589    0.0324
          57   -0.0665   -0.0684   -0.0127    0.0000    0.0401   -0.0027    0.0426    0.0390
          58   -0.0330   -0.1000    0.0286   -0.0190    0.0350   -0.0308   -0.0654   -0.0122
          59    0.0265    0.0487   -0.0391    0.0283   -0.0003    0.0410    0.0793    0.0033
          60   -0.0024   -0.0247   -0.0037    0.0038    0.0181    0.0067    0.0052   -0.0065


   Root No.      41        42        43        44        45        46        47        48

                41 A      42 A      43 A      44 A      45 A      46 A      47 A      48 A   

                1816.3    1830.6    1844.8    1866.0    2817.5    2944.3    3025.3    3048.3
  
           1    0.0048   -0.0036   -0.0096   -0.0103    0.0222    0.0008    0.0008   -0.0002
           2    0.0022    0.0098    0.0023   -0.0167    0.0290    0.0011   -0.0001    0.0001
           3    0.0062   -0.0015   -0.0079   -0.0148   -0.0589   -0.0021    0.0000   -0.0002
           4   -0.0002    0.0005   -0.0040    0.0012    0.0008    0.0035    0.0226   -0.0000
           5   -0.0054    0.0060   -0.0168    0.0080   -0.0024    0.0358   -0.0296    0.0000
           6   -0.0033    0.0041   -0.0109    0.0041    0.0027   -0.0460   -0.0165   -0.0001
           7    0.0331   -0.0571   -0.0158    0.0642   -0.0002    0.0002   -0.0004   -0.0001
           8    0.0215   -0.0894   -0.0343    0.0706    0.0017   -0.0002    0.0001    0.0001
           9    0.0249   -0.0529   -0.0175    0.0548    0.0004   -0.0001   -0.0001   -0.0000
          10   -0.0689    0.0267    0.0804    0.0721   -0.0008    0.0001    0.0002    0.0043
          11    0.0126   -0.0002   -0.0111   -0.0102   -0.0007    0.0002    0.0001   -0.0070
          12   -0.0483    0.0212    0.0576    0.0531   -0.0013    0.0001    0.0001   -0.0015
          13   -0.0256    0.0318   -0.0455    0.0198    0.0000    0.0010   -0.0046   -0.0003
          14    0.0544   -0.0628    0.1057   -0.0478    0.0002   -0.0007    0.0004    0.0000
          15    0.0186   -0.0206    0.0370   -0.0168   -0.0001   -0.0000   -0.0019   -0.0001
          16   -0.0684   -0.0336   -0.0101   -0.0434    0.0001    0.0000    0.0001    0.0167
          17   -0.0779   -0.0514   -0.0114   -0.0321   -0.0001    0.0000   -0.0000   -0.0319
          18   -0.0866   -0.0514   -0.0137   -0.0447   -0.0003   -0.0000    0.0000   -0.0071
          19   -0.0188    0.0899    0.0098   -0.0471   -0.0005    0.0001    0.0002    0.0011
          20   -0.0135    0.0690    0.0336   -0.0589   -0.0004    0.0000    0.0000   -0.0023
          21   -0.0124    0.0635    0.0154   -0.0408   -0.0006    0.0001    0.0001   -0.0001
          22    0.0789   -0.0234   -0.0818   -0.0717    0.0009   -0.0000   -0.0000    0.0033
          23   -0.0526   -0.0016    0.0345    0.0271   -0.0003    0.0000    0.0001    0.0057
          24    0.0286   -0.0200   -0.0427   -0.0395    0.0001   -0.0000    0.0000    0.0068
          25    0.0392   -0.0668    0.0695   -0.0236    0.0003   -0.0003   -0.0002    0.0003
          26   -0.0483    0.0573   -0.0938    0.0430   -0.0002    0.0002    0.0001    0.0006
          27   -0.0076   -0.0011   -0.0169    0.0114    0.0002   -0.0002   -0.0000    0.0005
          28    0.0216    0.0271    0.0169    0.0211   -0.0002    0.0000    0.0000   -0.0176
          29    0.1114    0.0688    0.0070    0.0294    0.0003   -0.0000   -0.0000    0.0042
          30    0.0791    0.0578    0.0153    0.0311    0.0002   -0.0000    0.0000   -0.0088
          31    0.0006   -0.0056    0.0016    0.0104   -0.2742   -0.0137    0.0011   -0.0000
          32    0.0087   -0.0043   -0.0074    0.0020   -0.3568   -0.0117    0.0002   -0.0003
          33    0.0014   -0.0035   -0.0035    0.0024    0.7244    0.0240   -0.0017    0.0000
          34   -0.0086    0.0140   -0.0066   -0.0023   -0.0044    0.1356   -0.1504    0.0002
          35   -0.0092    0.0123   -0.0169    0.0062    0.0247   -0.3542    0.4395   -0.0009
          36   -0.0087    0.0112   -0.0134    0.0042   -0.0078    0.1004   -0.1642    0.0002
          37   -0.0014    0.0012   -0.0030   -0.0005    0.0067   -0.1791   -0.1278   -0.0001
          38   -0.0019    0.0025    0.0006   -0.0023    0.0046   -0.0719   -0.0863   -0.0001
          39    0.0001    0.0004   -0.0046    0.0000   -0.0291    0.4582    0.3642    0.0001
          40   -0.0179   -0.0041    0.0102    0.0094   -0.0014    0.0011    0.0016   -0.0482
          41    0.0429   -0.0150   -0.0516   -0.0480    0.0041   -0.0020   -0.0003    0.0826
          42    0.0159   -0.0144   -0.0293   -0.0273   -0.0013   -0.0011    0.0005    0.0197
          43   -0.0302    0.0377   -0.0567    0.0256    0.0004   -0.0104    0.0511    0.0030
          44   -0.0059   -0.0022   -0.0156    0.0110   -0.0001    0.0041   -0.0102   -0.0004
          45   -0.0226    0.0219   -0.0402    0.0195   -0.0001   -0.0045    0.0172    0.0012
          46    0.0170    0.0112    0.0025    0.0053    0.0015    0.0001   -0.0002   -0.0405
          47    0.0118   -0.0352   -0.0506   -0.0503    0.0018    0.0002   -0.0003   -0.0651
          48    0.0245   -0.0163   -0.0353   -0.0327    0.0010    0.0002   -0.0003   -0.0798
          49    0.0520    0.0505    0.0236    0.0338   -0.0002   -0.0001   -0.0003    0.2132
          50   -0.0181   -0.0371   -0.0286   -0.0297    0.0001    0.0000    0.0000   -0.0395
          51    0.0192    0.0110   -0.0007    0.0023   -0.0001   -0.0001   -0.0001    0.1136
          52    0.0597    0.0251    0.0088    0.0409    0.0007    0.0001   -0.0004   -0.2028
          53   -0.0472   -0.0472   -0.0097   -0.0064   -0.0006   -0.0002    0.0006    0.3668
          54    0.0007   -0.0079    0.0019    0.0155   -0.0002   -0.0001    0.0001    0.0754
          55   -0.0036   -0.0305   -0.0417    0.0492    0.0011    0.0004    0.0000   -0.0098
          56   -0.0139    0.0408    0.0200   -0.0377   -0.0014   -0.0009   -0.0000    0.0260
          57    0.0004   -0.0077   -0.0163    0.0172   -0.0011   -0.0001    0.0000    0.0024
          58   -0.0198    0.0034   -0.0557    0.0391    0.0002    0.0005    0.0011   -0.0036
          59   -0.0187    0.0215   -0.0278    0.0087    0.0002    0.0004    0.0031   -0.0068
          60   -0.0217    0.0155   -0.0450    0.0244    0.0003   -0.0005    0.0020   -0.0055


   Root No.      49        50        51        52        53        54

                49 A      50 A      51 A      52 A      53 A      54 A   

                3051.2    3055.4    3061.7    3066.4    3076.7    3077.8
  
           1    0.0000    0.0002   -0.0000   -0.0001    0.0003    0.0002
           2   -0.0003    0.0003    0.0002    0.0001   -0.0001    0.0003
           3   -0.0000    0.0001   -0.0000   -0.0002    0.0003    0.0001
           4   -0.0001   -0.0008    0.0010    0.0001   -0.0001   -0.0012
           5   -0.0001    0.0012   -0.0015   -0.0000    0.0001    0.0021
           6   -0.0003    0.0001   -0.0003    0.0001   -0.0001    0.0006
           7    0.0002    0.0006    0.0016    0.0004    0.0005    0.0009
           8    0.0003    0.0010    0.0019    0.0002    0.0005    0.0006
           9    0.0002    0.0006    0.0014    0.0002    0.0005    0.0006
          10    0.0179    0.0003    0.0008   -0.0117    0.0095   -0.0007
          11   -0.0292   -0.0005   -0.0012    0.0163   -0.0124    0.0009
          12   -0.0063   -0.0001   -0.0002    0.0021   -0.0011    0.0001
          13    0.0001   -0.0201    0.0234    0.0010   -0.0014   -0.0272
          14    0.0000    0.0029   -0.0046   -0.0002    0.0004    0.0078
          15    0.0001   -0.0077    0.0083    0.0003   -0.0004   -0.0083
          16   -0.0062   -0.0008   -0.0005   -0.0054   -0.0045    0.0001
          17    0.0121    0.0014    0.0003    0.0134    0.0119   -0.0005
          18    0.0028    0.0003   -0.0001    0.0041    0.0038   -0.0002
          19   -0.0006    0.0078    0.0129    0.0005    0.0002    0.0050
          20    0.0012   -0.0210   -0.0348   -0.0018   -0.0011   -0.0118
          21    0.0000   -0.0020   -0.0033   -0.0002   -0.0002   -0.0009
          22    0.0084   -0.0001   -0.0005    0.0095   -0.0104    0.0008
          23    0.0156   -0.0000   -0.0004    0.0107   -0.0137    0.0010
          24    0.0181   -0.0001   -0.0007    0.0155   -0.0183    0.0013
          25   -0.0001    0.0107   -0.0044   -0.0000   -0.0006   -0.0100
          26   -0.0004    0.0203   -0.0048    0.0001   -0.0014   -0.0252
          27   -0.0003    0.0165   -0.0048    0.0000   -0.0011   -0.0190
          28    0.0010    0.0011    0.0022   -0.0204   -0.0231    0.0016
          29   -0.0008   -0.0003   -0.0003    0.0015    0.0027   -0.0002
          30    0.0001    0.0005    0.0012   -0.0121   -0.0133    0.0009
          31    0.0006   -0.0003   -0.0000   -0.0006    0.0006   -0.0002
          32   -0.0004   -0.0001    0.0000   -0.0001    0.0002   -0.0000
          33   -0.0016    0.0006    0.0004    0.0013   -0.0011    0.0004
          34   -0.0002    0.0051   -0.0062   -0.0001    0.0001    0.0074
          35   -0.0008   -0.0187    0.0219    0.0014   -0.0012   -0.0255
          36   -0.0002    0.0053   -0.0064   -0.0002    0.0001    0.0075
          37   -0.0008    0.0023   -0.0034    0.0002   -0.0002    0.0040
          38   -0.0005    0.0021   -0.0029    0.0001   -0.0001    0.0036
          39    0.0013   -0.0088    0.0118   -0.0001    0.0001   -0.0136
          40   -0.2033   -0.0036   -0.0078    0.1115   -0.0817    0.0060
          41    0.3470    0.0061    0.0133   -0.1871    0.1365   -0.0101
          42    0.0822    0.0014    0.0031   -0.0428    0.0310   -0.0023
          43   -0.0017    0.2398   -0.2747   -0.0111    0.0146    0.2939
          44    0.0002   -0.0363    0.0431    0.0017   -0.0024   -0.0481
          45   -0.0007    0.0913   -0.1035   -0.0042    0.0054    0.1096
          46   -0.1075    0.0003    0.0037   -0.0852    0.0974   -0.0072
          47   -0.1820    0.0002    0.0056   -0.1354    0.1626   -0.0120
          48   -0.2189    0.0004    0.0070   -0.1669    0.1966   -0.0145
          49   -0.0169   -0.0129   -0.0259    0.2301    0.2554   -0.0176
          50    0.0053    0.0024    0.0046   -0.0390   -0.0462    0.0032
          51   -0.0076   -0.0069   -0.0139    0.1247    0.1366   -0.0094
          52    0.0763    0.0088    0.0029    0.0753    0.0622   -0.0027
          53   -0.1388   -0.0170   -0.0069   -0.1397   -0.1157    0.0045
          54   -0.0287   -0.0038   -0.0018   -0.0299   -0.0249    0.0008
          55    0.0054   -0.0971   -0.1637   -0.0084   -0.0050   -0.0557
          56   -0.0139    0.2365    0.3906    0.0192    0.0109    0.1288
          57   -0.0012    0.0176    0.0271    0.0012    0.0005    0.0080
          58    0.0021   -0.1287    0.0414   -0.0001    0.0079    0.1372
          59    0.0040   -0.2371    0.0678   -0.0006    0.0146    0.2544
          60    0.0033   -0.1957    0.0585   -0.0003    0.0120    0.2098


           MASS-WEIGHTED COORDINATE ANALYSIS (NORMAL COORDINATES)


   Root No.       1         2         3         4         5         6         7         8

                 1 A       2 A       3 A       4 A       5 A       6 A       7 A       8 A   

                  96.9     145.0     230.8     348.2     409.4     419.7     459.2     480.3
  
           1   -0.0696    0.1010    0.0629   -0.1752   -0.1595   -0.1375    0.0767   -0.2046
           2   -0.0558    0.0951    0.0505    0.2723   -0.0098   -0.3006    0.0945    0.0284
           3    0.0367   -0.2193   -0.1882    0.1156    0.0577    0.3033    0.1400   -0.0566
           4   -0.0672    0.0919    0.0618   -0.2049   -0.2151   -0.1148    0.1240   -0.1934
           5   -0.2462    0.0498   -0.1664   -0.0657    0.0957    0.0754   -0.0526    0.2095
           6    0.3851    0.0108    0.2356   -0.0876   -0.0439    0.0158    0.0111    0.1207
           7   -0.0287    0.1374    0.0616   -0.0609   -0.1149    0.0202   -0.3022    0.0461
           8   -0.0428    0.1119    0.0393    0.3287    0.0143   -0.2253   -0.0571    0.0781
           9    0.0513   -0.2656   -0.1067   -0.0985    0.2772    0.0936    0.1923    0.1253
          10    0.1347    0.1051    0.0512    0.1574    0.1785    0.0500    0.2470   -0.1529
          11    0.1477    0.1044    0.0653    0.0940    0.0924    0.0277    0.3143   -0.0011
          12   -0.2305   -0.2253   -0.1876    0.1356   -0.1926   -0.0763   -0.0387   -0.1772
          13    0.0035   -0.0976    0.1028    0.0446   -0.1028    0.0074    0.1698    0.1957
          14    0.0101   -0.1478    0.1576   -0.1566   -0.1691    0.1640   -0.0652    0.1748
          15    0.0215    0.3760   -0.1803   -0.2204    0.1638   -0.1489   -0.0777   -0.0307
          16   -0.1605    0.0048    0.1540   -0.1085    0.0977    0.2616   -0.2364   -0.0052
          17   -0.1193    0.0134    0.1219    0.0306    0.0337    0.1426    0.0188   -0.2434
          18    0.2634   -0.0466   -0.2484   -0.1309   -0.1164   -0.2116   -0.0122    0.0753
          19    0.0429    0.1449   -0.1565    0.0559   -0.0034    0.0408    0.0110    0.3107
          20    0.0394    0.0974   -0.0945    0.1172    0.0051   -0.0916   -0.0420    0.0419
          21   -0.1689   -0.2521    0.3512    0.1335    0.2163   -0.1681   -0.2162   -0.0236
          22    0.1355   -0.1657   -0.2167    0.2834   -0.0565    0.0440   -0.0567   -0.2272
          23    0.1760   -0.0882   -0.1227   -0.0425   -0.1885    0.1257   -0.0355   -0.2466
          24   -0.2193    0.1183    0.1466   -0.0892    0.0783   -0.0235    0.2964   -0.1910
          25    0.1023   -0.0456   -0.0286    0.0459    0.2459   -0.1043   -0.0909    0.2119
          26    0.1456   -0.0548    0.0136   -0.2373    0.1577    0.0111   -0.2523    0.0763
          27   -0.2814    0.1432    0.0669    0.1011   -0.2724    0.1515    0.0025    0.3377
          28   -0.0851   -0.2412   -0.0899   -0.0392    0.0862   -0.1282   -0.0344    0.0546
          29   -0.0262   -0.1691   -0.0350   -0.2743   -0.0945   -0.0320    0.0878   -0.0982
          30    0.1205    0.2940    0.0589    0.1252    0.0046    0.2333   -0.2117   -0.1615
          31   -0.1018   -0.0058   -0.0542   -0.0770   -0.0679   -0.0200    0.0482   -0.1071
          32   -0.0408    0.0309    0.0161    0.1459   -0.0722   -0.1401   -0.0419   -0.0430
          33   -0.0324   -0.0736   -0.0778    0.0555   -0.0271    0.0623    0.0155   -0.0601
          34   -0.0828    0.0091   -0.0639   -0.1168   -0.0161    0.0692    0.0004   -0.0623
          35   -0.0514   -0.0088   -0.0169   -0.0368   -0.0102    0.0487   -0.0183    0.0712
          36    0.2537   -0.0526    0.2737   -0.0105   -0.1979   -0.0361    0.0401    0.0760
          37    0.0508    0.0758    0.1165   -0.0871   -0.1211   -0.1432    0.0323   -0.0701
          38   -0.2156    0.0895   -0.2521   -0.0743    0.2114    0.0615   -0.0760    0.0165
          39    0.1148    0.0343    0.0745   -0.0458   -0.0102   -0.0328   -0.0071    0.0229
          40    0.0825    0.0779    0.0462    0.1166    0.1608    0.0897    0.1529   -0.0203
          41    0.0832    0.0742    0.0495    0.0629    0.1115    0.0852    0.1604    0.0067
          42   -0.1293   -0.1320   -0.1047    0.0648   -0.1439   -0.1627   -0.1077   -0.0187
          43    0.0064   -0.0852    0.0903    0.0394   -0.0613    0.0377    0.0527    0.0950
          44    0.0223   -0.1017    0.1339   -0.0571   -0.1326    0.0819    0.0130    0.0239
          45    0.0018    0.2348   -0.1728   -0.1398    0.0938   -0.1247   -0.0190   -0.1227
          46    0.0849   -0.0820   -0.1239    0.1836   -0.0427    0.0892   -0.0511   -0.1176
          47    0.1025   -0.0384   -0.0753    0.0177   -0.0787    0.1315   -0.1186   -0.1127
          48   -0.1285    0.0620    0.1057   -0.1003    0.0561   -0.1233    0.1919    0.0047
          49   -0.0503   -0.1310   -0.0360   -0.0771    0.0652   -0.0884    0.0962    0.0429
          50   -0.0297   -0.0979   -0.0047   -0.1956    0.0117   -0.0408    0.0761    0.0472
          51    0.0757    0.1827    0.0370    0.1196   -0.0617    0.1541   -0.2419   -0.0744
          52   -0.0880    0.0111    0.1038   -0.0912    0.0776    0.1956   -0.0379   -0.0639
          53   -0.0736    0.0103    0.0863   -0.0189    0.0680    0.1324    0.0351   -0.1121
          54    0.1543   -0.0192   -0.1592   -0.0652   -0.1822   -0.1829   -0.0678    0.0587
          55    0.0062    0.0645   -0.1052    0.0734   -0.0280    0.0662    0.1172    0.1623
          56    0.0104    0.0396   -0.0603    0.0529   -0.0137    0.0101    0.0440    0.0507
          57   -0.0682   -0.1048    0.2204    0.0935    0.1240   -0.2388   -0.1904   -0.1231
          58    0.0647   -0.0554    0.0174    0.0415    0.1853   -0.0862   -0.0931    0.0180
          59    0.0941   -0.0399    0.0216   -0.1268    0.1220   -0.0151   -0.1104   -0.0168
          60   -0.1672    0.0984   -0.0182    0.0816   -0.2464    0.1011    0.0904    0.1729


   Root No.       9        10        11        12        13        14        15        16

                 9 A      10 A      11 A      12 A      13 A      14 A      15 A      16 A   

                 494.9     596.4     651.6     737.7     765.1     776.8     823.1     836.7
  
           1    0.0472    0.1688    0.0453   -0.0400    0.0137   -0.1005    0.0071    0.0303
           2    0.0333    0.0586    0.0898   -0.0282   -0.0468    0.0034    0.1520   -0.2303
           3    0.1221    0.1604   -0.2847    0.0051    0.0225    0.1395   -0.0961    0.0575
           4    0.1528    0.1950    0.1481   -0.0279   -0.1069    0.0110   -0.1753    0.1125
           5    0.1635   -0.1949    0.0440    0.0671    0.0222    0.0917    0.1047   -0.2352
           6    0.1429   -0.1222   -0.0556   -0.1076   -0.1402    0.1337    0.0237    0.1656
           7   -0.1245    0.1216   -0.3563    0.0284   -0.0322   -0.0124    0.0752    0.0249
           8   -0.0683    0.0295    0.0102   -0.0152   -0.1191    0.0001   -0.1261    0.1952
           9   -0.1295    0.2821    0.4346   -0.0882    0.0666    0.0302   -0.0477    0.0457
          10   -0.1754   -0.2195   -0.0879   -0.0525    0.1716   -0.0542    0.1108    0.1256
          11    0.1391    0.3461   -0.2312   -0.1189    0.1176    0.1037    0.2302   -0.2219
          12    0.1473    0.0921   -0.0369    0.0883   -0.0212   -0.0832   -0.0198   -0.1619
          13    0.3749   -0.1609    0.0875    0.0168   -0.1779    0.3619   -0.0284    0.0277
          14    0.0044   -0.0499    0.0084    0.1014    0.0655    0.0414   -0.0321    0.0294
          15    0.2308   -0.0529    0.0596   -0.1000   -0.1306   -0.0382    0.0085   -0.0686
          16   -0.1655    0.2492   -0.0859   -0.0982    0.0130    0.1416    0.0739   -0.1977
          17   -0.0605   -0.3425    0.2144   -0.0547   -0.0010    0.0717   -0.2530   -0.0411
          18   -0.2486   -0.0924   -0.0656    0.0792   -0.1736    0.0189    0.1976   -0.0409
          19    0.0437   -0.0563    0.0241    0.1024    0.1081   -0.1512    0.0249    0.0349
          20   -0.3049    0.2994    0.0442   -0.0666   -0.1822    0.0795   -0.1091    0.3514
          21    0.0817    0.0881    0.0002   -0.0377    0.0645   -0.0801   -0.1225    0.0344
          22   -0.0386   -0.1653    0.0596   -0.0444    0.1548   -0.0531    0.1331    0.0821
[...]
 REDUCED MASS        0.4602         C  1 -- C  2          +6.6% ( 28.3%)     82.6%
 EFFECTIVE MASS      3.7697
 FORCE CONSTANT      0.5152

 VIBRATION         37   37A           ATOM PAIR      ENERGY CONTRIBUTION    RADIAL
 FREQUENCY          1397.97         C  1 -- C  2         +13.4% ( 55.6%)     20.1%
 TRANSITION DIPOLE   0.1262         C  1 -- C  3          +8.7% ( 44.7%)     46.6%
 TRAVEL (Ang.)       0.2007         C  2 -- H 12          +8.3% ( 43.8%)      1.2%
 REDUCED MASS        1.1972         C  1 -- C  4          +8.1% ( 43.3%)     74.8%
 EFFECTIVE MASS      8.8941
 FORCE CONSTANT      1.3785

 VIBRATION         38   38A           ATOM PAIR      ENERGY CONTRIBUTION    RADIAL
 FREQUENCY          1404.73         C  1 -- C  4         +10.2% ( 46.7%)     77.0%
 TRANSITION DIPOLE   0.2050         C  1 -- C  3          +9.4% ( 44.8%)     19.4%
 TRAVEL (Ang.)       0.2437         C  8 -- C 10          +8.3% ( 42.0%)     84.4%
 REDUCED MASS        0.8085         C  1 -- C  2          +7.0% ( 38.6%)     88.1%
 EFFECTIVE MASS      8.7953
 FORCE CONSTANT      0.9400

 VIBRATION         39   39A           ATOM PAIR      ENERGY CONTRIBUTION    RADIAL
 FREQUENCY          1448.11         C  7 -- C  9         +13.5% ( 55.7%)     99.1%
 TRANSITION DIPOLE   0.1641         C  2 -- C  5         +12.8% ( 54.3%)     97.7%
 TRAVEL (Ang.)       0.1914         C  5 -- C  9          +8.5% ( 44.2%)      0.2%
 REDUCED MASS        1.2714         C  1 -- C  2          +8.1% ( 43.2%)     68.0%
 EFFECTIVE MASS     10.2434
 FORCE CONSTANT      1.5709

 VIBRATION         40   40A           ATOM PAIR      ENERGY CONTRIBUTION    RADIAL
 FREQUENCY          1505.32         C  3 -- C  6         +21.2% ( 69.7%)     84.5%
 TRANSITION DIPOLE   0.1510         C  1 -- C  3         +19.5% ( 66.9%)     95.2%
 TRAVEL (Ang.)       0.1323         C  3 -- C  7         +10.8% ( 49.7%)      1.1%
 REDUCED MASS        2.5575         C  1 -- C  4          +7.9% ( 42.5%)     74.8%
 EFFECTIVE MASS     11.3746
 FORCE CONSTANT      3.4145

 VIBRATION         41   41A           ATOM PAIR      ENERGY CONTRIBUTION    RADIAL
 FREQUENCY          1816.28         C  6 -- C 10         +25.0% ( 75.2%)     99.7%
 TRANSITION DIPOLE   0.2607         C  8 -- C 10         +13.3% ( 54.9%)     95.9%
 TRAVEL (Ang.)       0.1246         C  4 -- C  8         +11.4% ( 50.8%)     97.9%
 REDUCED MASS        2.3925         C  3 -- C  6          +9.6% ( 46.6%)     47.6%
 EFFECTIVE MASS     11.9537
 FORCE CONSTANT      4.6502

 VIBRATION         42   42A           ATOM PAIR      ENERGY CONTRIBUTION    RADIAL
 FREQUENCY          1830.58         C  3 -- C  7         +22.2% ( 69.7%)     97.9%
 TRANSITION DIPOLE   0.3542         C  7 -- C  9         +12.3% ( 51.8%)     94.9%
 TRAVEL (Ang.)       0.1322         C  6 -- C 10         +11.3% ( 49.7%)     99.9%
 REDUCED MASS        2.1084         C  5 -- C  9          +9.4% ( 45.3%)     97.3%
 EFFECTIVE MASS     11.9288
 FORCE CONSTANT      4.1627

 VIBRATION         43   43A           ATOM PAIR      ENERGY CONTRIBUTION    RADIAL
 FREQUENCY          1844.79         C  5 -- C  9         +24.4% ( 72.6%)     99.9%
 TRANSITION DIPOLE   0.2188         C  4 -- C  8         +16.9% ( 60.4%)    100.0%
 TRAVEL (Ang.)       0.1229         C  2 -- C  5          +8.2% ( 42.1%)     51.8%
 REDUCED MASS        2.4190         C  7 -- C  9          +8.0% ( 41.7%)     18.2%
 EFFECTIVE MASS     11.8252
 FORCE CONSTANT      4.8503

 VIBRATION         44   44A           ATOM PAIR      ENERGY CONTRIBUTION    RADIAL
 FREQUENCY          1866.00         C  3 -- C  7         +17.5% ( 61.5%)     98.7%
 TRANSITION DIPOLE   0.3686         C  4 -- C  8         +14.4% ( 55.8%)     99.9%
 TRAVEL (Ang.)       0.1430         C  3 -- C  6         +11.2% ( 49.2%)     48.0%
 REDUCED MASS        1.7674         C  1 -- C  3          +7.5% ( 40.3%)     15.7%
 EFFECTIVE MASS     11.8064
 FORCE CONSTANT      3.6258

 VIBRATION         45   45A           ATOM PAIR      ENERGY CONTRIBUTION    RADIAL
 FREQUENCY          2817.54         C  1 -- H 11         +96.9% ( 99.9%)    100.0%
 TRANSITION DIPOLE   0.0971         C  1 -- C  2          +1.0% (  9.9%)      8.8%
 TRAVEL (Ang.)       0.1608         C  1 -- C  3          +0.9% (  9.8%)      6.0%
 REDUCED MASS        0.9257         C  1 -- C  4          +0.9% (  9.8%)      6.7%
 EFFECTIVE MASS      1.4280
 FORCE CONSTANT      4.3295

 VIBRATION         46   46A           ATOM PAIR      ENERGY CONTRIBUTION    RADIAL
 FREQUENCY          2944.34         C  2 -- H 13         +59.2% ( 79.8%)     97.5%
 TRANSITION DIPOLE   0.0520         C  2 -- H 12         +38.4% ( 64.3%)     95.1%
 TRAVEL (Ang.)       0.2066         C  2 -- C  5          +1.1% ( 10.9%)      0.0%
 REDUCED MASS        0.5368         C  1 -- C  2          +1.1% ( 10.9%)      0.2%
 EFFECTIVE MASS      1.5343
 FORCE CONSTANT      2.7418

 VIBRATION         47   47A           ATOM PAIR      ENERGY CONTRIBUTION    RADIAL
 FREQUENCY          3025.34         C  2 -- H 12         +60.2% ( 76.5%)     98.8%
 TRANSITION DIPOLE   0.0858         C  2 -- H 13         +37.7% ( 60.6%)     96.0%
 TRAVEL (Ang.)       0.2116         C  5 -- H 15          +0.8% (  9.0%)    100.0%
 REDUCED MASS        0.4977         C  2 -- C  5          +0.7% (  8.0%)     20.7%
 EFFECTIVE MASS      1.2812
 FORCE CONSTANT      2.6842

 VIBRATION         48   48A           ATOM PAIR      ENERGY CONTRIBUTION    RADIAL
 FREQUENCY          3048.28         C  6 -- H 18         +66.9% ( 83.1%)    100.0%
 TRANSITION DIPOLE   0.3004         C 10 -- H 17         +22.1% ( 47.8%)    100.0%
 TRAVEL (Ang.)       0.2122         C  8 -- H 16          +4.5% ( 21.7%)    100.0%
 REDUCED MASS        0.4913         C  4 -- H 14          +3.5% ( 19.1%)    100.0%
 EFFECTIVE MASS      1.4814
 FORCE CONSTANT      2.6895

 VIBRATION         49   49A           ATOM PAIR      ENERGY CONTRIBUTION    RADIAL
 FREQUENCY          3051.22         C  4 -- H 14         +57.1% ( 76.7%)    100.0%
 TRANSITION DIPOLE   0.2404         C  8 -- H 16         +31.4% ( 56.9%)    100.0%
 TRAVEL (Ang.)       0.2285         C  6 -- H 18          +8.8% ( 30.1%)    100.0%
 REDUCED MASS        0.4231         C  4 -- C  8          +1.0% ( 10.3%)      1.5%
 EFFECTIVE MASS      1.4656
 FORCE CONSTANT      2.3210

 VIBRATION         50   50A           ATOM PAIR      ENERGY CONTRIBUTION    RADIAL
 FREQUENCY          3055.45         C  9 -- H 20         +44.2% ( 67.5%)    100.0%
 TRANSITION DIPOLE   0.1230         C  5 -- H 15         +26.6% ( 52.4%)    100.0%
 TRAVEL (Ang.)       0.2596         C  7 -- H 19         +26.2% ( 52.0%)    100.0%
 REDUCED MASS        0.3276         C  7 -- C  9          +1.0% ( 10.2%)      0.6%
 EFFECTIVE MASS      1.4825
 FORCE CONSTANT      1.8017

 VIBRATION         51   51A           ATOM PAIR      ENERGY CONTRIBUTION    RADIAL
 FREQUENCY          3061.70         C  7 -- H 19         +62.6% ( 80.3%)    100.0%
 TRANSITION DIPOLE   0.4268         C  5 -- H 15         +30.5% ( 56.0%)    100.0%
 TRAVEL (Ang.)       0.2144         C  9 -- H 20          +3.3% ( 18.5%)     99.4%
 REDUCED MASS        0.4793         C  3 -- C  7          +1.0% ( 10.2%)     37.8%
 EFFECTIVE MASS      1.5037
 FORCE CONSTANT      2.6471

 VIBRATION         52   52A           ATOM PAIR      ENERGY CONTRIBUTION    RADIAL
 FREQUENCY          3066.41         C 10 -- H 17         +33.9% ( 59.2%)     99.9%
 TRANSITION DIPOLE   0.3533         C  8 -- H 16         +25.9% ( 51.7%)     99.9%
 TRAVEL (Ang.)       0.2940         C  4 -- H 14         +23.8% ( 49.6%)     99.9%
 REDUCED MASS        0.2544         C  6 -- H 18         +12.6% ( 36.1%)     99.9%
 EFFECTIVE MASS      1.5707
 FORCE CONSTANT      1.4092

 VIBRATION         53   53A           ATOM PAIR      ENERGY CONTRIBUTION    RADIAL
 FREQUENCY          3076.68         C 10 -- H 17         +40.3% ( 64.3%)    100.0%
 TRANSITION DIPOLE   0.4461         C  8 -- H 16         +34.9% ( 59.9%)    100.0%
 TRAVEL (Ang.)       0.2671         C  4 -- H 14         +12.3% ( 35.6%)     99.8%
 REDUCED MASS        0.3072         C  6 -- H 18          +8.4% ( 29.4%)     99.8%
 EFFECTIVE MASS      1.6015
 FORCE CONSTANT      1.7131

 VIBRATION         54   54A           ATOM PAIR      ENERGY CONTRIBUTION    RADIAL
 FREQUENCY          3077.83         C  9 -- H 20         +49.2% ( 71.2%)     99.9%
 TRANSITION DIPOLE   0.3969         C  5 -- H 15         +38.8% ( 63.2%)     99.9%
 TRAVEL (Ang.)       0.2339         C  7 -- H 19          +7.6% ( 27.9%)    100.0%
 REDUCED MASS        0.4003         C  5 -- C  9          +1.9% ( 13.9%)     99.2%
 EFFECTIVE MASS      1.5967
 FORCE CONSTANT      2.2342

      SYMMETRY NUMBER FOR POINT-GROUP C1  =  1


          SYSTEM IS A GROUND STATE



 InChI=1S/C10H10/c1-2-6-10-8-4-3-7-9(10)5-1/h1-7,10H,8H2


          MOLECULE IS NOT LINEAR

          THERE ARE 54 GENUINE VIBRATIONS IN THIS SYSTEM
          THIS THERMODYNAMICS CALCULATION IS LIMITED TO
          MOLECULES WHICH HAVE NO INTERNAL ROTATIONS




                    CALCULATED THERMODYNAMIC PROPERTIES
                                          *
   TEMP. (K)   PARTITION FUNCTION   H.O.F.    ENTHALPY  HEAT CAPACITY ENTROPY
                                   KCAL/MOL   CAL/MOLE    CAL/K/MOL  CAL/K/MOL


 298.00  VIB.     0.2506D+02                  3064.9725    25.8042    16.6867
         ROT.     0.4958D+06                   888.2803     2.9808    29.0410
         INT.     0.1243D+08                  3953.2528    28.7850    45.7277
         TRA.     0.1436D+28                  1480.4672     4.9680    40.5022
         TOT.                       53.260    5433.7200    33.7530    86.2298

 200.00  VIB.     0.5336D+01                  1119.4913    14.1410     8.9249
         ROT.     0.2726D+06                   596.1613     2.9808    27.8523
         INT.     0.1455D+07                  1715.6526    17.1218    36.7772
         TRA.     0.7896D+27                   993.6021     4.9680    38.5210
         TOT.                       50.536    2709.2548    22.0898    75.2982

 210.00  VIB.     0.6154D+01                  1266.3971    15.2451     9.6414
         ROT.     0.2933D+06                   625.9693     2.9808    27.9977
         INT.     0.1805D+07                  1892.3664    18.2259    37.6391
         TRA.     0.8496D+27                  1043.2822     4.9680    38.7634
         TOT.                       50.762    2935.6487    23.1939    76.4026

 220.00  VIB.     0.7124D+01                  1424.4870    16.3774    10.3766
         ROT.     0.3145D+06                   655.7774     2.9808    28.1364
         INT.     0.2240D+07                  2080.2644    19.3582    38.5130
         TRA.     0.9110D+27                  1092.9623     4.9680    38.9945
         TOT.                       51.000    3173.2267    24.3262    77.5076

 230.00  VIB.     0.8275D+01                  1594.0282    17.5348    11.1301
         ROT.     0.3362D+06                   685.5855     2.9808    28.2689
         INT.     0.2782D+07                  2279.6137    20.5156    39.3990
         TRA.     0.9738D+27                  1142.6424     4.9680    39.2154
         TOT.                       51.249    3422.2561    25.4836    78.6144

 240.00  VIB.     0.9647D+01                  1775.2562    18.7142    11.9012
         ROT.     0.3584D+06                   715.3935     2.9808    28.3958
         INT.     0.3457D+07                  2490.6498    21.6950    40.2970
         TRA.     0.1038D+28                  1192.3226     4.9680    39.4268
         TOT.                       51.510    3682.9723    26.6630    79.7238

 250.00  VIB.     0.1128D+02                  1968.3725    19.9119    12.6894
         ROT.     0.3810D+06                   745.2016     2.9808    28.5174
         INT.     0.4299D+07                  2713.5741    22.8927    41.2068
         TRA.     0.1103D+28                  1242.0027     4.9680    39.6296
         TOT.                       51.782    3955.5767    27.8607    80.8364

 260.00  VIB.     0.1324D+02                  2173.5427    21.1243    13.4939
         ROT.     0.4041D+06                   775.0097     2.9808    28.6344
         INT.     0.5352D+07                  2948.5523    24.1051    42.1283
         TRA.     0.1170D+28                  1291.6828     4.9680    39.8245
         TOT.                       52.067    4240.2351    29.0732    81.9527

 270.00  VIB.     0.1560D+02                  2390.8965    22.3480    14.3141
         ROT.     0.4276D+06                   804.8177     2.9808    28.7469
         INT.     0.6669D+07                  3195.7142    25.3288    43.0609
         TRA.     0.1239D+28                  1341.3629     4.9680    40.0120
         TOT.                       52.364    4537.0771    30.2968    83.0729

 280.00  VIB.     0.1842D+02                  2620.5279    23.5793    15.1491
         ROT.     0.4516D+06                   834.6258     2.9808    28.8553
         INT.     0.8320D+07                  3455.1537    26.5601    44.0043
         TRA.     0.1308D+28                  1391.0430     4.9680    40.1926
         TOT.                       52.673    4846.1967    31.5281    84.1969

 290.00  VIB.     0.2183D+02                  2862.4963    24.8148    15.9980
         ROT.     0.4760D+06                   864.4339     2.9808    28.9599
         INT.     0.1039D+08                  3726.9302    27.7956    44.9579
         TRA.     0.1379D+28                  1440.7231     4.9680    40.3670
         TOT.                       52.994    5167.6533    32.7637    85.3249

 300.00  VIB.     0.2595D+02                  3116.8281    26.0514    16.8601
         ROT.     0.5008D+06                   894.2419     2.9808    29.0609
         INT.     0.1300D+08                  4011.0700    29.0322    45.9210
         TRA.     0.1451D+28                  1490.4032     4.9680    40.5354
         TOT.                       53.328    5501.4732    34.0003    86.4564

 310.00  VIB.     0.3094D+02                  3383.5187    27.2861    17.7345
         ROT.     0.5261D+06                   924.0500     2.9808    29.1587
         INT.     0.1627D+08                  4307.5686    30.2669    46.8931
         TRA.     0.1524D+28                  1540.0833     4.9680    40.6983
         TOT.                       53.674    5847.6519    35.2349    87.5914

 320.00  VIB.     0.3698D+02                  3662.5349    28.5161    18.6202
         ROT.     0.5517D+06                   953.8580     2.9808    29.2533
         INT.     0.2041D+08                  4616.3929    31.4969    47.8735
         TRA.     0.1598D+28                  1589.7634     4.9680    40.8560
         TOT.                       54.033    6206.1563    36.4649    88.7295

 330.00  VIB.     0.4434D+02                  3953.8175    29.7390    19.5165
         ROT.     0.5778D+06                   983.6661     2.9808    29.3450
         INT.     0.2562D+08                  4937.4836    32.7198    48.8615
         TRA.     0.1674D+28                  1639.4435     4.9680    41.0089
         TOT.                       54.404    6576.9271    37.6878    89.8704

 340.00  VIB.     0.5330D+02                  4257.2837    30.9525    20.4223
         ROT.     0.6043D+06                  1013.4742     2.9808    29.4340
         INT.     0.3221D+08                  5270.7579    33.9333    49.8563
         TRA.     0.1750D+28                  1689.1236     4.9680    41.1572
         TOT.                       54.787    6959.8815    38.9013    91.0135

 350.00  VIB.     0.6423D+02                  4572.8299    32.1547    21.3369
         ROT.     0.6311D+06                  1043.2822     2.9808    29.5204
         INT.     0.4054D+08                  5616.1122    35.1355    50.8573
         TRA.     0.1828D+28                  1738.8037     4.9680    41.3012
         TOT.                       55.182    7354.9159    40.1035    92.1585

 360.00  VIB.     0.7760D+02                  4900.3342    33.3438    22.2594
         ROT.     0.6584D+06                  1073.0903     2.9808    29.6044
         INT.     0.5109D+08                  5973.4245    36.3246    51.8638
         TRA.     0.1907D+28                  1788.4838     4.9680    41.4412
         TOT.                       55.589    7761.9083    41.2927    93.3050

 370.00  VIB.     0.9397D+02                  5239.6584    34.5185    23.1891
         ROT.     0.6860D+06                  1102.8984     2.9808    29.6860
         INT.     0.6446D+08                  6342.5567    37.4993    52.8751
         TRA.     0.1987D+28                  1838.1639     4.9680    41.5773
         TOT.                       56.007    8180.7207    42.4673    94.4524

 380.00  VIB.     0.1141D+03                  5590.6511    35.6773    24.1250
         ROT.     0.7140D+06                  1132.7064     2.9808    29.7655
         INT.     0.8143D+08                  6723.3575    38.6581    53.8906
         TRA.     0.2068D+28                  1887.8440     4.9680    41.7098
         TOT.                       56.438    8611.2015    43.6262    95.6004

 390.00  VIB.     0.1387D+03                  5953.1492    36.8194    25.0666
         ROT.     0.7423D+06                  1162.5145     2.9808    29.8430
         INT.     0.1030D+09                  7115.6637    39.8002    54.9096
         TRA.     0.2150D+28                  1937.5242     4.9680    41.8388
         TOT.                       56.880    9053.1878    44.7682    96.7484

 400.00  VIB.     0.1691D+03                  6326.9803    37.9438    26.0130
         ROT.     0.7711D+06                  1192.3226     2.9808    29.9184
         INT.     0.1304D+09                  7519.3028    40.9246    55.9314
         TRA.     0.2233D+28                  1987.2043     4.9680    41.9646
         TOT.                       57.333    9506.5071    45.8926    97.8960

   *: NOTE: HEATS OF FORMATION ARE RELATIVE TO THE
            ELEMENTS IN THEIR STANDARD STATE AT 298K
              (=  Standard Enthalpy of Formation).

            Hvib:  Zero-point energy is not included.
                   frequencies of less than zero cm-1 are not included.
            Hrot = (3/2)RT
            Htra = (3/2)RT + pV = (5/2)RT

            Heat capacity is Cp, not Cv

          For more information, see: HTTP://OpenMOPAC.net/Manual/thermochemistry.html


           FORCE CONSTANT IN CARTESIAN COORDINATES (Millidynes/A)

    ATOM   CHEMICAL       X               Y               Z
   NUMBER   SYMBOL  FORCE CONSTANT  FORCE CONSTANT  FORCE CONSTANT

      1       C        8.536805        9.079607        8.206362
      2       C        8.154952        9.017776        8.130150
      3       C       10.278429       11.893026        5.953726
      4       C       11.225266        8.277467        7.496787
      5       C       10.270179       11.587914        5.026680
      6       C        8.961836       11.105270        7.328678
      7       C       10.094991       12.259763        5.033405
      8       C       10.833211        8.806105        7.889422
      9       C       10.081742       12.022426        5.409085
     10       C        9.289325       10.588160        7.521392
     11       H        1.038648        1.273890        3.335583
     12       H        1.172832        4.134771        1.049167
     13       H        1.195784        0.768492        4.272014
     14       H        1.726469        3.785101        0.744961
     15       H        4.476104        0.774339        1.016484
     16       H        1.198961        2.209177        2.850686
     17       H        3.998432        0.779500        1.486261
     18       H        1.657630        3.929332        0.655258
     19       H        1.336548        4.455537        0.464234
     20       H        1.342512        2.907872        2.016388

 **********************
 *                    *
 * JOB ENDED NORMALLY *
 *                    *
 **********************



 TOTAL JOB TIME:             2.18 SECONDS

 == MOPAC DONE ==
