 *******************************************************************************
 **                                                                           **
 **                              MOPAC v23.1.2                                **
 **                                                                           **
 *******************************************************************************
 **          Digital Object Identifier (DOI): 10.5281/zenodo.6511958          **
 **    Visit the DOI location for information on how to cite this program.    **
 *******************************************************************************

                              PM3 CALCULATION RESULTS

 *******************************************************************************
 *  CALCULATION DONE: (MAX THREADS = 1)              Tue Jun  3 16:29:25 2025  *
 *  PM3        - The PM3 Hamiltonian to be used
 *  PRECISE    - TIGHTER CRITERIA TO BE USED
 *  NOSYM      - POINT-GROUP SYMMETRY SET TO C1
 *  THREADS=1  - MULTI-THREADING NOT USED
 *  T=         - A TIME OF 172800.0 SECONDS REQUESTED
 *  DUMP=N     - RESTART FILE WRITTEN EVERY 7200.0 SECONDS REQUESTED
 *******************************************************************************
pm3  precise nosym THREADS=1
 InChI=1S/C10H12/c1-2-3-7-10-8-5-4-6-9-10/h2-3,5-10H,1,4H2

   ATOM   CHEMICAL          X               Y               Z
  NUMBER   SYMBOL      (ANGSTROMS)     (ANGSTROMS)     (ANGSTROMS)

     1       C          0.35960000  *  -1.00330000  *   0.20850000  *
     2       C         -2.00210000  *  -1.04850000  *   1.91430000  *
     3       C          0.45440000  *  -1.33940000  *   1.68040000  *
     4       C         -1.01030000  *  -1.32190000  *  -0.34730000  *
     5       C          0.66870000  *   0.45300000  *  -0.00610000  *
     6       C         -0.63500000  *  -1.36680000  *   2.46440000  *
     7       C         -2.09730000  *  -1.34840000  *   0.43990000  *
     8       C          1.12570000  *   0.89960000  *  -1.17900000  *
     9       C          1.39310000  *   2.33080000  *  -1.39290000  *
    10       C          1.84490000  *   2.77920000  *  -2.56040000  *
    11       H          1.11080000  *  -1.62640000  *  -0.32480000  *
    12       H         -2.76410000  *  -1.64440000  *   2.45920000  *
    13       H         -2.21380000  *   0.02920000  *   2.07700000  *
    14       H          1.43070000  *  -1.52320000  *   2.11890000  *
    15       H         -1.12080000  *  -1.49340000  *  -1.41400000  *
    16       H          0.46630000  *   1.15730000  *   0.79430000  *
    17       H         -0.52550000  *  -1.57150000  *   3.52500000  *
    18       H         -3.07130000  *  -1.54000000  *   0.00020000  *
    19       H          1.22130000  *   3.03860000  *  -0.59030000  *
    20       H          1.30060000  *   0.19920000  *  -1.98840000  *
    21       H          2.02910000  *   2.10450000  *  -3.38740000  *
    22       H          2.03500000  *   3.83580000  *  -2.69690000  *



          CARTESIAN COORDINATES 

    NO.       ATOM           X           Y           Z

     1         C          0.3596     -1.0033      0.2085
     2         C         -2.0021     -1.0485      1.9143
     3         C          0.4544     -1.3394      1.6804
     4         C         -1.0103     -1.3219     -0.3473
     5         C          0.6687      0.4530     -0.0061
     6         C         -0.6350     -1.3668      2.4644
     7         C         -2.0973     -1.3484      0.4399
     8         C          1.1257      0.8996     -1.1790
     9         C          1.3931      2.3308     -1.3929
    10         C          1.8449      2.7792     -2.5604
    11         H          1.1108     -1.6264     -0.3248
    12         H         -2.7641     -1.6444      2.4592
    13         H         -2.2138      0.0292      2.0770
    14         H          1.4307     -1.5232      2.1189
    15         H         -1.1208     -1.4934     -1.4140
    16         H          0.4663      1.1573      0.7943
    17         H         -0.5255     -1.5715      3.5250
    18         H         -3.0713     -1.5400      0.0002
    19         H          1.2213      3.0386     -0.5903
    20         H          1.3006      0.1992     -1.9884
    21         H          2.0291      2.1045     -3.3874
    22         H          2.0350      3.8358     -2.6969

  H: (PM3): J. J. P. STEWART, J. COMP. CHEM. 10, 209 (1989).
  C: (PM3): J. J. P. STEWART, J. COMP. CHEM. 10, 209 (1989).

           Empirical Formula: C10 H12  =    22 atoms



      MOLECULAR POINT GROUP   :   C1  


      RHF CALCULATION, NO. OF DOUBLY OCCUPIED LEVELS = 26


          Geometry optimization using EF

          DIAGONAL MATRIX USED AS START HESSIAN

 CYCLE:     1 TIME:   0.012 TIME LEFT:  2.00D  GRAD.:    70.011 HEAT:  58.89397
 CYCLE:     2 TIME:   0.016 TIME LEFT:  2.00D  GRAD.:    58.847 HEAT:  58.04240
 CYCLE:     3 TIME:   0.008 TIME LEFT:  2.00D  GRAD.:    79.824 HEAT:  58.03115
 CYCLE:     4 TIME:   0.008 TIME LEFT:  2.00D  GRAD.:    57.249 HEAT:  57.35085
 CYCLE:     5 TIME:   0.012 TIME LEFT:  2.00D  GRAD.:    42.116 HEAT:  56.94246
 CYCLE:     6 TIME:   0.004 TIME LEFT:  2.00D  GRAD.:    31.720 HEAT:  56.77856
 CYCLE:     7 TIME:   0.008 TIME LEFT:  2.00D  GRAD.:    32.039 HEAT:  56.65943
 CYCLE:     8 TIME:   0.008 TIME LEFT:  2.00D  GRAD.:    34.037 HEAT:  56.59301
 CYCLE:     9 TIME:   0.012 TIME LEFT:  2.00D  GRAD.:    19.399 HEAT:  56.45172
 CYCLE:    10 TIME:   0.008 TIME LEFT:  2.00D  GRAD.:    13.427 HEAT:  56.39921
 CYCLE:    11 TIME:   0.008 TIME LEFT:  2.00D  GRAD.:    16.992 HEAT:  56.37493
 CYCLE:    12 TIME:   0.004 TIME LEFT:  2.00D  GRAD.:    14.477 HEAT:  56.34392
 CYCLE:    13 TIME:   0.008 TIME LEFT:  2.00D  GRAD.:    15.144 HEAT:  56.34036
 CYCLE:    14 TIME:   0.008 TIME LEFT:  2.00D  GRAD.:    11.968 HEAT:  56.30203
 CYCLE:    15 TIME:   0.008 TIME LEFT:  2.00D  GRAD.:     5.812 HEAT:  56.27259
 CYCLE:    16 TIME:   0.012 TIME LEFT:  2.00D  GRAD.:     4.562 HEAT:  56.26463
 CYCLE:    17 TIME:   0.008 TIME LEFT:  2.00D  GRAD.:     3.115 HEAT:  56.25484
 CYCLE:    18 TIME:   0.004 TIME LEFT:  2.00D  GRAD.:     5.175 HEAT:  56.24450
 CYCLE:    19 TIME:   0.012 TIME LEFT:  2.00D  GRAD.:     4.162 HEAT:  56.22702
 CYCLE:    20 TIME:   0.008 TIME LEFT:  2.00D  GRAD.:     6.158 HEAT:  56.21509
 CYCLE:    21 TIME:   0.008 TIME LEFT:  2.00D  GRAD.:     6.235 HEAT:  56.19892
 CYCLE:    22 TIME:   0.008 TIME LEFT:  2.00D  GRAD.:     9.575 HEAT:  56.19881
 CYCLE:    23 TIME:   0.008 TIME LEFT:  2.00D  GRAD.:     6.386 HEAT:  56.16869
 CYCLE:    24 TIME:   0.008 TIME LEFT:  2.00D  GRAD.:     9.259 HEAT:  56.16099
 CYCLE:    25 TIME:   0.008 TIME LEFT:  2.00D  GRAD.:     5.323 HEAT:  56.12051
 CYCLE:    26 TIME:   0.012 TIME LEFT:  2.00D  GRAD.:     7.256 HEAT:  56.09839
 CYCLE:    27 TIME:   0.008 TIME LEFT:  2.00D  GRAD.:     7.042 HEAT:  56.05432
 CYCLE:    28 TIME:   0.004 TIME LEFT:  2.00D  GRAD.:     6.890 HEAT:  56.01267
 CYCLE:    29 TIME:   0.012 TIME LEFT:  2.00D  GRAD.:     7.177 HEAT:  55.98620
 CYCLE:    30 TIME:   0.008 TIME LEFT:  2.00D  GRAD.:     5.640 HEAT:  55.95148
 CYCLE:    31 TIME:   0.008 TIME LEFT:  2.00D  GRAD.:     7.477 HEAT:  55.93007
 CYCLE:    32 TIME:   0.008 TIME LEFT:  2.00D  GRAD.:     6.251 HEAT:  55.89086
 CYCLE:    33 TIME:   0.004 TIME LEFT:  2.00D  GRAD.:     5.561 HEAT:  55.84860
 CYCLE:    34 TIME:   0.008 TIME LEFT:  2.00D  GRAD.:     5.075 HEAT:  55.81779
 CYCLE:    35 TIME:   0.008 TIME LEFT:  2.00D  GRAD.:     4.879 HEAT:  55.78849
 CYCLE:    36 TIME:   0.008 TIME LEFT:  2.00D  GRAD.:     5.572 HEAT:  55.75650
 CYCLE:    37 TIME:   0.008 TIME LEFT:  2.00D  GRAD.:     6.346 HEAT:  55.72222
 CYCLE:    38 TIME:   0.004 TIME LEFT:  2.00D  GRAD.:     6.511 HEAT:  55.67473
 CYCLE:    39 TIME:   0.008 TIME LEFT:  2.00D  GRAD.:     5.409 HEAT:  55.63248
 CYCLE:    40 TIME:   0.008 TIME LEFT:  2.00D  GRAD.:     6.910 HEAT:  55.60569
 CYCLE:    41 TIME:   0.008 TIME LEFT:  2.00D  GRAD.:     4.242 HEAT:  55.57503
 CYCLE:    42 TIME:   0.008 TIME LEFT:  2.00D  GRAD.:     3.661 HEAT:  55.55020
 CYCLE:    43 TIME:   0.008 TIME LEFT:  2.00D  GRAD.:     4.940 HEAT:  55.51027
 CYCLE:    44 TIME:   0.004 TIME LEFT:  2.00D  GRAD.:     5.344 HEAT:  55.45039
 CYCLE:    45 TIME:   0.008 TIME LEFT:  2.00D  GRAD.:     5.470 HEAT:  55.39115
 CYCLE:    46 TIME:   0.008 TIME LEFT:  2.00D  GRAD.:     5.566 HEAT:  55.30418
 CYCLE:    47 TIME:   0.008 TIME LEFT:  2.00D  GRAD.:     5.899 HEAT:  55.25617
 CYCLE:    48 TIME:   0.012 TIME LEFT:  2.00D  GRAD.:    10.607 HEAT:  55.24558
 CYCLE:    49 TIME:   0.008 TIME LEFT:  2.00D  GRAD.:     4.908 HEAT:  55.16787
 CYCLE:    50 TIME:   0.008 TIME LEFT:  2.00D  GRAD.:     4.740 HEAT:  55.13600
 CYCLE:    51 TIME:   0.008 TIME LEFT:  2.00D  GRAD.:     3.697 HEAT:  55.09637
 CYCLE:    52 TIME:   0.008 TIME LEFT:  2.00D  GRAD.:     4.129 HEAT:  55.07027
 CYCLE:    53 TIME:   0.008 TIME LEFT:  2.00D  GRAD.:     4.106 HEAT:  55.04405
 CYCLE:    54 TIME:   0.008 TIME LEFT:  2.00D  GRAD.:     4.299 HEAT:  55.01208
 CYCLE:    55 TIME:   0.008 TIME LEFT:  2.00D  GRAD.:     4.388 HEAT:  54.98142
 CYCLE:    56 TIME:   0.008 TIME LEFT:  2.00D  GRAD.:     3.317 HEAT:  54.96203
 CYCLE:    57 TIME:   0.008 TIME LEFT:  2.00D  GRAD.:     2.731 HEAT:  54.94650
 CYCLE:    58 TIME:   0.008 TIME LEFT:  2.00D  GRAD.:     2.866 HEAT:  54.93313
 CYCLE:    59 TIME:   0.008 TIME LEFT:  2.00D  GRAD.:     2.664 HEAT:  54.92051
 CYCLE:    60 TIME:   0.008 TIME LEFT:  2.00D  GRAD.:     2.226 HEAT:  54.91256
 CYCLE:    61 TIME:   0.004 TIME LEFT:  2.00D  GRAD.:     2.284 HEAT:  54.90560
 CYCLE:    62 TIME:   0.008 TIME LEFT:  2.00D  GRAD.:     2.672 HEAT:  54.89570
 CYCLE:    63 TIME:   0.008 TIME LEFT:  2.00D  GRAD.:     3.076 HEAT:  54.88030
 CYCLE:    64 TIME:   0.008 TIME LEFT:  2.00D  GRAD.:     4.464 HEAT:  54.85471
 CYCLE:    65 TIME:   0.012 TIME LEFT:  2.00D  GRAD.:     3.253 HEAT:  54.84151
 CYCLE:    66 TIME:   0.008 TIME LEFT:  2.00D  GRAD.:     2.247 HEAT:  54.82494
 CYCLE:    67 TIME:   0.008 TIME LEFT:  2.00D  GRAD.:     2.645 HEAT:  54.80999
 CYCLE:    68 TIME:   0.008 TIME LEFT:  2.00D  GRAD.:     2.418 HEAT:  54.80296
 CYCLE:    69 TIME:   0.004 TIME LEFT:  2.00D  GRAD.:     1.872 HEAT:  54.79364
 CYCLE:    70 TIME:   0.012 TIME LEFT:  2.00D  GRAD.:     1.505 HEAT:  54.78878
 CYCLE:    71 TIME:   0.008 TIME LEFT:  2.00D  GRAD.:     1.657 HEAT:  54.78386
 CYCLE:    72 TIME:   0.004 TIME LEFT:  2.00D  GRAD.:     1.674 HEAT:  54.77921
 CYCLE:    73 TIME:   0.012 TIME LEFT:  2.00D  GRAD.:     1.701 HEAT:  54.77383
 CYCLE:    74 TIME:   0.008 TIME LEFT:  2.00D  GRAD.:     1.675 HEAT:  54.76818
 CYCLE:    75 TIME:   0.008 TIME LEFT:  2.00D  GRAD.:     1.543 HEAT:  54.76269
 CYCLE:    76 TIME:   0.008 TIME LEFT:  2.00D  GRAD.:     1.103 HEAT:  54.75934
 CYCLE:    77 TIME:   0.008 TIME LEFT:  2.00D  GRAD.:     0.811 HEAT:  54.75738
 CYCLE:    78 TIME:   0.008 TIME LEFT:  2.00D  GRAD.:     0.837 HEAT:  54.75602
 CYCLE:    79 TIME:   0.008 TIME LEFT:  2.00D  GRAD.:     0.723 HEAT:  54.75485
 CYCLE:    80 TIME:   0.008 TIME LEFT:  2.00D  GRAD.:     0.648 HEAT:  54.75407
 CYCLE:    81 TIME:   0.008 TIME LEFT:  2.00D  GRAD.:     0.507 HEAT:  54.75356
 CYCLE:    82 TIME:   0.008 TIME LEFT:  2.00D  GRAD.:     0.565 HEAT:  54.75298
 CYCLE:    83 TIME:   0.008 TIME LEFT:  2.00D  GRAD.:     0.786 HEAT:  54.75205
 CYCLE:    84 TIME:   0.008 TIME LEFT:  2.00D  GRAD.:     0.905 HEAT:  54.75082
 CYCLE:    85 TIME:   0.008 TIME LEFT:  2.00D  GRAD.:     0.969 HEAT:  54.74906
 CYCLE:    86 TIME:   0.008 TIME LEFT:  2.00D  GRAD.:     0.884 HEAT:  54.74785
 CYCLE:    87 TIME:   0.008 TIME LEFT:  2.00D  GRAD.:     1.875 HEAT:  54.74536
 CYCLE:    88 TIME:   0.008 TIME LEFT:  2.00D  GRAD.:     1.378 HEAT:  54.74267
 CYCLE:    89 TIME:   0.012 TIME LEFT:  2.00D  GRAD.:     0.790 HEAT:  54.73915
 CYCLE:    90 TIME:   0.008 TIME LEFT:  2.00D  GRAD.:     1.195 HEAT:  54.73343
 CYCLE:    91 TIME:   0.008 TIME LEFT:  2.00D  GRAD.:     1.785 HEAT:  54.72629
 CYCLE:    92 TIME:   0.008 TIME LEFT:  2.00D  GRAD.:     2.717 HEAT:  54.71942
 CYCLE:    93 TIME:   0.008 TIME LEFT:  2.00D  GRAD.:     1.993 HEAT:  54.71168
 CYCLE:    94 TIME:   0.008 TIME LEFT:  2.00D  GRAD.:     1.746 HEAT:  54.70323
 CYCLE:    95 TIME:   0.008 TIME LEFT:  2.00D  GRAD.:     3.185 HEAT:  54.70283
 CYCLE:    96 TIME:   0.008 TIME LEFT:  2.00D  GRAD.:     1.975 HEAT:  54.69759
 CYCLE:    97 TIME:   0.008 TIME LEFT:  2.00D  GRAD.:     2.169 HEAT:  54.69759
 CYCLE:    98 TIME:   0.008 TIME LEFT:  2.00D  GRAD.:     0.906 HEAT:  54.69468
 CYCLE:    99 TIME:   0.008 TIME LEFT:  2.00D  GRAD.:     0.998 HEAT:  54.69360
 CYCLE:   100 TIME:   0.008 TIME LEFT:  2.00D  GRAD.:     0.820 HEAT:  54.69258
 CYCLE:   101 TIME:   0.008 TIME LEFT:  2.00D  GRAD.:     1.413 HEAT:  54.69171
 CYCLE:   102 TIME:   0.008 TIME LEFT:  2.00D  GRAD.:     0.707 HEAT:  54.69047
 CYCLE:   103 TIME:   0.008 TIME LEFT:  2.00D  GRAD.:     0.566 HEAT:  54.69012
 CYCLE:   104 TIME:   0.004 TIME LEFT:  2.00D  GRAD.:     0.460 HEAT:  54.68972
 CYCLE:   105 TIME:   0.008 TIME LEFT:  2.00D  GRAD.:     1.175 HEAT:  54.68995
 CYCLE:   106 TIME:   0.008 TIME LEFT:  2.00D  GRAD.:     0.511 HEAT:  54.68886
 CYCLE:   107 TIME:   0.008 TIME LEFT:  2.00D  GRAD.:     0.442 HEAT:  54.68862
 CYCLE:   108 TIME:   0.008 TIME LEFT:  2.00D  GRAD.:     0.500 HEAT:  54.68823
 CYCLE:   109 TIME:   0.008 TIME LEFT:  2.00D  GRAD.:     1.420 HEAT:  54.68602
 CYCLE:   110 TIME:   0.008 TIME LEFT:  2.00D  GRAD.:     1.023 HEAT:  54.68478
 CYCLE:   111 TIME:   0.004 TIME LEFT:  2.00D  GRAD.:     0.975 HEAT:  54.68214
 CYCLE:   112 TIME:   0.008 TIME LEFT:  2.00D  GRAD.:     1.488 HEAT:  54.67874
 CYCLE:   113 TIME:   0.008 TIME LEFT:  2.00D  GRAD.:     1.700 HEAT:  54.67355
 CYCLE:   114 TIME:   0.008 TIME LEFT:  2.00D  GRAD.:     1.683 HEAT:  54.67003
 CYCLE:   115 TIME:   0.008 TIME LEFT:  2.00D  GRAD.:     1.513 HEAT:  54.66704
 CYCLE:   116 TIME:   0.020 TIME LEFT:  2.00D  GRAD.:     2.873 HEAT:  54.65914
 CYCLE:   117 TIME:   0.008 TIME LEFT:  2.00D  GRAD.:     1.639 HEAT:  54.65284
 CYCLE:   118 TIME:   0.008 TIME LEFT:  2.00D  GRAD.:     1.722 HEAT:  54.64801
 CYCLE:   119 TIME:   0.008 TIME LEFT:  2.00D  GRAD.:     1.634 HEAT:  54.64204
 CYCLE:   120 TIME:   0.004 TIME LEFT:  2.00D  GRAD.:     2.105 HEAT:  54.63920
 CYCLE:   121 TIME:   0.008 TIME LEFT:  2.00D  GRAD.:     1.715 HEAT:  54.63630
 CYCLE:   122 TIME:   0.008 TIME LEFT:  2.00D  GRAD.:     1.268 HEAT:  54.63286
 CYCLE:   123 TIME:   0.008 TIME LEFT:  2.00D  GRAD.:     1.347 HEAT:  54.63164
 CYCLE:   124 TIME:   0.008 TIME LEFT:  2.00D  GRAD.:     1.183 HEAT:  54.62975
 CYCLE:   125 TIME:   0.008 TIME LEFT:  2.00D  GRAD.:     0.828 HEAT:  54.62859
 CYCLE:   126 TIME:   0.008 TIME LEFT:  2.00D  GRAD.:     0.605 HEAT:  54.62738
 CYCLE:   127 TIME:   0.008 TIME LEFT:  2.00D  GRAD.:     1.701 HEAT:  54.62590
 CYCLE:   128 TIME:   0.008 TIME LEFT:  2.00D  GRAD.:     1.272 HEAT:  54.62437
 CYCLE:   129 TIME:   0.004 TIME LEFT:  2.00D  GRAD.:     1.094 HEAT:  54.62092
 CYCLE:   130 TIME:   0.008 TIME LEFT:  2.00D  GRAD.:     1.198 HEAT:  54.61799
 CYCLE:   131 TIME:   0.008 TIME LEFT:  2.00D  GRAD.:     2.054 HEAT:  54.61316
 CYCLE:   132 TIME:   0.008 TIME LEFT:  2.00D  GRAD.:     1.697 HEAT:  54.61048
 CYCLE:   133 TIME:   0.008 TIME LEFT:  2.00D  GRAD.:     2.101 HEAT:  54.60348
 CYCLE:   134 TIME:   0.008 TIME LEFT:  2.00D  GRAD.:     1.987 HEAT:  54.59122
 CYCLE:   135 TIME:   0.008 TIME LEFT:  2.00D  GRAD.:     3.499 HEAT:  54.57935
 CYCLE:   136 TIME:   0.008 TIME LEFT:  2.00D  GRAD.:     2.460 HEAT:  54.57506
 CYCLE:   137 TIME:   0.008 TIME LEFT:  2.00D  GRAD.:     1.922 HEAT:  54.56543
 CYCLE:   138 TIME:   0.008 TIME LEFT:  2.00D  GRAD.:     3.146 HEAT:  54.56061
 CYCLE:   139 TIME:   0.008 TIME LEFT:  2.00D  GRAD.:     1.173 HEAT:  54.55597
 CYCLE:   140 TIME:   0.008 TIME LEFT:  2.00D  GRAD.:     1.600 HEAT:  54.55176
 CYCLE:   141 TIME:   0.008 TIME LEFT:  2.00D  GRAD.:     1.551 HEAT:  54.54855
 CYCLE:   142 TIME:   0.008 TIME LEFT:  2.00D  GRAD.:     1.769 HEAT:  54.54483
 CYCLE:   143 TIME:   0.008 TIME LEFT:  2.00D  GRAD.:     0.932 HEAT:  54.54251
 CYCLE:   144 TIME:   0.008 TIME LEFT:  2.00D  GRAD.:     1.171 HEAT:  54.54108
 CYCLE:   145 TIME:   0.008 TIME LEFT:  2.00D  GRAD.:     1.026 HEAT:  54.54054
 CYCLE:   146 TIME:   0.008 TIME LEFT:  2.00D  GRAD.:     0.616 HEAT:  54.54000
 CYCLE:   147 TIME:   0.008 TIME LEFT:  2.00D  GRAD.:     0.674 HEAT:  54.53976
 CYCLE:   148 TIME:   0.008 TIME LEFT:  2.00D  GRAD.:     0.289 HEAT:  54.53952
 CYCLE:   149 TIME:   0.008 TIME LEFT:  2.00D  GRAD.:     0.185 HEAT:  54.53942
 CYCLE:   150 TIME:   0.008 TIME LEFT:  2.00D  GRAD.:     0.150 HEAT:  54.53939
 CYCLE:   151 TIME:   0.008 TIME LEFT:  2.00D  GRAD.:     0.458 HEAT:  54.53945
 CYCLE:   152 TIME:   0.008 TIME LEFT:  2.00D  GRAD.:     0.111 HEAT:  54.53935
 CYCLE:   153 TIME:   0.008 TIME LEFT:  2.00D  GRAD.:     0.257 HEAT:  54.53938
 CYCLE:   154 TIME:   0.008 TIME LEFT:  2.00D  GRAD.:     0.092 HEAT:  54.53933
 CYCLE:   155 TIME:   0.008 TIME LEFT:  2.00D  GRAD.:     0.599 HEAT:  54.53960
 CYCLE:   156 TIME:   0.012 TIME LEFT:  2.00D  GRAD.:     0.078 HEAT:  54.53933
 CYCLE:   157 TIME:   0.008 TIME LEFT:  2.00D  GRAD.:     0.457 HEAT:  54.53952
 CYCLE:   158 TIME:   0.008 TIME LEFT:  2.00D  GRAD.:     0.152 HEAT:  54.53935
 CYCLE:   159 TIME:   0.039 TIME LEFT:  2.00D  GRAD.:     5.728 HEAT:  54.54662
 CYCLE:   160 TIME:   0.008 TIME LEFT:  2.00D  GRAD.:     1.078 HEAT:  54.54128
 CYCLE:   161 TIME:   0.012 TIME LEFT:  2.00D  GRAD.:     1.747 HEAT:  54.54225
 CYCLE:   162 TIME:   0.008 TIME LEFT:  2.00D  GRAD.:     0.228 HEAT:  54.53934
 CYCLE:   163 TIME:   0.008 TIME LEFT:  2.00D  GRAD.:     0.069 HEAT:  54.53932
 CYCLE:   164 TIME:   0.008 TIME LEFT:  2.00D  GRAD.:     0.094 HEAT:  54.53933
 CYCLE:   165 TIME:   0.008 TIME LEFT:  2.00D  GRAD.:     0.048 HEAT:  54.53932

     GRADIENT =  0.04806 IS LESS THAN CUTOFF =  0.05000



 -------------------------------------------------------------------------------
 pm3  precise nosym THREADS=1
 InChI=1S/C10H12/c1-2-3-7-10-8-5-4-6-9-10/h2-3,5-10H,1,4H2



     GEOMETRY OPTIMISED USING EIGENVECTOR FOLLOWING (EF).     
     SCF FIELD WAS ACHIEVED                                   


                              PM3 CALCULATION
                                                       MOPAC v23.1.2 MacOS
                                                       Tue Jun  3 16:29:27 2025




          FINAL HEAT OF FORMATION =         54.53932 KCAL/MOL =     228.19252 KJ/MOL


          COSMO AREA              =        191.84 SQUARE ANGSTROMS
          COSMO VOLUME            =        187.39 CUBIC ANGSTROMS

          GRADIENT NORM           =          0.04806          =       0.01025 PER ATOM
          IONIZATION POTENTIAL    =          9.282719 EV
          HOMO LUMO ENERGIES (EV) =         -9.283  0.204
          NO. OF FILLED LEVELS    =         26
          MOLECULAR WEIGHT        =        132.2048         POINT GROUP:  C1  

          MOLECULAR DIMENSIONS (Angstroms)

            Atom       Atom       Distance
            H    22    H    12     9.55014
            H    18    H    14     4.45987
            H    21    H    13     3.20368


          SCF CALCULATIONS        =        178

          WALL-CLOCK TIME         =      1.352 SECONDS
          COMPUTATION TIME        =      0.861 SECONDS




   ATOM   CHEMICAL          X               Y               Z
  NUMBER   SYMBOL      (ANGSTROMS)     (ANGSTROMS)     (ANGSTROMS)

     1       C         -0.00312911  *  -0.71618218  *   0.11011496  *
     2       C         -1.88897822  *  -1.80147219  *   2.11987892  *
     3       C          0.36856521  *  -0.95479627  *   1.53885594  *
     4       C         -1.45501387  *  -0.94405563  *  -0.16648664  *
     5       C          0.36004872  *   0.68799838  *  -0.26943651  *
     6       C         -0.48088523  *  -1.45064020  *   2.43812739  *
     7       C         -2.29852440  *  -1.43994217  *   0.73833854  *
     8       C          1.25201937  *   0.96727649  *  -1.22545093  *
     9       C          1.59426035  *   2.33594889  *  -1.58295498  *
    10       C          2.47945067  *   2.62094281  *  -2.53598877  *
    11       H          0.57265140  *  -1.45076814  *  -0.51024360  *
    12       H         -2.03506026  *  -2.89120212  *   2.26922584  *
    13       H         -2.56316474  *  -1.30014309  *   2.84397778  *
    14       H          1.39872475  *  -0.69995531  *   1.81194499  *
    15       H         -1.79483786  *  -0.68111952  *  -1.17452859  *
    16       H         -0.15269791  *   1.48224784  *   0.28712191  *
    17       H         -0.16433090  *  -1.62467210  *   3.47271604  *
    18       H         -3.35305709  *  -1.60587419  *   0.49075586  *
    19       H          1.08689193  *   3.13549650  *  -1.02830354  *
    20       H          1.76132780  *   0.16665700  *  -1.77853743  *
    21       H          3.00366328  *   1.86051644  *  -3.10853515  *
    22       H          2.73845975  *   3.63976960  *  -2.80670883  *

                             CARTESIAN COORDINATES

   1    C       -0.003129105    -0.716182183     0.110114963
   2    C       -1.888978215    -1.801472195     2.119878924
   3    C        0.368565210    -0.954796267     1.538855942
   4    C       -1.455013874    -0.944055627    -0.166486639
   5    C        0.360048724     0.687998379    -0.269436511
   6    C       -0.480885234    -1.450640202     2.438127391
   7    C       -2.298524402    -1.439942169     0.738338542
   8    C        1.252019366     0.967276488    -1.225450931
   9    C        1.594260353     2.335948889    -1.582954976
  10    C        2.479450672     2.620942811    -2.535988772
  11    H        0.572651403    -1.450768143    -0.510243602
  12    H       -2.035060260    -2.891202120     2.269225838
  13    H       -2.563164743    -1.300143086     2.843977783
  14    H        1.398724749    -0.699955309     1.811944988
  15    H       -1.794837860    -0.681119518    -1.174528587
  16    H       -0.152697909     1.482247838     0.287121914
  17    H       -0.164330899    -1.624672095     3.472716037
  18    H       -3.353057087    -1.605874186     0.490755862
  19    H        1.086891928     3.135496502    -1.028303540
  20    H        1.761327803     0.166656997    -1.778537429
  21    H        3.003663276     1.860516441    -3.108535148
  22    H        2.738459753     3.639769602    -2.806708832


           Empirical Formula: C10 H12  =    22 atoms



      MOLECULAR POINT GROUP   :   C1  


                  EIGENVALUES  
 -40.27115 -35.88920 -31.79909 -29.90850 -27.42446 -22.96960 -20.70309 -20.25143
 -19.79204 -17.72969 -16.67604 -16.12855 -16.04685 -15.16683 -14.81160 -14.59510
 -14.11354 -13.44575 -12.99967 -12.62172 -12.10115 -12.03950 -11.54349 -10.45399
  -9.37448  -9.28272   0.20403   1.01262   1.13749   2.11167   3.16294   3.36929
   3.48567   3.50184   3.65022   3.74384   3.84114   3.84752   3.92105   4.10765
   4.28234   4.47723   4.50037   4.52706   5.08664   5.27633   5.33424   5.37888
   5.85566   6.03778   6.05820   6.14568


              NET ATOMIC CHARGES AND DIPOLE CONTRIBUTIONS

  ATOM NO.   TYPE          CHARGE      No. of ELECS.   s-Pop       p-Pop       
    1          C           0.028885        3.9711     1.13948     2.83164
    2          C          -0.022704        4.0227     1.13149     2.89122
    3          C          -0.143512        4.1435     1.19511     2.94840
    4          C          -0.143490        4.1435     1.19511     2.94838
    5          C          -0.122805        4.1228     1.19912     2.92368
    6          C          -0.143434        4.1434     1.19305     2.95039
    7          C          -0.143446        4.1434     1.19305     2.95040
    8          C          -0.120577        4.1206     1.18381     2.93676
    9          C          -0.104980        4.1050     1.18109     2.92389
   10          C          -0.151813        4.1518     1.18373     2.96809
   11          H           0.074622        0.9254     0.92538
   12          H           0.061974        0.9380     0.93803
   13          H           0.060267        0.9397     0.93973
   14          H           0.103236        0.8968     0.89676
   15          H           0.103239        0.8968     0.89676
   16          H           0.106726        0.8933     0.89327
   17          H           0.098328        0.9017     0.90167
   18          H           0.098330        0.9017     0.90167
   19          H           0.098196        0.9018     0.90180
   20          H           0.103076        0.8969     0.89692
   21          H           0.080938        0.9191     0.91906
   22          H           0.078944        0.9211     0.92106
 DIPOLE           X         Y         Z       TOTAL
 POINT-CHG.    -0.168    -0.201     0.178     0.317
 HYBRID        -0.003     0.030     0.003     0.030
 SUM           -0.171    -0.171     0.182     0.302


          ATOMIC ORBITAL ELECTRON POPULATIONS

     Atom    s        px        py        pz   
    1  C   1.13948   0.94353   0.94107   0.94704
    2  C   1.13149   0.94454   0.99850   0.94818
    3  C   1.19511   0.98783   1.00697   0.95360
    4  C   1.19511   0.95431   1.00707   0.98701
    5  C   1.19912   0.97718   0.97101   0.97549
    6  C   1.19305   0.96082   1.00628   0.98329
    7  C   1.19305   0.98415   1.00619   0.96006
    8  C   1.18381   0.99002   0.96031   0.98643
    9  C   1.18109   0.98541   0.95532   0.98315
   10  C   1.18373   0.98179   1.00754   0.97875
   11  H   0.92538
   12  H   0.93803
   13  H   0.93973
   14  H   0.89676
   15  H   0.89676
   16  H   0.89327
   17  H   0.90167
   18  H   0.90167
   19  H   0.90180
   20  H   0.89692
   21  H   0.91906
   22  H   0.92106
 *******************************************************************************
 **                                                                           **
 **                              MOPAC v23.1.2                                **
 **                                                                           **
 *******************************************************************************
 **          Digital Object Identifier (DOI): 10.5281/zenodo.6511958          **
 **    Visit the DOI location for information on how to cite this program.    **
 *******************************************************************************

                              PM3 CALCULATION RESULTS

 *******************************************************************************
 *  CALCULATION DONE: (MAX THREADS = 1)              Tue Jun  3 16:29:27 2025  *
 *  PM3        - The PM3 Hamiltonian to be used
 *  OLDGEO     - PREVIOUS GEOMETRY TO BE USED
 *  PRECISE    - TIGHTER CRITERIA TO BE USED
 *  NOSYM      - POINT-GROUP SYMMETRY SET TO C1
 *  THREADS=1  - MULTI-THREADING NOT USED
 *  T=         - A TIME OF 172800.0 SECONDS REQUESTED
 *  DUMP=N     - RESTART FILE WRITTEN EVERY 7200.0 SECONDS REQUESTED
 *  THERMO     - THERMODYNAMIC QUANTITIES TO BE CALCULATED
 *******************************************************************************
oldgeo thermo nosym precise THREADS=1  pm3
 InChI=1S/C10H12/c1-2-3-7-10-8-5-4-6-9-10/h2-3,5-10H,1,4H2

   ATOM   CHEMICAL          X               Y               Z
  NUMBER   SYMBOL      (ANGSTROMS)     (ANGSTROMS)     (ANGSTROMS)

     1       C         -0.00312911  *  -0.71618218  *   0.11011496  *
     2       C         -1.88897822  *  -1.80147219  *   2.11987892  *
     3       C          0.36856521  *  -0.95479627  *   1.53885594  *
     4       C         -1.45501387  *  -0.94405563  *  -0.16648664  *
     5       C          0.36004872  *   0.68799838  *  -0.26943651  *
     6       C         -0.48088523  *  -1.45064020  *   2.43812739  *
     7       C         -2.29852440  *  -1.43994217  *   0.73833854  *
     8       C          1.25201937  *   0.96727649  *  -1.22545093  *
     9       C          1.59426035  *   2.33594889  *  -1.58295498  *
    10       C          2.47945067  *   2.62094281  *  -2.53598877  *
    11       H          0.57265140  *  -1.45076814  *  -0.51024360  *
    12       H         -2.03506026  *  -2.89120212  *   2.26922584  *
    13       H         -2.56316474  *  -1.30014309  *   2.84397778  *
    14       H          1.39872475  *  -0.69995531  *   1.81194499  *
    15       H         -1.79483786  *  -0.68111952  *  -1.17452859  *
    16       H         -0.15269791  *   1.48224784  *   0.28712191  *
    17       H         -0.16433090  *  -1.62467210  *   3.47271604  *
    18       H         -3.35305709  *  -1.60587419  *   0.49075586  *
    19       H          1.08689193  *   3.13549650  *  -1.02830354  *
    20       H          1.76132780  *   0.16665700  *  -1.77853743  *
    21       H          3.00366328  *   1.86051644  *  -3.10853515  *
    22       H          2.73845975  *   3.63976960  *  -2.80670883  *



          CARTESIAN COORDINATES 

    NO.       ATOM           X           Y           Z

     1         C         -0.0031     -0.7162      0.1101
     2         C         -1.8890     -1.8015      2.1199
     3         C          0.3686     -0.9548      1.5389
     4         C         -1.4550     -0.9441     -0.1665
     5         C          0.3600      0.6880     -0.2694
     6         C         -0.4809     -1.4506      2.4381
     7         C         -2.2985     -1.4399      0.7383
     8         C          1.2520      0.9673     -1.2255
     9         C          1.5943      2.3359     -1.5830
    10         C          2.4795      2.6209     -2.5360
    11         H          0.5727     -1.4508     -0.5102
    12         H         -2.0351     -2.8912      2.2692
    13         H         -2.5632     -1.3001      2.8440
    14         H          1.3987     -0.7000      1.8119
    15         H         -1.7948     -0.6811     -1.1745
    16         H         -0.1527      1.4822      0.2871
    17         H         -0.1643     -1.6247      3.4727
    18         H         -3.3531     -1.6059      0.4908
    19         H          1.0869      3.1355     -1.0283
    20         H          1.7613      0.1667     -1.7785
    21         H          3.0037      1.8605     -3.1085
    22         H          2.7385      3.6398     -2.8067

  H: (PM3): J. J. P. STEWART, J. COMP. CHEM. 10, 209 (1989).
  C: (PM3): J. J. P. STEWART, J. COMP. CHEM. 10, 209 (1989).

           Empirical Formula: C10 H12  =    22 atoms



      MOLECULAR POINT GROUP   :   C1  


      RHF CALCULATION, NO. OF DOUBLY OCCUPIED LEVELS = 26



          HEAT OF FORMATION =      54.539322 KCALS/MOLE


          CARTESIAN COORDINATE DERIVATIVES

   NUMBER  ATOM         X            Y            Z

     1       C      0.002642     0.000163    -0.000383
     2       C      0.000824    -0.001554     0.000908
     3       C      0.006768     0.003514     0.000901
     4       C      0.002061     0.001279    -0.003995
     5       C     -0.013639     0.001417    -0.008596
     6       C     -0.006567     0.000110     0.003688
     7       C     -0.003392     0.000834    -0.001078
     8       C      0.009383     0.002699    -0.008500
     9       C      0.017475    -0.004278     0.008805
    10       C     -0.009063     0.001884     0.008399
    11       H     -0.000074    -0.001138    -0.000057
    12       H     -0.004798    -0.000226     0.002716
    13       H     -0.001910     0.000767    -0.002704
    14       H      0.002816    -0.004609     0.000011
    15       H      0.002019     0.000307     0.000618
    16       H      0.003018    -0.002177     0.009437
    17       H     -0.001528    -0.002158    -0.000957
    18       H     -0.000823     0.001566     0.000381
    19       H      0.002527     0.004966     0.003732
    20       H      0.000981     0.000335     0.003271
    21       H     -0.008759    -0.004267    -0.019895
    22       H      0.000036     0.000566     0.003296



          GRADIENT NORM =   0.04357

          MOLECULAR WEIGHT =  132.20



          ROTATIONAL CONSTANTS IN CM(-1)

          A =    0.14336750   B =    0.01909608   C =    0.01769018



           PRINCIPAL MOMENTS OF INERTIA IN UNITS OF 10**(-40)*GRAM-CM**2

          A =      195.2517   B =     1465.8900   C =     1582.3897


          ORIENTATION OF MOLECULE IN FORCE CALCULATION

    NO.       ATOM         X         Y         Z

     1          C       0.2385   -0.0337   -0.6072
     2          C       3.2005   -0.0337   -0.6072
     3          C       1.0587    1.2167   -0.6072
     4          C       1.0587   -1.2758   -0.4629
     5          C      -0.7647    0.0307    0.5050
     6          C       2.3914    1.2122   -0.6151
     7          C       2.3914   -1.2722   -0.4712
     8          C      -2.0836    0.0153    0.2862
     9          C      -3.0456    0.0784    1.3766
    10          C      -4.3603    0.0605    1.1658
    11          H      -0.2798   -0.0912   -1.5992
    12          H       3.7941   -0.0879   -1.5431
    13          H       3.9374    0.0142    0.2203
    14          H       0.4948    2.1563   -0.6054
    15          H       0.4948   -2.2089   -0.3526
    16          H      -0.3517    0.0917    1.5194
    17          H       2.9556    2.1515   -0.6300
    18          H       2.9556   -2.2070   -0.3775
    19          H      -2.6392    0.1421    2.3940
    20          H      -2.4898   -0.0460   -0.7323
    21          H      -4.8039   -0.0018    0.1758
    22          H      -5.0821    0.1073    1.9752


    FIRST DERIVATIVES WILL BE USED IN THE CALCULATION OF SECOND DERIVATIVES

          ESTIMATED TIME TO COMPLETE CALCULATION =        3.09 SECONDS

    FOR POINT-GROUP C1   THERE ARE   1 UNIQUE SYMMETRY FUNCTIONS.

 STEP:   1 TIME =     0.02 SECS, INTEGRAL =      0.02 TIME LEFT: 172799.97
 STEP:   2 TIME =     0.02 SECS, INTEGRAL =      0.04 TIME LEFT: 172799.95
 STEP:   3 TIME =     0.02 SECS, INTEGRAL =      0.06 TIME LEFT: 172799.93
 STEP:   4 TIME =     0.02 SECS, INTEGRAL =      0.08 TIME LEFT: 172799.91
 STEP:   5 TIME =     0.02 SECS, INTEGRAL =      0.10 TIME LEFT: 172799.89
 STEP:   6 TIME =     0.02 SECS, INTEGRAL =      0.12 TIME LEFT: 172799.86
 STEP:   7 TIME =     0.02 SECS, INTEGRAL =      0.14 TIME LEFT: 172799.84
 STEP:   8 TIME =     0.02 SECS, INTEGRAL =      0.17 TIME LEFT: 172799.82
 STEP:   9 TIME =     0.02 SECS, INTEGRAL =      0.19 TIME LEFT: 172799.80
 STEP:  10 TIME =     0.02 SECS, INTEGRAL =      0.21 TIME LEFT: 172799.77
 STEP:  11 TIME =     0.02 SECS, INTEGRAL =      0.23 TIME LEFT: 172799.75
 STEP:  12 TIME =     0.02 SECS, INTEGRAL =      0.26 TIME LEFT: 172799.73
 STEP:  13 TIME =     0.02 SECS, INTEGRAL =      0.28 TIME LEFT: 172799.71
 STEP:  14 TIME =     0.02 SECS, INTEGRAL =      0.30 TIME LEFT: 172799.68
 STEP:  15 TIME =     0.02 SECS, INTEGRAL =      0.33 TIME LEFT: 172799.66
 STEP:  16 TIME =     0.02 SECS, INTEGRAL =      0.35 TIME LEFT: 172799.64
 STEP:  17 TIME =     0.02 SECS, INTEGRAL =      0.38 TIME LEFT: 172799.61
 STEP:  18 TIME =     0.02 SECS, INTEGRAL =      0.40 TIME LEFT: 172799.59
 STEP:  19 TIME =     0.02 SECS, INTEGRAL =      0.42 TIME LEFT: 172799.57
 STEP:  20 TIME =     0.02 SECS, INTEGRAL =      0.44 TIME LEFT: 172799.55
 STEP:  21 TIME =     0.02 SECS, INTEGRAL =      0.46 TIME LEFT: 172799.53
 STEP:  22 TIME =     0.02 SECS, INTEGRAL =      0.48 TIME LEFT: 172799.51
 STEP:  23 TIME =     0.02 SECS, INTEGRAL =      0.50 TIME LEFT: 172799.48
 STEP:  24 TIME =     0.02 SECS, INTEGRAL =      0.52 TIME LEFT: 172799.46
 STEP:  25 TIME =     0.02 SECS, INTEGRAL =      0.55 TIME LEFT: 172799.44
 STEP:  26 TIME =     0.02 SECS, INTEGRAL =      0.57 TIME LEFT: 172799.42
 STEP:  27 TIME =     0.02 SECS, INTEGRAL =      0.59 TIME LEFT: 172799.40
 STEP:  28 TIME =     0.02 SECS, INTEGRAL =      0.61 TIME LEFT: 172799.38
 STEP:  29 TIME =     0.02 SECS, INTEGRAL =      0.64 TIME LEFT: 172799.35
 STEP:  30 TIME =     0.02 SECS, INTEGRAL =      0.66 TIME LEFT: 172799.33
 STEP:  31 TIME =     0.02 SECS, INTEGRAL =      0.68 TIME LEFT: 172799.30
 STEP:  32 TIME =     0.02 SECS, INTEGRAL =      0.70 TIME LEFT: 172799.29
 STEP:  33 TIME =     0.02 SECS, INTEGRAL =      0.72 TIME LEFT: 172799.27
 STEP:  34 TIME =     0.02 SECS, INTEGRAL =      0.74 TIME LEFT: 172799.25
 STEP:  35 TIME =     0.03 SECS, INTEGRAL =      0.77 TIME LEFT: 172799.22
 STEP:  36 TIME =     0.02 SECS, INTEGRAL =      0.79 TIME LEFT: 172799.20
 STEP:  37 TIME =     0.02 SECS, INTEGRAL =      0.81 TIME LEFT: 172799.18
 STEP:  38 TIME =     0.02 SECS, INTEGRAL =      0.84 TIME LEFT: 172799.15
 STEP:  39 TIME =     0.02 SECS, INTEGRAL =      0.86 TIME LEFT: 172799.13
 STEP:  40 TIME =     0.02 SECS, INTEGRAL =      0.88 TIME LEFT: 172799.11
 STEP:  41 TIME =     0.02 SECS, INTEGRAL =      0.90 TIME LEFT: 172799.09
 STEP:  42 TIME =     0.02 SECS, INTEGRAL =      0.93 TIME LEFT: 172799.06
 STEP:  43 TIME =     0.02 SECS, INTEGRAL =      0.95 TIME LEFT: 172799.04
 STEP:  44 TIME =     0.02 SECS, INTEGRAL =      0.96 TIME LEFT: 172799.02
 STEP:  45 TIME =     0.02 SECS, INTEGRAL =      0.99 TIME LEFT: 172799.00
 STEP:  46 TIME =     0.02 SECS, INTEGRAL =      1.01 TIME LEFT: 172798.98
 STEP:  47 TIME =     0.02 SECS, INTEGRAL =      1.04 TIME LEFT: 172798.95
 STEP:  48 TIME =     0.02 SECS, INTEGRAL =      1.06 TIME LEFT: 172798.93
 STEP:  49 TIME =     0.02 SECS, INTEGRAL =      1.08 TIME LEFT: 172798.91
 STEP:  50 TIME =     0.02 SECS, INTEGRAL =      1.11 TIME LEFT: 172798.88
 STEP:  51 TIME =     0.02 SECS, INTEGRAL =      1.13 TIME LEFT: 172798.86
 STEP:  52 TIME =     0.02 SECS, INTEGRAL =      1.15 TIME LEFT: 172798.84
 STEP:  53 TIME =     0.02 SECS, INTEGRAL =      1.18 TIME LEFT: 172798.81
 STEP:  54 TIME =     0.02 SECS, INTEGRAL =      1.20 TIME LEFT: 172798.79
 STEP:  55 TIME =     0.02 SECS, INTEGRAL =      1.22 TIME LEFT: 172798.77
 STEP:  56 TIME =     0.02 SECS, INTEGRAL =      1.25 TIME LEFT: 172798.74
 STEP:  57 TIME =     0.02 SECS, INTEGRAL =      1.27 TIME LEFT: 172798.72
 STEP:  58 TIME =     0.02 SECS, INTEGRAL =      1.29 TIME LEFT: 172798.70
 STEP:  59 TIME =     0.03 SECS, INTEGRAL =      1.32 TIME LEFT: 172798.67
 STEP:  60 TIME =     0.02 SECS, INTEGRAL =      1.34 TIME LEFT: 172798.65
 STEP:  61 TIME =     0.02 SECS, INTEGRAL =      1.36 TIME LEFT: 172798.63
 STEP:  62 TIME =     0.02 SECS, INTEGRAL =      1.38 TIME LEFT: 172798.61
 STEP:  63 TIME =     0.02 SECS, INTEGRAL =      1.40 TIME LEFT: 172798.59
 STEP:  64 TIME =     0.02 SECS, INTEGRAL =      1.42 TIME LEFT: 172798.57
 STEP:  65 TIME =     0.02 SECS, INTEGRAL =      1.45 TIME LEFT: 172798.54
 STEP:  66 TIME =     0.02 SECS, INTEGRAL =      1.47 TIME LEFT: 172798.52

(To convert to Hartree/Bohr^2, multiply by (10^(-21) x N x a0^2)/(4.184 x 627.51) =  0.0642)


           FORCE MATRIX IN MILLIDYNES/ANGSTROM


                  C  1       C  2       C  3       C  4       C  5       C  6
 ------------------------------------------------------------------------------
     C    1  15.292675
     C    2   0.205618  15.135076
     C    3   4.684488   0.845881  18.252570
     C    4   4.684167   0.845881   0.712983  18.252210
     C    5   4.572543   0.015619   0.748655   0.748618  17.979226
     C    6   0.818222   5.030907  10.741262   0.054427   0.042900  18.274445
     C    7   0.818263   5.030989   0.054427  10.741142   0.042875   0.738770
     C    8   0.786285   0.002848   0.043054   0.043014  10.425923   0.006510
     C    9   0.142458   0.000588   0.021158   0.021222   1.068678   0.004098
     C   10   0.013842   0.000561   0.003133   0.003143   0.101731   0.001232
     H   11   4.096014   0.013309   0.393616   0.393638   0.458400   0.034163
     H   12   0.014480   4.380653   0.035586   0.035633   0.004223   0.420743
     H   13   0.015192   4.402299   0.039820   0.039792   0.001971   0.421687
     H   14   0.431305   0.127793   4.827297   0.044711   0.023242   0.443384
     H   15   0.431256   0.127521   0.044725   4.827144   0.023295   0.003383
     H   16   0.433467   0.001471   0.012605   0.012446   4.794231   0.002677
     H   17   0.126357   0.425631   0.443939   0.004040   0.016918   4.821299
     H   18   0.125917   0.425567   0.004026   0.443978   0.016815   0.046172
     H   19   0.002631   0.000204   0.000987   0.000978   0.041307   0.000468
     H   20   0.082563   0.000446   0.009927   0.009999   0.466071   0.002204
     H   21   0.005794   0.000207   0.001454   0.001449   0.005338   0.000432
     H   22   0.010521   0.000176   0.001874   0.001876   0.007895   0.000497


                  C  7       C  8       C  9       C 10       H 11       H 12
 ------------------------------------------------------------------------------
     C    7  18.274370
     C    8   0.006495  18.469641
     C    9   0.004114   5.580676  18.452237
     C   10   0.001233   1.072428  10.786210  17.888575
     H   11   0.034183   0.052296   0.002065   0.001077   4.546701
     H   12   0.420749   0.000437   0.000144   0.000115   0.002463   4.966154
     H   13   0.421682   0.000357   0.000203   0.000120   0.002549   0.565179
     H   14   0.003395   0.003366   0.001692   0.000570   0.022451   0.017319
     H   15   0.443414   0.003371   0.001698   0.000572   0.022439   0.017278
     H   16   0.002674   0.464979   0.089069   0.006274   0.038327   0.000914
     H   17   0.046158   0.001876   0.001233   0.000409   0.016086   0.024170
     H   18   4.821323   0.001854   0.001224   0.000408   0.016019   0.024155
     H   19   0.000465   0.446759   4.772601   0.451700   0.000665   0.000098
     H   20   0.002222   4.744147   0.444718   0.038367   0.029595   0.000131
     H   21   0.000431   0.102827   0.488515   5.074649   0.000325   0.000070
     H   22   0.000498   0.138820   0.460487   5.112376   0.000217   0.000036


                  H 13       H 14       H 15       H 16       H 17       H 18
 ------------------------------------------------------------------------------
     H   13   4.984381
     H   14   0.016091   5.202400
     H   15   0.016011   0.006636   5.202249
     H   16   0.000808   0.003825   0.003818   5.169700
     H   17   0.030991   0.071586   0.001003   0.000798   5.196850
     H   18   0.031038   0.001001   0.071160   0.000792   0.006776   5.196910
     H   19   0.000096   0.000526   0.000526   0.028223   0.000122   0.000121
     H   20   0.000221   0.001188   0.001194   0.104638   0.000604   0.000604
     H   21   0.000068   0.000403   0.000404   0.003285   0.000180   0.000179
     H   22   0.000050   0.000307   0.000307   0.004866   0.000163   0.000160


                  H 19       H 20       H 21       H 22
 ------------------------------------------------------
     H   19   5.140752
     H   20   0.035947   5.120088
     H   21   0.118024   0.025686   5.468869
     H   22   0.079434   0.002547   0.421972   5.497517


          HEAT OF FORMATION =      54.539322 KCALS/MOLE

          ZERO POINT ENERGY     116.524 KCAL/MOL


           NORMAL COORDINATE ANALYSIS (Total motion = 1 Angstrom)


   Root No.       1         2         3         4         5         6         7         8

                 1 A       2 A       3 A       4 A       5 A       6 A       7 A       8 A   

                  28.2      38.4      81.9     147.2     160.9     257.8     323.7     353.9
  
           1    0.0000   -0.0079    0.0001   -0.0001    0.0043   -0.0083    0.0000   -0.0062
           2   -0.0310   -0.0022   -0.0180    0.0119   -0.0011   -0.0016   -0.0215   -0.0015
           3    0.0019   -0.0352    0.0012   -0.0003   -0.0227   -0.0262    0.0013   -0.0263
           4    0.0000   -0.0042    0.0000   -0.0000    0.0028   -0.0265   -0.0000    0.0343
           5    0.0260    0.0043    0.0040   -0.0093   -0.0010   -0.0009    0.0047   -0.0005
           6   -0.0017    0.0726   -0.0009    0.0006   -0.0158   -0.0155   -0.0002   -0.0086
           7   -0.0238   -0.0085   -0.0091    0.0076    0.0043   -0.0184   -0.0106    0.0188
           8   -0.0151   -0.0019   -0.0118    0.0060    0.0000    0.0039   -0.0165   -0.0137
           9    0.0051   -0.0411    0.0060   -0.0171    0.0137   -0.0092   -0.0236   -0.0292
          10    0.0239   -0.0083    0.0092   -0.0077    0.0041   -0.0183    0.0106    0.0188
          11   -0.0156   -0.0031   -0.0124    0.0079    0.0018   -0.0050   -0.0137    0.0103
          12   -0.0032   -0.0412   -0.0039    0.0161    0.0141   -0.0085    0.0255   -0.0304
          13    0.0001    0.0058   -0.0001    0.0003   -0.0193    0.0264   -0.0001   -0.0073
          14   -0.0501   -0.0017   -0.0244    0.0050   -0.0025    0.0003    0.0488   -0.0003
          15    0.0030   -0.0226    0.0015    0.0004   -0.0454    0.0031   -0.0028   -0.0085
          16   -0.0238   -0.0083   -0.0091    0.0078    0.0045   -0.0192   -0.0111    0.0213
          17    0.0106    0.0010   -0.0019   -0.0041    0.0004    0.0044   -0.0027   -0.0095
          18    0.0039    0.0097    0.0058   -0.0240    0.0261    0.0331    0.0389    0.0187
          19    0.0239   -0.0081    0.0092   -0.0079    0.0043   -0.0191    0.0111    0.0213
          20    0.0100    0.0001   -0.0025   -0.0014    0.0025   -0.0006   -0.0072    0.0116
          21   -0.0052    0.0097   -0.0055    0.0236    0.0265    0.0333   -0.0386    0.0172
          22   -0.0000    0.0027   -0.0002    0.0002   -0.0203    0.0272   -0.0000   -0.0188
          23    0.0039    0.0004    0.0715    0.0488   -0.0018    0.0009    0.0229    0.0025
          24   -0.0002   -0.0041   -0.0042   -0.0023   -0.0399    0.0156   -0.0014    0.0427
          25   -0.0000    0.0194   -0.0003   -0.0001    0.0106    0.0253    0.0001   -0.0413
          26   -0.0048    0.0009    0.0543   -0.0478   -0.0014    0.0006   -0.0075    0.0017
          27    0.0003    0.0106   -0.0033    0.0030   -0.0111    0.0100    0.0004    0.0318
          28   -0.0002    0.0161    0.0001   -0.0001    0.0021    0.0318    0.0001   -0.0389
          29    0.0585    0.0016   -0.0535   -0.0093    0.0027   -0.0017   -0.0037   -0.0002
          30   -0.0035    0.0315    0.0030   -0.0002    0.0458   -0.0299    0.0002   -0.0020
          31    0.0000   -0.0189    0.0002   -0.0004    0.0324   -0.0218    0.0001   -0.0190
          32   -0.0377   -0.0018   -0.0181    0.0064   -0.0020   -0.0012   -0.0660   -0.0012
          33    0.0023   -0.0292    0.0012    0.0002   -0.0363   -0.0181    0.0039   -0.0185
          34   -0.0001    0.0696   -0.0007    0.0005   -0.0516   -0.1025    0.0004   -0.0171
          35    0.0408    0.0071    0.0127   -0.0323   -0.0033   -0.0037    0.0521   -0.0023
          36   -0.0027    0.1194   -0.0018    0.0023   -0.0505   -0.0643   -0.0027   -0.0421
          37    0.0002   -0.0695    0.0007   -0.0005    0.0510    0.0401   -0.0004    0.0812
          38    0.0370    0.0077    0.0056    0.0029   -0.0034   -0.0044   -0.0249   -0.0031
          39   -0.0025    0.1308   -0.0015    0.0003   -0.0590   -0.0757    0.0018   -0.0513
          40   -0.0420   -0.0101   -0.0161    0.0143    0.0043   -0.0239   -0.0205    0.0297
          41   -0.0260   -0.0027   -0.0161    0.0100   -0.0001    0.0005   -0.0222   -0.0070
          42    0.0091   -0.0876    0.0105   -0.0297    0.0380   -0.0043   -0.0573   -0.0507
          43    0.0421   -0.0097    0.0163   -0.0144    0.0039   -0.0239    0.0204    0.0297
          44   -0.0269   -0.0078   -0.0170    0.0132    0.0048   -0.0011   -0.0154    0.0012
          45   -0.0056   -0.0875   -0.0070    0.0276    0.0383   -0.0042    0.0598   -0.0508
          46    0.0002    0.0194    0.0000    0.0005   -0.0268    0.0482   -0.0002    0.0172
          47   -0.1063   -0.0031   -0.1107   -0.0675   -0.0031   -0.0002    0.1120   -0.0008
          48    0.0063   -0.0280    0.0066    0.0046   -0.0413   -0.0062   -0.0066   -0.0185
          49   -0.0419   -0.0103   -0.0161    0.0145    0.0049   -0.0161   -0.0210    0.0133
          50    0.0215    0.0023    0.0024   -0.0085    0.0007    0.0032    0.0039   -0.0038
          51    0.0069    0.0068    0.0103   -0.0454    0.0634    0.0872    0.0921    0.0596
          52    0.0420   -0.0099    0.0163   -0.0147    0.0045   -0.0161    0.0209    0.0133
          53    0.0206   -0.0014    0.0013   -0.0034    0.0064    0.0068   -0.0068    0.0105
          54   -0.0093    0.0071   -0.0102    0.0442    0.0638    0.0864   -0.0924    0.0581
          55    0.0002    0.0353   -0.0008   -0.0002    0.0468    0.0089    0.0003   -0.0648
          56   -0.0644    0.0005    0.1241   -0.1663   -0.0040    0.0009   -0.0562    0.0023
          57    0.0040    0.0044   -0.0075    0.0104   -0.0248    0.0157    0.0034    0.0404
          58   -0.0002   -0.0122   -0.0004    0.0002   -0.0373    0.0263    0.0001   -0.0324
          59    0.0594    0.0019    0.1555    0.1379   -0.0003    0.0008   -0.0149    0.0027
          60   -0.0034    0.0018   -0.0092   -0.0077   -0.0321    0.0153    0.0008    0.0471
          61   -0.0005    0.0005    0.0006    0.0002   -0.0423    0.0663   -0.0001   -0.0124
          62    0.1182    0.0020   -0.1273    0.1078    0.0057   -0.0026    0.0488   -0.0009
          63   -0.0072    0.0385    0.0074   -0.0077    0.0658   -0.0457   -0.0030   -0.0143
          64   -0.0002    0.0290    0.0001   -0.0003    0.0391    0.0035    0.0002   -0.0642
          65    0.0546    0.0019   -0.0762   -0.0925    0.0035   -0.0032   -0.0530   -0.0015
          66   -0.0033    0.0429    0.0043    0.0043    0.0790   -0.0556    0.0031   -0.0241


   Root No.       9        10        11        12        13        14        15        16

                 9 A      10 A      11 A      12 A      13 A      14 A      15 A      16 A   

                 436.6     453.5     558.2     586.6     589.8     623.2     751.9     776.1
  
           1   -0.0000   -0.0038   -0.0287    0.0369   -0.0002   -0.0000    0.0054    0.0000
           2   -0.0213   -0.0012    0.0022    0.0017   -0.0446   -0.0061    0.0011   -0.0009
           3    0.0012   -0.0219    0.0369    0.0294    0.0025    0.0006    0.0176    0.0003
           4    0.0001    0.0049    0.0288   -0.0335    0.0002    0.0000   -0.0112   -0.0002
           5    0.0067    0.0001    0.0000    0.0005    0.0460    0.0031   -0.0014    0.0009
           6   -0.0004    0.0022    0.0012    0.0077   -0.0027   -0.0001   -0.0243   -0.0007
           7   -0.0083    0.0004   -0.0020    0.0089    0.0732   -0.0014    0.0062   -0.0008
           8   -0.0189   -0.0022   -0.0213    0.0290   -0.0705   -0.0101    0.0088   -0.0021
           9    0.0427    0.0221   -0.0109   -0.0100   -0.0037    0.0046   -0.0227    0.0256
          10    0.0083    0.0003   -0.0020    0.0088   -0.0733    0.0014    0.0062    0.0010
          11   -0.0236    0.0049    0.0201   -0.0300   -0.0693   -0.0106   -0.0112   -0.0054
          12   -0.0402    0.0220   -0.0132   -0.0067    0.0118   -0.0034   -0.0207   -0.0260
          13   -0.0002   -0.0205   -0.0353   -0.0152    0.0000   -0.0002   -0.0132   -0.0002
          14    0.0406   -0.0027    0.0011   -0.0010   -0.0100    0.0350    0.0009   -0.0000
          15   -0.0025   -0.0415    0.0222   -0.0159    0.0007   -0.0020    0.0169    0.0003
          16   -0.0105    0.0005    0.0001    0.0078    0.0747   -0.0028    0.0070   -0.0020
          17   -0.0022   -0.0030   -0.0210    0.0307    0.0754   -0.0005    0.0131   -0.0008
          18   -0.0241   -0.0121    0.0088    0.0043   -0.0005   -0.0022   -0.0067    0.0230
          19    0.0106    0.0003    0.0002    0.0077   -0.0748    0.0028    0.0070    0.0023
          20    0.0007    0.0016    0.0218   -0.0298    0.0752   -0.0001   -0.0137   -0.0039
          21    0.0241   -0.0125    0.0062    0.0077   -0.0082    0.0023   -0.0042   -0.0228
          22   -0.0002   -0.0250   -0.0246   -0.0190    0.0000   -0.0001   -0.0117   -0.0002
          23    0.0180    0.0004   -0.0019   -0.0002   -0.0013    0.0221   -0.0007    0.0045
          24   -0.0010    0.0111   -0.0292   -0.0033    0.0001   -0.0015   -0.0102   -0.0005
          25    0.0001    0.0139    0.0276   -0.0008    0.0000    0.0003    0.0026    0.0001
          26    0.0024    0.0029    0.0007    0.0013    0.0024   -0.0606    0.0003   -0.0020
          27    0.0001    0.0485    0.0079    0.0212   -0.0002    0.0036    0.0042    0.0002
          28    0.0002    0.0253    0.0347    0.0025    0.0000    0.0001    0.0043    0.0001
          29   -0.0034   -0.0012   -0.0004   -0.0001   -0.0005    0.0067    0.0001   -0.0002
          30    0.0001   -0.0223   -0.0087   -0.0022    0.0000   -0.0004    0.0010    0.0000
          31    0.0001    0.0307   -0.0559    0.0604   -0.0003   -0.0001   -0.0294   -0.0008
          32    0.0035   -0.0022    0.0029    0.0010   -0.0053   -0.0127    0.0013    0.0463
          33   -0.0003   -0.0385    0.0491    0.0161    0.0003    0.0010    0.0358   -0.0020
          34    0.0002    0.0569   -0.0162   -0.0951    0.0003   -0.0003    0.0838    0.0020
          35   -0.0207    0.0021   -0.0016   -0.0018    0.0037    0.0005    0.0013    0.0553
          36    0.0013    0.0363   -0.0288   -0.0330   -0.0002   -0.0002    0.0390   -0.0023
          37   -0.0001   -0.0407    0.0717    0.0167    0.0001    0.0003   -0.0967   -0.0022
          38    0.0452    0.0024   -0.0023   -0.0024   -0.0214    0.0107    0.0039   -0.0357
          39   -0.0025    0.0442   -0.0382   -0.0392    0.0013   -0.0008    0.0547    0.0033
          40   -0.0188    0.0032    0.0152   -0.0111    0.0314   -0.0066    0.0036   -0.0039
          41   -0.0249   -0.0006   -0.0106    0.0168   -0.0947   -0.0131    0.0070   -0.0035
          42    0.1141    0.0760   -0.0814   -0.1026   -0.0162    0.0256    0.0588   -0.1668
          43    0.0189    0.0030    0.0151   -0.0112   -0.0313    0.0067    0.0035    0.0042
          44   -0.0378    0.0097    0.0014   -0.0285   -0.0920   -0.0161   -0.0007    0.0158
          45   -0.1100    0.0761   -0.0815   -0.0993    0.0275   -0.0250    0.0534    0.1690
          46   -0.0003   -0.0085   -0.0768   -0.0426    0.0001   -0.0004   -0.0492   -0.0009
          47    0.1272   -0.0032    0.0021   -0.0001   -0.0061   -0.0059    0.0014    0.0283
          48   -0.0077   -0.0453    0.0387   -0.0040    0.0004    0.0005    0.0313   -0.0011
          49   -0.0241   -0.0015   -0.0180    0.0338    0.0352   -0.0106    0.0211   -0.0047
          50    0.0052   -0.0018   -0.0103    0.0142    0.0980    0.0041    0.0078   -0.0023
          51   -0.0593   -0.0167   -0.0140   -0.0507    0.0011    0.0022    0.1730   -0.1767
          52    0.0241   -0.0018   -0.0180    0.0337   -0.0355    0.0106    0.0209    0.0054
          53    0.0120   -0.0003    0.0086   -0.0196    0.0974    0.0038    0.0115    0.0186
          54    0.0582   -0.0172   -0.0149   -0.0481   -0.0120   -0.0032    0.1661    0.1831
          55    0.0002    0.0061    0.0489    0.0002    0.0001   -0.0000    0.0112    0.0002
          56   -0.0417    0.0032   -0.0001    0.0011   -0.0034    0.0327    0.0001   -0.0059
          57    0.0028    0.0495   -0.0010    0.0201    0.0001   -0.0020    0.0008    0.0004
          58   -0.0002   -0.0673   -0.0306   -0.0412    0.0001   -0.0004   -0.0123   -0.0002
          59   -0.0416    0.0016   -0.0019    0.0001   -0.0020    0.1309   -0.0005   -0.0021
          60    0.0026    0.0275   -0.0261    0.0058    0.0001   -0.0079   -0.0098   -0.0001
          61    0.0004    0.1041    0.0685    0.0370   -0.0001    0.0009    0.0214    0.0004
          62    0.0504   -0.0036   -0.0008   -0.0008    0.0108   -0.2208   -0.0003   -0.0079
          63   -0.0034   -0.0591   -0.0245   -0.0185   -0.0006    0.0136   -0.0070    0.0004
          64   -0.0000   -0.0404    0.0117   -0.0273    0.0002   -0.0010   -0.0085   -0.0002
          65   -0.0644   -0.0044   -0.0026   -0.0022   -0.0158    0.3377   -0.0008    0.0124
          66    0.0034   -0.0825   -0.0310   -0.0294    0.0011   -0.0205   -0.0110   -0.0009


   Root No.      17        18        19        20        21        22        23        24

                17 A      18 A      19 A      20 A      21 A      22 A      23 A      24 A   

                 876.6     909.9     918.5     921.2     945.0     955.4     970.3     981.3
  
           1   -0.0256   -0.0001   -0.0234   -0.0003   -0.0031    0.0001   -0.0001    0.0303
           2   -0.0010    0.0039   -0.0009   -0.0031    0.0004   -0.0047   -0.0063    0.0012
           3   -0.0165   -0.0003   -0.0155    0.0000    0.0075    0.0003    0.0003    0.0213
           4   -0.0258   -0.0001   -0.0347   -0.0004    0.0048   -0.0000   -0.0000    0.0162
           5    0.0022    0.0031   -0.0023   -0.0024    0.0004   -0.0031   -0.0047    0.0009
           6    0.0379   -0.0003   -0.0390   -0.0003    0.0068    0.0002    0.0001    0.0159
           7    0.0163   -0.0001    0.0164    0.0001   -0.0012   -0.0006   -0.0009   -0.0055
           8   -0.0236   -0.0084   -0.0383    0.0059    0.0116    0.0064    0.0086   -0.0311
           9   -0.0145    0.0010    0.0245    0.0009   -0.0040    0.0040   -0.0240    0.0018
          10    0.0163    0.0002    0.0164    0.0003   -0.0012    0.0006    0.0009   -0.0055
          11    0.0217   -0.0082    0.0409    0.0068   -0.0118    0.0062    0.0110    0.0313
          12   -0.0171    0.0001    0.0200   -0.0011   -0.0027   -0.0046    0.0227   -0.0016
          13   -0.0086   -0.0001   -0.0035    0.0000   -0.0136    0.0001   -0.0000    0.0046
          14    0.0011    0.0435    0.0003   -0.0436   -0.0008   -0.0342   -0.0078   -0.0007
          15    0.0190   -0.0025    0.0023    0.0026   -0.0092    0.0020    0.0005   -0.0127
          16    0.0177   -0.0029    0.0141    0.0023    0.0004    0.0020    0.0039   -0.0085
          17    0.0318   -0.0030    0.0261    0.0026   -0.0021    0.0032    0.0051    0.0140
          18   -0.0087    0.0029    0.0137   -0.0027   -0.0041   -0.0051    0.0217   -0.0194
          19    0.0177    0.0030    0.0141   -0.0019    0.0004   -0.0021   -0.0039   -0.0086
          20   -0.0326   -0.0035   -0.0244    0.0023    0.0017    0.0037    0.0026   -0.0161
          21   -0.0050   -0.0024    0.0166    0.0028   -0.0043    0.0047   -0.0219   -0.0179
          22   -0.0063    0.0001   -0.0014    0.0001   -0.0127    0.0000   -0.0000    0.0042
          23   -0.0003   -0.0347    0.0007   -0.0307    0.0019    0.0454    0.0053    0.0001
          24   -0.0045    0.0021    0.0064    0.0019    0.0275   -0.0028   -0.0003    0.0032
          25    0.0026    0.0001    0.0031    0.0000    0.0108    0.0001    0.0000   -0.0011
          26   -0.0001   -0.0240   -0.0001    0.0005    0.0001   -0.0312   -0.0026    0.0002
          27   -0.0022    0.0015   -0.0031   -0.0001    0.0037    0.0019    0.0002    0.0035
          28    0.0041    0.0001    0.0057    0.0001    0.0247   -0.0001    0.0000   -0.0013
          29   -0.0000   -0.0012   -0.0005    0.0021   -0.0031   -0.0211   -0.0031   -0.0001
          30   -0.0005    0.0000   -0.0089   -0.0003   -0.0502    0.0015    0.0002   -0.0024
          31   -0.0869   -0.0001   -0.0325   -0.0005   -0.0078    0.0001   -0.0004    0.1003
          32    0.0009    0.0040   -0.0007   -0.0101    0.0006   -0.0037   -0.1072   -0.0017
          33    0.0151   -0.0003   -0.0116    0.0005    0.0105    0.0002    0.0063   -0.0167
          34   -0.1316    0.0002    0.0605    0.0006   -0.0106   -0.0000    0.0003   -0.0228
          35   -0.0018    0.0186    0.0016   -0.0155   -0.0004   -0.0297    0.0524   -0.0003
          36   -0.0301   -0.0010    0.0254    0.0012   -0.0038    0.0017   -0.0030   -0.0087
          37    0.0537   -0.0005   -0.1375   -0.0016    0.0219   -0.0001   -0.0003    0.0564
          38   -0.0021    0.0095    0.0030   -0.0045   -0.0005   -0.0034   -0.0875   -0.0018
          39   -0.0370   -0.0004    0.0529    0.0009   -0.0084    0.0002    0.0052   -0.0221
          40    0.0115   -0.0008    0.0022    0.0023    0.0115   -0.0030   -0.0057   -0.0964
          41   -0.0270   -0.0087   -0.0472    0.0070    0.0193    0.0049    0.0051   -0.0845
          42    0.1405    0.0066   -0.1324   -0.0099    0.0153   -0.0268    0.1379   -0.0153
          43    0.0116    0.0008    0.0022   -0.0023    0.0116    0.0026    0.0061   -0.0963
          44    0.0430   -0.0092    0.0315    0.0089   -0.0172    0.0085   -0.0112    0.0821
          45    0.1366   -0.0064   -0.1374    0.0059    0.0178    0.0257   -0.1367   -0.0259
          46   -0.0142    0.0002    0.0206   -0.0004   -0.0233   -0.0001   -0.0001   -0.0062
          47    0.0012   -0.1328   -0.0030    0.3651    0.0002    0.0958    0.0204   -0.0007
          48    0.0206    0.0079   -0.0076   -0.0218   -0.0052   -0.0057   -0.0011   -0.0077
          49    0.0167   -0.0158    0.0033    0.0122    0.0125    0.0138    0.0244   -0.1007
          50    0.0323    0.0041    0.0322   -0.0028   -0.0087   -0.0031   -0.0094    0.0689
          51   -0.0453   -0.0206   -0.0199    0.0189    0.0154    0.0319   -0.1339    0.0787
          52    0.0168    0.0159    0.0034   -0.0122    0.0123   -0.0143   -0.0239   -0.1010
          53   -0.0373    0.0062   -0.0342   -0.0058    0.0103   -0.0070    0.0063   -0.0593
          54   -0.0413    0.0200   -0.0161   -0.0189    0.0139   -0.0313    0.1332    0.0876
          55    0.0109   -0.0010   -0.0059   -0.0003   -0.0721   -0.0004   -0.0000   -0.0167
          56   -0.0004    0.2634   -0.0014    0.0454    0.0031    0.1717    0.0136    0.0004
          57   -0.0054   -0.0161    0.0007   -0.0028    0.0374   -0.0106   -0.0009    0.0098
          58    0.0006   -0.0005   -0.0054   -0.0009   -0.0854    0.0008    0.0000   -0.0042
          59   -0.0004    0.1360   -0.0027    0.3346    0.0019   -0.1429   -0.0127    0.0005
          60   -0.0075   -0.0080    0.0082   -0.0197    0.0568    0.0081    0.0007    0.0070
          61    0.0061   -0.0007   -0.0360   -0.0007   -0.2087    0.0003   -0.0000   -0.0160
          62   -0.0001    0.1582   -0.0003    0.0188    0.0037    0.1609    0.0180   -0.0000
          63   -0.0013   -0.0097    0.0109   -0.0010    0.0598   -0.0101   -0.0011    0.0045
          64    0.0055    0.0004    0.0438    0.0008    0.2286   -0.0015   -0.0001    0.0081
          65    0.0001   -0.0636    0.0021   -0.0308    0.0095    0.0980    0.0148    0.0002
          66    0.0003    0.0040    0.0254    0.0023    0.1348   -0.0066   -0.0009    0.0066


   Root No.      25        26        27        28        29        30        31        32

                25 A      26 A      27 A      28 A      29 A      30 A      31 A      32 A   

                1010.6    1011.9    1027.0    1031.1    1064.7    1070.8    1124.2    1146.8
  
           1   -0.0039    0.0001    0.0381    0.0003   -0.0000    0.0000   -0.0184    0.0000
           2    0.0001    0.0187    0.0015   -0.0010    0.0053    0.0035   -0.0014    0.0135
           3   -0.0098   -0.0008    0.0256    0.0002   -0.0003   -0.0002   -0.0241   -0.0008
           4    0.0530   -0.0012   -0.0297   -0.0002   -0.0000   -0.0000    0.0034    0.0000
           5   -0.0011    0.0176   -0.0012   -0.0020    0.0060   -0.0185   -0.0001    0.0001
           6   -0.0296   -0.0003   -0.0211   -0.0000   -0.0003    0.0011   -0.0017   -0.0000
           7   -0.0124    0.0078    0.0048   -0.0009    0.0036   -0.0118   -0.0015    0.0004
           8    0.0208   -0.0195   -0.0276    0.0009   -0.0039   -0.0039    0.0032   -0.0054
           9   -0.0138   -0.0177   -0.0299    0.0034   -0.0123   -0.0132   -0.0080    0.0031
          10   -0.0129   -0.0072    0.0048    0.0010   -0.0035    0.0119   -0.0015   -0.0004
          11   -0.0235   -0.0162    0.0239    0.0008   -0.0024   -0.0023   -0.0041   -0.0057
          12   -0.0100    0.0203   -0.0329   -0.0039    0.0128    0.0136   -0.0076   -0.0025
          13   -0.0038    0.0001    0.0047   -0.0000    0.0000    0.0000   -0.0326    0.0000
          14    0.0002   -0.0105   -0.0006    0.0152   -0.0046    0.0019    0.0030   -0.0035
          15    0.0090    0.0004   -0.0103   -0.0009    0.0003   -0.0002    0.0524    0.0002
          16   -0.0004   -0.0051   -0.0063    0.0001    0.0004   -0.0063    0.0021   -0.0034
          17    0.0370   -0.0197   -0.0261    0.0019   -0.0032    0.0158    0.0055   -0.0010
          18    0.0287    0.0018    0.0309    0.0005    0.0359    0.0051    0.0018   -0.0012
          19   -0.0000    0.0050   -0.0063   -0.0002   -0.0004    0.0063    0.0021    0.0035
          20   -0.0347   -0.0183    0.0295    0.0023   -0.0073    0.0152   -0.0053   -0.0008
          21    0.0328   -0.0010    0.0277   -0.0003   -0.0354   -0.0070    0.0024    0.0013
          22   -0.0041    0.0001    0.0031    0.0000   -0.0000    0.0000   -0.0212    0.0000
          23    0.0000    0.0046    0.0001   -0.0263    0.0024   -0.0004    0.0004    0.0013
          24   -0.0019   -0.0002   -0.0004    0.0016   -0.0001    0.0000    0.0065   -0.0001
          25    0.0007   -0.0000   -0.0011   -0.0002    0.0000   -0.0000   -0.0010    0.0000
          26    0.0001    0.0032    0.0001    0.0504   -0.0014    0.0002    0.0002   -0.0002
          27    0.0003   -0.0002    0.0062   -0.0030    0.0001   -0.0000    0.0048    0.0000
          28    0.0018   -0.0000   -0.0012    0.0003   -0.0000   -0.0000    0.0089    0.0000
          29   -0.0004   -0.0084    0.0002   -0.0654    0.0010   -0.0003   -0.0004    0.0001
          30   -0.0016    0.0005   -0.0028    0.0039   -0.0001    0.0000   -0.0072    0.0000
          31   -0.0539    0.0012    0.0819    0.0008   -0.0001   -0.0002    0.3465   -0.0002
          32    0.0085    0.2129    0.0004   -0.0366    0.0105    0.2387   -0.0119   -0.0802
          33    0.0156   -0.0126    0.0024    0.0020   -0.0006   -0.0137   -0.2105    0.0047
          34    0.1384   -0.0032    0.0092    0.0001   -0.0000   -0.0001    0.0111    0.0000
          35    0.0067    0.1688    0.0001   -0.0315   -0.2954   -0.1645   -0.0000   -0.0883
          36    0.0240   -0.0103    0.0056    0.0019    0.0171    0.0095    0.0028    0.0051
          37    0.0223   -0.0004   -0.0921   -0.0006   -0.0000   -0.0000    0.0040    0.0000
          38    0.0027    0.0676    0.0023   -0.0000    0.3316   -0.1598   -0.0003   -0.1303
          39    0.0003   -0.0040    0.0337    0.0002   -0.0192    0.0093   -0.0016    0.0075
          40   -0.0791    0.0643   -0.0117   -0.0099    0.0302   -0.1054    0.0180    0.1137
          41   -0.0162    0.0140   -0.0395   -0.0044    0.0118   -0.0571    0.0149    0.0624
          42    0.0523    0.0463    0.0977   -0.0086    0.0221    0.0244    0.0051   -0.0039
          43   -0.0833   -0.0609   -0.0118    0.0097   -0.0303    0.1053    0.0179   -0.1143
          44    0.0226    0.0078    0.0505   -0.0027    0.0091   -0.0595   -0.0142    0.0627
          45    0.0473   -0.0498    0.0928    0.0102   -0.0236   -0.0178    0.0068   -0.0034
          46   -0.0182    0.0003   -0.0435   -0.0001    0.0000   -0.0000    0.0104   -0.0005
          47    0.0021    0.0377    0.0005   -0.0429    0.0114    0.0057    0.0023    0.0058
          48    0.0145   -0.0026    0.0098    0.0026   -0.0007   -0.0004    0.0358   -0.0001
          49   -0.0715   -0.0508   -0.0042    0.0026   -0.0231   -0.0294    0.0189   -0.1691
          50    0.0784    0.0076   -0.0315    0.0003    0.0097    0.0269   -0.0040    0.0964
          51   -0.1082   -0.0143   -0.0963    0.0006   -0.0627   -0.0115   -0.0068   -0.0026
          52   -0.0678    0.0537   -0.0040   -0.0027    0.0231    0.0293    0.0195    0.1697
          53   -0.0896    0.0132    0.0202    0.0005    0.0169    0.0281    0.0035    0.0963
          54   -0.0984    0.0179   -0.0998   -0.0019    0.0616    0.0085   -0.0072   -0.0085
          55    0.0016   -0.0001   -0.0262    0.0005   -0.0000   -0.0001    0.0488   -0.0003
          56   -0.0002   -0.0082    0.0016   -0.1429    0.0036    0.0000   -0.0005    0.0004
          57    0.0001    0.0005    0.0163    0.0088   -0.0002    0.0000   -0.0138    0.0001
          58   -0.0077    0.0002   -0.0164   -0.0003    0.0000   -0.0000    0.1645   -0.0001
          59   -0.0004   -0.0099    0.0001    0.0719   -0.0061    0.0034   -0.0034   -0.0046
          60   -0.0006    0.0006    0.0077   -0.0042    0.0004   -0.0002   -0.0643    0.0003
          61   -0.0033   -0.0001   -0.0185   -0.0012    0.0000   -0.0000    0.0036   -0.0000
          62    0.0011    0.0304   -0.0010    0.2153   -0.0032    0.0014   -0.0002   -0.0006
          63    0.0008   -0.0019    0.0053   -0.0131    0.0002   -0.0001   -0.0028    0.0001
          64    0.0077   -0.0003    0.0081   -0.0007    0.0000   -0.0000    0.0490   -0.0000
          65    0.0015    0.0357   -0.0010    0.2499   -0.0032    0.0010    0.0018   -0.0003
          66    0.0035   -0.0022    0.0065   -0.0152    0.0002   -0.0001    0.0267   -0.0000


   Root No.      33        34        35        36        37        38        39        40

                33 A      34 A      35 A      36 A      37 A      38 A      39 A      40 A   

                1151.9    1160.9    1211.2    1219.4    1226.8    1270.9    1290.9    1344.2
  
           1   -0.0063   -0.0046   -0.0124    0.0001    0.0181   -0.0240    0.0181    0.0294
           2    0.0015    0.0013    0.0014   -0.0284   -0.0006    0.0016   -0.0011   -0.0007
           3    0.0249    0.0225    0.0252    0.0016   -0.0105    0.0271   -0.0184   -0.0119
           4   -0.0044    0.0029    0.0024   -0.0000   -0.0036    0.0055   -0.0050   -0.0152
           5   -0.0002   -0.0000   -0.0000    0.0208    0.0000   -0.0001    0.0000    0.0001
           6   -0.0028   -0.0008   -0.0010   -0.0012    0.0009   -0.0013    0.0007    0.0018
           7    0.0036   -0.0022   -0.0021   -0.0160    0.0035   -0.0082    0.0114   -0.0067
           8   -0.0021   -0.0004   -0.0012   -0.0093    0.0020   -0.0084    0.0127   -0.0136
           9   -0.0068   -0.0049   -0.0035   -0.0016    0.0039   -0.0046    0.0023    0.0024
          10    0.0036   -0.0022   -0.0020    0.0160    0.0034   -0.0082    0.0114   -0.0067
          11    0.0013   -0.0002    0.0008   -0.0091   -0.0016    0.0078   -0.0123    0.0138
          12   -0.0070   -0.0049   -0.0036    0.0027    0.0041   -0.0055    0.0037    0.0008
          13   -0.0015   -0.0104   -0.0106    0.0000   -0.0036   -0.0031   -0.0168    0.0061
          14   -0.0007   -0.0003   -0.0013    0.0063   -0.0010   -0.0025    0.0009    0.0009
          15   -0.0125   -0.0043   -0.0222   -0.0003   -0.0177   -0.0427    0.0152    0.0141
          16   -0.0033    0.0029    0.0009   -0.0146   -0.0001   -0.0032    0.0073   -0.0114
          17    0.0040    0.0003    0.0049    0.0127   -0.0071    0.0145   -0.0178    0.0074
          18    0.0028    0.0017    0.0012    0.0005   -0.0009    0.0012   -0.0006   -0.0006
          19   -0.0033    0.0029    0.0010    0.0146   -0.0002   -0.0032    0.0073   -0.0114
          20   -0.0037   -0.0001   -0.0046    0.0126    0.0070   -0.0143    0.0176   -0.0074
          21    0.0033    0.0017    0.0018   -0.0020   -0.0017    0.0028   -0.0026    0.0003
          22   -0.0037   -0.0166   -0.0039    0.0000   -0.0050    0.0095   -0.0200   -0.0040
          23    0.0005    0.0009   -0.0012   -0.0020    0.0008    0.0031    0.0009   -0.0011
          24    0.0077    0.0146   -0.0191    0.0002    0.0144    0.0522    0.0152   -0.0192
          25   -0.0009   -0.0028    0.0005   -0.0000   -0.0103   -0.0013   -0.0071   -0.0162
          26   -0.0003   -0.0004    0.0010    0.0001    0.0016   -0.0027   -0.0016    0.0009
          27   -0.0045   -0.0067    0.0169   -0.0000    0.0267   -0.0441   -0.0251    0.0163
          28   -0.0022   -0.0037    0.0093   -0.0000   -0.0083    0.0052    0.0064   -0.0126
          29   -0.0001   -0.0005    0.0004   -0.0000   -0.0010    0.0009    0.0005   -0.0004
          30   -0.0022   -0.0085    0.0053   -0.0000   -0.0167    0.0139    0.0076   -0.0061
          31    0.0248   -0.0101   -0.0406    0.0000   -0.0985    0.0357   -0.0442   -0.0253
          32    0.0005    0.0016    0.0024    0.0775    0.0026   -0.0003    0.0008    0.0010
          33    0.0107    0.0258    0.0387   -0.0046    0.0477   -0.0052    0.0147    0.0166
          34   -0.0078    0.0117    0.0110   -0.0000   -0.0160    0.0401   -0.0610    0.1226
          35   -0.0004    0.0001    0.0000   -0.0779   -0.0003    0.0010   -0.0017    0.0044
          36   -0.0027    0.0034    0.0036    0.0045   -0.0058    0.0173   -0.0293    0.0759
          37   -0.0186    0.0078    0.0068   -0.0001   -0.0119    0.0332   -0.0537    0.1106
          38    0.0001   -0.0003   -0.0004   -0.0796    0.0005   -0.0013    0.0022   -0.0055
          39    0.0068   -0.0032   -0.0039    0.0046    0.0069   -0.0221    0.0377   -0.0951
          40    0.1444   -0.0834   -0.0069    0.1475   -0.0054    0.0252   -0.0459    0.0503
          41    0.0816   -0.0486   -0.0039    0.0869   -0.0035    0.0117   -0.0214    0.0191
          42    0.0145    0.0136    0.0091   -0.0006   -0.0067    0.0085   -0.0046   -0.0039
          43    0.1438   -0.0837   -0.0077   -0.1475   -0.0052    0.0252   -0.0459    0.0502
          44   -0.0790    0.0500    0.0054    0.0864    0.0026   -0.0106    0.0207   -0.0195
          45    0.0237    0.0080    0.0086   -0.0095   -0.0070    0.0097   -0.0070   -0.0016
          46    0.1213    0.2197    0.1415   -0.0005   -0.1251   -0.1300    0.0397    0.0309
          47   -0.0034   -0.0053   -0.0050   -0.0124    0.0015    0.0002   -0.0004    0.0003
          48   -0.0617   -0.0961   -0.0864    0.0010    0.0297    0.0068   -0.0079    0.0051
          49   -0.1286    0.0789    0.0276    0.1174   -0.0328    0.0583   -0.0679    0.0279
          50    0.0789   -0.0449   -0.0105   -0.0652    0.0116   -0.0209    0.0258   -0.0168
          51   -0.0019    0.0010    0.0018    0.0007   -0.0007    0.0026   -0.0018   -0.0012
          52   -0.1279    0.0790    0.0271   -0.1176   -0.0325    0.0582   -0.0678    0.0280
          53   -0.0781    0.0448    0.0104   -0.0649   -0.0115    0.0210   -0.0258    0.0165
          54    0.0071   -0.0041    0.0006    0.0068    0.0006    0.0002    0.0012   -0.0031
          55    0.0693    0.1842   -0.2268    0.0005    0.1751   -0.0131   -0.0546    0.0137
          56   -0.0017   -0.0041    0.0056   -0.0005   -0.0019   -0.0026   -0.0007    0.0003
          57   -0.0324   -0.0806    0.1062   -0.0002   -0.0431   -0.0413   -0.0087    0.0049
          58   -0.0021   -0.0109    0.2323   -0.0002    0.2294    0.0542    0.0001   -0.0306
          59    0.0004    0.0006   -0.0061    0.0063   -0.0040    0.0023    0.0004   -0.0007
          60    0.0068    0.0120   -0.1146   -0.0002   -0.0764    0.0374    0.0065   -0.0107
          61    0.0002   -0.0045    0.0120   -0.0000   -0.0435    0.1399    0.1552    0.1011
          62   -0.0002   -0.0006    0.0005    0.0002   -0.0002   -0.0021   -0.0027   -0.0028
          63   -0.0037   -0.0087    0.0071   -0.0000   -0.0000   -0.0430   -0.0537   -0.0524
          64    0.0005    0.0134    0.0237   -0.0000    0.0392    0.0437    0.0919    0.1026
          65   -0.0000    0.0004    0.0012    0.0001    0.0017    0.0027    0.0050    0.0059
          66   -0.0005    0.0050    0.0191   -0.0000    0.0257    0.0415    0.0755    0.0909


   Root No.      41        42        43        44        45        46        47        48

                41 A      42 A      43 A      44 A      45 A      46 A      47 A      48 A   

                1371.6    1373.8    1408.2    1460.9    1838.2    1873.7    1881.5    1895.0
  
           1   -0.0003    0.0139    0.0560   -0.0000    0.0163   -0.0000    0.0218   -0.0170
           2    0.0982    0.0003   -0.0012   -0.0721   -0.0005   -0.0262   -0.0005   -0.0002
           3   -0.0055   -0.0105   -0.0211    0.0042   -0.0097    0.0015   -0.0087   -0.0035
           4    0.0006   -0.0369    0.0323   -0.0000   -0.0013   -0.0000   -0.0083    0.0219
           5    0.0637    0.0008   -0.0000    0.1233    0.0000   -0.0298    0.0000   -0.0001
           6   -0.0037    0.0030   -0.0017   -0.0071    0.0001    0.0017    0.0004   -0.0010
           7    0.0016    0.0094   -0.0171    0.0297   -0.0051    0.1366   -0.0375    0.1042
           8   -0.0386    0.0042   -0.0197    0.0458   -0.0002    0.0213   -0.0043    0.0145
           9    0.0025    0.0007    0.0027   -0.0019   -0.0006   -0.0017   -0.0004   -0.0016
          10   -0.0019    0.0094   -0.0171   -0.0296   -0.0051   -0.1367   -0.0377    0.1041
          11   -0.0385   -0.0048    0.0198    0.0457    0.0002    0.0214    0.0042   -0.0145
          12    0.0019    0.0013    0.0004   -0.0034   -0.0006   -0.0008   -0.0009    0.0001
          13    0.0004   -0.0215   -0.0202    0.0000   -0.0999    0.0001   -0.1204   -0.0510
          14   -0.0114    0.0002    0.0009    0.0052    0.0002   -0.0029   -0.0002   -0.0000
          15    0.0006    0.0051    0.0156   -0.0003    0.0062    0.0002    0.0009    0.0011
          16   -0.0159    0.0038   -0.0201    0.0220    0.0053   -0.1372    0.0383   -0.1041
          17   -0.0146   -0.0120    0.0175   -0.0625   -0.0012    0.0239   -0.0061    0.0153
          18    0.0002   -0.0003   -0.0005    0.0011   -0.0001    0.0005   -0.0002    0.0006
          19    0.0158    0.0041   -0.0201   -0.0220    0.0053    0.1373    0.0384   -0.1040
          20   -0.0149    0.0116   -0.0175   -0.0622    0.0012    0.0237    0.0060   -0.0151
          21    0.0015   -0.0016    0.0015    0.0061   -0.0002   -0.0033   -0.0010    0.0024
          22    0.0003   -0.0174   -0.0241    0.0000    0.0702   -0.0001    0.1362    0.0544
          23    0.0032    0.0016    0.0011   -0.0017    0.0010   -0.0000   -0.0004   -0.0001
          24   -0.0007    0.0272    0.0187    0.0001    0.0141    0.0000   -0.0119   -0.0040
          25   -0.0003    0.0177    0.0095   -0.0000    0.1635    0.0001   -0.0854   -0.0250
          26    0.0006   -0.0017   -0.0012   -0.0005    0.0007    0.0000    0.0006    0.0002
          27    0.0005   -0.0284   -0.0209    0.0001    0.0021   -0.0000    0.0144    0.0054
          28   -0.0004    0.0222    0.0175   -0.0000   -0.1479   -0.0001    0.0550    0.0145
          29   -0.0001    0.0006    0.0004    0.0000   -0.0018   -0.0000    0.0008    0.0002
          30   -0.0002    0.0090    0.0059   -0.0000   -0.0195   -0.0000    0.0089    0.0025
          31    0.0005   -0.0264   -0.0500    0.0001   -0.0174    0.0000   -0.0195   -0.0109
          32   -0.1171   -0.0005    0.0019    0.0554    0.0004   -0.0221    0.0005   -0.0001
          33    0.0066    0.0108    0.0339   -0.0033    0.0068    0.0013    0.0093   -0.0015
          34   -0.0021    0.1308   -0.0626    0.0000   -0.0006   -0.0000   -0.0036    0.0097
          35   -0.0932    0.0045   -0.0032   -0.1144    0.0000   -0.0242    0.0001   -0.0002
          36    0.0039    0.0933   -0.0528    0.0066    0.0002    0.0014    0.0014   -0.0035
          37   -0.0018    0.1140   -0.0499    0.0000   -0.0007   -0.0000   -0.0053    0.0140
          38   -0.1022   -0.0075    0.0035   -0.1223   -0.0000   -0.0290   -0.0000    0.0001
          39    0.0077   -0.1136    0.0619    0.0071   -0.0001    0.0017   -0.0005    0.0012
          40   -0.0379   -0.0160    0.0700   -0.0662    0.0016    0.0206   -0.0007    0.0064
          41   -0.0636   -0.0117    0.0310   -0.0127    0.0043   -0.0754    0.0248   -0.0651
          42   -0.0014   -0.0016   -0.0053    0.0011   -0.0007    0.0019   -0.0008    0.0008
          43    0.0382   -0.0153    0.0700    0.0661    0.0016   -0.0206   -0.0008    0.0064
          44   -0.0633    0.0103   -0.0315   -0.0127   -0.0044   -0.0752   -0.0248    0.0648
          45    0.0087   -0.0028   -0.0017    0.0003   -0.0002    0.0068    0.0020   -0.0067
          46    0.0000    0.0084    0.0289   -0.0001    0.0107   -0.0000    0.0119    0.0033
          47    0.0222   -0.0003   -0.0002   -0.0109   -0.0031   -0.0009   -0.0045   -0.0018
          48   -0.0013   -0.0078   -0.0043    0.0007   -0.0531    0.0001   -0.0757   -0.0310
          49    0.0724   -0.0380    0.0587   -0.0502   -0.0008   -0.0187    0.0004   -0.0046
[...]
 EFFECTIVE MASS      5.5930
 FORCE CONSTANT      0.4951

 VIBRATION         43   43A           ATOM PAIR      ENERGY CONTRIBUTION    RADIAL
 FREQUENCY          1408.16         C  1 -- C  5         +12.2% ( 52.2%)     85.6%
 TRANSITION DIPOLE   0.1411         C  1 -- C  3         +11.2% ( 49.9%)     49.4%
 TRAVEL (Ang.)       0.2063         C  1 -- C  4         +11.1% ( 49.9%)     49.2%
 REDUCED MASS        1.1254         C  1 -- H 11          +9.2% ( 45.4%)      0.4%
 EFFECTIVE MASS      8.6474
 FORCE CONSTANT      1.3148

 VIBRATION         44   44A           ATOM PAIR      ENERGY CONTRIBUTION    RADIAL
 FREQUENCY          1460.90         C  2 -- C  6         +17.4% ( 65.7%)     80.3%
 TRANSITION DIPOLE   0.0687         C  2 -- C  7         +17.3% ( 65.7%)     80.3%
 TRAVEL (Ang.)       0.1363         C  2 -- H 13         +11.7% ( 54.0%)      0.0%
 REDUCED MASS        2.4830         C  2 -- H 12         +11.5% ( 53.5%)      0.0%
 EFFECTIVE MASS     10.8738
 FORCE CONSTANT      3.1222

 VIBRATION         45   45A           ATOM PAIR      ENERGY CONTRIBUTION    RADIAL
 FREQUENCY          1838.20         C  9 -- C 10         +35.7% ( 88.1%)     99.2%
 TRANSITION DIPOLE   0.0108         C  8 -- C  9         +12.5% ( 52.1%)     56.5%
 TRAVEL (Ang.)       0.1030         C  9 -- H 19         +11.5% ( 50.1%)      4.8%
 REDUCED MASS        3.4552         C  5 -- C  8         +10.5% ( 47.8%)     98.6%
 EFFECTIVE MASS     11.8441
 FORCE CONSTANT      6.8787

 VIBRATION         46   46A           ATOM PAIR      ENERGY CONTRIBUTION    RADIAL
 FREQUENCY          1873.74         C  4 -- C  7         +22.2% ( 69.9%)    100.0%
 TRANSITION DIPOLE   0.0508         C  3 -- C  6         +22.2% ( 69.9%)    100.0%
 TRAVEL (Ang.)       0.1147         C  2 -- C  7          +7.3% ( 40.0%)     66.1%
 REDUCED MASS        2.7335         C  2 -- C  6          +7.3% ( 40.0%)     66.1%
 EFFECTIVE MASS     11.9040
 FORCE CONSTANT      5.6543

 VIBRATION         47   47A           ATOM PAIR      ENERGY CONTRIBUTION    RADIAL
 FREQUENCY          1881.54         C  5 -- C  8         +28.8% ( 79.6%)     95.5%
 TRANSITION DIPOLE   0.1473         C  8 -- C  9         +16.4% ( 60.2%)     55.5%
 TRAVEL (Ang.)       0.1128         C  8 -- H 20         +10.2% ( 47.3%)      2.3%
 REDUCED MASS        2.8157         C  9 -- C 10          +8.9% ( 44.4%)     96.1%
 EFFECTIVE MASS     11.7906
 FORCE CONSTANT      5.8730

 VIBRATION         48   48A           ATOM PAIR      ENERGY CONTRIBUTION    RADIAL
 FREQUENCY          1894.96         C  3 -- C  6         +19.5% ( 64.8%)    100.0%
 TRANSITION DIPOLE   0.3551         C  4 -- C  7         +19.5% ( 64.7%)    100.0%
 TRAVEL (Ang.)       0.1286         C  2 -- C  6          +6.3% ( 36.9%)     41.2%
 REDUCED MASS        2.1529         C  2 -- C  7          +6.3% ( 36.9%)     41.2%
 EFFECTIVE MASS     11.8520
 FORCE CONSTANT      4.5548

 VIBRATION         49   49A           ATOM PAIR      ENERGY CONTRIBUTION    RADIAL
 FREQUENCY          2836.21         C  1 -- H 11         +96.8% (100.0%)    100.0%
 TRANSITION DIPOLE   0.0676         C  1 -- C  5          +1.0% ( 10.4%)     12.2%
 TRAVEL (Ang.)       0.1600         C  1 -- C  3          +1.0% ( 10.3%)      7.8%
 REDUCED MASS        0.9284         C  1 -- C  4          +1.0% ( 10.3%)      7.8%
 EFFECTIVE MASS      1.4408
 FORCE CONSTANT      4.4000

 VIBRATION         50   50A           ATOM PAIR      ENERGY CONTRIBUTION    RADIAL
 FREQUENCY          2932.23         C  2 -- H 12         +51.9% ( 74.7%)     96.8%
 TRANSITION DIPOLE   0.0386         C  2 -- H 13         +46.0% ( 70.3%)     96.2%
 TRAVEL (Ang.)       0.2104         C  2 -- C  6          +1.1% ( 10.8%)      0.0%
 REDUCED MASS        0.5194         C  2 -- C  7          +1.1% ( 10.8%)      0.0%
 EFFECTIVE MASS      1.5349
 FORCE CONSTANT      2.6309

 VIBRATION         51   51A           ATOM PAIR      ENERGY CONTRIBUTION    RADIAL
 FREQUENCY          3010.14         C  2 -- H 13         +51.6% ( 70.9%)     98.1%
 TRANSITION DIPOLE   0.0951         C  2 -- H 12         +45.3% ( 66.4%)     97.3%
 TRAVEL (Ang.)       0.2181         C  7 -- H 18          +0.8% (  9.0%)     99.9%
 REDUCED MASS        0.4709         C  6 -- H 17          +0.8% (  9.0%)     99.9%
 EFFECTIVE MASS      1.2839
 FORCE CONSTANT      2.5140

 VIBRATION         52   52A           ATOM PAIR      ENERGY CONTRIBUTION    RADIAL
 FREQUENCY          3027.77         C  8 -- H 20         +79.2% ( 90.4%)    100.0%
 TRANSITION DIPOLE   0.1386         C  9 -- H 19         +17.6% ( 42.7%)    100.0%
 TRAVEL (Ang.)       0.1848         C  8 -- C  9          +1.6% ( 12.9%)     17.2%
 REDUCED MASS        0.6522         C  5 -- C  8          +1.2% ( 11.3%)     37.5%
 EFFECTIVE MASS      1.5313
 FORCE CONSTANT      3.5229

 VIBRATION         53   53A           ATOM PAIR      ENERGY CONTRIBUTION    RADIAL
 FREQUENCY          3037.60         C  9 -- H 19         +77.6% ( 89.2%)    100.0%
 TRANSITION DIPOLE   0.3492         C  8 -- H 20         +17.2% ( 42.0%)    100.0%
 TRAVEL (Ang.)       0.1894         C  5 -- H 16          +1.9% ( 14.1%)     99.9%
 REDUCED MASS        0.6186         C  9 -- C 10          +1.2% ( 11.0%)     30.4%
 EFFECTIVE MASS      1.4897
 FORCE CONSTANT      3.3631

 VIBRATION         54   54A           ATOM PAIR      ENERGY CONTRIBUTION    RADIAL
 FREQUENCY          3045.36         C  7 -- H 18         +27.2% ( 53.0%)    100.0%
 TRANSITION DIPOLE   0.0038         C  6 -- H 17         +26.3% ( 52.1%)    100.0%
 TRAVEL (Ang.)       0.3072         C  4 -- H 15         +22.5% ( 48.1%)    100.0%
 REDUCED MASS        0.2346         C  3 -- H 14         +21.6% ( 47.2%)    100.0%
 EFFECTIVE MASS      1.4460
 FORCE CONSTANT      1.2819

 VIBRATION         55   55A           ATOM PAIR      ENERGY CONTRIBUTION    RADIAL
 FREQUENCY          3045.50         C  5 -- H 16         +95.1% ( 98.9%)    100.0%
 TRANSITION DIPOLE   0.2437         C  5 -- C  8          +1.6% ( 12.6%)     40.5%
 TRAVEL (Ang.)       0.1576         C  9 -- H 19          +1.5% ( 12.3%)    100.0%
 REDUCED MASS        0.8915         C  1 -- C  5          +1.3% ( 11.6%)     13.5%
 EFFECTIVE MASS      1.5199
 FORCE CONSTANT      4.8715

 VIBRATION         56   56A           ATOM PAIR      ENERGY CONTRIBUTION    RADIAL
 FREQUENCY          3046.82         C  6 -- H 17         +26.0% ( 51.7%)    100.0%
 TRANSITION DIPOLE   0.4102         C  7 -- H 18         +24.9% ( 50.6%)    100.0%
 TRAVEL (Ang.)       0.3105         C  3 -- H 14         +23.4% ( 49.1%)    100.0%
 REDUCED MASS        0.2295         C  4 -- H 15         +22.6% ( 48.3%)    100.0%
 EFFECTIVE MASS      1.4651
 FORCE CONSTANT      1.2553

 VIBRATION         57   57A           ATOM PAIR      ENERGY CONTRIBUTION    RADIAL
 FREQUENCY          3064.83         C  4 -- H 15         +26.7% ( 52.5%)     99.9%
 TRANSITION DIPOLE   0.4142         C  3 -- H 14         +26.2% ( 51.9%)     99.9%
 TRAVEL (Ang.)       0.3059         C  7 -- H 18         +22.0% ( 47.6%)     99.9%
 REDUCED MASS        0.2352         C  6 -- H 17         +21.5% ( 47.0%)     99.9%
 EFFECTIVE MASS      1.5737
 FORCE CONSTANT      1.3016

 VIBRATION         58   58A           ATOM PAIR      ENERGY CONTRIBUTION    RADIAL
 FREQUENCY          3067.49         C  3 -- H 14         +25.8% ( 51.5%)     99.9%
 TRANSITION DIPOLE   0.0438         C  4 -- H 15         +25.2% ( 50.9%)     99.9%
 TRAVEL (Ang.)       0.3088         C  6 -- H 17         +22.5% ( 48.1%)     99.9%
 REDUCED MASS        0.2306         C  7 -- H 18         +22.1% ( 47.7%)     99.9%
 EFFECTIVE MASS      1.6050
 FORCE CONSTANT      1.2784

 VIBRATION         59   59A           ATOM PAIR      ENERGY CONTRIBUTION    RADIAL
 FREQUENCY          3136.14         C 10 -- H 21         +94.5% ( 98.8%)    100.0%
 TRANSITION DIPOLE   0.2317         C 10 -- H 22          +4.1% ( 20.6%)     59.5%
 TRAVEL (Ang.)       0.1553         C  9 -- C 10          +1.3% ( 11.7%)     27.4%
 REDUCED MASS        0.8918
 EFFECTIVE MASS      1.5233
 FORCE CONSTANT      5.1679

 VIBRATION         60   60A           ATOM PAIR      ENERGY CONTRIBUTION    RADIAL
 FREQUENCY          3147.57         C 10 -- H 22         +94.4% ( 98.0%)     99.8%
 TRANSITION DIPOLE   0.3145         C 10 -- H 21          +3.4% ( 18.5%)     18.7%
 TRAVEL (Ang.)       0.1575         C  9 -- C 10          +1.5% ( 12.5%)     65.7%
 REDUCED MASS        0.8639         C  9 -- H 19          +0.7% (  8.3%)     94.8%
 EFFECTIVE MASS      1.4742
 FORCE CONSTANT      5.0428

      SYMMETRY NUMBER FOR POINT-GROUP C1  =  1


          SYSTEM IS A GROUND STATE



 InChI=1S/C10H12/c1-2-3-7-10-8-5-4-6-9-10/h2-3,5-10H,1,4H2


          MOLECULE IS NOT LINEAR

          THERE ARE 60 GENUINE VIBRATIONS IN THIS SYSTEM
          THIS THERMODYNAMICS CALCULATION IS LIMITED TO
          MOLECULES WHICH HAVE NO INTERNAL ROTATIONS




                    CALCULATED THERMODYNAMIC PROPERTIES
                                          *
   TEMP. (K)   PARTITION FUNCTION   H.O.F.    ENTHALPY  HEAT CAPACITY ENTROPY
                                   KCAL/MOL   CAL/MOLE    CAL/K/MOL  CAL/K/MOL


 298.00  VIB.     0.2275D+04                  4487.9875    31.2169    30.4207
         ROT.     0.7592D+06                   888.2803     2.9808    29.8875
         INT.     0.1727D+10                  5376.2678    34.1977    60.3082
         TRA.     0.1470D+28                  1480.4672     4.9680    40.5480
         TOT.                       54.539    6856.7349    39.1657   100.8562

 200.00  VIB.     0.1906D+03                  2021.1736    19.4416    20.5389
         ROT.     0.4174D+06                   596.1613     2.9808    28.6989
         INT.     0.7955D+08                  2617.3349    22.4224    49.2378
         TRA.     0.8080D+27                   993.6021     4.9680    38.5668
         TOT.                       51.294    3610.9370    27.3904    87.8046

 210.00  VIB.     0.2457D+03                  2221.0370    20.5367    21.5138
         ROT.     0.4491D+06                   625.9693     2.9808    28.8443
         INT.     0.1103D+09                  2847.0064    23.5175    50.3581
         TRA.     0.8694D+27                  1043.2822     4.9680    38.8092
         TOT.                       51.573    3890.2886    28.4855    89.1673

 220.00  VIB.     0.3164D+03                  2432.0150    21.6642    22.4951
         ROT.     0.4816D+06                   655.7774     2.9808    28.9830
         INT.     0.1524D+09                  3087.7924    24.6450    51.4781
         TRA.     0.9322D+27                  1092.9623     4.9680    39.0403
         TOT.                       51.863    4180.7547    29.6130    90.5184

 230.00  VIB.     0.4074D+03                  2654.4201    22.8216    23.4835
         ROT.     0.5148D+06                   685.5855     2.9808    29.1155
         INT.     0.2097D+09                  3340.0056    25.8024    52.5990
         TRA.     0.9965D+27                  1142.6424     4.9680    39.2612
         TOT.                       52.165    4482.6480    30.7704    91.8602

 240.00  VIB.     0.5243D+03                  2888.5371    24.0060    24.4797
         ROT.     0.5487D+06                   715.3935     2.9808    29.2423
         INT.     0.2877D+09                  3603.9306    26.9868    53.7221
         TRA.     0.1062D+28                  1192.3226     4.9680    39.4726
         TOT.                       52.479    4796.2532    31.9548    93.1947

 250.00  VIB.     0.6749D+03                  3134.6176    25.2137    25.4841
         ROT.     0.5834D+06                   745.2016     2.9808    29.3640
         INT.     0.3937D+09                  3879.8192    28.1945    54.8481
         TRA.     0.1129D+28                  1242.0027     4.9680    39.6754
         TOT.                       52.804    5121.8219    33.1625    94.5236

 260.00  VIB.     0.8687D+03                  3392.8772    26.4411    26.4969
         ROT.     0.6187D+06                   775.0097     2.9808    29.4809
         INT.     0.5375D+09                  4167.8868    29.4220    55.9778
         TRA.     0.1198D+28                  1291.6828     4.9680    39.8703
         TOT.                       53.142    5459.5696    34.3900    95.8481

 270.00  VIB.     0.1118D+04                  3663.4931    27.6844    27.5180
         ROT.     0.6547D+06                   804.8177     2.9808    29.5934
         INT.     0.7323D+09                  4468.3109    30.6652    57.1115
         TRA.     0.1267D+28                  1341.3629     4.9680    40.0578
         TOT.                       53.492    5809.6737    35.6332    97.1692

 280.00  VIB.     0.1441D+04                  3946.6041    28.9395    28.5475
         ROT.     0.6914D+06                   834.6258     2.9808    29.7018
         INT.     0.9961D+09                  4781.2299    31.9203    58.2493
         TRA.     0.1338D+28                  1391.0430     4.9680    40.2384
         TOT.                       53.855    6172.2728    36.8883    98.4878

 290.00  VIB.     0.1856D+04                  4242.3102    30.2028    29.5851
         ROT.     0.7288D+06                   864.4339     2.9808    29.8064
         INT.     0.1353D+10                  5106.7441    33.1836    59.3915
         TRA.     0.1411D+28                  1440.7231     4.9680    40.4128
         TOT.                       54.230    6547.4672    38.1516    99.8043

 300.00  VIB.     0.2393D+04                  4550.6749    31.4706    30.6303
         ROT.     0.7668D+06                   894.2419     2.9808    29.9075
         INT.     0.1835D+10                  5444.9168    34.4514    60.5378
         TRA.     0.1484D+28                  1490.4032     4.9680    40.5812
         TOT.                       54.618    6935.3200    39.4194   101.1190

 310.00  VIB.     0.3088D+04                  4871.7263    32.7396    31.6829
         ROT.     0.8055D+06                   924.0500     2.9808    30.0052
         INT.     0.2487D+10                  5795.7762    35.7204    61.6882
         TRA.     0.1559D+28                  1540.0833     4.9680    40.7441
         TOT.                       55.018    7335.8595    40.6884   102.4323

 320.00  VIB.     0.3987D+04                  5205.4596    34.0065    32.7424
         ROT.     0.8448D+06                   953.8580     2.9808    30.0999
         INT.     0.3368D+10                  6159.3176    36.9873    62.8423
         TRA.     0.1635D+28                  1589.7634     4.9680    40.9018
         TOT.                       55.432    7749.0810    41.9553   103.7441

 330.00  VIB.     0.5151D+04                  5551.8401    35.2686    33.8082
         ROT.     0.8847D+06                   983.6661     2.9808    30.1916
         INT.     0.4557D+10                  6535.5063    38.2494    63.9998
         TRA.     0.1713D+28                  1639.4435     4.9680    41.0547
         TOT.                       55.858    8174.9498    43.2174   105.0545

 340.00  VIB.     0.6660D+04                  5910.8058    36.5231    34.8797
         ROT.     0.9252D+06                  1013.4742     2.9808    30.2806
         INT.     0.6162D+10                  6924.2800    39.5039    65.1603
         TRA.     0.1791D+28                  1689.1236     4.9680    41.2030
         TOT.                       56.296    8613.4036    44.4719   106.3633

 350.00  VIB.     0.8617D+04                  6282.2701    37.7679    35.9564
         ROT.     0.9663D+06                  1043.2822     2.9808    30.3670
         INT.     0.8327D+10                  7325.5523    40.7487    66.3234
         TRA.     0.1871D+28                  1738.8037     4.9680    41.3470
         TOT.                       56.747    9064.3561    45.7167   107.6704

 360.00  VIB.     0.1116D+05                  6666.1248    39.0009    37.0377
         ROT.     0.1008D+07                  1073.0903     2.9808    30.4509
         INT.     0.1125D+11                  7739.2151    41.9817    67.4886
         TRA.     0.1951D+28                  1788.4838     4.9680    41.4870
         TOT.                       57.210    9527.6990    46.9497   108.9756

 370.00  VIB.     0.1446D+05                  7062.2431    40.2204    38.1229
         ROT.     0.1050D+07                  1102.8984     2.9808    30.5326
         INT.     0.1519D+11                  8165.1414    43.2012    68.6555
         TRA.     0.2033D+28                  1838.1639     4.9680    41.6231
         TOT.                       57.686   10003.3054    48.1692   110.2786

 380.00  VIB.     0.1875D+05                  7470.4817    41.4248    39.2115
         ROT.     0.1093D+07                  1132.7064     2.9808    30.6121
         INT.     0.2050D+11                  8603.1881    44.4056    69.8237
         TRA.     0.2116D+28                  1887.8440     4.9680    41.7556
         TOT.                       58.174   10491.0322    49.3736   111.5792

 390.00  VIB.     0.2434D+05                  7890.6840    42.6129    40.3030
         ROT.     0.1137D+07                  1162.5145     2.9808    30.6895
         INT.     0.2766D+11                  9053.1985    45.5937    70.9925
         TRA.     0.2200D+28                  1937.5242     4.9680    41.8846
         TOT.                       58.673   10990.7226    50.5617   112.8771

 400.00  VIB.     0.3161D+05                  8322.6817    43.7837    41.3966
         ROT.     0.1181D+07                  1192.3226     2.9808    30.7650
         INT.     0.3732D+11                  9515.0043    46.7645    72.1616
         TRA.     0.2285D+28                  1987.2043     4.9680    42.0104
         TOT.                       59.185   11502.2085    51.7325   114.1720

   *: NOTE: HEATS OF FORMATION ARE RELATIVE TO THE
            ELEMENTS IN THEIR STANDARD STATE AT 298K
              (=  Standard Enthalpy of Formation).

            Hvib:  Zero-point energy is not included.
                   frequencies of less than zero cm-1 are not included.
            Hrot = (3/2)RT
            Htra = (3/2)RT + pV = (5/2)RT

            Heat capacity is Cp, not Cv

          For more information, see: HTTP://OpenMOPAC.net/Manual/thermochemistry.html


           FORCE CONSTANT IN CARTESIAN COORDINATES (Millidynes/A)

    ATOM   CHEMICAL       X               Y               Z
   NUMBER   SYMBOL  FORCE CONSTANT  FORCE CONSTANT  FORCE CONSTANT

      1       C        9.223632        9.058561        8.158558
      2       C        9.046852        9.403907        7.666221
      3       C       15.461089        9.376576        2.438827
      4       C       15.460857        9.305450        2.509426
      5       C       15.172538        2.593916        9.208284
      6       C       15.372838        9.589292        2.364960
      7       C       15.372727        9.515116        2.439416
      8       C       15.404741        2.210228        9.904700
      9       C       15.438819        2.235196        9.793552
     10       C       15.208832        1.965148        9.120757
     11       H        1.476004        0.646029        3.660806
     12       H        1.742509        0.666476        3.753054
     13       H        2.399876        0.690374        3.112091
     14       H        1.895520        4.001402        0.347732
     15       H        1.895423        3.951875        0.397467
     16       H        1.381252        0.364436        4.476754
     17       H        1.900303        3.994078        0.350174
     18       H        1.900305        3.958542        0.386947
     19       H        1.356288        0.370495        4.484674
     20       H        1.372245        0.367551        4.459002
     21       H        1.483517        0.354507        4.622519
     22       H        2.765533        0.342352        3.363275

 **********************
 *                    *
 * JOB ENDED NORMALLY *
 *                    *
 **********************



 TOTAL JOB TIME:             4.34 SECONDS

 == MOPAC DONE ==
