 *******************************************************************************
 **                                                                           **
 **                              MOPAC v23.1.2                                **
 **                                                                           **
 *******************************************************************************
 **          Digital Object Identifier (DOI): 10.5281/zenodo.6511958          **
 **    Visit the DOI location for information on how to cite this program.    **
 *******************************************************************************

                              PM3 CALCULATION RESULTS

 *******************************************************************************
 *  CALCULATION DONE: (MAX THREADS = 1)              Tue Jun  3 16:32:19 2025  *
 *  PM3        - The PM3 Hamiltonian to be used
 *  PRECISE    - TIGHTER CRITERIA TO BE USED
 *  NOSYM      - POINT-GROUP SYMMETRY SET TO C1
 *  THREADS=1  - MULTI-THREADING NOT USED
 *  T=         - A TIME OF 172800.0 SECONDS REQUESTED
 *  DUMP=N     - RESTART FILE WRITTEN EVERY 7200.0 SECONDS REQUESTED
 *******************************************************************************
pm3  precise nosym THREADS=1
 InChI=1S/C10H10/c1-8-6-7-9-4-2-3-5-10(8)9/h2-7,9H,1H3

   ATOM   CHEMICAL          X               Y               Z
  NUMBER   SYMBOL      (ANGSTROMS)     (ANGSTROMS)     (ANGSTROMS)

     1       C         -0.43090000  *  -1.19820000  *  -0.49010000  *
     2       C          2.15090000  *   1.51280000  *  -0.01840000  *
     3       C          0.06530000  *   0.21080000  *  -0.55030000  *
     4       C          1.36470000  *   0.26590000  *  -0.27770000  *
     5       C         -1.63980000  *  -1.29330000  *   0.40700000  *
     6       C          0.77660000  *  -1.90620000  *   0.03090000  *
     7       C          1.80580000  *  -1.07230000  *   0.09340000  *
     8       C         -0.87940000  *   1.33560000  *  -0.47800000  *
     9       C         -2.45040000  *  -0.23390000  *   0.57600000  *
    10       C         -2.09040000  *   1.10700000  *   0.04550000  *
    11       H         -0.68140000  *  -1.56250000  *  -1.50940000  *
    12       H          1.92990000  *   2.27410000  *  -0.79570000  *
    13       H          1.88890000  *   1.91810000  *   0.98130000  *
    14       H          3.23760000  *   1.28790000  *  -0.04560000  *
    15       H         -1.93070000  *  -2.25640000  *   0.80780000  *
    16       H          0.83070000  *  -2.96050000  *   0.26920000  *
    17       H         -3.36850000  *  -0.34810000  *   1.13770000  *
    18       H         -2.79130000  *   1.92480000  *   0.15180000  *
    19       H         -0.58510000  *   2.33630000  *  -0.76720000  *
    20       H          2.79770000  *  -1.34160000  *   0.43190000  *



          CARTESIAN COORDINATES 

    NO.       ATOM           X           Y           Z

     1         C         -0.4309     -1.1982     -0.4901
     2         C          2.1509      1.5128     -0.0184
     3         C          0.0653      0.2108     -0.5503
     4         C          1.3647      0.2659     -0.2777
     5         C         -1.6398     -1.2933      0.4070
     6         C          0.7766     -1.9062      0.0309
     7         C          1.8058     -1.0723      0.0934
     8         C         -0.8794      1.3356     -0.4780
     9         C         -2.4504     -0.2339      0.5760
    10         C         -2.0904      1.1070      0.0455
    11         H         -0.6814     -1.5625     -1.5094
    12         H          1.9299      2.2741     -0.7957
    13         H          1.8889      1.9181      0.9813
    14         H          3.2376      1.2879     -0.0456
    15         H         -1.9307     -2.2564      0.8078
    16         H          0.8307     -2.9605      0.2692
    17         H         -3.3685     -0.3481      1.1377
    18         H         -2.7913      1.9248      0.1518
    19         H         -0.5851      2.3363     -0.7672
    20         H          2.7977     -1.3416      0.4319

  H: (PM3): J. J. P. STEWART, J. COMP. CHEM. 10, 209 (1989).
  C: (PM3): J. J. P. STEWART, J. COMP. CHEM. 10, 209 (1989).

           Empirical Formula: C10 H10  =    20 atoms



      MOLECULAR POINT GROUP   :   C1  


      RHF CALCULATION, NO. OF DOUBLY OCCUPIED LEVELS = 25


          Geometry optimization using EF

          DIAGONAL MATRIX USED AS START HESSIAN

 CYCLE:     1 TIME:   0.004 TIME LEFT:  2.00D  GRAD.:   145.075 HEAT:  66.40709
 CYCLE:     2 TIME:   0.012 TIME LEFT:  2.00D  GRAD.:   149.170 HEAT:  65.20175
 CYCLE:     3 TIME:   0.008 TIME LEFT:  2.00D  GRAD.:    92.465 HEAT:  62.92444
 CYCLE:     4 TIME:   0.012 TIME LEFT:  2.00D  GRAD.:    52.549 HEAT:  61.28827
 CYCLE:     5 TIME:   0.012 TIME LEFT:  2.00D  GRAD.:    37.296 HEAT:  60.79968
 CYCLE:     6 TIME:   0.008 TIME LEFT:  2.00D  GRAD.:    28.739 HEAT:  60.54064
 CYCLE:     7 TIME:   0.008 TIME LEFT:  2.00D  GRAD.:    21.864 HEAT:  60.26738
 CYCLE:     8 TIME:   0.004 TIME LEFT:  2.00D  GRAD.:    30.417 HEAT:  60.10778
 CYCLE:     9 TIME:   0.008 TIME LEFT:  2.00D  GRAD.:    19.552 HEAT:  59.79165
 CYCLE:    10 TIME:   0.012 TIME LEFT:  2.00D  GRAD.:    25.748 HEAT:  59.71968
 CYCLE:    11 TIME:   0.004 TIME LEFT:  2.00D  GRAD.:    24.302 HEAT:  59.56129
 CYCLE:    12 TIME:   0.012 TIME LEFT:  2.00D  GRAD.:    29.189 HEAT:  59.55576
 CYCLE:    13 TIME:   0.004 TIME LEFT:  2.00D  GRAD.:    22.795 HEAT:  59.43854
 CYCLE:    14 TIME:   0.008 TIME LEFT:  2.00D  GRAD.:    24.360 HEAT:  59.37546
 CYCLE:    15 TIME:   0.012 TIME LEFT:  2.00D  GRAD.:    17.151 HEAT:  59.29055
 CYCLE:    16 TIME:   0.008 TIME LEFT:  2.00D  GRAD.:    23.138 HEAT:  59.28925
 CYCLE:    17 TIME:   0.004 TIME LEFT:  2.00D  GRAD.:    14.809 HEAT:  59.17611
 CYCLE:    18 TIME:   0.012 TIME LEFT:  2.00D  GRAD.:    15.894 HEAT:  59.14056
 CYCLE:    19 TIME:   0.008 TIME LEFT:  2.00D  GRAD.:    10.517 HEAT:  59.07489
 CYCLE:    20 TIME:   0.004 TIME LEFT:  2.00D  GRAD.:    17.176 HEAT:  59.05497
 CYCLE:    21 TIME:   0.008 TIME LEFT:  2.00D  GRAD.:     9.522 HEAT:  58.96386
 CYCLE:    22 TIME:   0.008 TIME LEFT:  2.00D  GRAD.:    19.621 HEAT:  58.94373
 CYCLE:    23 TIME:   0.008 TIME LEFT:  2.00D  GRAD.:     8.929 HEAT:  58.80774
 CYCLE:    24 TIME:   0.012 TIME LEFT:  2.00D  GRAD.:    10.606 HEAT:  58.79370
 CYCLE:    25 TIME:   0.008 TIME LEFT:  2.00D  GRAD.:     4.037 HEAT:  58.74991
 CYCLE:    26 TIME:   0.008 TIME LEFT:  2.00D  GRAD.:     4.280 HEAT:  58.71750
 CYCLE:    27 TIME:   0.004 TIME LEFT:  2.00D  GRAD.:     5.794 HEAT:  58.66163
 CYCLE:    28 TIME:   0.008 TIME LEFT:  2.00D  GRAD.:     7.413 HEAT:  58.58744
 CYCLE:    29 TIME:   0.008 TIME LEFT:  2.00D  GRAD.:     7.971 HEAT:  58.55255
 CYCLE:    30 TIME:   0.004 TIME LEFT:  2.00D  GRAD.:     6.435 HEAT:  58.53089
 CYCLE:    31 TIME:   0.008 TIME LEFT:  2.00D  GRAD.:     4.425 HEAT:  58.50660
 CYCLE:    32 TIME:   0.008 TIME LEFT:  2.00D  GRAD.:     3.378 HEAT:  58.48346
 CYCLE:    33 TIME:   0.004 TIME LEFT:  2.00D  GRAD.:     3.065 HEAT:  58.45722
 CYCLE:    34 TIME:   0.008 TIME LEFT:  2.00D  GRAD.:     2.173 HEAT:  58.44579
 CYCLE:    35 TIME:   0.008 TIME LEFT:  2.00D  GRAD.:     1.775 HEAT:  58.43867
 CYCLE:    36 TIME:   0.004 TIME LEFT:  2.00D  GRAD.:     1.835 HEAT:  58.43106
 CYCLE:    37 TIME:   0.008 TIME LEFT:  2.00D  GRAD.:     1.889 HEAT:  58.42759
 CYCLE:    38 TIME:   0.008 TIME LEFT:  2.00D  GRAD.:     1.166 HEAT:  58.42504
 CYCLE:    39 TIME:   0.008 TIME LEFT:  2.00D  GRAD.:     1.369 HEAT:  58.42224
 CYCLE:    40 TIME:   0.004 TIME LEFT:  2.00D  GRAD.:     2.465 HEAT:  58.41384
 CYCLE:    41 TIME:   0.008 TIME LEFT:  2.00D  GRAD.:     2.474 HEAT:  58.40570
 CYCLE:    42 TIME:   0.008 TIME LEFT:  2.00D  GRAD.:     1.651 HEAT:  58.39842
 CYCLE:    43 TIME:   0.004 TIME LEFT:  2.00D  GRAD.:     1.398 HEAT:  58.39359
 CYCLE:    44 TIME:   0.008 TIME LEFT:  2.00D  GRAD.:     1.597 HEAT:  58.38895
 CYCLE:    45 TIME:   0.008 TIME LEFT:  2.00D  GRAD.:     1.589 HEAT:  58.38469
 CYCLE:    46 TIME:   0.004 TIME LEFT:  2.00D  GRAD.:     1.290 HEAT:  58.37995
 CYCLE:    47 TIME:   0.008 TIME LEFT:  2.00D  GRAD.:     1.004 HEAT:  58.37776
 CYCLE:    48 TIME:   0.008 TIME LEFT:  2.00D  GRAD.:     1.062 HEAT:  58.37470
 CYCLE:    49 TIME:   0.004 TIME LEFT:  2.00D  GRAD.:     0.931 HEAT:  58.37338
 CYCLE:    50 TIME:   0.008 TIME LEFT:  2.00D  GRAD.:     0.987 HEAT:  58.37050
 CYCLE:    51 TIME:   0.008 TIME LEFT:  2.00D  GRAD.:     1.100 HEAT:  58.36863
 CYCLE:    52 TIME:   0.004 TIME LEFT:  2.00D  GRAD.:     1.031 HEAT:  58.36645
 CYCLE:    53 TIME:   0.008 TIME LEFT:  2.00D  GRAD.:     1.074 HEAT:  58.36411
 CYCLE:    54 TIME:   0.008 TIME LEFT:  2.00D  GRAD.:     1.492 HEAT:  58.36090
 CYCLE:    55 TIME:   0.008 TIME LEFT:  2.00D  GRAD.:     2.271 HEAT:  58.35495
 CYCLE:    56 TIME:   0.004 TIME LEFT:  2.00D  GRAD.:     5.009 HEAT:  58.34540
 CYCLE:    57 TIME:   0.008 TIME LEFT:  2.00D  GRAD.:     2.735 HEAT:  58.33479
 CYCLE:    58 TIME:   0.008 TIME LEFT:  2.00D  GRAD.:     1.852 HEAT:  58.31962
 CYCLE:    59 TIME:   0.008 TIME LEFT:  2.00D  GRAD.:     7.150 HEAT:  58.31300
 CYCLE:    60 TIME:   0.008 TIME LEFT:  2.00D  GRAD.:     2.096 HEAT:  58.29704
 CYCLE:    61 TIME:   0.004 TIME LEFT:  2.00D  GRAD.:     1.964 HEAT:  58.28758
 CYCLE:    62 TIME:   0.008 TIME LEFT:  2.00D  GRAD.:     3.481 HEAT:  58.27358
 CYCLE:    63 TIME:   0.008 TIME LEFT:  2.00D  GRAD.:     3.406 HEAT:  58.26278
 CYCLE:    64 TIME:   0.004 TIME LEFT:  2.00D  GRAD.:     2.197 HEAT:  58.24446
 CYCLE:    65 TIME:   0.008 TIME LEFT:  2.00D  GRAD.:     5.677 HEAT:  58.24866
 CYCLE:    66 TIME:   0.008 TIME LEFT:  2.00D  GRAD.:     1.519 HEAT:  58.23348
 CYCLE:    67 TIME:   0.004 TIME LEFT:  2.00D  GRAD.:     1.078 HEAT:  58.22704
 CYCLE:    68 TIME:   0.008 TIME LEFT:  2.00D  GRAD.:     2.256 HEAT:  58.21701
 CYCLE:    69 TIME:   0.008 TIME LEFT:  2.00D  GRAD.:     1.273 HEAT:  58.21411
 CYCLE:    70 TIME:   0.004 TIME LEFT:  2.00D  GRAD.:     0.847 HEAT:  58.20891
 CYCLE:    71 TIME:   0.008 TIME LEFT:  2.00D  GRAD.:     1.420 HEAT:  58.20398
 CYCLE:    72 TIME:   0.008 TIME LEFT:  2.00D  GRAD.:     1.266 HEAT:  58.20168
 CYCLE:    73 TIME:   0.004 TIME LEFT:  2.00D  GRAD.:     1.386 HEAT:  58.19949
 CYCLE:    74 TIME:   0.008 TIME LEFT:  2.00D  GRAD.:     1.329 HEAT:  58.19632
 CYCLE:    75 TIME:   0.004 TIME LEFT:  2.00D  GRAD.:     1.587 HEAT:  58.19257
 CYCLE:    76 TIME:   0.008 TIME LEFT:  2.00D  GRAD.:     0.782 HEAT:  58.19066
 CYCLE:    77 TIME:   0.008 TIME LEFT:  2.00D  GRAD.:     0.809 HEAT:  58.18947
 CYCLE:    78 TIME:   0.008 TIME LEFT:  2.00D  GRAD.:     0.834 HEAT:  58.18824
 CYCLE:    79 TIME:   0.008 TIME LEFT:  2.00D  GRAD.:     0.913 HEAT:  58.18705
 CYCLE:    80 TIME:   0.004 TIME LEFT:  2.00D  GRAD.:     0.635 HEAT:  58.18591
 CYCLE:    81 TIME:   0.008 TIME LEFT:  2.00D  GRAD.:     1.611 HEAT:  58.18531
 CYCLE:    82 TIME:   0.008 TIME LEFT:  2.00D  GRAD.:     0.624 HEAT:  58.18401
 CYCLE:    83 TIME:   0.008 TIME LEFT:  2.00D  GRAD.:     0.472 HEAT:  58.18326
 CYCLE:    84 TIME:   0.004 TIME LEFT:  2.00D  GRAD.:     0.966 HEAT:  58.18247
 CYCLE:    85 TIME:   0.008 TIME LEFT:  2.00D  GRAD.:     0.401 HEAT:  58.18201
 CYCLE:    86 TIME:   0.004 TIME LEFT:  2.00D  GRAD.:     0.328 HEAT:  58.18172
 CYCLE:    87 TIME:   0.008 TIME LEFT:  2.00D  GRAD.:     0.260 HEAT:  58.18129
 CYCLE:    88 TIME:   0.004 TIME LEFT:  2.00D  GRAD.:     0.359 HEAT:  58.18097
 CYCLE:    89 TIME:   0.008 TIME LEFT:  2.00D  GRAD.:     0.336 HEAT:  58.18085
 CYCLE:    90 TIME:   0.004 TIME LEFT:  2.00D  GRAD.:     0.588 HEAT:  58.18088
 CYCLE:    91 TIME:   0.008 TIME LEFT:  2.00D  GRAD.:     0.178 HEAT:  58.18050
 CYCLE:    92 TIME:   0.004 TIME LEFT:  2.00D  GRAD.:     0.167 HEAT:  58.18042
 CYCLE:    93 TIME:   0.004 TIME LEFT:  2.00D  GRAD.:     0.132 HEAT:  58.18034
 CYCLE:    94 TIME:   0.008 TIME LEFT:  2.00D  GRAD.:     0.106 HEAT:  58.18025
 CYCLE:    95 TIME:   0.004 TIME LEFT:  2.00D  GRAD.:     0.100 HEAT:  58.18023
 CYCLE:    96 TIME:   0.008 TIME LEFT:  2.00D  GRAD.:     0.079 HEAT:  58.18022
 CYCLE:    97 TIME:   0.004 TIME LEFT:  2.00D  GRAD.:     0.062 HEAT:  58.18020
 CYCLE:    98 TIME:   0.004 TIME LEFT:  2.00D  GRAD.:     0.044 HEAT:  58.18019

     GRADIENT =  0.04419 IS LESS THAN CUTOFF =  0.05000



 -------------------------------------------------------------------------------
 pm3  precise nosym THREADS=1
 InChI=1S/C10H10/c1-8-6-7-9-4-2-3-5-10(8)9/h2-7,9H,1H3



     GEOMETRY OPTIMISED USING EIGENVECTOR FOLLOWING (EF).     
     SCF FIELD WAS ACHIEVED                                   


                              PM3 CALCULATION
                                                       MOPAC v23.1.2 MacOS
                                                       Tue Jun  3 16:32:20 2025




          FINAL HEAT OF FORMATION =         58.18019 KCAL/MOL =     243.42590 KJ/MOL


          COSMO AREA              =        172.89 SQUARE ANGSTROMS
          COSMO VOLUME            =        174.33 CUBIC ANGSTROMS

          GRADIENT NORM           =          0.04419          =       0.00988 PER ATOM
          IONIZATION POTENTIAL    =          8.381341 EV
          HOMO LUMO ENERGIES (EV) =         -8.381 -0.418
          NO. OF FILLED LEVELS    =         25
          MOLECULAR WEIGHT        =        130.1890         POINT GROUP:  C1  

          MOLECULAR DIMENSIONS (Angstroms)

            Atom       Atom       Distance
            H    17    H    14     7.07082
            H    18    H    16     5.65053
            H    13    H    11     3.58762


          SCF CALCULATIONS        =        109

          WALL-CLOCK TIME         =      0.691 SECONDS
          COMPUTATION TIME        =      0.458 SECONDS




   ATOM   CHEMICAL          X               Y               Z
  NUMBER   SYMBOL      (ANGSTROMS)     (ANGSTROMS)     (ANGSTROMS)

     1       C         -0.42907514  *  -1.15351411  *  -0.39174409  *
     2       C          2.28644066  *   1.47728708  *  -0.09129653  *
     3       C          0.05116348  *   0.28143248  *  -0.38934300  *
     4       C          1.39000844  *   0.31260281  *  -0.14491679  *
     5       C         -1.69629163  *  -1.30513752  *   0.36712573  *
     6       C          0.79345088  *  -1.90854775  *   0.05508173  *
     7       C          1.84210966  *  -1.05727507  *   0.12999392  *
     8       C         -0.93567862  *   1.33110770  *  -0.45138497  *
     9       C         -2.52635981  *  -0.25692311  *   0.49776083  *
    10       C         -2.18335567  *   1.05726170  *  -0.02000610  *
    11       H         -0.63631651  *  -1.46883911  *  -1.44747333  *
    12       H          1.77209720  *   2.40344532  *  -0.37942487  *
    13       H          2.68416116  *   1.61496873  *   0.92331636  *
    14       H          3.14121932  *   1.34046129  *  -0.76720669  *
    15       H         -1.93075987  *  -2.29564978  *   0.76804547  *
    16       H          0.78731812  *  -2.98155925  *   0.23281352  *
    17       H         -3.48821369  *  -0.35821139  *   1.01090466  *
    18       H         -2.96722876  *   1.82107378  *  -0.02340500  *
    19       H         -0.63333280  *   2.32394912  *  -0.79933649  *
    20       H          2.87498002  *  -1.30046789  *   0.37385355  *

                             CARTESIAN COORDINATES

   1    C       -0.429075143    -1.153514113    -0.391744095
   2    C        2.286440656     1.477287079    -0.091296526
   3    C        0.051163479     0.281432479    -0.389342998
   4    C        1.390008438     0.312602811    -0.144916788
   5    C       -1.696291635    -1.305137522     0.367125733
   6    C        0.793450879    -1.908547751     0.055081730
   7    C        1.842109656    -1.057275075     0.129993919
   8    C       -0.935678619     1.331107698    -0.451384967
   9    C       -2.526359809    -0.256923106     0.497760827
  10    C       -2.183355672     1.057261697    -0.020006103
  11    H       -0.636316512    -1.468839113    -1.447473327
  12    H        1.772097204     2.403445321    -0.379424874
  13    H        2.684161156     1.614968732     0.923316360
  14    H        3.141219317     1.340461289    -0.767206693
  15    H       -1.930759869    -2.295649780     0.768045473
  16    H        0.787318122    -2.981559249     0.232813518
  17    H       -3.488213690    -0.358211392     1.010904657
  18    H       -2.967228765     1.821073779    -0.023404998
  19    H       -0.633332798     2.323949117    -0.799336493
  20    H        2.874980015    -1.300467886     0.373853553


           Empirical Formula: C10 H10  =    20 atoms



      MOLECULAR POINT GROUP   :   C1  


                  EIGENVALUES  
 -41.51736 -35.23541 -32.02768 -28.73111 -26.75260 -23.82456 -21.27015 -19.91178
 -18.96271 -17.11818 -16.88336 -15.94897 -15.32119 -14.86478 -14.36913 -14.14480
 -13.76713 -13.65772 -12.86949 -12.53608 -12.08751 -11.60031 -10.82496  -9.70716
  -8.38134  -0.41767   0.73955   1.71912   2.28711   3.17411   3.19006   3.37615
   3.40483   3.54168   3.83029   3.94599   4.04909   4.11611   4.28110   4.41270
   4.47821   4.54680   4.71024   4.93588   5.38968   5.48788   5.69878   5.97210
   6.23029   6.33234


              NET ATOMIC CHARGES AND DIPOLE CONTRIBUTIONS

  ATOM NO.   TYPE          CHARGE      No. of ELECS.   s-Pop       p-Pop       
    1          C           0.001219        3.9988     1.14754     2.85124
    2          C          -0.048253        4.0483     1.11562     2.93263
    3          C          -0.111942        4.1119     1.18942     2.92252
    4          C          -0.077840        4.0778     1.18864     2.88920
    5          C          -0.106454        4.1065     1.19001     2.91644
    6          C          -0.146216        4.1462     1.20562     2.94060
    7          C          -0.110437        4.1104     1.19112     2.91932
    8          C          -0.066483        4.0665     1.17097     2.89551
    9          C          -0.115184        4.1152     1.18002     2.93516
   10          C          -0.106263        4.1063     1.18184     2.92442
   11          H           0.103480        0.8965     0.89652
   12          H           0.043803        0.9562     0.95620
   13          H           0.048321        0.9517     0.95168
   14          H           0.045877        0.9541     0.95412
   15          H           0.104833        0.8952     0.89517
   16          H           0.117161        0.8828     0.88284
   17          H           0.101615        0.8984     0.89838
   18          H           0.101215        0.8988     0.89878
   19          H           0.106296        0.8937     0.89370
   20          H           0.115253        0.8847     0.88475
 DIPOLE           X         Y         Z       TOTAL
 POINT-CHG.     0.030    -0.082    -0.089     0.125
 HYBRID         0.024    -0.078    -0.108     0.135
 SUM            0.053    -0.161    -0.197     0.260


          ATOMIC ORBITAL ELECTRON POPULATIONS

     Atom    s        px        py        pz   
    1  C   1.14754   0.93274   0.93182   0.98669
    2  C   1.11562   0.97525   0.95177   1.00561
    3  C   1.18942   0.94252   0.94775   1.03225
    4  C   1.18864   0.94284   0.94700   0.99936
    5  C   1.19001   0.95303   0.98216   0.98126
    6  C   1.20562   0.95733   0.98315   1.00011
    7  C   1.19112   0.97761   0.93328   1.00843
    8  C   1.17097   0.93597   0.96589   0.99366
    9  C   1.18002   0.98721   0.94017   1.00778
   10  C   1.18184   0.96548   0.96108   0.99787
   11  H   0.89652
   12  H   0.95620
   13  H   0.95168
   14  H   0.95412
   15  H   0.89517
   16  H   0.88284
   17  H   0.89838
   18  H   0.89878
   19  H   0.89370
   20  H   0.88475
 *******************************************************************************
 **                                                                           **
 **                              MOPAC v23.1.2                                **
 **                                                                           **
 *******************************************************************************
 **          Digital Object Identifier (DOI): 10.5281/zenodo.6511958          **
 **    Visit the DOI location for information on how to cite this program.    **
 *******************************************************************************

                              PM3 CALCULATION RESULTS

 *******************************************************************************
 *  CALCULATION DONE: (MAX THREADS = 1)              Tue Jun  3 16:32:20 2025  *
 *  PM3        - The PM3 Hamiltonian to be used
 *  OLDGEO     - PREVIOUS GEOMETRY TO BE USED
 *  PRECISE    - TIGHTER CRITERIA TO BE USED
 *  NOSYM      - POINT-GROUP SYMMETRY SET TO C1
 *  THREADS=1  - MULTI-THREADING NOT USED
 *  T=         - A TIME OF 172800.0 SECONDS REQUESTED
 *  DUMP=N     - RESTART FILE WRITTEN EVERY 7200.0 SECONDS REQUESTED
 *  THERMO     - THERMODYNAMIC QUANTITIES TO BE CALCULATED
 *******************************************************************************
oldgeo thermo nosym precise THREADS=1  pm3
 InChI=1S/C10H10/c1-8-6-7-9-4-2-3-5-10(8)9/h2-7,9H,1H3

   ATOM   CHEMICAL          X               Y               Z
  NUMBER   SYMBOL      (ANGSTROMS)     (ANGSTROMS)     (ANGSTROMS)

     1       C         -0.42907514  *  -1.15351411  *  -0.39174409  *
     2       C          2.28644066  *   1.47728708  *  -0.09129653  *
     3       C          0.05116348  *   0.28143248  *  -0.38934300  *
     4       C          1.39000844  *   0.31260281  *  -0.14491679  *
     5       C         -1.69629163  *  -1.30513752  *   0.36712573  *
     6       C          0.79345088  *  -1.90854775  *   0.05508173  *
     7       C          1.84210966  *  -1.05727507  *   0.12999392  *
     8       C         -0.93567862  *   1.33110770  *  -0.45138497  *
     9       C         -2.52635981  *  -0.25692311  *   0.49776083  *
    10       C         -2.18335567  *   1.05726170  *  -0.02000610  *
    11       H         -0.63631651  *  -1.46883911  *  -1.44747333  *
    12       H          1.77209720  *   2.40344532  *  -0.37942487  *
    13       H          2.68416116  *   1.61496873  *   0.92331636  *
    14       H          3.14121932  *   1.34046129  *  -0.76720669  *
    15       H         -1.93075987  *  -2.29564978  *   0.76804547  *
    16       H          0.78731812  *  -2.98155925  *   0.23281352  *
    17       H         -3.48821369  *  -0.35821139  *   1.01090466  *
    18       H         -2.96722876  *   1.82107378  *  -0.02340500  *
    19       H         -0.63333280  *   2.32394912  *  -0.79933649  *
    20       H          2.87498002  *  -1.30046789  *   0.37385355  *



          CARTESIAN COORDINATES 

    NO.       ATOM           X           Y           Z

     1         C         -0.4291     -1.1535     -0.3917
     2         C          2.2864      1.4773     -0.0913
     3         C          0.0512      0.2814     -0.3893
     4         C          1.3900      0.3126     -0.1449
     5         C         -1.6963     -1.3051      0.3671
     6         C          0.7935     -1.9085      0.0551
     7         C          1.8421     -1.0573      0.1300
     8         C         -0.9357      1.3311     -0.4514
     9         C         -2.5264     -0.2569      0.4978
    10         C         -2.1834      1.0573     -0.0200
    11         H         -0.6363     -1.4688     -1.4475
    12         H          1.7721      2.4034     -0.3794
    13         H          2.6842      1.6150      0.9233
    14         H          3.1412      1.3405     -0.7672
    15         H         -1.9308     -2.2956      0.7680
    16         H          0.7873     -2.9816      0.2328
    17         H         -3.4882     -0.3582      1.0109
    18         H         -2.9672      1.8211     -0.0234
    19         H         -0.6333      2.3239     -0.7993
    20         H          2.8750     -1.3005      0.3739

  H: (PM3): J. J. P. STEWART, J. COMP. CHEM. 10, 209 (1989).
  C: (PM3): J. J. P. STEWART, J. COMP. CHEM. 10, 209 (1989).

           Empirical Formula: C10 H10  =    20 atoms



      MOLECULAR POINT GROUP   :   C1  


      RHF CALCULATION, NO. OF DOUBLY OCCUPIED LEVELS = 25



          HEAT OF FORMATION =      58.180186 KCALS/MOLE


          CARTESIAN COORDINATE DERIVATIVES

   NUMBER  ATOM         X            Y            Z

     1       C     -0.004594     0.002500     0.000630
     2       C     -0.006056    -0.003515     0.016984
     3       C     -0.003938     0.006270     0.003149
     4       C      0.003189     0.005738     0.001418
     5       C     -0.000698     0.004210    -0.003741
     6       C     -0.001267     0.000589     0.002633
     7       C     -0.001057    -0.000721    -0.003823
     8       C     -0.010005     0.003669     0.008843
     9       C     -0.000380    -0.002466    -0.002971
    10       C      0.003660    -0.001429    -0.002527
    11       H      0.011557    -0.019063    -0.000930
    12       H      0.009595     0.004270    -0.009415
    13       H     -0.008872    -0.001175    -0.003831
    14       H      0.000074    -0.007072    -0.003435
    15       H     -0.003715     0.004674     0.002933
    16       H     -0.000735     0.000729     0.001148
    17       H      0.007109    -0.004434     0.001018
    18       H      0.006309    -0.003242    -0.002497
    19       H     -0.004503     0.012499     0.002084
    20       H      0.004327    -0.002029    -0.007671



          GRADIENT NORM =   0.04529

          MOLECULAR WEIGHT =  130.19



          ROTATIONAL CONSTANTS IN CM(-1)

          A =    0.08062290   B =    0.04386424   C =    0.02981391



           PRINCIPAL MOMENTS OF INERTIA IN UNITS OF 10**(-40)*GRAM-CM**2

          A =      347.2060   B =      638.1679   C =      938.9159


          ORIENTATION OF MOLECULE IN FORCE CALCULATION

    NO.       ATOM         X         Y         Z

     1          C      -0.9787   -0.4905   -0.3501
     2          C       2.8141   -0.4905   -0.3501
     3          C       0.3606    0.2137   -0.3501
     4          C       1.3602   -0.7100   -0.3204
     5          C      -1.9310    0.1503    0.5919
     6          C      -0.5917   -1.9298   -0.1429
     7          C       0.7555   -2.0421   -0.1919
     8          C       0.3773    1.6479   -0.2001
     9          C      -1.7879    1.4484    0.9068
    10          C      -0.6718    2.2357    0.4095
    11          H      -1.4294   -0.4207   -1.3742
    12          H       3.0654    0.5670   -0.5045
    13          H       3.2747   -0.8113    0.5941
    14          H       3.2776   -1.0703   -1.1595
    15          H      -2.7542   -0.4611    0.9733
    16          H      -1.3263   -2.7227   -0.0221
    17          H      -2.5062    1.9539    1.5604
    18          H      -0.7035    3.3179    0.5702
    19          H       1.2548    2.2069   -0.5400
    20          H       1.3456   -2.9548   -0.1284


    FIRST DERIVATIVES WILL BE USED IN THE CALCULATION OF SECOND DERIVATIVES

          ESTIMATED TIME TO COMPLETE CALCULATION =        1.88 SECONDS

    FOR POINT-GROUP C1   THERE ARE   1 UNIQUE SYMMETRY FUNCTIONS.

 STEP:   1 TIME =     0.02 SECS, INTEGRAL =      0.02 TIME LEFT: 172799.97
 STEP:   2 TIME =     0.02 SECS, INTEGRAL =      0.04 TIME LEFT: 172799.95
 STEP:   3 TIME =     0.02 SECS, INTEGRAL =      0.06 TIME LEFT: 172799.93
 STEP:   4 TIME =     0.02 SECS, INTEGRAL =      0.08 TIME LEFT: 172799.91
 STEP:   5 TIME =     0.02 SECS, INTEGRAL =      0.10 TIME LEFT: 172799.89
 STEP:   6 TIME =     0.02 SECS, INTEGRAL =      0.12 TIME LEFT: 172799.88
 STEP:   7 TIME =     0.02 SECS, INTEGRAL =      0.14 TIME LEFT: 172799.86
 STEP:   8 TIME =     0.02 SECS, INTEGRAL =      0.16 TIME LEFT: 172799.83
 STEP:   9 TIME =     0.02 SECS, INTEGRAL =      0.18 TIME LEFT: 172799.81
 STEP:  10 TIME =     0.02 SECS, INTEGRAL =      0.20 TIME LEFT: 172799.79
 STEP:  11 TIME =     0.02 SECS, INTEGRAL =      0.22 TIME LEFT: 172799.77
 STEP:  12 TIME =     0.02 SECS, INTEGRAL =      0.25 TIME LEFT: 172799.75
 STEP:  13 TIME =     0.02 SECS, INTEGRAL =      0.27 TIME LEFT: 172799.73
 STEP:  14 TIME =     0.02 SECS, INTEGRAL =      0.29 TIME LEFT: 172799.71
 STEP:  15 TIME =     0.02 SECS, INTEGRAL =      0.31 TIME LEFT: 172799.68
 STEP:  16 TIME =     0.02 SECS, INTEGRAL =      0.33 TIME LEFT: 172799.66
 STEP:  17 TIME =     0.02 SECS, INTEGRAL =      0.35 TIME LEFT: 172799.64
 STEP:  18 TIME =     0.02 SECS, INTEGRAL =      0.37 TIME LEFT: 172799.62
 STEP:  19 TIME =     0.02 SECS, INTEGRAL =      0.39 TIME LEFT: 172799.60
 STEP:  20 TIME =     0.02 SECS, INTEGRAL =      0.41 TIME LEFT: 172799.58
 STEP:  21 TIME =     0.02 SECS, INTEGRAL =      0.44 TIME LEFT: 172799.55
 STEP:  22 TIME =     0.02 SECS, INTEGRAL =      0.46 TIME LEFT: 172799.54
 STEP:  23 TIME =     0.02 SECS, INTEGRAL =      0.48 TIME LEFT: 172799.52
 STEP:  24 TIME =     0.02 SECS, INTEGRAL =      0.50 TIME LEFT: 172799.50
 STEP:  25 TIME =     0.02 SECS, INTEGRAL =      0.52 TIME LEFT: 172799.47
 STEP:  26 TIME =     0.02 SECS, INTEGRAL =      0.54 TIME LEFT: 172799.45
 STEP:  27 TIME =     0.02 SECS, INTEGRAL =      0.56 TIME LEFT: 172799.43
 STEP:  28 TIME =     0.02 SECS, INTEGRAL =      0.58 TIME LEFT: 172799.41
 STEP:  29 TIME =     0.02 SECS, INTEGRAL =      0.60 TIME LEFT: 172799.39
 STEP:  30 TIME =     0.02 SECS, INTEGRAL =      0.62 TIME LEFT: 172799.37
 STEP:  31 TIME =     0.02 SECS, INTEGRAL =      0.64 TIME LEFT: 172799.35
 STEP:  32 TIME =     0.02 SECS, INTEGRAL =      0.66 TIME LEFT: 172799.33
 STEP:  33 TIME =     0.02 SECS, INTEGRAL =      0.68 TIME LEFT: 172799.31
 STEP:  34 TIME =     0.02 SECS, INTEGRAL =      0.71 TIME LEFT: 172799.29
 STEP:  35 TIME =     0.02 SECS, INTEGRAL =      0.73 TIME LEFT: 172799.27
 STEP:  36 TIME =     0.02 SECS, INTEGRAL =      0.75 TIME LEFT: 172799.24
 STEP:  37 TIME =     0.02 SECS, INTEGRAL =      0.77 TIME LEFT: 172799.22
 STEP:  38 TIME =     0.02 SECS, INTEGRAL =      0.79 TIME LEFT: 172799.20
 STEP:  39 TIME =     0.02 SECS, INTEGRAL =      0.81 TIME LEFT: 172799.18
 STEP:  40 TIME =     0.02 SECS, INTEGRAL =      0.83 TIME LEFT: 172799.16
 STEP:  41 TIME =     0.02 SECS, INTEGRAL =      0.85 TIME LEFT: 172799.14
 STEP:  42 TIME =     0.02 SECS, INTEGRAL =      0.87 TIME LEFT: 172799.12
 STEP:  43 TIME =     0.02 SECS, INTEGRAL =      0.89 TIME LEFT: 172799.10
 STEP:  44 TIME =     0.02 SECS, INTEGRAL =      0.91 TIME LEFT: 172799.08
 STEP:  45 TIME =     0.02 SECS, INTEGRAL =      0.93 TIME LEFT: 172799.06
 STEP:  46 TIME =     0.02 SECS, INTEGRAL =      0.95 TIME LEFT: 172799.04
 STEP:  47 TIME =     0.02 SECS, INTEGRAL =      0.97 TIME LEFT: 172799.02
 STEP:  48 TIME =     0.02 SECS, INTEGRAL =      0.99 TIME LEFT: 172799.00
 STEP:  49 TIME =     0.02 SECS, INTEGRAL =      1.01 TIME LEFT: 172798.98
 STEP:  50 TIME =     0.02 SECS, INTEGRAL =      1.04 TIME LEFT: 172798.96
 STEP:  51 TIME =     0.02 SECS, INTEGRAL =      1.05 TIME LEFT: 172798.94
 STEP:  52 TIME =     0.02 SECS, INTEGRAL =      1.07 TIME LEFT: 172798.92
 STEP:  53 TIME =     0.02 SECS, INTEGRAL =      1.09 TIME LEFT: 172798.90
 STEP:  54 TIME =     0.02 SECS, INTEGRAL =      1.11 TIME LEFT: 172798.88
 STEP:  55 TIME =     0.02 SECS, INTEGRAL =      1.13 TIME LEFT: 172798.86
 STEP:  56 TIME =     0.02 SECS, INTEGRAL =      1.15 TIME LEFT: 172798.84
 STEP:  57 TIME =     0.02 SECS, INTEGRAL =      1.17 TIME LEFT: 172798.82
 STEP:  58 TIME =     0.02 SECS, INTEGRAL =      1.19 TIME LEFT: 172798.80
 STEP:  59 TIME =     0.02 SECS, INTEGRAL =      1.21 TIME LEFT: 172798.79
 STEP:  60 TIME =     0.02 SECS, INTEGRAL =      1.23 TIME LEFT: 172798.77

(To convert to Hartree/Bohr^2, multiply by (10^(-21) x N x a0^2)/(4.184 x 627.51) =  0.0642)


           FORCE MATRIX IN MILLIDYNES/ANGSTROM


                  C  1       C  2       C  3       C  4       C  5       C  6
 ------------------------------------------------------------------------------
     C    1  15.468836
     C    2   0.125229  14.871402
     C    3   4.011304   0.661194  18.940491
     C    4   1.162057   5.518013   8.805526  18.585984
     C    5   4.937870   0.023174   0.711495   0.070266  17.883883
     C    6   4.264087   0.056088   1.081906   1.575391   0.576856  17.793083
     C    7   1.265788   0.554605   1.611829   4.877842   0.064345   9.626216
     C    8   0.613671   0.057909   5.828295   0.927087   0.203855   0.067999
     C    9   0.934391   0.013528   0.214996   0.101070  10.021367   0.063092
     C   10   0.173180   0.019115   1.292661   0.205602   1.133982   0.039722
     H   11   4.058526   0.020314   0.394000   0.055066   0.391693   0.367053
     H   12   0.003427   4.732690   0.018907   0.468331   0.001161   0.008958
     H   13   0.018253   4.699912   0.029158   0.445878   0.004003   0.004454
     H   14   0.017787   4.706260   0.034434   0.456249   0.002764   0.004332
     H   15   0.435997   0.004684   0.041125   0.006002   4.879119   0.011902
     H   16   0.407824   0.006961   0.042372   0.104562   0.011319   5.079475
     H   17   0.116347   0.000629   0.003614   0.002440   0.441016   0.013179
     H   18   0.005273   0.003183   0.120312   0.010322   0.048919   0.002410
     H   19   0.036415   0.012361   0.447678   0.023332   0.019184   0.009261
     H   20   0.113312   0.008555   0.046657   0.427887   0.015870   0.444127


                  C  7       C  8       C  9       C 10       H 11       H 12
 ------------------------------------------------------------------------------
     C    7  18.149466
     C    8   0.169131  18.121808
     C    9   0.054403   1.158293  18.101517
     C   10   0.080481   9.679131   5.435107  17.970921
     H   11   0.057674   0.022214   0.035126   0.019590   4.519304
     H   12   0.045348   0.012375   0.000632   0.001586   0.000450   5.436175
     H   13   0.015230   0.006504   0.001803   0.001985   0.002886   0.560220
     H   14   0.015620   0.008302   0.002004   0.002894   0.003395   0.554574
     H   15   0.007086   0.016397   0.443494   0.122718   0.012746   0.000220
     H   16   0.442086   0.011458   0.003474   0.002789   0.012737   0.001498
     H   17   0.002652   0.048390   4.854854   0.433294   0.015483   0.000163
     H   18   0.008613   0.439573   0.433581   4.867728   0.001189   0.000435
     H   19   0.010073   4.851946   0.123768   0.447110   0.004520   0.019512
     H   20   5.050237   0.006799   0.003118   0.002382   0.015585   0.001707


                  H 13       H 14       H 15       H 16       H 17       H 18
 ------------------------------------------------------------------------------
     H   13   5.409767
     H   14   0.572514   5.413429
     H   15   0.000872   0.000466   5.255960
     H   16   0.000548   0.000671   0.005118   5.479220
     H   17   0.000128   0.000134   0.063651   0.000511   5.218744
     H   18   0.000273   0.000564   0.007584   0.000492   0.032037   5.233161
     H   19   0.001886   0.000874   0.009438   0.001727   0.007197   0.061898
     H   20   0.002998   0.004247   0.000770   0.043296   0.000838   0.000650


                  H 19       H 20
 ------------------------------
     H   19   5.229695
     H   20   0.000527   5.442426


          HEAT OF FORMATION =      58.180186 KCALS/MOLE

          ZERO POINT ENERGY     104.904 KCAL/MOL


           NORMAL COORDINATE ANALYSIS (Total motion = 1 Angstrom)


   Root No.       1         2         3         4         5         6         7         8

                 1 A       2 A       3 A       4 A       5 A       6 A       7 A       8 A   

                  67.1     116.9     176.2     239.8     285.1     382.8     418.3     479.1
  
           1   -0.0021   -0.0105   -0.0100   -0.0096   -0.0051   -0.0042    0.0142   -0.0153
           2    0.0008    0.0002   -0.0055   -0.0180   -0.0029    0.0045    0.0225   -0.0263
           3   -0.0033   -0.0148   -0.0375    0.0242   -0.0091   -0.0245   -0.0139   -0.0196
           4   -0.0022   -0.0086   -0.0106   -0.0137   -0.0172   -0.0106    0.0035   -0.0250
           5    0.0046    0.0112    0.0227    0.0460    0.0543    0.0028    0.0196   -0.0122
           6    0.0089    0.0611   -0.0077    0.0220   -0.0243    0.0022    0.0013    0.0002
           7   -0.0019   -0.0099   -0.0128   -0.0132   -0.0021   -0.0044    0.0259   -0.0300
           8   -0.0000    0.0000   -0.0005   -0.0163   -0.0154    0.0074   -0.0012    0.0104
           9   -0.0039   -0.0291   -0.0455   -0.0056    0.0311   -0.0447    0.0120    0.0140
          10   -0.0018   -0.0087   -0.0080   -0.0064   -0.0050   -0.0097    0.0079   -0.0234
          11    0.0001    0.0037    0.0061   -0.0092   -0.0152    0.0019   -0.0222    0.0227
          12   -0.0040    0.0019   -0.0064   -0.0285    0.0485   -0.0323   -0.0214    0.0062
          13    0.0027    0.0254   -0.0146   -0.0089    0.0083    0.0394   -0.0042    0.0027
          14   -0.0016   -0.0088    0.0019    0.0151   -0.0008   -0.0249   -0.0069    0.0015
          15    0.0036    0.0305   -0.0471    0.0027    0.0046    0.0372   -0.0195   -0.0237
          16   -0.0020   -0.0077   -0.0022    0.0047   -0.0158   -0.0095   -0.0205    0.0166
          17   -0.0001   -0.0012    0.0039   -0.0166   -0.0118    0.0084    0.0252   -0.0233
          18   -0.0088   -0.0260    0.0275    0.0224   -0.0438   -0.0020    0.0343    0.0117
          19   -0.0020   -0.0073   -0.0012    0.0044   -0.0118   -0.0098   -0.0246    0.0168
          20   -0.0002    0.0017    0.0090   -0.0140   -0.0144    0.0080   -0.0110    0.0081
          21   -0.0087   -0.0092    0.0521   -0.0406    0.0274    0.0291   -0.0113   -0.0093
          22   -0.0001   -0.0133    0.0034    0.0162    0.0183    0.0244    0.0127    0.0143
          23   -0.0004    0.0035   -0.0039   -0.0201   -0.0142   -0.0020   -0.0013    0.0103
          24   -0.0018   -0.0515   -0.0143    0.0098    0.0070    0.0428    0.0159    0.0332
          25    0.0058    0.0355    0.0204    0.0006    0.0182   -0.0135    0.0089    0.0389
          26   -0.0031   -0.0115   -0.0180    0.0207    0.0012   -0.0033   -0.0220   -0.0087
          27    0.0086    0.0363    0.0165   -0.0206   -0.0040   -0.0323    0.0238    0.0083
          28    0.0036    0.0056    0.0349    0.0257    0.0138   -0.0063   -0.0194   -0.0038
          29   -0.0016   -0.0007   -0.0173   -0.0005    0.0005   -0.0008   -0.0121    0.0320
          30    0.0055   -0.0161    0.0514    0.0054   -0.0175   -0.0099   -0.0274   -0.0245
          31   -0.0060   -0.0401   -0.0059   -0.0211    0.0062   -0.0478    0.0490   -0.0037
          32    0.0047    0.0111   -0.0400   -0.0437    0.0347    0.0151    0.0235   -0.0674
          33   -0.0012    0.0001   -0.0406    0.0266   -0.0112   -0.0028   -0.0288   -0.0263
          34   -0.0058   -0.0079   -0.0230   -0.0511   -0.0866   -0.0051   -0.0388    0.0160
          35   -0.0342    0.0190    0.0261    0.0599    0.0682    0.0033    0.0325   -0.0238
          36   -0.2642    0.1155   -0.0054    0.0528   -0.0493    0.0148    0.0143   -0.0058
          37   -0.0507   -0.0425   -0.0032   -0.0381    0.0613   -0.0396   -0.0027   -0.0327
          38    0.2697   -0.0270    0.0248    0.0496    0.0905   -0.0016    0.0367   -0.0307
          39    0.1230    0.0647   -0.0108    0.0354   -0.0513    0.0151    0.0101   -0.0022
          40    0.0498    0.0240   -0.0072    0.0443   -0.0343    0.0134    0.0480   -0.0579
          41   -0.2120    0.0478    0.0313    0.0820    0.0776    0.0062    0.0472   -0.0368
          42    0.1945    0.0537   -0.0120    0.0301   -0.0508    0.0138    0.0080   -0.0017
          43    0.0036    0.0445   -0.0457   -0.0275    0.0134    0.1066    0.0041   -0.0016
          44   -0.0021   -0.0150    0.0147    0.0375    0.0038   -0.0606   -0.0268    0.0193
          45    0.0047    0.0618   -0.0925   -0.0014    0.0222    0.1249   -0.0335   -0.0041
          46   -0.0021   -0.0074    0.0004    0.0135   -0.0236   -0.0136   -0.0427    0.0400
          47   -0.0006   -0.0038    0.0057   -0.0202   -0.0149    0.0151    0.0572   -0.0414
          48   -0.0127   -0.0402    0.0553    0.0512   -0.1111    0.0177    0.1103    0.0326
          49    0.0096    0.0654    0.0260   -0.0133    0.0296   -0.0296    0.0480    0.0848
          50   -0.0053   -0.0202   -0.0305    0.0419    0.0052   -0.0024   -0.0416   -0.0391
          51    0.0144    0.0759    0.0326   -0.0520    0.0054   -0.0508    0.0812    0.0827
          52    0.0043   -0.0027    0.0634    0.0540    0.0080    0.0034   -0.0683   -0.0462
          53   -0.0020    0.0007   -0.0260   -0.0020    0.0038   -0.0047   -0.0035    0.0380
          54    0.0085   -0.0281    0.1159    0.0210   -0.0431    0.0183   -0.0953   -0.0768
          55   -0.0015   -0.0328   -0.0009    0.0335    0.0262    0.0723    0.0040    0.0474
          56   -0.0009    0.0060   -0.0020   -0.0368   -0.0280   -0.0079    0.0153   -0.0195
          57   -0.0066   -0.0971   -0.0222    0.0262    0.0045    0.1561    0.0211    0.0698
          58   -0.0021   -0.0061    0.0035    0.0083   -0.0191   -0.0091   -0.0522    0.0510
          59   -0.0006    0.0028    0.0160   -0.0144   -0.0175    0.0136   -0.0285    0.0287
          60   -0.0138   -0.0050    0.1102   -0.0842    0.0478    0.1015   -0.0133   -0.0260


   Root No.       9        10        11        12        13        14        15        16

                 9 A      10 A      11 A      12 A      13 A      14 A      15 A      16 A   

                 533.8     546.6     608.1     680.3     724.9     756.5     799.6     829.0
  
           1    0.0285   -0.0227   -0.0184   -0.0235   -0.0056    0.0024   -0.0052   -0.0233
           2   -0.0045    0.0124    0.0009   -0.0176    0.0265    0.0049   -0.0045   -0.0013
           3   -0.0087    0.0223   -0.0336   -0.0241   -0.0291    0.0108    0.0091   -0.0085
           4   -0.0309    0.0011    0.0283    0.0383   -0.0397   -0.0010    0.0125    0.0156
           5    0.0000    0.0007    0.0032    0.0060   -0.0068   -0.0018   -0.0014   -0.0062
           6    0.0011    0.0021    0.0039   -0.0044    0.0015   -0.0030    0.0060    0.0026
           7    0.0084   -0.0103   -0.0078   -0.0151   -0.0085    0.0035    0.0053    0.0078
           8    0.0209    0.0185   -0.0187   -0.0168   -0.0087    0.0013    0.0055    0.0071
           9    0.0119    0.0094   -0.0302    0.0614    0.0292    0.0161   -0.0120   -0.0188
          10   -0.0202   -0.0037    0.0178    0.0169   -0.0151    0.0001    0.0034    0.0034
          11   -0.0065    0.0375    0.0061    0.0168   -0.0061   -0.0079   -0.0085   -0.0164
          12    0.0294    0.0301    0.0546   -0.0251    0.0028   -0.0085    0.0142    0.0035
          13    0.0414   -0.0493    0.0125    0.0088   -0.0033   -0.0260   -0.0143   -0.0388
          14   -0.0216   -0.0469    0.0144   -0.0122    0.0075    0.0030   -0.0060   -0.0025
          15   -0.0071    0.0223   -0.0014   -0.0015    0.0060   -0.0132    0.0141    0.0010
          16   -0.0093   -0.0104   -0.0033   -0.0255    0.0405    0.0057    0.0007    0.0090
          17   -0.0079    0.0285    0.0132   -0.0058    0.0304    0.0012   -0.0115   -0.0016
          18    0.0241    0.0121    0.0201   -0.0033   -0.0124    0.0023   -0.0281   -0.0009
          19   -0.0152   -0.0113   -0.0033   -0.0206    0.0369    0.0058    0.0003    0.0068
          20   -0.0188    0.0432    0.0071    0.0273   -0.0129   -0.0090   -0.0187   -0.0237
          21   -0.0201   -0.0170   -0.0240   -0.0064   -0.0123    0.0064   -0.0221    0.0003
          22   -0.0058    0.0585   -0.0174   -0.0191    0.0048   -0.0084   -0.0044    0.0206
          23    0.0357    0.0079   -0.0288   -0.0135   -0.0202    0.0076    0.0198    0.0282
          24   -0.0170   -0.0235    0.0051    0.0005   -0.0049   -0.0218   -0.0101    0.0202
          25    0.0050    0.0133   -0.0133    0.0143   -0.0191   -0.0079    0.0115   -0.0064
          26   -0.0136   -0.0450    0.0151   -0.0055    0.0111    0.0029   -0.0044    0.0001
          27   -0.0297   -0.0284    0.0060   -0.0250    0.0044   -0.0171    0.0019   -0.0195
          28    0.0065    0.0322   -0.0078    0.0127    0.0088   -0.0059   -0.0085    0.0116
          29    0.0185   -0.0513   -0.0047    0.0217   -0.0240    0.0062    0.0175    0.0139
          30    0.0232   -0.0211   -0.0017    0.0138    0.0025   -0.0133   -0.0102    0.0230
          31    0.0413   -0.0249   -0.0449    0.0094    0.0106    0.0582   -0.0432   -0.0648
          32   -0.0181    0.0220   -0.0389    0.0264    0.0716    0.0082    0.0306   -0.0469
          33   -0.0151    0.0236   -0.0232   -0.0344   -0.0319   -0.0140    0.0286    0.0082
          34   -0.0514    0.0440    0.0269    0.0678   -0.0367   -0.0107   -0.0140   -0.0350
          35    0.0029   -0.0124   -0.0018    0.0018   -0.0090    0.0026    0.0028    0.0059
          36   -0.0142   -0.0138   -0.0342    0.0143   -0.0008    0.0104   -0.0142   -0.0055
          37    0.0032    0.0170    0.1077    0.0003   -0.0487   -0.0230    0.0667    0.0577
          38    0.0113   -0.0158    0.0135   -0.0069   -0.0143    0.0007    0.0184    0.0223
          39   -0.0125   -0.0115   -0.0323    0.0111    0.0028    0.0091   -0.0143   -0.0085
          40   -0.0543   -0.0526   -0.0394    0.0675   -0.0583    0.0306   -0.0051    0.0334
          41    0.0012   -0.0272   -0.0105    0.0044   -0.0171    0.0093    0.0069    0.0190
          42   -0.0130   -0.0096   -0.0270    0.0136   -0.0013    0.0079   -0.0107   -0.0056
          43    0.0657   -0.0579    0.0591    0.0407    0.0434    0.0693   -0.0796    0.0348
          44   -0.0424   -0.0365   -0.0106   -0.0111   -0.0268   -0.0385    0.0403   -0.0172
          45    0.0126    0.0188    0.0597    0.0691    0.0505    0.1252   -0.0517    0.1374
          46   -0.0296    0.0011    0.0041   -0.0055    0.0429    0.0016    0.0043    0.0163
          47    0.0182    0.0189    0.0133   -0.0076    0.0536   -0.0029    0.0181   -0.0095
          48    0.0716    0.0182    0.0665    0.1080    0.1413   -0.0502    0.1895   -0.0023
          49   -0.0425    0.0271    0.0103    0.0028   -0.0110    0.1165    0.0107    0.0434
          50   -0.0325    0.0046    0.0002   -0.0182    0.0289   -0.0431    0.0067   -0.0052
          51   -0.0676   -0.0516    0.0434   -0.0281   -0.0005    0.1555   -0.0069    0.0408
          52    0.0061    0.0132    0.0386    0.0244    0.0280    0.0906    0.0090   -0.0827
          53    0.0091   -0.0570   -0.0070    0.0201   -0.0204   -0.0184    0.0064    0.0266
          54    0.0872    0.0128    0.0216    0.0234   -0.0220    0.1744    0.0731   -0.0741
          55   -0.0258    0.0736    0.0108   -0.0352   -0.0158    0.0431    0.0357   -0.0660
          56    0.0468   -0.0024   -0.0391   -0.0474   -0.0283   -0.0046    0.0241    0.0717
          57   -0.0496    0.0008    0.0603   -0.0954   -0.0703    0.0904    0.0992   -0.1329
          58   -0.0141   -0.0098   -0.0203   -0.0218    0.0491    0.0015   -0.0012   -0.0113
          59   -0.0223    0.0401   -0.0104    0.0334    0.0011   -0.0136   -0.0083   -0.0359
          60   -0.0843   -0.0843   -0.1195    0.0863    0.0780   -0.0152    0.1513    0.0071


   Root No.      17        18        19        20        21        22        23        24

                17 A      18 A      19 A      20 A      21 A      22 A      23 A      24 A   

                 845.2     907.7     949.2     958.7     967.4     980.7     996.2    1013.4
  
           1   -0.0166    0.0305   -0.0067    0.0037   -0.0015   -0.0047   -0.0085    0.0016
           2    0.0188    0.0049    0.0003    0.0019    0.0004    0.0042    0.0023   -0.0047
           3   -0.0088    0.0474   -0.0061    0.0058   -0.0055   -0.0155   -0.0103    0.0078
           4    0.0008   -0.0137   -0.0007    0.0028    0.0084    0.0026    0.0041   -0.0001
           5   -0.0069    0.0074   -0.0094    0.0061    0.0429    0.0110    0.0015   -0.0012
           6   -0.0029    0.0119    0.0115    0.0024   -0.0071    0.0273    0.0030    0.0315
           7   -0.0117   -0.0026   -0.0005   -0.0045   -0.0035    0.0030   -0.0029   -0.0022
           8   -0.0146   -0.0080    0.0015   -0.0007    0.0007   -0.0017   -0.0009    0.0011
           9    0.0011   -0.0299    0.0186   -0.0043    0.0070   -0.0061    0.0151    0.0231
          10    0.0024    0.0011   -0.0001   -0.0004   -0.0001   -0.0012   -0.0016   -0.0011
          11   -0.0181    0.0076   -0.0046    0.0000    0.0051   -0.0013   -0.0013   -0.0024
          12   -0.0038    0.0044   -0.0058    0.0006    0.0005   -0.0252   -0.0036   -0.0433
          13   -0.0106   -0.0005    0.0104   -0.0258    0.0023   -0.0104    0.0194    0.0066
          14   -0.0267   -0.0083    0.0025    0.0026    0.0012   -0.0027   -0.0021    0.0034
          15    0.0170   -0.0130   -0.0031   -0.0136    0.0021    0.0100    0.0046   -0.0078
          16    0.0248   -0.0042    0.0049    0.0008    0.0040   -0.0020    0.0023    0.0014
          17    0.0513    0.0166    0.0228    0.0017    0.0045   -0.0203   -0.0042    0.0103
          18    0.0114   -0.0086    0.0273    0.0044   -0.0004    0.0240    0.0247   -0.0292
          19    0.0199   -0.0043   -0.0011    0.0006    0.0005   -0.0002    0.0009    0.0022
          20   -0.0183    0.0130    0.0041   -0.0094   -0.0425   -0.0098   -0.0083    0.0049
          21    0.0164   -0.0181   -0.0377   -0.0101    0.0012   -0.0016   -0.0112    0.0324
          22   -0.0322   -0.0192    0.0055   -0.0169    0.0095    0.0053   -0.0060   -0.0009
          23   -0.0130   -0.0333    0.0028    0.0015    0.0099    0.0022    0.0093    0.0040
          24    0.0068    0.0212   -0.0002   -0.0253    0.0008    0.0123   -0.0312   -0.0141
          25    0.0404    0.0067    0.0022    0.0174   -0.0065    0.0029   -0.0211   -0.0040
          26   -0.0238   -0.0063   -0.0022   -0.0073    0.0015   -0.0006    0.0069    0.0012
          27   -0.0182   -0.0321    0.0085    0.0188    0.0027    0.0063   -0.0241    0.0007
          28   -0.0024    0.0068   -0.0072    0.0123   -0.0028   -0.0062    0.0175    0.0038
          29    0.0466    0.0150   -0.0065    0.0063   -0.0019    0.0070   -0.0073   -0.0057
          30   -0.0011    0.0122   -0.0128    0.0213   -0.0054   -0.0133    0.0311    0.0063
          31   -0.0597    0.0389   -0.0610    0.1173   -0.0631    0.0816   -0.1063   -0.0625
          32    0.0447    0.0069   -0.1640   -0.0141   -0.0756    0.1750    0.1347   -0.1185
          33    0.0116    0.0411    0.0069   -0.0464    0.0169   -0.0410    0.0432    0.0278
          34   -0.0302    0.0239   -0.0610    0.0356    0.2492    0.0406    0.0112   -0.0282
          35    0.0022   -0.0074    0.0019   -0.0029   -0.0163   -0.0081   -0.0009   -0.0043
          36    0.0069   -0.0203   -0.0162   -0.0043    0.0026   -0.0390   -0.0041   -0.0396
          37   -0.0048    0.0246    0.0752    0.0069   -0.0954    0.1204    0.0207    0.1513
          38    0.0057   -0.0102    0.0236   -0.0060   -0.0688    0.0046    0.0025    0.0235
          39    0.0044   -0.0142   -0.0156   -0.0036    0.0076   -0.0345   -0.0047   -0.0366
          40    0.0364   -0.1052   -0.0228   -0.0226   -0.0889   -0.1431   -0.0074   -0.1221
          41    0.0128   -0.0303    0.0090   -0.0102   -0.0685   -0.0333   -0.0012   -0.0144
          42    0.0037   -0.0147   -0.0148   -0.0012    0.0148   -0.0277   -0.0022   -0.0316
          43   -0.0805    0.0184    0.0103    0.0676   -0.0058   -0.0206   -0.0220    0.0186
          44    0.0216   -0.0274   -0.0032   -0.0366    0.0003    0.0081    0.0047   -0.0083
          45   -0.0557   -0.0029   -0.0123    0.1249   -0.0163    0.0051   -0.0734   -0.0001
          46    0.0002   -0.0379    0.0044   -0.0148   -0.0576    0.0194    0.0192   -0.0205
          47    0.0612    0.0498   -0.0050    0.0107    0.0571   -0.0526   -0.0340    0.0455
          48   -0.0786    0.0012   -0.1572   -0.0304   -0.0191   -0.0571   -0.0675    0.0677
          49   -0.0091    0.0746   -0.0282   -0.0690   -0.0011   -0.0044    0.0475   -0.0090
          50   -0.0188   -0.0677    0.0013    0.0435   -0.0018    0.0314   -0.0591   -0.0186
          51   -0.0775    0.0881   -0.0279   -0.1152    0.0116   -0.0259    0.1020    0.0103
          52    0.0048    0.0015    0.0246   -0.0575   -0.0005    0.0311   -0.0762   -0.0177
          53    0.0408    0.0248   -0.0169    0.0238   -0.0073   -0.0020    0.0115   -0.0023
          54    0.0412   -0.0588    0.0618   -0.1085    0.0319    0.0575   -0.1147   -0.0225
          55    0.0015   -0.0369   -0.0034    0.0630    0.0030   -0.0254    0.0584    0.0296
          56   -0.0545   -0.0622    0.0088   -0.0286    0.0048    0.0106   -0.0077   -0.0096
          57    0.0269   -0.0695   -0.0134    0.1308   -0.0243   -0.0531    0.1058    0.0417
          58   -0.0348   -0.0079   -0.0185   -0.0085   -0.0635    0.0294    0.0071   -0.0263
          59   -0.0615    0.0203    0.0090   -0.0112   -0.0832    0.0083   -0.0014   -0.0225
          60   -0.0969    0.1033    0.1869    0.0527    0.0230   -0.0012    0.0401   -0.1061


   Root No.      25        26        27        28        29        30        31        32

                25 A      26 A      27 A      28 A      29 A      30 A      31 A      32 A   

                1025.9    1049.8    1073.7    1103.0    1134.0    1144.7    1181.6    1214.6
  
           1   -0.0033   -0.0044   -0.0046    0.0059    0.0065   -0.0084   -0.0239    0.0129
           2   -0.0044   -0.0079   -0.0024    0.0110   -0.0069   -0.0158    0.0129    0.0359
           3   -0.0239   -0.0016    0.0058   -0.0171    0.0068    0.0041    0.0181    0.0060
           4    0.0032   -0.0164   -0.0102   -0.0114    0.0098    0.0032    0.0085    0.0117
           5   -0.0015    0.0068    0.0032    0.0076   -0.0084   -0.0039    0.0054    0.0021
           6    0.0019    0.0007   -0.0002   -0.0005    0.0006    0.0005   -0.0002   -0.0002
           7   -0.0053    0.0239    0.0091    0.0352   -0.0304   -0.0076   -0.0196   -0.0140
           8    0.0029   -0.0050   -0.0010    0.0001    0.0078    0.0076   -0.0182    0.0211
           9   -0.0025    0.0046   -0.0049    0.0064    0.0022    0.0013   -0.0008    0.0016
          10   -0.0017    0.0113    0.0081    0.0108   -0.0117   -0.0041   -0.0085   -0.0287
          11    0.0009   -0.0064   -0.0073   -0.0114    0.0201    0.0116   -0.0142   -0.0009
          12   -0.0027   -0.0010    0.0012   -0.0009   -0.0018   -0.0008    0.0012   -0.0006
          13    0.0040    0.0088   -0.0029   -0.0226    0.0056    0.0035    0.0067    0.0104
          14   -0.0180    0.0095   -0.0048   -0.0152   -0.0020   -0.0046    0.0111   -0.0016
          15    0.0604   -0.0047    0.0017    0.0114   -0.0082   -0.0053    0.0039   -0.0076
          16    0.0016    0.0001    0.0040   -0.0090    0.0086    0.0066   -0.0048   -0.0064
          17    0.0074    0.0104    0.0103   -0.0110   -0.0029    0.0027    0.0148    0.0076
          18   -0.0031   -0.0015   -0.0061    0.0024    0.0006    0.0014   -0.0060   -0.0037
          19    0.0004   -0.0024   -0.0054   -0.0073    0.0046    0.0055   -0.0012   -0.0135
          20   -0.0031    0.0155    0.0164    0.0082   -0.0081   -0.0049   -0.0070   -0.0281
          21   -0.0009   -0.0004    0.0007    0.0003    0.0006   -0.0008    0.0018    0.0045
          22   -0.0034   -0.0187    0.0079   -0.0156   -0.0086    0.0024    0.0077   -0.0124
          23    0.0038   -0.0093    0.0044   -0.0063    0.0008    0.0011   -0.0067    0.0007
          24   -0.0054    0.0029   -0.0035   -0.0011    0.0087    0.0022   -0.0022    0.0065
          25   -0.0229    0.0288   -0.0140   -0.0021    0.0081   -0.0043    0.0127    0.0094
          26    0.0133   -0.0007    0.0003   -0.0012    0.0027   -0.0036    0.0080   -0.0103
          27   -0.0219   -0.0212    0.0103    0.0020   -0.0031    0.0044   -0.0078   -0.0092
          28    0.0091   -0.0111    0.0060    0.0075   -0.0025    0.0036    0.0093   -0.0119
          29    0.0005   -0.0281    0.0192    0.0178   -0.0152   -0.0030    0.0004   -0.0188
          30    0.0153    0.0081   -0.0025    0.0035    0.0006   -0.0044   -0.0057    0.0047
          31    0.2705   -0.0113    0.0299   -0.0811    0.0001    0.0217    0.0672   -0.0081
          32   -0.1711    0.0036   -0.0069   -0.0692    0.0467    0.0424   -0.0230   -0.0452
          33   -0.1573    0.0028   -0.0096    0.0179    0.0125   -0.0056   -0.0265    0.0095
          34   -0.0045    0.0080    0.0009    0.0110   -0.0165   -0.0127    0.0467    0.0746
          35    0.0001   -0.0014   -0.0004    0.0006   -0.0005    0.0002   -0.0035   -0.0089
          36   -0.0023   -0.0021   -0.0004   -0.0010    0.0008    0.0003    0.0003    0.0016
          37    0.0184   -0.0482   -0.0295   -0.0446    0.0430    0.0149    0.0165    0.0697
          38    0.0050   -0.0196   -0.0092   -0.0160    0.0151    0.0051   -0.0053    0.0154
          39   -0.0034    0.0060    0.0042    0.0065   -0.0065   -0.0019   -0.0062   -0.0196
          40    0.0038   -0.0634   -0.0319   -0.0499    0.0475    0.0154    0.0114    0.0690
          41    0.0032   -0.0243   -0.0104   -0.0186    0.0170    0.0049   -0.0052    0.0205
          42   -0.0015   -0.0026   -0.0019   -0.0026    0.0029    0.0009    0.0071    0.0144
          43   -0.1307   -0.0441    0.0225    0.0116    0.0625   -0.0305    0.0590   -0.0190
          44    0.0758    0.1434   -0.0702   -0.1002   -0.1199    0.0727   -0.1194    0.0699
          45   -0.0794    0.0893   -0.0443   -0.0460   -0.0761    0.0470   -0.0911    0.0377
          46   -0.0177    0.0727    0.2094    0.0140   -0.0154   -0.0515    0.0518    0.1233
          47    0.0241   -0.0548   -0.1723   -0.0330    0.0188    0.0543   -0.0339   -0.1079
          48   -0.0101    0.0061    0.0320    0.0009   -0.0023   -0.0106    0.0122    0.0174
          49    0.0966    0.0624   -0.0495    0.0475    0.1237   -0.0882   -0.0447    0.0227
          50    0.0481    0.0487   -0.0550    0.0831    0.1911   -0.1394   -0.0908    0.0082
          51    0.0852   -0.0234    0.0144   -0.0089   -0.0228    0.0153    0.0030   -0.0116
          52   -0.0039   -0.0649    0.0416    0.1403    0.0428    0.2396   -0.0602    0.0842
          53    0.0112   -0.0318    0.0228    0.0346   -0.0101    0.0204   -0.0068   -0.0101
          54   -0.0553    0.0196   -0.0161   -0.0763   -0.0249   -0.1237    0.0316   -0.0495
          55    0.0075   -0.0901    0.0353   -0.0358   -0.0508   -0.0654   -0.0811    0.0153
          56   -0.0003    0.1394   -0.0457    0.0545    0.0710    0.1321    0.1618   -0.0607
          57    0.0152    0.0702   -0.0200    0.0455    0.0202    0.0407    0.0492   -0.0190
          58   -0.0219   -0.0593   -0.2053    0.0887   -0.1172   -0.0502    0.0881    0.0754
          59   -0.0168   -0.0204   -0.1104    0.0690   -0.0856   -0.0402    0.0493    0.0273
          60    0.0048    0.0006    0.0118   -0.0128    0.0122    0.0072   -0.0060   -0.0059


   Root No.      33        34        35        36        37        38        39        40

                33 A      34 A      35 A      36 A      37 A      38 A      39 A      40 A   

                1289.0    1355.0    1372.8    1388.2    1391.0    1423.3    1483.2    1542.2
  
           1    0.0294    0.0273    0.0424   -0.0001    0.0024   -0.0240    0.0917    0.0245
           2    0.0673   -0.0060    0.0148    0.0003   -0.0083    0.0755   -0.0477    0.0157
           3   -0.0239   -0.0107   -0.0043    0.0003   -0.0028    0.0173   -0.0393   -0.0043
           4    0.0007   -0.0407    0.0282    0.0026   -0.0079    0.0119    0.0340   -0.0747
           5   -0.0087    0.0045   -0.0029   -0.0081   -0.0373    0.0065    0.0101   -0.0187
           6    0.0005   -0.0022    0.0010   -0.0427    0.0064   -0.0004   -0.0015    0.0022
           7   -0.0015   -0.0009   -0.0408   -0.0009    0.0076   -0.0348   -0.0515   -0.0355
           8    0.0140   -0.0080   -0.0239   -0.0000    0.0034   -0.0386   -0.0132   -0.0972
           9    0.0070    0.0021    0.0024   -0.0002    0.0005   -0.0039    0.0022   -0.0049
          10   -0.0006   -0.0168    0.0005    0.0015   -0.0090   -0.0012   -0.0260    0.1013
          11    0.0404   -0.0171    0.0131    0.0022   -0.0045   -0.0696   -0.0574    0.0617
          12   -0.0040    0.0020   -0.0014   -0.0010    0.0008    0.0051    0.0037   -0.0057
          13   -0.0284   -0.0078    0.0033    0.0004   -0.0035    0.0255   -0.0466   -0.0080
          14    0.0144   -0.0107   -0.0226   -0.0002    0.0001   -0.0051    0.0215    0.0139
          15    0.0278    0.0005   -0.0115   -0.0003    0.0022   -0.0167    0.0373    0.0097
          16    0.0064    0.0050   -0.0069   -0.0005    0.0029    0.0076   -0.0022   -0.0234
          17   -0.0646   -0.0023    0.0094    0.0007    0.0017   -0.0520    0.0228    0.0083
          18    0.0075    0.0017   -0.0001   -0.0002    0.0001    0.0038    0.0012   -0.0002
          19    0.0053    0.0044   -0.0104   -0.0009    0.0012    0.0337   -0.0015   -0.0093
          20   -0.0039    0.0276   -0.0112   -0.0025    0.0068    0.0609    0.0343   -0.0332
          21    0.0008   -0.0028    0.0013    0.0004   -0.0007   -0.0055   -0.0036    0.0026
          22   -0.0132    0.0072    0.0174    0.0001   -0.0011    0.0113   -0.0017    0.0158
          23   -0.0352   -0.0160   -0.0137    0.0001   -0.0059    0.0373    0.0365    0.0629
          24    0.0014   -0.0057   -0.0084   -0.0001   -0.0003   -0.0025    0.0065    0.0008
          25    0.0256   -0.0167   -0.0349   -0.0003   -0.0000   -0.0036    0.0384    0.0158
          26    0.0119   -0.0007   -0.0139   -0.0003    0.0029   -0.0237    0.0362   -0.0020
          27   -0.0153    0.0113    0.0197    0.0001    0.0010   -0.0055   -0.0132   -0.0108
          28    0.0118    0.0163    0.0254    0.0001    0.0030   -0.0228   -0.0254   -0.0350
          29   -0.0098    0.0193    0.0302    0.0001    0.0016    0.0010   -0.0304   -0.0100
          30   -0.0068   -0.0066   -0.0107   -0.0000   -0.0014    0.0126    0.0087    0.0164
          31   -0.0419   -0.0269   -0.0269    0.0003   -0.0035    0.0165   -0.0459   -0.0062
          32   -0.0673    0.0052   -0.0099   -0.0007    0.0052   -0.0340    0.0305   -0.0177
          33    0.0013    0.0148    0.0240    0.0000    0.0012   -0.0101    0.0280    0.0055
          34   -0.0507    0.1507   -0.0755   -0.0064    0.2024    0.0335   -0.0097    0.0398
          35    0.0037   -0.0315    0.0164    0.0627   -0.0603    0.0001    0.0155   -0.0369
          36   -0.0002    0.0176   -0.0105    0.4207   -0.0011    0.0021   -0.0007    0.0033
          37    0.0024    0.1535   -0.0720    0.0869   -0.0567   -0.0345   -0.0420    0.0542
          38    0.0093   -0.0062    0.0018    0.2439    0.2781    0.0030   -0.0199    0.0377
          39    0.0045   -0.0832    0.0426    0.0280    0.1268    0.0188    0.0207   -0.0323
          40    0.0085    0.1481   -0.0669   -0.1119   -0.0503   -0.0425   -0.0451    0.0596
          41    0.0089    0.0053   -0.0026   -0.2124    0.2404   -0.0071   -0.0279    0.0488
          42   -0.0061    0.0872   -0.0447    0.0719   -0.2057   -0.0189   -0.0143    0.0198
          43   -0.0106   -0.0254   -0.0429   -0.0001   -0.0007   -0.0003   -0.0091    0.0018
          44   -0.0316    0.0304    0.0849    0.0009   -0.0064    0.0521   -0.0583   -0.0050
          45   -0.0073    0.0312    0.0614    0.0002   -0.0007    0.0108   -0.0055   -0.0038
          46   -0.0459   -0.0115    0.0465    0.0025   -0.0039   -0.0787    0.0263    0.0217
          47   -0.0191    0.0140   -0.0381   -0.0022    0.0082    0.0282    0.0005   -0.0359
          48    0.0058   -0.0036    0.0022   -0.0001   -0.0018    0.0087   -0.0068    0.0029
          49   -0.0646   -0.0068    0.0077    0.0004   -0.0049    0.0373   -0.0339    0.0095
          50   -0.1394    0.0192    0.0612    0.0009   -0.0046    0.0422   -0.0871   -0.0164
          51   -0.0005    0.0107    0.0138    0.0000    0.0021   -0.0154    0.0023   -0.0104
          52   -0.0678   -0.0436   -0.0427    0.0001   -0.0110    0.0679    0.0379    0.0642
          53   -0.0199    0.0145    0.0258    0.0001    0.0002    0.0121   -0.0262    0.0017
          54    0.0317    0.0273    0.0274   -0.0000    0.0066   -0.0371   -0.0267   -0.0366
          55   -0.0455   -0.0301   -0.0391    0.0009   -0.0094    0.0302    0.0220    0.0482
          56    0.0233    0.0582    0.0989   -0.0010    0.0088    0.0043   -0.0134    0.0102
          57    0.0244    0.0196    0.0290    0.0000    0.0035   -0.0148   -0.0133   -0.0164
          58   -0.1057   -0.0383    0.0212    0.0033   -0.0089   -0.0730   -0.0084    0.0459
          59   -0.0760    0.0030    0.0095   -0.0001    0.0013   -0.0062    0.0349   -0.0011
          60    0.0091   -0.0000   -0.0020    0.0003   -0.0003    0.0055   -0.0071   -0.0012


   Root No.      41        42        43        44        45        46        47        48

                41 A      42 A      43 A      44 A      45 A      46 A      47 A      48 A   

                1744.3    1795.7    1828.1    1884.7    2835.0    3055.4    3060.1    3067.5
  
           1   -0.0102    0.0026   -0.0165    0.0012   -0.0304    0.0000    0.0001    0.0000
           2    0.0088   -0.0040    0.0215   -0.0108    0.0048   -0.0002    0.0001   -0.0000
           3    0.0040   -0.0014    0.0136   -0.0054   -0.0661   -0.0002   -0.0000   -0.0001
           4    0.0106   -0.0105   -0.0172   -0.0402   -0.0001   -0.0001    0.0003   -0.0007
           5    0.0046    0.0004   -0.0007   -0.0006   -0.0000    0.0014   -0.0030   -0.0016
           6   -0.0006   -0.0003    0.0007    0.0014   -0.0000   -0.0004    0.0012   -0.0538
           7    0.0152   -0.0189   -0.0357   -0.1120   -0.0016   -0.0002   -0.0001    0.0001
           8   -0.0537    0.0006    0.0337    0.1623    0.0003    0.0000    0.0003   -0.0001
           9   -0.0021   -0.0045   -0.0015    0.0075   -0.0003    0.0001    0.0000   -0.0002
          10   -0.0211    0.0342    0.0600    0.1603    0.0010    0.0001   -0.0000   -0.0001
          11    0.0120   -0.0272   -0.0282   -0.0843   -0.0007   -0.0000   -0.0001    0.0000
          12   -0.0001    0.0006    0.0003    0.0005   -0.0002   -0.0000    0.0000   -0.0001
          13   -0.0005    0.0045    0.0065    0.0017    0.0006    0.0093    0.0098    0.0006
          14    0.0027    0.0649   -0.1562    0.0483   -0.0012    0.0060    0.0066    0.0004
          15   -0.0014    0.0182   -0.0546    0.0154   -0.0013   -0.0046   -0.0047   -0.0003
          16    0.2147    0.0148    0.0082    0.0243   -0.0009    0.0000    0.0001   -0.0000
          17   -0.0319   -0.0035   -0.0065   -0.0125    0.0012    0.0000   -0.0000    0.0000
          18   -0.0066   -0.0017    0.0021    0.0001   -0.0006   -0.0000   -0.0000   -0.0000
          19   -0.2119   -0.0154   -0.0146   -0.0426    0.0008   -0.0000   -0.0000    0.0000
          20    0.0112    0.0051   -0.0029   -0.0094    0.0000    0.0000    0.0000   -0.0001
          21    0.0079    0.0007    0.0008    0.0021   -0.0002   -0.0000    0.0000   -0.0000
          22    0.0109   -0.1333   -0.0389    0.0323    0.0001    0.0114   -0.0195   -0.0001
          23    0.0113    0.1015    0.0276   -0.0705   -0.0002    0.0078   -0.0124   -0.0001
          24   -0.0046    0.0780    0.0240   -0.0222   -0.0002   -0.0043    0.0076    0.0001
          25    0.0048   -0.0449    0.0311   -0.0098    0.0003   -0.0181   -0.0129   -0.0003
          26    0.0023   -0.0779    0.1578   -0.0489    0.0010    0.0136    0.0093    0.0002
          27   -0.0025    0.0040    0.0282   -0.0083   -0.0001    0.0167    0.0118    0.0003
          28   -0.0190    0.1711    0.0360   -0.0220   -0.0004    0.0009    0.0002   -0.0001
          29    0.0035   -0.0473   -0.0380    0.0161   -0.0001   -0.0214    0.0160    0.0018
          30    0.0101   -0.0948   -0.0243    0.0138    0.0003   -0.0033    0.0020    0.0003
          31    0.0180    0.0058   -0.0036    0.0043    0.3687    0.0004    0.0003   -0.0000
          32    0.0094    0.0035   -0.0002    0.0223   -0.0571   -0.0000    0.0001   -0.0000
          33   -0.0006    0.0019   -0.0021   -0.0080    0.8219    0.0002   -0.0001    0.0001
          34    0.0020    0.0121    0.0121    0.0294    0.0000   -0.0032    0.0069   -0.0126
          35    0.0078   -0.0047   -0.0072   -0.0160   -0.0001   -0.0135    0.0292   -0.0584
          36   -0.0009    0.0006    0.0002    0.0002    0.0000    0.0019   -0.0039   -0.0185
          37    0.0014   -0.0041   -0.0033   -0.0127   -0.0001    0.0028   -0.0073    0.1863
          38   -0.0009    0.0004    0.0015    0.0018    0.0000   -0.0015    0.0041   -0.1424
          39    0.0009   -0.0024   -0.0030   -0.0051   -0.0001    0.0062   -0.0159    0.3841
          40    0.0019   -0.0039   -0.0068   -0.0201    0.0002    0.0014   -0.0026   -0.1643
          41   -0.0010    0.0007    0.0024    0.0041   -0.0001   -0.0014    0.0022    0.2205
          42    0.0001    0.0018    0.0019    0.0030   -0.0001   -0.0031    0.0058    0.2794
          43    0.0035    0.0318   -0.0806    0.0302   -0.0026   -0.1116   -0.1180   -0.0068
          44   -0.0021    0.0241   -0.0160    0.0061   -0.0008   -0.0805   -0.0859   -0.0050
          45   -0.0024   -0.0163    0.0524   -0.0194   -0.0010    0.0527    0.0555    0.0031
          46    0.0634    0.0018   -0.0007    0.0032   -0.0038    0.0001   -0.0000    0.0000
          47    0.1568    0.0124    0.0019    0.0093   -0.0023   -0.0000   -0.0002   -0.0000
          48   -0.0228   -0.0009    0.0007    0.0003   -0.0006   -0.0000   -0.0000    0.0000
          49    0.0048   -0.0056   -0.0871    0.0295   -0.0021    0.2132    0.1534    0.0036
          50    0.0007   -0.0285   -0.0033    0.0048    0.0015   -0.1500   -0.1050   -0.0023
          51   -0.0019   -0.0084    0.0620   -0.0194    0.0007   -0.1938   -0.1387   -0.0032
          52    0.0118   -0.0271   -0.0478    0.0049   -0.0001   -0.0078    0.0028    0.0005
          53    0.0095   -0.0952   -0.0555    0.0222   -0.0000    0.2506   -0.1915   -0.0200
          54   -0.0050    0.0060    0.0160   -0.0029    0.0001    0.0374   -0.0267   -0.0030
          55    0.0186   -0.0645   -0.0207   -0.0218    0.0003   -0.1360    0.2283    0.0020
          56    0.0068   -0.0846   -0.0340    0.0291    0.0004   -0.0889    0.1475    0.0014
          57   -0.0025    0.0335    0.0026   -0.0036   -0.0003    0.0528   -0.0886   -0.0009
          58   -0.0475    0.0035    0.0135    0.0348    0.0024    0.0001    0.0002   -0.0003
          59    0.1611    0.0203    0.0144    0.0388   -0.0033   -0.0001   -0.0003    0.0005
          60   -0.0142   -0.0019   -0.0021   -0.0053   -0.0006    0.0000    0.0000   -0.0002


   Root No.      49        50        51        52        53        54

                49 A      50 A      51 A      52 A      53 A      54 A   

                3073.9    3076.0    3082.1    3129.6    3149.6    3164.2
  
           1    0.0000   -0.0000   -0.0001   -0.0005   -0.0010   -0.0000
           2    0.0000    0.0000   -0.0005    0.0004    0.0005   -0.0000
           3   -0.0000    0.0001   -0.0003   -0.0001   -0.0003    0.0000
           4    0.0033    0.0033    0.0005    0.0001    0.0000   -0.0242
           5   -0.0245   -0.0232   -0.0031   -0.0004   -0.0002   -0.0040
           6    0.0001    0.0012    0.0004    0.0001    0.0000    0.0005
           7   -0.0004   -0.0002    0.0005   -0.0003    0.0002    0.0002
           8    0.0005   -0.0003   -0.0006    0.0007    0.0015   -0.0002
           9    0.0000   -0.0000   -0.0002    0.0000   -0.0001   -0.0000
          10    0.0002    0.0002   -0.0001    0.0004    0.0013   -0.0003
          11   -0.0002   -0.0000    0.0001    0.0001    0.0009    0.0000
          12    0.0000   -0.0000    0.0000   -0.0000   -0.0001    0.0000
          13   -0.0090    0.0103   -0.0196    0.0000    0.0000    0.0000
          14   -0.0076    0.0087   -0.0174   -0.0000   -0.0001    0.0000
          15    0.0039   -0.0044    0.0082   -0.0000   -0.0000   -0.0000
          16   -0.0001    0.0000   -0.0000    0.0169   -0.0392   -0.0002
          17    0.0000    0.0000    0.0001    0.0203   -0.0357   -0.0001
          18    0.0000   -0.0000    0.0000   -0.0030    0.0058    0.0000
          19    0.0001    0.0001   -0.0000    0.0284    0.0207    0.0003
          20    0.0001    0.0001    0.0001   -0.0423   -0.0244   -0.0002
          21    0.0000   -0.0000   -0.0000    0.0029    0.0015    0.0000
          22   -0.0116    0.0126    0.0116   -0.0000    0.0000    0.0005
          23   -0.0057    0.0066    0.0057   -0.0001   -0.0001    0.0004
          24    0.0048   -0.0051   -0.0048   -0.0000   -0.0000   -0.0002
          25   -0.0007    0.0023   -0.0120   -0.0000   -0.0000   -0.0000
          26    0.0018   -0.0032    0.0113    0.0000    0.0000   -0.0000
          27    0.0010   -0.0026    0.0118    0.0000    0.0000    0.0000
          28    0.0019   -0.0017   -0.0016   -0.0000    0.0000   -0.0000
          29   -0.0156    0.0115    0.0178   -0.0000    0.0001    0.0000
          30   -0.0031    0.0024    0.0032   -0.0000    0.0000    0.0000
          31   -0.0001    0.0001    0.0001    0.0004    0.0008    0.0000
          32   -0.0001    0.0002   -0.0004    0.0008   -0.0012   -0.0000
          33    0.0003   -0.0004    0.0011    0.0003    0.0032   -0.0000
          34    0.0487    0.0459    0.0059   -0.0000   -0.0004    0.0567
          35    0.2114    0.2000    0.0260    0.0004   -0.0016    0.3178
          36   -0.0327   -0.0304   -0.0038   -0.0000    0.0002   -0.0467
          37   -0.0327   -0.0360   -0.0060   -0.0011   -0.0013    0.1156
          38    0.0138    0.0170    0.0033    0.0006    0.0008   -0.0969
          39   -0.0766   -0.0832   -0.0138   -0.0025   -0.0029    0.2789
          40   -0.0560   -0.0508   -0.0064   -0.0010   -0.0012    0.1166
          41    0.0662    0.0599    0.0076    0.0010    0.0014   -0.1730
          42    0.1087    0.0997    0.0129    0.0019    0.0023   -0.2387
          43    0.1073   -0.1209    0.2264    0.0003    0.0003   -0.0001
          44    0.0793   -0.0895    0.1681    0.0004   -0.0002   -0.0001
          45   -0.0500    0.0563   -0.1053   -0.0001   -0.0002    0.0000
          46    0.0002   -0.0001   -0.0006   -0.2200    0.3882    0.0013
          47    0.0004   -0.0003   -0.0002   -0.2413    0.4205    0.0014
          48   -0.0000   -0.0000    0.0001    0.0370   -0.0648   -0.0002
          49    0.0109   -0.0301    0.1396    0.0003    0.0004   -0.0000
          50   -0.0098    0.0230   -0.0982   -0.0002   -0.0003    0.0000
          51   -0.0105    0.0278   -0.1269   -0.0002   -0.0005    0.0000
          52   -0.0056    0.0045    0.0049   -0.0000   -0.0000    0.0001
          53    0.1735   -0.1263   -0.1933    0.0003   -0.0010   -0.0003
          54    0.0259   -0.0191   -0.0281    0.0001   -0.0002   -0.0001
          55    0.1193   -0.1332   -0.1166    0.0002   -0.0004   -0.0058
          56    0.0756   -0.0846   -0.0738    0.0001   -0.0003   -0.0038
          57   -0.0466    0.0518    0.0455   -0.0001    0.0001    0.0022
          58    0.0008    0.0007    0.0004   -0.3141   -0.1737   -0.0021
          59   -0.0010   -0.0008   -0.0005    0.4905    0.2678    0.0028
          60    0.0000    0.0001    0.0000   -0.0341   -0.0184   -0.0002


           MASS-WEIGHTED COORDINATE ANALYSIS (NORMAL COORDINATES)


   Root No.       1         2         3         4         5         6         7         8

                 1 A       2 A       3 A       4 A       5 A       6 A       7 A       8 A   

                  67.1     116.9     176.2     239.8     285.1     382.8     418.3     479.1
  
           1   -0.0145   -0.0768   -0.0694   -0.0788   -0.0384   -0.0301    0.1176   -0.1221
           2    0.0054    0.0011   -0.0386   -0.1480   -0.0220    0.0325    0.1865   -0.2105
           3   -0.0225   -0.1087   -0.2615    0.1997   -0.0685   -0.1764   -0.1151   -0.1570
           4   -0.0148   -0.0633   -0.0740   -0.1125   -0.1289   -0.0764    0.0291   -0.1999
           5    0.0315    0.0826    0.1585    0.3787    0.4062    0.0200    0.1623   -0.0978
           6    0.0608    0.4492   -0.0540    0.1814   -0.1823    0.0161    0.0104    0.0015
           7   -0.0127   -0.0730   -0.0893   -0.1087   -0.0159   -0.0318    0.2148   -0.2400
           8   -0.0001    0.0002   -0.0032   -0.1344   -0.1151    0.0531   -0.0102    0.0836
           9   -0.0267   -0.2140   -0.3173   -0.0464    0.2326   -0.3222    0.0993    0.1120
          10   -0.0123   -0.0637   -0.0556   -0.0530   -0.0375   -0.0699    0.0655   -0.1876
          11    0.0009    0.0275    0.0429   -0.0761   -0.1136    0.0136   -0.1840    0.1821
          12   -0.0274    0.0137   -0.0448   -0.2348    0.3628   -0.2325   -0.1772    0.0495
          13    0.0188    0.1868   -0.1021   -0.0736    0.0620    0.2838   -0.0347    0.0214
          14   -0.0108   -0.0648    0.0130    0.1243   -0.0057   -0.1792   -0.0573    0.0123
          15    0.0246    0.2244   -0.3283    0.0220    0.0348    0.2679   -0.1617   -0.1894
          16   -0.0140   -0.0568   -0.0156    0.0389   -0.1180   -0.0682   -0.1699    0.1332
          17   -0.0006   -0.0088    0.0272   -0.1365   -0.0885    0.0608    0.2092   -0.1868
          18   -0.0607   -0.1910    0.1921    0.1843   -0.3280   -0.0145    0.2844    0.0934
          19   -0.0137   -0.0538   -0.0081    0.0363   -0.0880   -0.0708   -0.2041    0.1346
          20   -0.0011    0.0126    0.0625   -0.1152   -0.1079    0.0578   -0.0909    0.0646
          21   -0.0596   -0.0675    0.3632   -0.3347    0.2053    0.2100   -0.0933   -0.0742
          22   -0.0008   -0.0976    0.0240    0.1332    0.1373    0.1758    0.1049    0.1146
          23   -0.0024    0.0256   -0.0274   -0.1656   -0.1064   -0.0146   -0.0111    0.0825
          24   -0.0125   -0.3789   -0.0996    0.0807    0.0525    0.3088    0.1315    0.2658
          25    0.0401    0.2606    0.1420    0.0048    0.1364   -0.0976    0.0736    0.3111
          26   -0.0215   -0.0842   -0.1259    0.1705    0.0092   -0.0241   -0.1821   -0.0697
          27    0.0592    0.2672    0.1154   -0.1696   -0.0297   -0.2327    0.1972    0.0661
          28    0.0244    0.0410    0.2437    0.2118    0.1029   -0.0454   -0.1609   -0.0305
          29   -0.0109   -0.0051   -0.1207   -0.0041    0.0034   -0.0056   -0.1002    0.2558
          30    0.0380   -0.1184    0.3585    0.0444   -0.1308   -0.0716   -0.2272   -0.1961
          31   -0.0120   -0.0853   -0.0120   -0.0505    0.0134   -0.0999    0.1176   -0.0085
          32    0.0093    0.0237   -0.0808   -0.1043    0.0754    0.0316    0.0565   -0.1563
          33   -0.0024    0.0002   -0.0821    0.0636   -0.0242   -0.0058   -0.0691   -0.0609
          34   -0.0115   -0.0167   -0.0465   -0.1221   -0.1878   -0.0107   -0.0932    0.0371
          35   -0.0678    0.0404    0.0528    0.1430    0.1479    0.0069    0.0780   -0.0551
          36   -0.5246    0.2459   -0.0109    0.1259   -0.1069    0.0309    0.0343   -0.0135
          37   -0.1007   -0.0905   -0.0064   -0.0909    0.1329   -0.0826   -0.0066   -0.0759
          38    0.5354   -0.0574    0.0500    0.1184    0.1962   -0.0034    0.0881   -0.0711
          39    0.2443    0.1378   -0.0219    0.0844   -0.1113    0.0315    0.0242   -0.0052
          40    0.0988    0.0511   -0.0145    0.1056   -0.0743    0.0279    0.1154   -0.1344
          41   -0.4209    0.1017    0.0633    0.1956    0.1683    0.0130    0.1133   -0.0853
          42    0.3861    0.1144   -0.0243    0.0720   -0.1101    0.0287    0.0191   -0.0039
          43    0.0072    0.0948   -0.0924   -0.0657    0.0290    0.2225    0.0100   -0.0036
          44   -0.0041   -0.0319    0.0298    0.0894    0.0082   -0.1264   -0.0644    0.0447
          45    0.0092    0.1316   -0.1870   -0.0033    0.0481    0.2608   -0.0805   -0.0094
          46   -0.0043   -0.0157    0.0009    0.0321   -0.0512   -0.0284   -0.1025    0.0928
          47   -0.0011   -0.0080    0.0114   -0.0483   -0.0323    0.0316    0.1374   -0.0961
          48   -0.0251   -0.0856    0.1117    0.1222   -0.2409    0.0370    0.2649    0.0755
[...]
 TRANSITION DIPOLE   0.0844         C  2 -- H 13         +34.8% ( 52.9%)      1.0%
 TRAVEL (Ang.)       0.3653         C  2 -- H 12         +16.3% ( 36.1%)     25.6%
 REDUCED MASS        0.3632         C  2 -- C  4          +5.1% ( 20.1%)      1.4%
 EFFECTIVE MASS      1.7610
 FORCE CONSTANT      0.4141

 VIBRATION         38   38A           ATOM PAIR      ENERGY CONTRIBUTION    RADIAL
 FREQUENCY          1423.29         C  4 -- C  7         +11.9% ( 58.0%)     97.3%
 TRANSITION DIPOLE   0.3418         C  1 -- C  6         +10.8% ( 55.2%)     94.3%
 TRAVEL (Ang.)       0.1705         C  1 -- C  3          +9.0% ( 50.3%)     28.9%
 REDUCED MASS        1.6288         C  1 -- C  5          +7.9% ( 47.1%)     76.8%
 EFFECTIVE MASS     11.0003
 FORCE CONSTANT      1.9440

 VIBRATION         39   39A           ATOM PAIR      ENERGY CONTRIBUTION    RADIAL
 FREQUENCY          1483.22         C  1 -- C  5         +16.6% ( 66.4%)     93.8%
 TRANSITION DIPOLE   0.4845         C  1 -- C  3         +13.0% ( 58.7%)     52.3%
 TRAVEL (Ang.)       0.1472         C  1 -- C  6         +10.4% ( 52.5%)     47.9%
 REDUCED MASS        2.0981         C  1 -- H 11          +9.9% ( 51.2%)      0.0%
 EFFECTIVE MASS     11.3295
 FORCE CONSTANT      2.7195

 VIBRATION         40   40A           ATOM PAIR      ENERGY CONTRIBUTION    RADIAL
 FREQUENCY          1542.19         C  2 -- C  4         +15.8% ( 67.2%)     92.4%
 TRANSITION DIPOLE   0.4475         C  3 -- C  4         +15.4% ( 66.5%)      0.1%
 TRAVEL (Ang.)       0.1322         C  3 -- C  8         +12.5% ( 59.8%)     90.9%
 REDUCED MASS        2.5022         C  4 -- C  7         +10.8% ( 55.7%)     82.2%
 EFFECTIVE MASS     11.4776
 FORCE CONSTANT      3.5063

 VIBRATION         41   41A           ATOM PAIR      ENERGY CONTRIBUTION    RADIAL
 FREQUENCY          1744.32         C  6 -- C  7         +34.5% ( 99.3%)    100.0%
 TRANSITION DIPOLE   0.4456         C  3 -- C  7         +10.9% ( 55.9%)     18.7%
 TRAVEL (Ang.)       0.0886         C  1 -- C  6         +10.7% ( 55.4%)     17.4%
 REDUCED MASS        4.9270         C  4 -- C  6         +10.7% ( 55.3%)     54.2%
 EFFECTIVE MASS     11.9793         C  4 -- C  7         +10.1% ( 53.7%)     17.5%
 FORCE CONSTANT      8.8325

 VIBRATION         42   42A           ATOM PAIR      ENERGY CONTRIBUTION    RADIAL
 FREQUENCY          1795.71         C  8 -- C 10         +36.7% ( 90.8%)     99.7%
 TRANSITION DIPOLE   0.3900         C  9 -- C 10         +16.1% ( 60.2%)     81.5%
 TRAVEL (Ang.)       0.0960         C 10 -- H 18         +12.0% ( 51.9%)      3.6%
 REDUCED MASS        4.0753         C  3 -- C  8         +10.4% ( 48.2%)     38.5%
 EFFECTIVE MASS     11.9472         C  8 -- H 19         +10.1% ( 47.5%)      7.1%
 FORCE CONSTANT      7.7426

 VIBRATION         43   43A           ATOM PAIR      ENERGY CONTRIBUTION    RADIAL
 FREQUENCY          1828.13         C  5 -- C  9         +34.6% ( 88.1%)     99.9%
 TRANSITION DIPOLE   0.3517         C  9 -- C 10         +11.8% ( 51.5%)     17.3%
 TRAVEL (Ang.)       0.1014         C  1 -- C  5         +11.6% ( 51.0%)     49.3%
 REDUCED MASS        3.5898         C  5 -- H 15         +10.4% ( 48.3%)      5.0%
 EFFECTIVE MASS     11.8306         C  9 -- H 17         +10.2% ( 47.8%)      6.3%
 FORCE CONSTANT      7.0687

 VIBRATION         44   44A           ATOM PAIR      ENERGY CONTRIBUTION    RADIAL
 FREQUENCY          1884.73         C  3 -- C  4         +27.8% ( 86.9%)     99.8%
 TRANSITION DIPOLE   0.5243         C  3 -- C  8         +13.7% ( 60.9%)     71.5%
 TRAVEL (Ang.)       0.0948         C  3 -- C  7         +10.7% ( 54.0%)     94.7%
 REDUCED MASS        3.9778         C  1 -- C  3         +10.3% ( 52.8%)      0.9%
 EFFECTIVE MASS     11.9124
 FORCE CONSTANT      8.3252

 VIBRATION         45   45A           ATOM PAIR      ENERGY CONTRIBUTION    RADIAL
 FREQUENCY          2835.04         C  1 -- H 11         +97.2% (100.0%)    100.0%
 TRANSITION DIPOLE   0.2712         C  1 -- C  3          +0.9% (  9.7%)     10.5%
 TRAVEL (Ang.)       0.1599         C  1 -- C  6          +0.9% (  9.7%)      7.8%
 REDUCED MASS        0.9298         C  1 -- C  5          +0.9% (  9.7%)      6.7%
 EFFECTIVE MASS      1.4218
 FORCE CONSTANT      4.4031

 VIBRATION         46   46A           ATOM PAIR      ENERGY CONTRIBUTION    RADIAL
 FREQUENCY          3055.39         C  9 -- H 17         +46.5% ( 69.3%)    100.0%
 TRANSITION DIPOLE   0.1281         C 10 -- H 18         +28.4% ( 54.1%)    100.0%
 TRAVEL (Ang.)       0.2640         C  8 -- H 19         +12.9% ( 36.4%)    100.0%
 REDUCED MASS        0.3167         C  5 -- H 15          +9.5% ( 31.4%)     99.9%
 EFFECTIVE MASS      1.4834
 FORCE CONSTANT      1.7419

 VIBRATION         47   47A           ATOM PAIR      ENERGY CONTRIBUTION    RADIAL
 FREQUENCY          3060.06         C  8 -- H 19         +40.1% ( 64.3%)    100.0%
 TRANSITION DIPOLE   0.3616         C  9 -- H 17         +26.4% ( 52.1%)    100.0%
 TRAVEL (Ang.)       0.2841         C 10 -- H 18         +18.3% ( 43.4%)     99.9%
 REDUCED MASS        0.2731         C  5 -- H 15         +11.9% ( 35.1%)    100.0%
 EFFECTIVE MASS      1.4654
 FORCE CONSTANT      1.5066

 VIBRATION         48   48A           ATOM PAIR      ENERGY CONTRIBUTION    RADIAL
 FREQUENCY          3067.46         C  2 -- H 13         +55.1% ( 76.6%)     97.8%
 TRANSITION DIPOLE   0.0427         C  2 -- H 14         +42.0% ( 66.9%)     95.8%
 TRAVEL (Ang.)       0.2079         C  2 -- H 12          +1.8% ( 13.8%)     19.0%
 REDUCED MASS        0.5088         C  2 -- C  4          +1.0% ( 10.2%)      0.0%
 EFFECTIVE MASS      1.5036
 FORCE CONSTANT      2.8209

 VIBRATION         49   49A           ATOM PAIR      ENERGY CONTRIBUTION    RADIAL
 FREQUENCY          3073.90         C  2 -- H 12         +32.3% ( 58.2%)     98.8%
 TRANSITION DIPOLE   0.3519         C 10 -- H 18         +19.7% ( 45.5%)     99.9%
 TRAVEL (Ang.)       0.3255         C  8 -- H 19         +14.2% ( 38.6%)     99.9%
 REDUCED MASS        0.2070         C  2 -- H 14         +13.2% ( 37.2%)     90.5%
 EFFECTIVE MASS      1.5411         C  5 -- H 15         +13.0% ( 36.9%)    100.0%
 FORCE CONSTANT      1.1526

 VIBRATION         50   50A           ATOM PAIR      ENERGY CONTRIBUTION    RADIAL
 FREQUENCY          3075.96         C  2 -- H 12         +30.7% ( 56.7%)     98.7%
 TRANSITION DIPOLE   0.3342         C  8 -- H 19         +18.8% ( 44.3%)    100.0%
 TRAVEL (Ang.)       0.3336         C  5 -- H 15         +17.5% ( 42.9%)    100.0%
 REDUCED MASS        0.1970         C  2 -- H 14         +11.7% ( 34.9%)     89.3%
 EFFECTIVE MASS      1.5410         C 10 -- H 18         +11.2% ( 34.2%)     99.9%
 FORCE CONSTANT      1.0981

 VIBRATION         51   51A           ATOM PAIR      ENERGY CONTRIBUTION    RADIAL
 FREQUENCY          3082.06         C  5 -- H 15         +44.4% ( 67.6%)     99.9%
 TRANSITION DIPOLE   0.3086         C  9 -- H 17         +22.2% ( 47.8%)     99.9%
 TRAVEL (Ang.)       0.2731         C 10 -- H 18         +18.7% ( 43.9%)    100.0%
 REDUCED MASS        0.2934         C  8 -- H 19         +10.4% ( 32.7%)     99.9%
 EFFECTIVE MASS      1.6013
 FORCE CONSTANT      1.6422

 VIBRATION         52   52A           ATOM PAIR      ENERGY CONTRIBUTION    RADIAL
 FREQUENCY          3129.62         C  7 -- H 20         +72.7% ( 87.4%)    100.0%
 TRANSITION DIPOLE   0.3625         C  6 -- H 16         +22.9% ( 49.0%)    100.0%
 TRAVEL (Ang.)       0.1907         C  6 -- C  7          +1.3% ( 11.6%)      6.6%
 REDUCED MASS        0.5923         C  3 -- C  7          +1.2% ( 11.3%)     83.8%
 EFFECTIVE MASS      1.4894
 FORCE CONSTANT      3.4178

 VIBRATION         53   53A           ATOM PAIR      ENERGY CONTRIBUTION    RADIAL
 FREQUENCY          3149.58         C  6 -- H 16         +71.8% ( 87.1%)    100.0%
 TRANSITION DIPOLE   0.4443         C  7 -- H 20         +22.3% ( 48.5%)     99.9%
 TRAVEL (Ang.)       0.1898         C  6 -- C  7          +2.3% ( 15.6%)     92.8%
 REDUCED MASS        0.5943         C  4 -- C  6          +1.3% ( 11.9%)     96.9%
 EFFECTIVE MASS      1.6327
 FORCE CONSTANT      3.4734

 VIBRATION         54   54A           ATOM PAIR      ENERGY CONTRIBUTION    RADIAL
 FREQUENCY          3164.23         C  2 -- H 12         +34.6% ( 56.7%)     97.3%
 TRANSITION DIPOLE   0.0840         C  2 -- H 14         +32.5% ( 54.9%)     97.0%
 TRAVEL (Ang.)       0.2552         C  2 -- H 13         +32.5% ( 54.9%)     97.0%
 REDUCED MASS        0.3271         C  2 -- C  4          +0.3% (  5.4%)    100.0%
 EFFECTIVE MASS      1.1389
 FORCE CONSTANT      1.9298

      SYMMETRY NUMBER FOR POINT-GROUP C1  =  1


          SYSTEM IS A GROUND STATE



 InChI=1S/C10H10/c1-8-6-7-9-4-2-3-5-10(8)9/h2-7,9H,1H3


          MOLECULE IS NOT LINEAR

          THERE ARE 54 GENUINE VIBRATIONS IN THIS SYSTEM
          THIS THERMODYNAMICS CALCULATION IS LIMITED TO
          MOLECULES WHICH HAVE NO INTERNAL ROTATIONS




                    CALCULATED THERMODYNAMIC PROPERTIES
                                          *
   TEMP. (K)   PARTITION FUNCTION   H.O.F.    ENTHALPY  HEAT CAPACITY ENTROPY
                                   KCAL/MOL   CAL/MOLE    CAL/K/MOL  CAL/K/MOL


 298.00  VIB.     0.6959D+02                  3466.7854    27.0459    20.0644
         ROT.     0.5145D+06                   888.2803     2.9808    29.1146
         INT.     0.3581D+08                  4355.0657    30.0267    49.1790
         TRA.     0.1436D+28                  1480.4672     4.9680    40.5022
         TOT.                       58.180    5835.5328    34.9947    89.6812

 200.00  VIB.     0.1132D+02                  1380.9133    15.7466    11.7265
         ROT.     0.2829D+06                   596.1613     2.9808    27.9259
         INT.     0.3202D+07                  1977.0746    18.7274    39.6524
         TRA.     0.7896D+27                   993.6021     4.9680    38.5210
         TOT.                       55.315    2970.6767    23.6954    78.1734

 210.00  VIB.     0.1348D+02                  1543.7210    16.8195    12.5206
         ROT.     0.3044D+06                   625.9693     2.9808    28.0713
         INT.     0.4104D+07                  2169.6903    19.8004    40.5920
         TRA.     0.8496D+27                  1043.2822     4.9680    38.7634
         TOT.                       55.558    3212.9725    24.7684    79.3554

 220.00  VIB.     0.1610D+02                  1717.3922    17.9189    13.3284
         ROT.     0.3264D+06                   655.7774     2.9808    28.2100
         INT.     0.5255D+07                  2373.1696    20.8997    41.5384
         TRA.     0.9110D+27                  1092.9623     4.9680    38.9945
         TOT.                       55.811    3466.1320    25.8677    80.5329

 230.00  VIB.     0.1927D+02                  1902.1768    19.0417    14.1496
         ROT.     0.3489D+06                   685.5855     2.9808    28.3425
         INT.     0.6723D+07                  2587.7622    22.0225    42.4921
         TRA.     0.9738D+27                  1142.6424     4.9680    39.2154
         TOT.                       56.075    3730.4047    26.9905    81.7074

 240.00  VIB.     0.2312D+02                  2098.2942    20.1849    14.9841
         ROT.     0.3719D+06                   715.3935     2.9808    28.4694
         INT.     0.8598D+07                  2813.6878    23.1657    43.4534
         TRA.     0.1038D+28                  1192.3226     4.9680    39.4268
         TOT.                       56.351    4006.0103    28.1337    82.8802

 250.00  VIB.     0.2780D+02                  2305.9317    21.3451    15.8315
         ROT.     0.3954D+06                   745.2016     2.9808    28.5910
         INT.     0.1099D+08                  3051.1333    24.3260    44.4226
         TRA.     0.1103D+28                  1242.0027     4.9680    39.6296
         TOT.                       56.638    4293.1359    29.2940    84.0522

 260.00  VIB.     0.3352D+02                  2525.2426    22.5190    16.6915
         ROT.     0.4193D+06                   775.0097     2.9808    28.7080
         INT.     0.1405D+08                  3300.2522    25.4998    45.3995
         TRA.     0.1170D+28                  1291.6828     4.9680    39.8245
         TOT.                       56.937    4591.9350    30.4678    85.2239

 270.00  VIB.     0.4049D+02                  2756.3464    23.7032    17.5636
         ROT.     0.4437D+06                   804.8177     2.9808    28.8204
         INT.     0.1797D+08                  3561.1641    26.6840    46.3840
         TRA.     0.1239D+28                  1341.3629     4.9680    40.0120
         TOT.                       57.247    4902.5270    31.6520    86.3960

 280.00  VIB.     0.4903D+02                  2999.3292    24.8943    18.4471
         ROT.     0.4686D+06                   834.6258     2.9808    28.9289
         INT.     0.2298D+08                  3833.9550    27.8751    47.3760
         TRA.     0.1308D+28                  1391.0430     4.9680    40.1926
         TOT.                       57.570    5224.9980    32.8431    87.5686

 290.00  VIB.     0.5951D+02                  3254.2448    26.0892    19.3415
         ROT.     0.4940D+06                   864.4339     2.9808    29.0335
         INT.     0.2940D+08                  4118.6786    29.0700    48.3750
         TRA.     0.1379D+28                  1440.7231     4.9680    40.3670
         TOT.                       57.904    5559.4017    34.0380    88.7420

 300.00  VIB.     0.7238D+02                  3521.1163    27.2850    20.2462
         ROT.     0.5197D+06                   894.2419     2.9808    29.1345
         INT.     0.3762D+08                  4415.3582    30.2658    49.3807
         TRA.     0.1451D+28                  1490.4032     4.9680    40.5354
         TOT.                       58.250    5905.7614    35.2338    89.9161

 310.00  VIB.     0.8822D+02                  3799.9381    28.4788    21.1603
         ROT.     0.5459D+06                   924.0500     2.9808    29.2322
         INT.     0.4816D+08                  4723.9881    31.4596    50.3925
         TRA.     0.1524D+28                  1540.0833     4.9680    40.6983
         TOT.                       58.609    6264.0714    36.4277    91.0908

 320.00  VIB.     0.1078D+03                  4090.6781    29.6682    22.0833
         ROT.     0.5726D+06                   953.8580     2.9808    29.3269
         INT.     0.6170D+08                  5044.5362    32.6490    51.4101
         TRA.     0.1598D+28                  1589.7634     4.9680    40.8560
         TOT.                       58.979    6634.2996    37.6170    92.2662

 330.00  VIB.     0.1319D+03                  4393.2800    30.8509    23.0143
         ROT.     0.5996D+06                   983.6661     2.9808    29.4186
         INT.     0.7908D+08                  5376.9462    33.8317    52.4329
         TRA.     0.1674D+28                  1639.4435     4.9680    41.0089
         TOT.                       59.361    7016.3897    38.7997    93.4418

 340.00  VIB.     0.1617D+03                  4707.6657    32.0246    23.9528
         ROT.     0.6271D+06                  1013.4742     2.9808    29.5076
         INT.     0.1014D+09                  5721.1399    35.0055    53.4604
         TRA.     0.1750D+28                  1689.1236     4.9680    41.1572
         TOT.                       59.755    7410.2635    39.9735    94.6176

 350.00  VIB.     0.1987D+03                  5033.7374    33.1878    24.8979
         ROT.     0.6549D+06                  1043.2822     2.9808    29.5940
         INT.     0.1301D+09                  6077.0197    36.1686    54.4919
         TRA.     0.1828D+28                  1738.8037     4.9680    41.3012
         TOT.                       60.160    7815.8234    41.1366    95.7931

 360.00  VIB.     0.2446D+03                  5371.3804    34.3386    25.8490
         ROT.     0.6832D+06                  1073.0903     2.9808    29.6780
         INT.     0.1671D+09                  6444.4707    37.3195    55.5270
         TRA.     0.1907D+28                  1788.4838     4.9680    41.4412
         TOT.                       60.578    8232.9545    42.2875    96.9681

 370.00  VIB.     0.3015D+03                  5720.4648    35.4759    26.8054
         ROT.     0.7119D+06                  1102.8984     2.9808    29.7596
         INT.     0.2146D+09                  6823.3632    38.4567    56.5650
         TRA.     0.1987D+28                  1838.1639     4.9680    41.5773
         TOT.                       61.006    8661.5271    43.4247    98.1423

 380.00  VIB.     0.3724D+03                  6080.8480    36.5982    27.7664
         ROT.     0.7409D+06                  1132.7064     2.9808    29.8391
         INT.     0.2759D+09                  7213.5545    39.5790    57.6055
         TRA.     0.2068D+28                  1887.8440     4.9680    41.7098
         TOT.                       61.446    9101.3985    44.5470    99.3153

 390.00  VIB.     0.4607D+03                  6452.3767    37.7048    28.7314
         ROT.     0.7703D+06                  1162.5145     2.9808    29.9166
         INT.     0.3549D+09                  7614.8911    40.6856    58.6479
         TRA.     0.2150D+28                  1937.5242     4.9680    41.8388
         TOT.                       61.897    9552.4153    45.6536   100.4868

 400.00  VIB.     0.5707D+03                  6834.8881    38.7947    29.6998
         ROT.     0.8002D+06                  1192.3226     2.9808    29.9920
         INT.     0.4567D+09                  8027.2107    41.7755    59.6918
         TRA.     0.2233D+28                  1987.2043     4.9680    41.9646
         TOT.                       62.359   10014.4149    46.7435   101.6564

   *: NOTE: HEATS OF FORMATION ARE RELATIVE TO THE
            ELEMENTS IN THEIR STANDARD STATE AT 298K
              (=  Standard Enthalpy of Formation).

            Hvib:  Zero-point energy is not included.
                   frequencies of less than zero cm-1 are not included.
            Hrot = (3/2)RT
            Htra = (3/2)RT + pV = (5/2)RT

            Heat capacity is Cp, not Cv

          For more information, see: HTTP://OpenMOPAC.net/Manual/thermochemistry.html


           FORCE CONSTANT IN CARTESIAN COORDINATES (Millidynes/A)

    ATOM   CHEMICAL       X               Y               Z
   NUMBER   SYMBOL  FORCE CONSTANT  FORCE CONSTANT  FORCE CONSTANT

      1       C        9.793142        9.092178        7.503033
      2       C        9.276720        8.466473        7.957606
      3       C       10.859542       14.819651        2.695471
      4       C       14.938188       10.538621        2.611035
      5       C        7.620089       13.984729        5.310559
      6       C       14.555146        9.567268        2.456627
      7       C       13.915396       10.954292        2.269423
      8       C       11.653797       11.116495        4.620707
      9       C        8.022205       13.849838        5.387867
     10       C       10.877688       11.329645        4.882109
     11       H        1.216014        0.566089        3.787441
     12       H        0.913405        5.056276        0.746081
     13       H        1.387705        1.058939        4.177577
     14       H        1.404218        1.992281        3.237737
     15       H        3.139713        2.085068        1.043586
     16       H        2.834097        3.214111        0.397103
     17       H        2.533120        1.660970        2.062883
     18       H        0.666917        5.065290        0.531178
     19       H        3.503432        1.899732        0.842928
     20       H        2.059981        4.002814        0.368313

 **********************
 *                    *
 * JOB ENDED NORMALLY *
 *                    *
 **********************



 TOTAL JOB TIME:             2.73 SECONDS

 == MOPAC DONE ==
