 *******************************************************************************
 **                                                                           **
 **                              MOPAC v23.1.2                                **
 **                                                                           **
 *******************************************************************************
 **          Digital Object Identifier (DOI): 10.5281/zenodo.6511958          **
 **    Visit the DOI location for information on how to cite this program.    **
 *******************************************************************************

                              PM3 CALCULATION RESULTS

 *******************************************************************************
 *  CALCULATION DONE: (MAX THREADS = 1)              Tue Jun  3 16:29:10 2025  *
 *  PM3        - The PM3 Hamiltonian to be used
 *  PRECISE    - TIGHTER CRITERIA TO BE USED
 *  NOSYM      - POINT-GROUP SYMMETRY SET TO C1
 *  THREADS=1  - MULTI-THREADING NOT USED
 *  T=         - A TIME OF 172800.0 SECONDS REQUESTED
 *  DUMP=N     - RESTART FILE WRITTEN EVERY 7200.0 SECONDS REQUESTED
 *******************************************************************************
pm3  precise nosym THREADS=1
 InChI=1S/C7H10/c1-6-4-3-5-7(6)2/h5H,1,3-4H2,2H3

   ATOM   CHEMICAL          X               Y               Z
  NUMBER   SYMBOL      (ANGSTROMS)     (ANGSTROMS)     (ANGSTROMS)

     1       C         -1.62850000  *  -0.35480000  *  -0.08230000  *
     2       C         -0.91710000  *  -1.66950000  *   0.27480000  *
     3       C          2.10290000  *   0.61080000  *   0.07290000  *
     4       C         -0.51260000  *   0.62640000  *  -0.18720000  *
     5       C          0.75190000  *  -0.03790000  *   0.08210000  *
     6       C          0.53520000  *  -1.31590000  *   0.34010000  *
     7       C         -0.66860000  *   1.91590000  *  -0.48430000  *
     8       H         -2.16090000  *  -0.44250000  *  -1.05430000  *
     9       H         -2.33520000  *  -0.05450000  *   0.72150000  *
    10       H         -1.25890000  *  -2.05110000  *   1.26070000  *
    11       H         -1.08510000  *  -2.43800000  *  -0.50980000  *
    12       H          2.90140000  *  -0.12380000  *   0.31190000  *
    13       H          2.30220000  *   1.03890000  *  -0.93150000  *
    14       H          2.12940000  *   1.42350000  *   0.82840000  *
    15       H          1.31790000  *  -2.02710000  *   0.57230000  *
    16       H          0.18260000  *   2.58130000  *  -0.54620000  *
    17       H         -1.65640000  *   2.31820000  *  -0.66920000  *



          CARTESIAN COORDINATES 

    NO.       ATOM           X           Y           Z

     1         C         -1.6285     -0.3548     -0.0823
     2         C         -0.9171     -1.6695      0.2748
     3         C          2.1029      0.6108      0.0729
     4         C         -0.5126      0.6264     -0.1872
     5         C          0.7519     -0.0379      0.0821
     6         C          0.5352     -1.3159      0.3401
     7         C         -0.6686      1.9159     -0.4843
     8         H         -2.1609     -0.4425     -1.0543
     9         H         -2.3352     -0.0545      0.7215
    10         H         -1.2589     -2.0511      1.2607
    11         H         -1.0851     -2.4380     -0.5098
    12         H          2.9014     -0.1238      0.3119
    13         H          2.3022      1.0389     -0.9315
    14         H          2.1294      1.4235      0.8284
    15         H          1.3179     -2.0271      0.5723
    16         H          0.1826      2.5813     -0.5462
    17         H         -1.6564      2.3182     -0.6692

  H: (PM3): J. J. P. STEWART, J. COMP. CHEM. 10, 209 (1989).
  C: (PM3): J. J. P. STEWART, J. COMP. CHEM. 10, 209 (1989).

           Empirical Formula: C7 H10  =    17 atoms



      MOLECULAR POINT GROUP   :   C1  


      RHF CALCULATION, NO. OF DOUBLY OCCUPIED LEVELS = 19


          Geometry optimization using EF

          DIAGONAL MATRIX USED AS START HESSIAN

 CYCLE:     1 TIME:   0.008 TIME LEFT:  2.00D  GRAD.:    82.017 HEAT:  17.20834
 CYCLE:     2 TIME:   0.012 TIME LEFT:  2.00D  GRAD.:    83.419 HEAT:  16.65943
 CYCLE:     3 TIME:   0.004 TIME LEFT:  2.00D  GRAD.:    40.203 HEAT:  15.55364
 CYCLE:     4 TIME:   0.008 TIME LEFT:  2.00D  GRAD.:    52.640 HEAT:  15.34039
 CYCLE:     5 TIME:   0.004 TIME LEFT:  2.00D  GRAD.:    44.869 HEAT:  15.16183
 CYCLE:     6 TIME:   0.008 TIME LEFT:  2.00D  GRAD.:    27.744 HEAT:  14.82161
 CYCLE:     7 TIME:   0.004 TIME LEFT:  2.00D  GRAD.:    14.499 HEAT:  14.64675
 CYCLE:     8 TIME:   0.008 TIME LEFT:  2.00D  GRAD.:    13.797 HEAT:  14.58893
 CYCLE:     9 TIME:   0.004 TIME LEFT:  2.00D  GRAD.:    10.549 HEAT:  14.53604
 CYCLE:    10 TIME:   0.008 TIME LEFT:  2.00D  GRAD.:    17.481 HEAT:  14.53103
 CYCLE:    11 TIME:   0.004 TIME LEFT:  2.00D  GRAD.:    14.514 HEAT:  14.50690
 CYCLE:    12 TIME:   0.008 TIME LEFT:  2.00D  GRAD.:     8.166 HEAT:  14.46127
 CYCLE:    13 TIME:   0.004 TIME LEFT:  2.00D  GRAD.:     6.995 HEAT:  14.45733
 CYCLE:    14 TIME:   0.008 TIME LEFT:  2.00D  GRAD.:     4.421 HEAT:  14.44305
 CYCLE:    15 TIME:   0.008 TIME LEFT:  2.00D  GRAD.:     2.477 HEAT:  14.43766
 CYCLE:    16 TIME:   0.004 TIME LEFT:  2.00D  GRAD.:     2.753 HEAT:  14.43202
 CYCLE:    17 TIME:   0.008 TIME LEFT:  2.00D  GRAD.:     2.658 HEAT:  14.42353
 CYCLE:    18 TIME:   0.004 TIME LEFT:  2.00D  GRAD.:     3.358 HEAT:  14.41878
 CYCLE:    19 TIME:   0.004 TIME LEFT:  2.00D  GRAD.:     2.741 HEAT:  14.41334
 CYCLE:    20 TIME:   0.008 TIME LEFT:  2.00D  GRAD.:     2.721 HEAT:  14.40835
 CYCLE:    21 TIME:   0.004 TIME LEFT:  2.00D  GRAD.:     1.870 HEAT:  14.40452
 CYCLE:    22 TIME:   0.004 TIME LEFT:  2.00D  GRAD.:     1.860 HEAT:  14.40121
 CYCLE:    23 TIME:   0.008 TIME LEFT:  2.00D  GRAD.:     1.547 HEAT:  14.39936
 CYCLE:    24 TIME:   0.008 TIME LEFT:  2.00D  GRAD.:     1.076 HEAT:  14.39762
 CYCLE:    25 TIME:   0.008 TIME LEFT:  2.00D  GRAD.:     1.036 HEAT:  14.39656
 CYCLE:    26 TIME:   0.004 TIME LEFT:  2.00D  GRAD.:     0.721 HEAT:  14.39561
 CYCLE:    27 TIME:   0.008 TIME LEFT:  2.00D  GRAD.:     0.705 HEAT:  14.39506
 CYCLE:    28 TIME:   0.004 TIME LEFT:  2.00D  GRAD.:     0.524 HEAT:  14.39452
 CYCLE:    29 TIME:   0.004 TIME LEFT:  2.00D  GRAD.:     0.467 HEAT:  14.39410
 CYCLE:    30 TIME:   0.008 TIME LEFT:  2.00D  GRAD.:     0.445 HEAT:  14.39362
 CYCLE:    31 TIME:   0.008 TIME LEFT:  2.00D  GRAD.:     0.406 HEAT:  14.39333
 CYCLE:    32 TIME:   0.004 TIME LEFT:  2.00D  GRAD.:     0.236 HEAT:  14.39315
 CYCLE:    33 TIME:   0.004 TIME LEFT:  2.00D  GRAD.:     0.191 HEAT:  14.39306
 CYCLE:    34 TIME:   0.008 TIME LEFT:  2.00D  GRAD.:     0.157 HEAT:  14.39300
 CYCLE:    35 TIME:   0.004 TIME LEFT:  2.00D  GRAD.:     0.095 HEAT:  14.39297
 CYCLE:    36 TIME:   0.004 TIME LEFT:  2.00D  GRAD.:     0.078 HEAT:  14.39296
 CYCLE:    37 TIME:   0.008 TIME LEFT:  2.00D  GRAD.:     0.047 HEAT:  14.39295

     GRADIENT =  0.04727 IS LESS THAN CUTOFF =  0.05000



 -------------------------------------------------------------------------------
 pm3  precise nosym THREADS=1
 InChI=1S/C7H10/c1-6-4-3-5-7(6)2/h5H,1,3-4H2,2H3



     GEOMETRY OPTIMISED USING EIGENVECTOR FOLLOWING (EF).     
     SCF FIELD WAS ACHIEVED                                   


                              PM3 CALCULATION
                                                       MOPAC v23.1.2 MacOS
                                                       Tue Jun  3 16:29:10 2025




          FINAL HEAT OF FORMATION =         14.39295 KCAL/MOL =      60.22011 KJ/MOL


          COSMO AREA              =        145.67 SQUARE ANGSTROMS
          COSMO VOLUME            =        139.04 CUBIC ANGSTROMS

          GRADIENT NORM           =          0.04727          =       0.01147 PER ATOM
          IONIZATION POTENTIAL    =          8.914727 EV
          HOMO LUMO ENERGIES (EV) =         -8.915  0.326
          NO. OF FILLED LEVELS    =         19
          MOLECULAR WEIGHT        =         94.1560         POINT GROUP:  C1  

          MOLECULAR DIMENSIONS (Angstroms)

            Atom       Atom       Distance
            H    17    H    15     5.49413
            H    13    H    10     5.08127
            H    14    H    11     3.31790


          SCF CALCULATIONS        =         46

          WALL-CLOCK TIME         =      0.234 SECONDS
          COMPUTATION TIME        =      0.129 SECONDS




   ATOM   CHEMICAL          X               Y               Z
  NUMBER   SYMBOL      (ANGSTROMS)     (ANGSTROMS)     (ANGSTROMS)

     1       C         -1.61127268  *  -0.36178551  *  -0.08015380  *
     2       C         -0.91793615  *  -1.68742204  *   0.27898275  *
     3       C          2.07573121  *   0.62693848  *   0.06591167  *
     4       C         -0.50135312  *   0.64750580  *  -0.19060482  *
     5       C          0.76614175  *  -0.04967139  *   0.08610127  *
     6       C          0.53747718  *  -1.35088142  *   0.34850072  *
     7       C         -0.65387896  *   1.93526648  *  -0.48577447  *
     8       H         -2.17233746  *  -0.43458518  *  -1.02945266  *
     9       H         -2.34389482  *  -0.05835380  *   0.68954491  *
    10       H         -1.27328602  *  -2.09583198  *   1.24273864  *
    11       H         -1.10370734  *  -2.47287847  *  -0.47629305  *
    12       H          2.89527293  *  -0.06450705  *   0.29935455  *
    13       H          2.27313377  *   1.06384992  *  -0.92255307  *
    14       H          2.10344764  *   1.44420871  *   0.79953186  *
    15       H          1.28817074  *  -2.10406694  *   0.58712615  *
    16       H          0.18633095  *   2.62030649  *  -0.55202508  *
    17       H         -1.62559323  *   2.37871073  *  -0.67786494  *

                             CARTESIAN COORDINATES

   1    C       -1.611272676    -0.361785514    -0.080153804
   2    C       -0.917936146    -1.687422038     0.278982751
   3    C        2.075731213     0.626938476     0.065911671
   4    C       -0.501353116     0.647505802    -0.190604824
   5    C        0.766141748    -0.049671389     0.086101265
   6    C        0.537477177    -1.350881422     0.348500716
   7    C       -0.653878958     1.935266482    -0.485774470
   8    H       -2.172337464    -0.434585176    -1.029452665
   9    H       -2.343894816    -0.058353804     0.689544914
  10    H       -1.273286020    -2.095831982     1.242738642
  11    H       -1.103707341    -2.472878469    -0.476293051
  12    H        2.895272934    -0.064507047     0.299354555
  13    H        2.273133771     1.063849924    -0.922553069
  14    H        2.103447637     1.444208709     0.799531864
  15    H        1.288170738    -2.104066944     0.587126149
  16    H        0.186330948     2.620306493    -0.552025078
  17    H       -1.625593233     2.378710729    -0.677864940


           Empirical Formula: C7 H10  =    17 atoms



      MOLECULAR POINT GROUP   :   C1  


                  EIGENVALUES  
 -40.34027 -31.84094 -30.72567 -25.03683 -23.26608 -19.83978 -17.48404 -16.73923
 -15.94124 -15.11825 -14.24902 -14.17091 -13.18831 -13.13340 -12.72645 -12.59827
 -12.04573 -10.84666  -8.91473   0.32602   1.96870   3.20922   3.44869   3.59606
   3.77932   3.94527   4.00158   4.09020   4.18002   4.43020   4.46346   4.56183
   4.77073   4.86851   5.05500   5.71280   5.98067   6.24561


              NET ATOMIC CHARGES AND DIPOLE CONTRIBUTIONS

  ATOM NO.   TYPE          CHARGE      No. of ELECS.   s-Pop       p-Pop       
    1          C          -0.061748        4.0617     1.15319     2.90855
    2          C          -0.064874        4.0649     1.15363     2.91124
    3          C          -0.051529        4.0515     1.11720     2.93433
    4          C          -0.072943        4.0729     1.19025     2.88269
    5          C          -0.092855        4.0929     1.18821     2.90464
    6          C          -0.144116        4.1441     1.20310     2.94102
    7          C          -0.167658        4.1677     1.17646     2.99120
    8          H           0.059232        0.9408     0.94077
    9          H           0.059243        0.9408     0.94076
   10          H           0.057492        0.9425     0.94251
   11          H           0.057468        0.9425     0.94253
   12          H           0.042251        0.9577     0.95775
   13          H           0.047317        0.9527     0.95268
   14          H           0.047315        0.9527     0.95269
   15          H           0.113603        0.8864     0.88640
   16          H           0.086972        0.9130     0.91303
   17          H           0.084827        0.9152     0.91517
 DIPOLE           X         Y         Z       TOTAL
 POINT-CHG.    -0.002    -0.279     0.060     0.286
 HYBRID        -0.019     0.008    -0.004     0.021
 SUM           -0.021    -0.271     0.056     0.278


          ATOMIC ORBITAL ELECTRON POPULATIONS

     Atom    s        px        py        pz   
    1  C   1.15319   0.95806   0.93949   1.01100
    2  C   1.15363   0.93778   0.96573   1.00773
    3  C   1.11720   0.93401   0.99334   1.00698
    4  C   1.19025   0.93852   0.95286   0.99131
    5  C   1.18821   0.94282   0.95235   1.00947
    6  C   1.20310   0.97111   0.96120   1.00871
    7  C   1.17646   1.01291   0.95139   1.02690
    8  H   0.94077
    9  H   0.94076
   10  H   0.94251
   11  H   0.94253
   12  H   0.95775
   13  H   0.95268
   14  H   0.95269
   15  H   0.88640
   16  H   0.91303
   17  H   0.91517
 *******************************************************************************
 **                                                                           **
 **                              MOPAC v23.1.2                                **
 **                                                                           **
 *******************************************************************************
 **          Digital Object Identifier (DOI): 10.5281/zenodo.6511958          **
 **    Visit the DOI location for information on how to cite this program.    **
 *******************************************************************************

                              PM3 CALCULATION RESULTS

 *******************************************************************************
 *  CALCULATION DONE: (MAX THREADS = 1)              Tue Jun  3 16:29:10 2025  *
 *  PM3        - The PM3 Hamiltonian to be used
 *  OLDGEO     - PREVIOUS GEOMETRY TO BE USED
 *  PRECISE    - TIGHTER CRITERIA TO BE USED
 *  NOSYM      - POINT-GROUP SYMMETRY SET TO C1
 *  THREADS=1  - MULTI-THREADING NOT USED
 *  T=         - A TIME OF 172800.0 SECONDS REQUESTED
 *  DUMP=N     - RESTART FILE WRITTEN EVERY 7200.0 SECONDS REQUESTED
 *  THERMO     - THERMODYNAMIC QUANTITIES TO BE CALCULATED
 *******************************************************************************
oldgeo thermo nosym precise THREADS=1  pm3
 InChI=1S/C7H10/c1-6-4-3-5-7(6)2/h5H,1,3-4H2,2H3

   ATOM   CHEMICAL          X               Y               Z
  NUMBER   SYMBOL      (ANGSTROMS)     (ANGSTROMS)     (ANGSTROMS)

     1       C         -1.61127268  *  -0.36178551  *  -0.08015380  *
     2       C         -0.91793615  *  -1.68742204  *   0.27898275  *
     3       C          2.07573121  *   0.62693848  *   0.06591167  *
     4       C         -0.50135312  *   0.64750580  *  -0.19060482  *
     5       C          0.76614175  *  -0.04967139  *   0.08610127  *
     6       C          0.53747718  *  -1.35088142  *   0.34850072  *
     7       C         -0.65387896  *   1.93526648  *  -0.48577447  *
     8       H         -2.17233746  *  -0.43458518  *  -1.02945266  *
     9       H         -2.34389482  *  -0.05835380  *   0.68954491  *
    10       H         -1.27328602  *  -2.09583198  *   1.24273864  *
    11       H         -1.10370734  *  -2.47287847  *  -0.47629305  *
    12       H          2.89527293  *  -0.06450705  *   0.29935455  *
    13       H          2.27313377  *   1.06384992  *  -0.92255307  *
    14       H          2.10344764  *   1.44420871  *   0.79953186  *
    15       H          1.28817074  *  -2.10406694  *   0.58712615  *
    16       H          0.18633095  *   2.62030649  *  -0.55202508  *
    17       H         -1.62559323  *   2.37871073  *  -0.67786494  *



          CARTESIAN COORDINATES 

    NO.       ATOM           X           Y           Z

     1         C         -1.6113     -0.3618     -0.0802
     2         C         -0.9179     -1.6874      0.2790
     3         C          2.0757      0.6269      0.0659
     4         C         -0.5014      0.6475     -0.1906
     5         C          0.7661     -0.0497      0.0861
     6         C          0.5375     -1.3509      0.3485
     7         C         -0.6539      1.9353     -0.4858
     8         H         -2.1723     -0.4346     -1.0295
     9         H         -2.3439     -0.0584      0.6895
    10         H         -1.2733     -2.0958      1.2427
    11         H         -1.1037     -2.4729     -0.4763
    12         H          2.8953     -0.0645      0.2994
    13         H          2.2731      1.0638     -0.9226
    14         H          2.1034      1.4442      0.7995
    15         H          1.2882     -2.1041      0.5871
    16         H          0.1863      2.6203     -0.5520
    17         H         -1.6256      2.3787     -0.6779

  H: (PM3): J. J. P. STEWART, J. COMP. CHEM. 10, 209 (1989).
  C: (PM3): J. J. P. STEWART, J. COMP. CHEM. 10, 209 (1989).

           Empirical Formula: C7 H10  =    17 atoms



      MOLECULAR POINT GROUP   :   C1  


      RHF CALCULATION, NO. OF DOUBLY OCCUPIED LEVELS = 19



          HEAT OF FORMATION =      14.392952 KCALS/MOLE


          CARTESIAN COORDINATE DERIVATIVES

   NUMBER  ATOM         X            Y            Z

     1       C     -0.000540    -0.003578     0.002718
     2       C      0.001707     0.002752     0.005787
     3       C     -0.011893    -0.012880    -0.002367
     4       C     -0.000303    -0.010344     0.006239
     5       C      0.003962    -0.020596    -0.002094
     6       C      0.004024    -0.004184     0.001046
     7       C      0.006309    -0.004353    -0.001531
     8       H      0.003007     0.019807    -0.005027
     9       H     -0.005868     0.007027     0.000495
    10       H     -0.000603    -0.003809    -0.004002
    11       H      0.002927     0.014622     0.000752
    12       H     -0.002947    -0.005905    -0.002249
    13       H      0.001605     0.006950    -0.006180
    14       H      0.000429     0.008276    -0.003419
    15       H      0.006744     0.000561     0.002428
    16       H     -0.002876     0.006229     0.006170
    17       H     -0.005684    -0.000577     0.001234



          GRADIENT NORM =   0.04709

          MOLECULAR WEIGHT =   94.16



          ROTATIONAL CONSTANTS IN CM(-1)

          A =    0.12251177   B =    0.09927345   C =    0.05657970



           PRINCIPAL MOMENTS OF INERTIA IN UNITS OF 10**(-40)*GRAM-CM**2

          A =      228.4903   B =      281.9762   C =      494.7491


          ORIENTATION OF MOLECULE IN FORCE CALCULATION

    NO.       ATOM         X         Y         Z

     1          C      -0.4411   -1.5504   -0.0009
     2          C       1.0974   -1.5504   -0.0009
     3          C       0.4027    2.1753   -0.0009
     4          C      -0.8363   -0.0990    0.0008
     5          C       0.4002    0.7011   -0.0002
     6          C       1.4796   -0.1047   -0.0008
     7          C      -2.0835    0.3626    0.0031
     8          H      -0.8528   -2.0690   -0.8857
     9          H      -0.8530   -2.0715    0.8823
    10          H       1.5142   -2.0671    0.8830
    11          H       1.5142   -2.0667   -0.8850
    12          H       1.4223    2.5811    0.0001
    13          H      -0.1156    2.5652   -0.8876
    14          H      -0.1178    2.5662    0.8841
    15          H       2.5225    0.2115   -0.0014
    16          H      -2.3106    1.4247    0.0044
    17          H      -2.9484   -0.2930    0.0040


    FIRST DERIVATIVES WILL BE USED IN THE CALCULATION OF SECOND DERIVATIVES

          ESTIMATED TIME TO COMPLETE CALCULATION =        1.59 SECONDS

    FOR POINT-GROUP C1   THERE ARE   1 UNIQUE SYMMETRY FUNCTIONS.

 STEP:   1 TIME =     0.01 SECS, INTEGRAL =      0.01 TIME LEFT: 172799.98
 STEP:   2 TIME =     0.01 SECS, INTEGRAL =      0.02 TIME LEFT: 172799.97
 STEP:   3 TIME =     0.01 SECS, INTEGRAL =      0.04 TIME LEFT: 172799.96
 STEP:   4 TIME =     0.01 SECS, INTEGRAL =      0.05 TIME LEFT: 172799.95
 STEP:   5 TIME =     0.01 SECS, INTEGRAL =      0.06 TIME LEFT: 172799.93
 STEP:   6 TIME =     0.02 SECS, INTEGRAL =      0.07 TIME LEFT: 172799.92
 STEP:   7 TIME =     0.01 SECS, INTEGRAL =      0.09 TIME LEFT: 172799.91
 STEP:   8 TIME =     0.01 SECS, INTEGRAL =      0.10 TIME LEFT: 172799.89
 STEP:   9 TIME =     0.02 SECS, INTEGRAL =      0.11 TIME LEFT: 172799.88
 STEP:  10 TIME =     0.01 SECS, INTEGRAL =      0.12 TIME LEFT: 172799.87
 STEP:  11 TIME =     0.01 SECS, INTEGRAL =      0.14 TIME LEFT: 172799.86
 STEP:  12 TIME =     0.02 SECS, INTEGRAL =      0.15 TIME LEFT: 172799.84
 STEP:  13 TIME =     0.01 SECS, INTEGRAL =      0.16 TIME LEFT: 172799.83
 STEP:  14 TIME =     0.01 SECS, INTEGRAL =      0.18 TIME LEFT: 172799.82
 STEP:  15 TIME =     0.01 SECS, INTEGRAL =      0.19 TIME LEFT: 172799.80
 STEP:  16 TIME =     0.01 SECS, INTEGRAL =      0.20 TIME LEFT: 172799.79
 STEP:  17 TIME =     0.01 SECS, INTEGRAL =      0.21 TIME LEFT: 172799.78
 STEP:  18 TIME =     0.01 SECS, INTEGRAL =      0.22 TIME LEFT: 172799.77
 STEP:  19 TIME =     0.01 SECS, INTEGRAL =      0.23 TIME LEFT: 172799.76
 STEP:  20 TIME =     0.01 SECS, INTEGRAL =      0.25 TIME LEFT: 172799.75
 STEP:  21 TIME =     0.02 SECS, INTEGRAL =      0.26 TIME LEFT: 172799.73
 STEP:  22 TIME =     0.02 SECS, INTEGRAL =      0.28 TIME LEFT: 172799.71
 STEP:  23 TIME =     0.01 SECS, INTEGRAL =      0.29 TIME LEFT: 172799.70
 STEP:  24 TIME =     0.01 SECS, INTEGRAL =      0.30 TIME LEFT: 172799.69
 STEP:  25 TIME =     0.01 SECS, INTEGRAL =      0.31 TIME LEFT: 172799.68
 STEP:  26 TIME =     0.01 SECS, INTEGRAL =      0.32 TIME LEFT: 172799.67
 STEP:  27 TIME =     0.01 SECS, INTEGRAL =      0.34 TIME LEFT: 172799.66
 STEP:  28 TIME =     0.01 SECS, INTEGRAL =      0.35 TIME LEFT: 172799.64
 STEP:  29 TIME =     0.01 SECS, INTEGRAL =      0.36 TIME LEFT: 172799.63
 STEP:  30 TIME =     0.01 SECS, INTEGRAL =      0.37 TIME LEFT: 172799.62
 STEP:  31 TIME =     0.01 SECS, INTEGRAL =      0.38 TIME LEFT: 172799.61
 STEP:  32 TIME =     0.02 SECS, INTEGRAL =      0.40 TIME LEFT: 172799.59
 STEP:  33 TIME =     0.01 SECS, INTEGRAL =      0.41 TIME LEFT: 172799.58
 STEP:  34 TIME =     0.01 SECS, INTEGRAL =      0.42 TIME LEFT: 172799.57
 STEP:  35 TIME =     0.01 SECS, INTEGRAL =      0.43 TIME LEFT: 172799.56
 STEP:  36 TIME =     0.02 SECS, INTEGRAL =      0.45 TIME LEFT: 172799.55
 STEP:  37 TIME =     0.01 SECS, INTEGRAL =      0.46 TIME LEFT: 172799.54
 STEP:  38 TIME =     0.02 SECS, INTEGRAL =      0.47 TIME LEFT: 172799.52
 STEP:  39 TIME =     0.01 SECS, INTEGRAL =      0.48 TIME LEFT: 172799.51
 STEP:  40 TIME =     0.01 SECS, INTEGRAL =      0.50 TIME LEFT: 172799.50
 STEP:  41 TIME =     0.01 SECS, INTEGRAL =      0.51 TIME LEFT: 172799.48
 STEP:  42 TIME =     0.01 SECS, INTEGRAL =      0.52 TIME LEFT: 172799.47
 STEP:  43 TIME =     0.01 SECS, INTEGRAL =      0.53 TIME LEFT: 172799.46
 STEP:  44 TIME =     0.01 SECS, INTEGRAL =      0.54 TIME LEFT: 172799.45
 STEP:  45 TIME =     0.02 SECS, INTEGRAL =      0.56 TIME LEFT: 172799.43
 STEP:  46 TIME =     0.01 SECS, INTEGRAL =      0.57 TIME LEFT: 172799.42
 STEP:  47 TIME =     0.01 SECS, INTEGRAL =      0.58 TIME LEFT: 172799.41
 STEP:  48 TIME =     0.02 SECS, INTEGRAL =      0.60 TIME LEFT: 172799.39
 STEP:  49 TIME =     0.02 SECS, INTEGRAL =      0.61 TIME LEFT: 172799.38
 STEP:  50 TIME =     0.01 SECS, INTEGRAL =      0.62 TIME LEFT: 172799.37
 STEP:  51 TIME =     0.02 SECS, INTEGRAL =      0.64 TIME LEFT: 172799.35

(To convert to Hartree/Bohr^2, multiply by (10^(-21) x N x a0^2)/(4.184 x 627.51) =  0.0642)


           FORCE MATRIX IN MILLIDYNES/ANGSTROM


                  C  1       C  2       C  3       C  4       C  5       C  6
 ------------------------------------------------------------------------------
     C    1  14.555262
     C    2   3.705001  14.657855
     C    3   0.045740   0.129828  14.850212
     C    4   4.396449   0.829704   0.530783  19.290220
     C    5   0.885177   1.155138   5.412627   4.921958  19.046804
     C    6   0.903566   4.695632   0.718965   1.389763   9.947810  18.162543
     C    7   0.704967   0.058803   0.046210  10.720192   0.875814   0.099674
     H    8   4.542332   0.439265   0.003746   0.433975   0.029093   0.028107
     H    9   4.542671   0.439225   0.003765   0.434107   0.029188   0.028191
     H   10   0.436256   4.523564   0.019115   0.031685   0.036407   0.428506
     H   11   0.436232   4.523594   0.019114   0.031810   0.036424   0.428455
     H   12   0.007291   0.003203   4.751200   0.045023   0.469549   0.029143
     H   13   0.002697   0.018358   4.698110   0.013293   0.450455   0.031810
     H   14   0.002705   0.018333   4.698456   0.013333   0.450596   0.031927
     H   15   0.042430   0.410434   0.054039   0.108243   0.456158   5.013615
     H   16   0.123100   0.007067   0.011552   0.477133   0.093157   0.009344
     H   17   0.086526   0.006430   0.004027   0.477356   0.132152   0.010680


                  C  7       H  8       H  9       H 10       H 11       H 12
 ------------------------------------------------------------------------------
     C    7  17.982640
     H    8   0.021321   5.143565
     H    9   0.021301   0.569082   5.144053
     H   10   0.004976   0.026609   0.030072   5.130749
     H   11   0.004996   0.030066   0.026538   0.570954   5.130687
     H   12   0.003613   0.000724   0.000729   0.000507   0.000511   5.453462
     H   13   0.007524   0.000324   0.000458   0.002349   0.003284   0.556743
     H   14   0.007647   0.000458   0.000326   0.003281   0.002343   0.556658
     H   15   0.009286   0.003602   0.003614   0.013789   0.013836   0.014146
     H   16   5.085896   0.013230   0.013191   0.002191   0.002186   0.001022
     H   17   5.116533   0.011105   0.011090   0.001215   0.001211   0.000558


                  H 13       H 14       H 15       H 16       H 17
 ------------------------------------------------------------------
     H   13   5.410064
     H   14   0.575007   5.410445
     H   15   0.006703   0.006684   5.412388
     H   16   0.010713   0.011061   0.005602   5.464785
     H   17   0.000883   0.000885   0.008594   0.402684   5.491314


          HEAT OF FORMATION =      14.392952 KCALS/MOLE

          ZERO POINT ENERGY      93.053 KCAL/MOL


           NORMAL COORDINATE ANALYSIS (Total motion = 1 Angstrom)


   Root No.       1         2         3         4         5         6         7         8

                 1 A       2 A       3 A       4 A       5 A       6 A       7 A       8 A   

                  95.7     104.2     222.7     290.2     333.7     421.7     558.5     585.5
  
           1    0.0000   -0.0000   -0.0000   -0.0016    0.0000   -0.0181   -0.0001   -0.0216
           2   -0.0001    0.0000    0.0000    0.0093    0.0001    0.0286   -0.0001   -0.0587
           3    0.0548    0.0212    0.0008    0.0001   -0.0129    0.0001   -0.0038   -0.0000
           4    0.0000   -0.0000   -0.0000   -0.0054    0.0000   -0.0251   -0.0001   -0.0382
           5   -0.0000    0.0000    0.0000    0.0134    0.0000   -0.0153    0.0000   -0.0120
           6   -0.0242   -0.0177   -0.0472   -0.0000   -0.0027    0.0000    0.0028    0.0000
           7   -0.0001    0.0002   -0.0000    0.0823    0.0000   -0.0244   -0.0000    0.0009
           8   -0.0000    0.0000   -0.0000    0.0171   -0.0001    0.0125    0.0001    0.0726
           9    0.0304    0.0047   -0.0412   -0.0001   -0.0167    0.0000    0.0008   -0.0000
          10    0.0000   -0.0000    0.0000   -0.0151    0.0001    0.0281    0.0000    0.0417
          11   -0.0000    0.0000    0.0000    0.0091    0.0000    0.0348   -0.0001   -0.0395
          12    0.0048    0.0069    0.0070   -0.0001    0.0701   -0.0001   -0.0491    0.0002
          13    0.0000   -0.0000    0.0000   -0.0164    0.0001    0.0426    0.0000   -0.0068
          14   -0.0000    0.0000   -0.0000    0.0158   -0.0000    0.0118    0.0001    0.0464
          15    0.0031    0.0022    0.0324   -0.0000    0.0668   -0.0001    0.0380    0.0000
          16    0.0000   -0.0000    0.0000   -0.0171    0.0000    0.0215   -0.0001   -0.0389
          17   -0.0000    0.0000   -0.0000    0.0126   -0.0000   -0.0208    0.0000    0.0047
          18   -0.0212   -0.0112    0.0669    0.0000   -0.0307    0.0000   -0.0102    0.0001
          19   -0.0000   -0.0001    0.0000   -0.0440   -0.0002    0.0027    0.0002    0.0596
          20    0.0001   -0.0001    0.0000   -0.0686   -0.0000   -0.0369   -0.0000   -0.0213
          21   -0.0505   -0.0044    0.0037    0.0000   -0.0294   -0.0000    0.0082   -0.0001
          22   -0.0480   -0.0236   -0.0323   -0.0002    0.0138   -0.0398   -0.0206   -0.0324
          23   -0.0494   -0.0176   -0.0108    0.0074    0.0732    0.0444   -0.0999   -0.0571
          24    0.1064    0.0426    0.0226    0.0003   -0.0633    0.0004    0.0671    0.0027
          25    0.0480    0.0235    0.0323   -0.0000   -0.0138   -0.0397    0.0205   -0.0325
          26    0.0491    0.0175    0.0108    0.0076   -0.0728    0.0447    0.0993   -0.0578
          27    0.1065    0.0426    0.0226    0.0001   -0.0635   -0.0000    0.0673   -0.0033
          28    0.0469    0.0230    0.0327   -0.0020   -0.0074   -0.0430   -0.0131   -0.0245
          29   -0.0165   -0.0116   -0.1006    0.0159    0.0283   -0.0300    0.0273   -0.0000
          30   -0.0561   -0.0355   -0.1227   -0.0000    0.0178   -0.0001    0.0260    0.0004
          31   -0.0468   -0.0230   -0.0328   -0.0021    0.0074   -0.0431    0.0130   -0.0244
          32    0.0165    0.0116    0.1006    0.0160   -0.0284   -0.0300   -0.0272    0.0001
          33   -0.0561   -0.0355   -0.1227   -0.0001    0.0178    0.0001    0.0260   -0.0005
          34    0.0000   -0.0000   -0.0000    0.1158    0.0000   -0.0528    0.0000    0.0089
          35   -0.0000   -0.0000    0.0001   -0.0636    0.0001    0.0800    0.0001    0.0550
          36   -0.0290    0.2361   -0.0872   -0.0008   -0.0514   -0.0000   -0.0219   -0.0000
          37   -0.0595    0.2040   -0.0176    0.1146   -0.0018   -0.0542   -0.0014    0.0126
          38    0.0192   -0.0043   -0.0546    0.0590   -0.0664   -0.0231   -0.0430    0.0929
          39    0.0735   -0.1164   -0.0554    0.0005   -0.0458    0.0010   -0.0178    0.0017
          40    0.0592   -0.2032    0.0174    0.1159    0.0018   -0.0541    0.0014    0.0125
          41   -0.0192    0.0044    0.0544    0.0590    0.0661   -0.0234    0.0431    0.0931
          42    0.0737   -0.1169   -0.0554    0.0002   -0.0458   -0.0009   -0.0179   -0.0018
          43    0.0000   -0.0000    0.0001   -0.0181   -0.0000    0.0334   -0.0001   -0.0278
          44    0.0000    0.0000   -0.0000    0.0178   -0.0000   -0.0612   -0.0000   -0.0334
          45   -0.0355   -0.0161    0.1263    0.0001   -0.1361    0.0001   -0.0610    0.0001
          46    0.0000   -0.0004    0.0001   -0.1216   -0.0003   -0.0938    0.0006    0.1106
          47    0.0002   -0.0002    0.0000   -0.0866   -0.0001   -0.0593   -0.0002   -0.0107
          48   -0.0912   -0.0158    0.0132    0.0002   -0.0251    0.0002    0.2390   -0.0012
          49   -0.0001    0.0000   -0.0000    0.0057   -0.0002    0.0631   -0.0001    0.0375
          50    0.0002   -0.0003    0.0001   -0.1358   -0.0001   -0.1191    0.0002    0.0105
          51   -0.0591   -0.0031   -0.0089   -0.0001   -0.1328   -0.0002   -0.1486    0.0004


   Root No.       9        10        11        12        13        14        15        16

                 9 A      10 A      11 A      12 A      13 A      14 A      15 A      16 A   

                 664.1     709.0     782.9     867.5     874.6     922.6     972.7     985.0
  
           1   -0.0000   -0.0545    0.0000    0.0000    0.0060    0.0123   -0.0000    0.0076
           2    0.0000   -0.0159    0.0000    0.0001    0.0248    0.0539   -0.0000    0.0081
           3   -0.0097   -0.0000   -0.0148    0.0315   -0.0001    0.0000    0.0230    0.0001
           4   -0.0000   -0.0495    0.0000   -0.0000    0.0012   -0.0060    0.0000   -0.0061
           5    0.0001    0.0812   -0.0001    0.0000   -0.0048   -0.0046   -0.0000    0.0076
           6   -0.0055    0.0000   -0.0363    0.0038   -0.0000   -0.0000   -0.0254   -0.0001
           7    0.0000    0.0076   -0.0000   -0.0000   -0.0196   -0.0109   -0.0001    0.0463
           8   -0.0001   -0.0481    0.0001   -0.0001   -0.0395   -0.0067    0.0001   -0.0188
           9    0.0080   -0.0000    0.0015    0.0134   -0.0000    0.0000   -0.0166   -0.0000
          10   -0.0000    0.0134    0.0000    0.0001    0.0351    0.0092   -0.0000    0.0075
          11    0.0000   -0.0269    0.0000    0.0000    0.0144   -0.0099   -0.0000    0.0028
          12   -0.0417    0.0002    0.0260   -0.0209    0.0001   -0.0000   -0.0089   -0.0000
          13    0.0000    0.0132   -0.0000   -0.0001   -0.0400   -0.0080    0.0000   -0.0094
          14   -0.0000   -0.0213    0.0000   -0.0000   -0.0036    0.0000   -0.0000    0.0113
          15    0.0547   -0.0001   -0.0038    0.0078   -0.0000   -0.0000    0.0109   -0.0000
          16    0.0000    0.0519   -0.0000   -0.0001   -0.0450   -0.0026    0.0001   -0.0461
          17    0.0000    0.0504   -0.0000    0.0000    0.0039   -0.0001    0.0000   -0.0038
          18   -0.0091    0.0000   -0.0094   -0.0338    0.0002    0.0000    0.0230    0.0002
          19    0.0000    0.0243   -0.0001    0.0001    0.0548    0.0038   -0.0001    0.0118
          20   -0.0000   -0.0173    0.0000    0.0000    0.0136   -0.0520    0.0000   -0.0101
          21    0.0020   -0.0001    0.0016   -0.0050   -0.0001   -0.0000   -0.0285   -0.0001
          22   -0.0079   -0.0511   -0.0895    0.0768   -0.0234   -0.0226   -0.0297    0.0037
          23   -0.0424   -0.0279   -0.0337    0.0772    0.0582    0.0964    0.0916    0.0189
          24    0.0198    0.0038    0.0499   -0.0535   -0.0047   -0.0078   -0.0183   -0.0036
          25    0.0078   -0.0507    0.0895   -0.0768   -0.0228   -0.0224    0.0296    0.0043
          26    0.0423   -0.0281    0.0336   -0.0766    0.0589    0.0966   -0.0915    0.0178
          27    0.0199   -0.0037    0.0500   -0.0537    0.0053    0.0082   -0.0185    0.0035
          28   -0.0156   -0.0587   -0.0802    0.0872    0.0062   -0.0421   -0.0003    0.0219
          29    0.0358    0.0915    0.1348    0.0291    0.0019   -0.0340    0.0824    0.0377
          30    0.0241    0.0076    0.0865   -0.0219    0.0010   -0.0003    0.0252    0.0037
          31    0.0155   -0.0585    0.0803   -0.0872    0.0070   -0.0420    0.0001    0.0221
          32   -0.0357    0.0912   -0.1350   -0.0291    0.0020   -0.0340   -0.0827    0.0369
          33    0.0241   -0.0073    0.0865   -0.0219   -0.0007    0.0004    0.0252   -0.0034
          34   -0.0000    0.0104   -0.0000    0.0001    0.0347    0.0140    0.0001   -0.0498
          35    0.0001   -0.0548    0.0001   -0.0003   -0.1733   -0.0667   -0.0007    0.2084
          36   -0.0333    0.0001   -0.0094   -0.0283    0.0001    0.0001    0.0244    0.0001
          37   -0.0017    0.0082   -0.0007   -0.0007    0.0290    0.0156   -0.0002   -0.0632
          38   -0.0789   -0.0567   -0.0177   -0.0783    0.0085    0.0232    0.0778   -0.1702
          39   -0.0272   -0.0031   -0.0065   -0.0223   -0.0051   -0.0019    0.0194   -0.0033
          40    0.0016    0.0081    0.0007    0.0008    0.0290    0.0155    0.0006   -0.0633
          41    0.0784   -0.0570    0.0178    0.0781    0.0083    0.0234   -0.0767   -0.1711
          42   -0.0272    0.0032   -0.0066   -0.0223    0.0052    0.0018    0.0195    0.0035
          43    0.0000    0.0539    0.0001   -0.0000   -0.0675   -0.0049    0.0001   -0.0643
          44    0.0000    0.0429   -0.0001    0.0001    0.0721    0.0055   -0.0001    0.0482
          45   -0.0621    0.0004    0.2271    0.1899   -0.0007   -0.0001   -0.0604   -0.0004
          46   -0.0002    0.0416   -0.0001    0.0001   -0.0640    0.2368    0.0001    0.0510
          47    0.0001   -0.0146    0.0000   -0.0001   -0.0162    0.0003   -0.0001   -0.0018
          48   -0.1720   -0.0002   -0.0301    0.0602   -0.0002   -0.0004    0.1357    0.0005
          49    0.0004    0.0210   -0.0001    0.0004    0.1599   -0.1224    0.0002   -0.0013
          50   -0.0002   -0.0124    0.0000   -0.0003   -0.1245    0.1218   -0.0001    0.0097
          51    0.2489   -0.0003   -0.0281    0.0113   -0.0004    0.0001    0.1153    0.0004


   Root No.      17        18        19        20        21        22        23        24

                17 A      18 A      19 A      20 A      21 A      22 A      23 A      24 A   

                1006.6    1012.7    1030.6    1075.6    1086.4    1094.3    1188.7    1230.1
  
           1    0.0000    0.0000   -0.0517   -0.0000   -0.0346    0.0001   -0.0119    0.0068
           2    0.0000    0.0000   -0.0098   -0.0000   -0.0059   -0.0000   -0.0125   -0.0280
           3   -0.0003   -0.0206   -0.0000    0.0215    0.0001    0.0423    0.0000   -0.0000
           4   -0.0000   -0.0000    0.0485    0.0000    0.0286   -0.0001   -0.0157    0.0121
           5    0.0000    0.0000   -0.0368    0.0000    0.0065    0.0000   -0.0089   -0.0128
           6   -0.0020    0.0230    0.0000    0.0086   -0.0001   -0.0475    0.0000    0.0000
           7    0.0000    0.0000    0.0088   -0.0000   -0.0075    0.0000   -0.0132   -0.0005
           8   -0.0000   -0.0000    0.0124    0.0000   -0.0021   -0.0000   -0.0120   -0.0143
           9   -0.0337   -0.0127   -0.0000   -0.0083    0.0000    0.0008    0.0000   -0.0000
          10   -0.0000    0.0001   -0.0003   -0.0000    0.0049    0.0000    0.0191    0.0122
          11    0.0000   -0.0000   -0.0060    0.0000    0.0110   -0.0000    0.0517    0.0214
          12   -0.0126    0.0264    0.0000   -0.0296    0.0000    0.0048    0.0000   -0.0000
          13    0.0000    0.0000   -0.0034    0.0000    0.0088   -0.0000    0.0267   -0.0024
          14    0.0000    0.0000   -0.0090   -0.0000    0.0024    0.0000    0.0158    0.0379
          15    0.0381    0.0163    0.0000    0.0200   -0.0000   -0.0029   -0.0000   -0.0000
          16   -0.0001   -0.0001    0.0249   -0.0000   -0.0134    0.0000   -0.0083   -0.0053
          17   -0.0000   -0.0000    0.0257   -0.0000   -0.0212    0.0001   -0.0157    0.0425
          18   -0.0104   -0.0324   -0.0001   -0.0263    0.0001    0.0040    0.0000    0.0000
          19    0.0001   -0.0000   -0.0009    0.0000   -0.0033   -0.0000   -0.0101   -0.0070
          20   -0.0000    0.0000   -0.0019   -0.0000   -0.0097    0.0000   -0.0161   -0.0032
          21    0.0233   -0.0352   -0.0000    0.0144   -0.0000   -0.0008    0.0000    0.0000
          22    0.0592    0.0087   -0.1386   -0.0967   -0.0863    0.2264    0.0766   -0.0599
          23   -0.0350   -0.0713    0.0498    0.1183    0.0413   -0.0650   -0.1138   -0.0072
          24   -0.0083    0.0189    0.0052   -0.0021   -0.0015   -0.0255    0.0161    0.0163
          25   -0.0591   -0.0086   -0.1391    0.0964   -0.0875   -0.2257    0.0768   -0.0598
          26    0.0350    0.0713    0.0502   -0.1180    0.0418    0.0648   -0.1140   -0.0072
          27   -0.0082    0.0191   -0.0051   -0.0024    0.0015   -0.0253   -0.0164   -0.0163
          28    0.0624   -0.0228    0.0212   -0.1330    0.1636   -0.1931    0.0334   -0.0178
          29    0.0434   -0.0848   -0.0729   -0.1099    0.1313   -0.0288    0.0335   -0.0775
          30   -0.0067   -0.0174   -0.0095    0.0083    0.0075    0.0271    0.0015   -0.0204
          31   -0.0623    0.0229    0.0213    0.1334    0.1639    0.1922    0.0334   -0.0179
          32   -0.0433    0.0851   -0.0728    0.1102    0.1310    0.0282    0.0335   -0.0775
          33   -0.0067   -0.0174    0.0094    0.0083   -0.0073    0.0271   -0.0015    0.0204
          34   -0.0000   -0.0000   -0.0110    0.0000    0.0063    0.0000    0.0183    0.0279
          35   -0.0001   -0.0000    0.0645   -0.0001   -0.0370    0.0000   -0.0925   -0.0980
          36    0.0448    0.0171   -0.0000    0.0099    0.0000   -0.0010    0.0001    0.0001
          37   -0.0008   -0.0005   -0.0047   -0.0005    0.0049    0.0000    0.0081   -0.0073
          38    0.1510    0.0568    0.0038    0.0347    0.0121   -0.0035   -0.0087   -0.0926
          39    0.0361    0.0137    0.0032    0.0078   -0.0008   -0.0008   -0.0087   -0.0241
          40    0.0008    0.0004   -0.0047    0.0005    0.0049   -0.0000    0.0081   -0.0074
          41   -0.1509   -0.0569    0.0036   -0.0345    0.0123    0.0033   -0.0085   -0.0926
          42    0.0363    0.0138   -0.0031    0.0079    0.0007   -0.0008    0.0087    0.0242
          43   -0.0000    0.0000   -0.0513    0.0001    0.0199   -0.0000   -0.0695    0.0440
          44   -0.0000   -0.0001    0.2804   -0.0001   -0.1264    0.0002    0.1843   -0.1179
          45    0.0588    0.1030    0.0002    0.0491   -0.0002   -0.0150    0.0001   -0.0000
          46   -0.0001    0.0003   -0.0016   -0.0000    0.0327   -0.0000    0.0410   -0.0354
          47    0.0001   -0.0001   -0.0024    0.0000   -0.0016   -0.0000   -0.0026   -0.0064
          48   -0.0998    0.1199    0.0000   -0.0393    0.0000    0.0074   -0.0001    0.0001
          49   -0.0001    0.0002   -0.0024   -0.0001   -0.0266   -0.0000   -0.0678   -0.0561
          50    0.0001   -0.0000   -0.0007    0.0000    0.0216    0.0000    0.0609    0.0590
          51   -0.0747    0.1487    0.0001   -0.0510    0.0001   -0.0003    0.0002    0.0001


   Root No.      25        26        27        28        29        30        31        32

                25 A      26 A      27 A      28 A      29 A      30 A      31 A      32 A   

                1268.5    1327.9    1349.6    1368.3    1389.0    1394.1    1396.9    1413.9
  
           1    0.0537    0.0327   -0.0214   -0.0077   -0.0001    0.0097   -0.0049    0.0259
           2   -0.0300   -0.0269    0.0175    0.0061   -0.0002    0.0299   -0.0305    0.0183
           3   -0.0000   -0.0000    0.0000    0.0000   -0.0001    0.0000   -0.0000    0.0000
           4   -0.0403   -0.0332   -0.0402    0.0152    0.0000   -0.0077    0.0041   -0.0242
           5   -0.0099   -0.0283   -0.0352    0.0082    0.0002   -0.0289    0.0329    0.0402
           6    0.0000    0.0000   -0.0000   -0.0000   -0.0001   -0.0000    0.0000    0.0000
           7   -0.0029   -0.0025    0.0013   -0.0135    0.0005   -0.0152   -0.0210   -0.0005
           8   -0.0001   -0.0011    0.0077    0.0475    0.0000   -0.0019   -0.0139    0.0134
           9    0.0000   -0.0000   -0.0000   -0.0001   -0.0437   -0.0003   -0.0002    0.0000
          10    0.0074   -0.0215   -0.0030   -0.0147    0.0000    0.0018    0.0052   -0.0068
          11   -0.0076    0.0240   -0.0229   -0.0301   -0.0000   -0.0055    0.0168   -0.0169
          12   -0.0000    0.0000   -0.0000   -0.0000    0.0001   -0.0000    0.0000   -0.0000
          13    0.0136    0.0015   -0.0053    0.0196    0.0001   -0.0122    0.0054    0.0113
          14   -0.0007    0.0032    0.0042    0.0107    0.0000   -0.0061   -0.0024   -0.0028
          15   -0.0000   -0.0000    0.0000   -0.0000   -0.0009    0.0000   -0.0000   -0.0000
          16    0.0056    0.0176    0.0171   -0.0009   -0.0000    0.0070   -0.0100   -0.0031
          17   -0.0051    0.0222    0.0309   -0.0252   -0.0001    0.0161   -0.0122   -0.0247
          18    0.0000   -0.0000   -0.0000   -0.0000   -0.0002   -0.0000    0.0000   -0.0000
          19   -0.0043   -0.0329    0.0096   -0.0047   -0.0000    0.0074   -0.0038    0.0001
          20    0.0051    0.0103    0.0006    0.0073    0.0000   -0.0013   -0.0019    0.0034
          21    0.0000    0.0001   -0.0000    0.0000    0.0001   -0.0000    0.0000    0.0000
          22   -0.0803   -0.0420    0.1164    0.0162    0.0004   -0.0453    0.0275   -0.1015
          23    0.1131    0.0284    0.0476    0.0301    0.0004   -0.0888    0.0703   -0.0593
          24   -0.0191    0.0015   -0.0719   -0.0222   -0.0006    0.0827   -0.0642    0.0912
          25   -0.0804   -0.0420    0.1165    0.0162    0.0003   -0.0452    0.0274   -0.1015
          26    0.1131    0.0285    0.0474    0.0301    0.0008   -0.0886    0.0701   -0.0590
          27    0.0194   -0.0014    0.0720    0.0223    0.0006   -0.0830    0.0644   -0.0914
          28    0.0001    0.0450    0.1444   -0.0473    0.0001    0.0074    0.0071    0.1060
          29    0.0831    0.0307   -0.0225    0.0320   -0.0000    0.0531   -0.0713   -0.1044
          30    0.0309   -0.0017   -0.0696    0.0378   -0.0002    0.0354   -0.0542   -0.1270
          31   -0.0001    0.0450    0.1445   -0.0473   -0.0001    0.0075    0.0071    0.1060
          32    0.0831    0.0307   -0.0225    0.0320   -0.0006    0.0531   -0.0714   -0.1044
          33   -0.0308    0.0017    0.0696   -0.0378    0.0002   -0.0354    0.0542    0.1269
          34    0.0029    0.0001    0.0110    0.0535    0.0003   -0.0389   -0.0531    0.0176
          35   -0.0130   -0.0061   -0.0199   -0.1348   -0.0015    0.0900    0.1080   -0.0405
          36   -0.0001    0.0004   -0.0001    0.0007    0.4295    0.0022    0.0013   -0.0001
          37    0.0027    0.0123    0.0043    0.0354   -0.2189    0.1248    0.1442   -0.0162
          38    0.0127   -0.0163   -0.0380   -0.1484   -0.1345   -0.0211    0.0101   -0.0179
          39    0.0023   -0.0139   -0.0180   -0.0960    0.0544   -0.0837   -0.0818   -0.0023
          40    0.0027    0.0126    0.0042    0.0356    0.2129    0.1269    0.1454   -0.0164
          41    0.0128   -0.0161   -0.0381   -0.1480    0.1358   -0.0196    0.0111   -0.0179
          42   -0.0024    0.0140    0.0180    0.0964    0.0507    0.0846    0.0825    0.0023
          43   -0.0258    0.0207    0.0274   -0.0213   -0.0001    0.0179   -0.0155   -0.0240
          44    0.0966    0.0168    0.0009    0.0443    0.0001   -0.0191    0.0019    0.0409
          45    0.0000   -0.0000   -0.0000    0.0000    0.0006   -0.0000    0.0000    0.0000
          46   -0.1366    0.2636   -0.0572    0.0081   -0.0002   -0.0339    0.0127   -0.0100
          47   -0.0188    0.0675   -0.0133    0.0086   -0.0000   -0.0099    0.0019    0.0009
          48    0.0002   -0.0003    0.0001   -0.0000   -0.0008    0.0000   -0.0000    0.0000
          49   -0.0767    0.1397   -0.0120    0.0300   -0.0001   -0.0121   -0.0067    0.0079
          50    0.0929   -0.2048    0.0266   -0.0386    0.0000    0.0233    0.0022   -0.0076
          51    0.0002   -0.0004    0.0000   -0.0001   -0.0007    0.0000    0.0000   -0.0000


   Root No.      33        34        35        36        37        38        39        40

                33 A      34 A      35 A      36 A      37 A      38 A      39 A      40 A   

                1506.8    1859.1    1909.1    2972.8    2988.0    3055.2    3060.2    3066.0
  
           1   -0.0092   -0.0064   -0.0167    0.0000   -0.0000    0.0084    0.0184    0.0000
           2    0.0303   -0.0065    0.0270   -0.0000    0.0000    0.0099    0.0236    0.0000
           3    0.0000   -0.0000    0.0000    0.0262   -0.0353   -0.0000   -0.0000   -0.0000
           4    0.0123   -0.0044   -0.0041    0.0000    0.0000    0.0191   -0.0074   -0.0000
           5   -0.0158    0.0126    0.0066    0.0000    0.0000   -0.0235    0.0100    0.0000
           6   -0.0000    0.0000    0.0000   -0.0354   -0.0260   -0.0000   -0.0000   -0.0001
           7   -0.0107    0.0084    0.0032   -0.0000   -0.0000    0.0000    0.0001   -0.0001
           8   -0.0911   -0.0568    0.0081   -0.0000    0.0000   -0.0000    0.0001   -0.0000
           9    0.0000    0.0000   -0.0000   -0.0000    0.0000   -0.0000    0.0000   -0.0578
          10   -0.0346    0.0154    0.2562   -0.0000    0.0000   -0.0004   -0.0000   -0.0000
          11   -0.0919   -0.0152   -0.0854    0.0000   -0.0000    0.0004    0.0004    0.0000
          12   -0.0000   -0.0000   -0.0004    0.0000   -0.0001    0.0000    0.0000   -0.0000
          13    0.1062   -0.1882   -0.0263    0.0000   -0.0000   -0.0003    0.0000   -0.0000
          14    0.1151    0.2037   -0.0318    0.0000   -0.0000    0.0004   -0.0006    0.0000
          15   -0.0001    0.0001    0.0000   -0.0001   -0.0002    0.0000   -0.0000   -0.0001
          16   -0.0416    0.1663   -0.0190   -0.0000   -0.0000   -0.0011    0.0008   -0.0000
          17    0.0132   -0.1580    0.0069   -0.0000   -0.0000   -0.0009    0.0004   -0.0000
          18    0.0000   -0.0001    0.0000   -0.0000   -0.0001    0.0000   -0.0000   -0.0002
          19   -0.0232   -0.0035   -0.1897    0.0000   -0.0000    0.0001    0.0000    0.0000
          20    0.0208    0.0068    0.0693   -0.0000    0.0000   -0.0000   -0.0000   -0.0000
          21    0.0001    0.0000    0.0004    0.0000   -0.0001   -0.0000   -0.0000   -0.0000
          22   -0.0005   -0.0022    0.0230   -0.0734    0.1044   -0.0467   -0.1124    0.0001
          23    0.0016   -0.0010   -0.0108   -0.0955    0.1288   -0.0600   -0.1404    0.0001
          24    0.0092   -0.0075    0.0013   -0.1582    0.2127   -0.1169   -0.2757    0.0002
          25   -0.0005   -0.0022    0.0231    0.0733   -0.1043   -0.0468   -0.1127   -0.0001
          26    0.0017   -0.0010   -0.0109    0.0958   -0.1292   -0.0604   -0.1415   -0.0001
          27   -0.0092    0.0075   -0.0014   -0.1576    0.2119    0.1169    0.2758    0.0002
          28   -0.0090    0.0160   -0.0016    0.1023    0.0789   -0.1135    0.0487    0.0002
          29    0.0012    0.0271   -0.0003   -0.1291   -0.0946    0.1408   -0.0588   -0.0001
          30    0.0176    0.0053   -0.0078    0.2134    0.1559   -0.2765    0.1163    0.0003
          31   -0.0090    0.0160   -0.0016   -0.1023   -0.0789   -0.1135    0.0487   -0.0002
          32    0.0012    0.0271   -0.0003    0.1291    0.0945    0.1407   -0.0588    0.0001
          33   -0.0176   -0.0053    0.0078    0.2135    0.1560    0.2765   -0.1163    0.0003
          34   -0.0457   -0.0332    0.0013    0.0000   -0.0000   -0.0004   -0.0006    0.0015
          35    0.0301    0.0494    0.0127   -0.0000   -0.0000   -0.0002   -0.0003    0.0005
          36    0.0001   -0.0000   -0.0000    0.0000    0.0000   -0.0000   -0.0000   -0.0288
          37    0.0455    0.0069   -0.0025   -0.0001   -0.0002   -0.0000   -0.0001    0.2279
          38    0.1019   -0.0252   -0.0031    0.0001    0.0001    0.0001    0.0001   -0.1584
          39    0.0399    0.0056   -0.0004   -0.0001   -0.0002   -0.0001   -0.0003    0.3623
          40    0.0458    0.0070   -0.0025    0.0001    0.0002   -0.0001   -0.0001   -0.2280
          41    0.1021   -0.0254   -0.0032   -0.0001   -0.0001    0.0001    0.0001    0.1581
          42   -0.0399   -0.0055    0.0004   -0.0001   -0.0002    0.0001    0.0003    0.3598
          43   -0.0533    0.1340   -0.0220    0.0000    0.0000    0.0124   -0.0143    0.0000
          44    0.0419    0.1060   -0.0161    0.0000    0.0000    0.0023   -0.0041    0.0000
          45    0.0000   -0.0001   -0.0000   -0.0007   -0.0006   -0.0000    0.0000    0.0005
          46   -0.0073   -0.0020    0.0241    0.0000   -0.0000   -0.0000    0.0001   -0.0000
          47    0.0230    0.0092    0.1496   -0.0000    0.0000   -0.0001   -0.0007    0.0001
          48    0.0000    0.0000    0.0001    0.0004   -0.0005    0.0000   -0.0000   -0.0005
          49    0.0437    0.0085   -0.0842    0.0000   -0.0000    0.0006    0.0007   -0.0000
          50   -0.0724   -0.0067   -0.1261    0.0000   -0.0000    0.0006    0.0011   -0.0000
          51   -0.0001   -0.0000    0.0000   -0.0002    0.0002   -0.0000   -0.0000    0.0000


   Root No.      41        42        43        44        45

                41 A      42 A      43 A      44 A      45 A   

                3078.4    3123.5    3136.2    3146.8    3165.5
  
           1    0.0001    0.0012   -0.0002   -0.0004    0.0000
           2    0.0001    0.0014    0.0002    0.0002   -0.0000
           3    0.0000   -0.0000    0.0000    0.0000   -0.0000
           4    0.0000   -0.0015    0.0001   -0.0000    0.0000
           5    0.0000    0.0020   -0.0000    0.0001   -0.0000
           6    0.0000    0.0000   -0.0000    0.0000    0.0000
           7   -0.0505    0.0010   -0.0008   -0.0000   -0.0018
           8    0.0003    0.0000   -0.0010   -0.0004   -0.0242
           9    0.0001    0.0000    0.0000    0.0000   -0.0000
          10    0.0001    0.0015   -0.0059    0.0030    0.0002
          11    0.0003   -0.0002    0.0019   -0.0017    0.0001
          12   -0.0000   -0.0000    0.0000   -0.0000   -0.0000
          13   -0.0003    0.0045   -0.0000    0.0007    0.0000
          14    0.0003   -0.0045    0.0001   -0.0002   -0.0003
          15    0.0000   -0.0000   -0.0000   -0.0000   -0.0000
          16   -0.0006   -0.0709    0.0007   -0.0004    0.0002
          17   -0.0007   -0.0168    0.0001    0.0001    0.0003
          18    0.0000    0.0000   -0.0000    0.0000   -0.0000
          19   -0.0003    0.0002    0.0310   -0.0444   -0.0003
          20    0.0005   -0.0001   -0.0447   -0.0508    0.0017
          21    0.0000   -0.0000   -0.0001    0.0000    0.0000
          22   -0.0003   -0.0031   -0.0006    0.0000    0.0000
          23   -0.0004   -0.0041   -0.0003    0.0007   -0.0000
          24   -0.0007   -0.0080   -0.0007    0.0009   -0.0000
          25   -0.0003   -0.0031   -0.0005    0.0000    0.0000
          26   -0.0004   -0.0042   -0.0003    0.0007   -0.0000
          27    0.0007    0.0080    0.0007   -0.0009    0.0000
          28    0.0000    0.0053    0.0001    0.0001   -0.0000
          29   -0.0001   -0.0103    0.0000   -0.0002    0.0001
          30    0.0001    0.0166    0.0000    0.0003   -0.0001
          31    0.0000    0.0053    0.0001    0.0001   -0.0000
          32   -0.0001   -0.0103    0.0000   -0.0002    0.0001
          33   -0.0001   -0.0166   -0.0000   -0.0003    0.0001
          34    0.4110   -0.0063    0.0200    0.0066    0.3162
          35    0.1608   -0.0013    0.0070    0.0022    0.1066
          36    0.0005   -0.0000    0.0000    0.0000    0.0003
          37    0.0943   -0.0043   -0.0046   -0.0028   -0.1470
          38   -0.0824    0.0036    0.0027    0.0020    0.0915
          39    0.2065   -0.0084   -0.0079   -0.0053   -0.2531
          40    0.0961   -0.0043   -0.0045   -0.0028   -0.1478
          41   -0.0836    0.0036    0.0027    0.0020    0.0918
          42   -0.2082    0.0084    0.0078    0.0052    0.2528
          43    0.0093    0.7799   -0.0059    0.0024   -0.0042
          44    0.0020    0.2377   -0.0018    0.0007   -0.0018
          45   -0.0000   -0.0004    0.0000   -0.0000    0.0000
          46    0.0020   -0.0013   -0.1323   -0.0576    0.0034
          47   -0.0063    0.0063    0.6535    0.2053   -0.0187
          48   -0.0000    0.0000    0.0008    0.0003   -0.0000
          49    0.0016   -0.0044   -0.1674    0.5491   -0.0018
          50    0.0014   -0.0035   -0.1455    0.4160   -0.0009
          51   -0.0000    0.0000    0.0001   -0.0005    0.0000


           MASS-WEIGHTED COORDINATE ANALYSIS (NORMAL COORDINATES)


   Root No.       1         2         3         4         5         6         7         8

                 1 A       2 A       3 A       4 A       5 A       6 A       7 A       8 A   

                  95.7     104.2     222.7     290.2     333.7     421.7     558.5     585.5
  
           1    0.0003   -0.0000   -0.0001   -0.0108    0.0001   -0.1510   -0.0006   -0.1346
           2   -0.0006    0.0000    0.0001    0.0611    0.0007    0.2387   -0.0012   -0.3658
           3    0.4646    0.1687    0.0062    0.0006   -0.0969    0.0005   -0.0317   -0.0001
           4    0.0003   -0.0001   -0.0000   -0.0356    0.0000   -0.2092   -0.0007   -0.2385
           5   -0.0001    0.0002    0.0001    0.0882    0.0000   -0.1279    0.0002   -0.0748
           6   -0.2050   -0.1414   -0.3594   -0.0000   -0.0206    0.0001    0.0233    0.0000
           7   -0.0004    0.0012   -0.0003    0.5414    0.0002   -0.2040   -0.0000    0.0053
           8   -0.0001    0.0003   -0.0003    0.1123   -0.0004    0.1047    0.0008    0.4527
           9    0.2575    0.0372   -0.3133   -0.0004   -0.1252    0.0001    0.0069   -0.0002
          10    0.0002   -0.0002    0.0000   -0.0994    0.0004    0.2342    0.0002    0.2600
          11   -0.0001    0.0002    0.0000    0.0601    0.0001    0.2908   -0.0005   -0.2462
          12    0.0410    0.0546    0.0531   -0.0003    0.5248   -0.0005   -0.4123    0.0014
          13    0.0001   -0.0002    0.0002   -0.1082    0.0006    0.3555    0.0001   -0.0423
          14   -0.0002    0.0002   -0.0000    0.1038   -0.0001    0.0986    0.0007    0.2895
          15    0.0263    0.0172    0.2464   -0.0003    0.5001   -0.0005    0.3192    0.0001
          16    0.0001   -0.0003    0.0003   -0.1126    0.0002    0.1792   -0.0005   -0.2426
          17   -0.0000    0.0002   -0.0000    0.0829   -0.0001   -0.1733    0.0004    0.0291
          18   -0.1799   -0.0892    0.5095    0.0002   -0.2302    0.0001   -0.0858    0.0004
          19   -0.0003   -0.0007    0.0000   -0.2896   -0.0011    0.0222    0.0013    0.3714
          20    0.0010   -0.0009    0.0002   -0.4515   -0.0003   -0.3078   -0.0003   -0.1331
          21   -0.4280   -0.0352    0.0284    0.0000   -0.2201   -0.0002    0.0688   -0.0009
          22   -0.1179   -0.0544   -0.0713   -0.0003    0.0299   -0.0961   -0.0502   -0.0586
          23   -0.1214   -0.0406   -0.0238    0.0140    0.1587    0.1074   -0.2431   -0.1031
          24    0.2614    0.0984    0.0498    0.0007   -0.1373    0.0009    0.1632    0.0049
          25    0.1179    0.0544    0.0712   -0.0001   -0.0300   -0.0960    0.0499   -0.0588
          26    0.1207    0.0405    0.0237    0.0146   -0.1578    0.1081    0.2416   -0.1044
          27    0.2617    0.0985    0.0498    0.0001   -0.1378   -0.0000    0.1639   -0.0059
          28    0.1152    0.0532    0.0722   -0.0038   -0.0161   -0.1040   -0.0318   -0.0442
          29   -0.0405   -0.0267   -0.2217    0.0304    0.0615   -0.0725    0.0665   -0.0000
          30   -0.1379   -0.0820   -0.2706   -0.0000    0.0386   -0.0002    0.0632    0.0008
          31   -0.1149   -0.0532   -0.0722   -0.0040    0.0160   -0.1041    0.0316   -0.0442
          32    0.0406    0.0269    0.2218    0.0306   -0.0616   -0.0724   -0.0662    0.0002
          33   -0.1379   -0.0820   -0.2705   -0.0002    0.0386    0.0002    0.0632   -0.0009
          34    0.0000   -0.0001   -0.0001    0.2208    0.0000   -0.1277    0.0000    0.0161
          35   -0.0000   -0.0001    0.0002   -0.1212    0.0001    0.1934    0.0003    0.0994
          36   -0.0711    0.5456   -0.1923   -0.0016   -0.1115   -0.0000   -0.0533   -0.0000
          37   -0.1461    0.4714   -0.0388    0.2184   -0.0039   -0.1310   -0.0034    0.0227
          38    0.0471   -0.0099   -0.1204    0.1124   -0.1441   -0.0557   -0.1046    0.1679
          39    0.1805   -0.2690   -0.1221    0.0009   -0.0993    0.0025   -0.0434    0.0031
          40    0.1454   -0.4695    0.0384    0.2211    0.0038   -0.1309    0.0035    0.0227
          41   -0.0472    0.0103    0.1198    0.1125    0.1435   -0.0565    0.1049    0.1681
          42    0.1809   -0.2701   -0.1221    0.0004   -0.0994   -0.0021   -0.0435   -0.0033
          43    0.0000   -0.0001    0.0002   -0.0346   -0.0001    0.0806   -0.0002   -0.0502
          44    0.0000    0.0001   -0.0000    0.0339   -0.0000   -0.1480   -0.0000   -0.0603
          45   -0.0872   -0.0372    0.2784    0.0002   -0.2953    0.0001   -0.1484    0.0001
          46    0.0001   -0.0008    0.0001   -0.2319   -0.0006   -0.2267    0.0015    0.1997
          47    0.0004   -0.0004    0.0001   -0.1651   -0.0002   -0.1434   -0.0005   -0.0192
          48   -0.2240   -0.0364    0.0291    0.0003   -0.0545    0.0004    0.5816   -0.0021
          49   -0.0003    0.0000   -0.0001    0.0108   -0.0005    0.1527   -0.0004    0.0678
          50    0.0005   -0.0006    0.0001   -0.2589   -0.0002   -0.2879    0.0004    0.0190
          51   -0.1452   -0.0072   -0.0196   -0.0001   -0.2881   -0.0004   -0.3616    0.0007


   Root No.       9        10        11        12        13        14        15        16

                 9 A      10 A      11 A      12 A      13 A      14 A      15 A      16 A   

                 664.1     709.0     782.9     867.5     874.6     922.6     972.7     985.0
  
           1   -0.0003   -0.3363    0.0004    0.0002    0.0438    0.0970   -0.0002    0.0599
           2    0.0001   -0.0979    0.0001    0.0005    0.1798    0.4244   -0.0003    0.0645
           3   -0.0792   -0.0000   -0.1244    0.2956   -0.0008    0.0002    0.2309    0.0011
           4   -0.0003   -0.3054    0.0004   -0.0002    0.0088   -0.0474    0.0001   -0.0481
           5    0.0006    0.5011   -0.0005    0.0000   -0.0351   -0.0363   -0.0002    0.0601
           6   -0.0452    0.0000   -0.3044    0.0360   -0.0002   -0.0000   -0.2553   -0.0011
           7    0.0002    0.0467   -0.0000   -0.0004   -0.1419   -0.0858   -0.0014    0.3666
           8   -0.0006   -0.2966    0.0004   -0.0009   -0.2869   -0.0531    0.0005   -0.1486
           9    0.0655   -0.0000    0.0123    0.1262   -0.0001    0.0000   -0.1661   -0.0003
          10   -0.0004    0.0824    0.0001    0.0006    0.2549    0.0722   -0.0003    0.0598
          11    0.0002   -0.1659    0.0001    0.0003    0.1047   -0.0783   -0.0003    0.0219
          12   -0.3404    0.0009    0.2183   -0.1962    0.0006   -0.0001   -0.0897   -0.0003
          13    0.0004    0.0816   -0.0001   -0.0009   -0.2902   -0.0629    0.0003   -0.0742
          14   -0.0001   -0.1314    0.0001   -0.0000   -0.0264    0.0003   -0.0004    0.0893
          15    0.4469   -0.0008   -0.0317    0.0736   -0.0001   -0.0002    0.1094   -0.0002
          16    0.0003    0.3202   -0.0003   -0.0012   -0.3266   -0.0202    0.0015   -0.3654
          17    0.0003    0.3110   -0.0004    0.0002    0.0284   -0.0011    0.0002   -0.0300
          18   -0.0740    0.0000   -0.0789   -0.3176    0.0011    0.0002    0.2312    0.0014
          19    0.0001    0.1500   -0.0005    0.0014    0.3976    0.0303   -0.0005    0.0938
          20   -0.0002   -0.1070    0.0002    0.0000    0.0988   -0.4094    0.0005   -0.0801
          21    0.0163   -0.0003    0.0135   -0.0472   -0.0004   -0.0001   -0.2855   -0.0011
          22   -0.0186   -0.0913   -0.2175    0.2089   -0.0492   -0.0515   -0.0864    0.0086
          23   -0.1003   -0.0499   -0.0819    0.2099    0.1224    0.2198    0.2662    0.0434
          24    0.0468    0.0068    0.1213   -0.1455   -0.0099   -0.0178   -0.0531   -0.0082
          25    0.0185   -0.0906    0.2176   -0.2091   -0.0478   -0.0511    0.0861    0.0098
          26    0.1001   -0.0502    0.0816   -0.2085    0.1238    0.2203   -0.2658    0.0408
          27    0.0470   -0.0067    0.1216   -0.1460    0.0112    0.0187   -0.0538    0.0079
          28   -0.0370   -0.1049   -0.1949    0.2374    0.0130   -0.0959   -0.0009    0.0502
          29    0.0847    0.1634    0.3277    0.0792    0.0039   -0.0776    0.2396    0.0865
          30    0.0570    0.0135    0.2103   -0.0596    0.0020   -0.0007    0.0733    0.0086
          31    0.0367   -0.1045    0.1951   -0.2374    0.0147   -0.0958    0.0003    0.0507
          32   -0.0844    0.1629   -0.3282   -0.0791    0.0043   -0.0776   -0.2404    0.0848
          33    0.0569   -0.0130    0.2102   -0.0596   -0.0015    0.0008    0.0733   -0.0078
          34   -0.0000    0.0185   -0.0000    0.0002    0.0729    0.0318    0.0004   -0.1143
          35    0.0002   -0.0979    0.0002   -0.0008   -0.3643   -0.1521   -0.0020    0.4782
          36   -0.0787    0.0002   -0.0228   -0.0769    0.0003    0.0002    0.0708    0.0001
          37   -0.0040    0.0146   -0.0017   -0.0020    0.0609    0.0355   -0.0005   -0.1451
          38   -0.1866   -0.1013   -0.0430   -0.2131    0.0179    0.0529    0.2262   -0.3905
          39   -0.0642   -0.0056   -0.0159   -0.0606   -0.0106   -0.0043    0.0564   -0.0076
          40    0.0039    0.0145    0.0016    0.0023    0.0610    0.0354    0.0016   -0.1452
          41    0.1855   -0.1019    0.0432    0.2125    0.0175    0.0533   -0.2228   -0.3927
          42   -0.0644    0.0058   -0.0160   -0.0607    0.0109    0.0042    0.0566    0.0081
          43    0.0000    0.0963    0.0002   -0.0001   -0.1419   -0.0113    0.0004   -0.1475
          44    0.0001    0.0767   -0.0002    0.0004    0.1516    0.0126   -0.0002    0.1106
          45   -0.1469    0.0007    0.5520    0.5167   -0.0014   -0.0003   -0.1755   -0.0010
          46   -0.0005    0.0743   -0.0003    0.0003   -0.1345    0.5400    0.0003    0.1171
          47    0.0003   -0.0261    0.0001   -0.0003   -0.0340    0.0007   -0.0003   -0.0042
          48   -0.4069   -0.0003   -0.0732    0.1637   -0.0004   -0.0009    0.3945    0.0012
          49    0.0009    0.0376   -0.0003    0.0010    0.3362   -0.2792    0.0006   -0.0029
          50   -0.0005   -0.0221    0.0001   -0.0007   -0.2617    0.2778   -0.0003    0.0221
          51    0.5887   -0.0006   -0.0683    0.0308   -0.0009    0.0003    0.3350    0.0009


   Root No.      17        18        19        20        21        22        23        24

                17 A      18 A      19 A      20 A      21 A      22 A      23 A      24 A   

                1006.6    1012.7    1030.6    1075.6    1086.4    1094.3    1188.7    1230.1
  
           1    0.0002    0.0003   -0.3660   -0.0003   -0.2944    0.0010   -0.0999    0.0634
           2    0.0002    0.0004   -0.0696   -0.0002   -0.0499   -0.0002   -0.1056   -0.2611
           3   -0.0031   -0.1948   -0.0001    0.1922    0.0005    0.2991    0.0001   -0.0002
           4   -0.0002   -0.0003    0.3436    0.0004    0.2437   -0.0010   -0.1322    0.1127
           5    0.0002    0.0002   -0.2603    0.0000    0.0556    0.0001   -0.0748   -0.1198
           6   -0.0188    0.2174    0.0000    0.0774   -0.0010   -0.3356    0.0000    0.0001
           7    0.0002    0.0001    0.0626   -0.0002   -0.0640    0.0001   -0.1109   -0.0047
           8   -0.0005   -0.0004    0.0879    0.0000   -0.0182   -0.0001   -0.1009   -0.1336
           9   -0.3216   -0.1205   -0.0002   -0.0745    0.0002    0.0054    0.0000   -0.0001
          10   -0.0001    0.0005   -0.0019   -0.0004    0.0421    0.0000    0.1606    0.1138
          11    0.0001   -0.0001   -0.0428    0.0002    0.0935   -0.0000    0.4359    0.1997
          12   -0.1199    0.2496    0.0002   -0.2651    0.0003    0.0337    0.0001   -0.0001
          13    0.0001    0.0000   -0.0239    0.0003    0.0747   -0.0001    0.2253   -0.0223
          14    0.0001    0.0002   -0.0638   -0.0000    0.0206    0.0001    0.1333    0.3535
          15    0.3636    0.1539    0.0003    0.1792   -0.0004   -0.0208   -0.0002   -0.0001
          16   -0.0006   -0.0007    0.1764   -0.0001   -0.1144    0.0003   -0.0698   -0.0494
          17   -0.0001   -0.0002    0.1817   -0.0003   -0.1804    0.0005   -0.1324    0.3970
          18   -0.0996   -0.3059   -0.0004   -0.2353    0.0006    0.0281    0.0001    0.0001
          19    0.0006   -0.0004   -0.0061    0.0003   -0.0278   -0.0001   -0.0850   -0.0652
          20   -0.0003    0.0001   -0.0135   -0.0002   -0.0829    0.0001   -0.1356   -0.0302
          21    0.2221   -0.3324   -0.0002    0.1290   -0.0002   -0.0057    0.0000    0.0001
          22    0.1637    0.0238   -0.2842   -0.2508   -0.2131    0.4638    0.1869   -0.1618
          23   -0.0968   -0.1954    0.1021    0.3067    0.1020   -0.1332   -0.2779   -0.0194
          24   -0.0230    0.0519    0.0107   -0.0056   -0.0038   -0.0522    0.0393    0.0440
          25   -0.1633   -0.0235   -0.2853    0.2499   -0.2158   -0.4624    0.1874   -0.1616
          26    0.0968    0.1952    0.1029   -0.3059    0.1032    0.1327   -0.2784   -0.0196
          27   -0.0227    0.0524   -0.0104   -0.0063    0.0037   -0.0519   -0.0401   -0.0441
          28    0.1724   -0.0625    0.0434   -0.3448    0.4037   -0.3956    0.0816   -0.0481
          29    0.1200   -0.2323   -0.1496   -0.2851    0.3241   -0.0590    0.0818   -0.2094
          30   -0.0185   -0.0477   -0.0194    0.0215    0.0185    0.0555    0.0036   -0.0551
          31   -0.1722    0.0627    0.0437    0.3458    0.4045    0.3938    0.0815   -0.0483
          32   -0.1196    0.2330   -0.1493    0.2859    0.3233    0.0578    0.0818   -0.2095
          33   -0.0186   -0.0477    0.0193    0.0215   -0.0181    0.0556   -0.0036    0.0550
          34   -0.0001   -0.0001   -0.0225    0.0000    0.0155    0.0000    0.0446    0.0755
          35   -0.0003   -0.0000    0.1323   -0.0003   -0.0914    0.0000   -0.2258   -0.2649
          36    0.1238    0.0468   -0.0000    0.0256    0.0000   -0.0021    0.0002    0.0003
          37   -0.0023   -0.0012   -0.0097   -0.0012    0.0122    0.0000    0.0199   -0.0198
          38    0.4173    0.1555    0.0079    0.0899    0.0298   -0.0071   -0.0212   -0.2502
          39    0.0998    0.0374    0.0065    0.0203   -0.0019   -0.0017   -0.0213   -0.0650
          40    0.0022    0.0011   -0.0097    0.0013    0.0122   -0.0001    0.0199   -0.0200
          41   -0.4170   -0.1558    0.0073   -0.0894    0.0303    0.0068   -0.0209   -0.2504
          42    0.1004    0.0377   -0.0065    0.0204    0.0018   -0.0016    0.0213    0.0653
          43   -0.0001    0.0001   -0.1053    0.0002    0.0491   -0.0000   -0.1697    0.1189
          44   -0.0000   -0.0004    0.5751   -0.0004   -0.3120    0.0004    0.4499   -0.3187
          45    0.1624    0.2820    0.0005    0.1273   -0.0004   -0.0307    0.0001   -0.0001
          46   -0.0003    0.0008   -0.0032   -0.0001    0.0806   -0.0001    0.1000   -0.0956
          47    0.0002   -0.0003   -0.0049    0.0001   -0.0039   -0.0000   -0.0063   -0.0172
          48   -0.2757    0.3284    0.0001   -0.1018    0.0000    0.0151   -0.0002    0.0002
          49   -0.0003    0.0005   -0.0050   -0.0002   -0.0657   -0.0000   -0.1656   -0.1516
          50    0.0002   -0.0001   -0.0014    0.0001    0.0532    0.0000    0.1486    0.1595
          51   -0.2063    0.4073    0.0002   -0.1324    0.0003   -0.0006    0.0004    0.0003


   Root No.      25        26        27        28        29        30        31        32

                25 A      26 A      27 A      28 A      29 A      30 A      31 A      32 A   

                1268.5    1327.9    1349.6    1368.3    1389.0    1394.1    1396.9    1413.9
  
           1    0.4500    0.2362   -0.1791   -0.0654   -0.0005    0.0915   -0.0440    0.2108
           2   -0.2513   -0.1944    0.1465    0.0518   -0.0009    0.2834   -0.2755    0.1492
           3   -0.0004   -0.0003    0.0001    0.0000   -0.0004    0.0003   -0.0003    0.0002
           4   -0.3377   -0.2392   -0.3359    0.1291    0.0002   -0.0729    0.0374   -0.1969
           5   -0.0832   -0.2042   -0.2948    0.0699    0.0010   -0.2734    0.2975    0.3273
           6    0.0001    0.0000   -0.0000   -0.0000   -0.0005   -0.0000    0.0000    0.0001
           7   -0.0244   -0.0177    0.0107   -0.1143    0.0028   -0.1440   -0.1898   -0.0041
           8   -0.0007   -0.0077    0.0645    0.4033    0.0002   -0.0182   -0.1255    0.1091
           9    0.0001   -0.0003   -0.0000   -0.0008   -0.2578   -0.0024   -0.0014    0.0001
          10    0.0623   -0.1552   -0.0252   -0.1249    0.0000    0.0170    0.0472   -0.0550
          11   -0.0638    0.1731   -0.1918   -0.2553   -0.0001   -0.0525    0.1522   -0.1373
          12   -0.0003    0.0003   -0.0001   -0.0000    0.0008   -0.0001    0.0001   -0.0000
          13    0.1143    0.0107   -0.0443    0.1666    0.0003   -0.1151    0.0491    0.0919
          14   -0.0057    0.0233    0.0348    0.0912    0.0002   -0.0579   -0.0221   -0.0226
          15   -0.0001   -0.0000    0.0000   -0.0001   -0.0053    0.0000   -0.0001   -0.0000
          16    0.0468    0.1270    0.1429   -0.0079   -0.0001    0.0666   -0.0901   -0.0254
          17   -0.0431    0.1603    0.2584   -0.2143   -0.0006    0.1528   -0.1104   -0.2010
          18    0.0000   -0.0000   -0.0000   -0.0000   -0.0013   -0.0000    0.0000   -0.0000
          19   -0.0358   -0.2373    0.0802   -0.0396   -0.0001    0.0702   -0.0346    0.0007
          20    0.0428    0.0741    0.0047    0.0621    0.0000   -0.0124   -0.0170    0.0275
          21    0.0001    0.0004   -0.0001    0.0001    0.0003   -0.0001    0.0000    0.0000
          22   -0.1952   -0.0878    0.2821    0.0399    0.0008   -0.1241    0.0720   -0.2394
          23    0.2747    0.0595    0.1153    0.0740    0.0007   -0.2436    0.1841   -0.1398
          24   -0.0464    0.0032   -0.1741   -0.0546   -0.0010    0.2269   -0.1681    0.2150
          25   -0.1953   -0.0877    0.2822    0.0398    0.0005   -0.1240    0.0718   -0.2394
          26    0.2747    0.0595    0.1148    0.0740    0.0013   -0.2430    0.1836   -0.1391
          27    0.0472   -0.0030    0.1746    0.0548    0.0010   -0.2277    0.1686   -0.2155
          28    0.0001    0.0941    0.3500   -0.1164    0.0002    0.0204    0.0186    0.2499
          29    0.2020    0.0643   -0.0545    0.0787   -0.0001    0.1457   -0.1870   -0.2462
          30    0.0750   -0.0035   -0.1687    0.0930   -0.0004    0.0971   -0.1420   -0.2995
          31   -0.0001    0.0940    0.3501   -0.1164   -0.0002    0.0204    0.0185    0.2499
          32    0.2020    0.0642   -0.0545    0.0788   -0.0010    0.1457   -0.1870   -0.2463
          33   -0.0749    0.0036    0.1687   -0.0930    0.0004   -0.0970    0.1420    0.2994
          34    0.0071    0.0002    0.0267    0.1315    0.0006   -0.1066   -0.1391    0.0416
          35   -0.0316   -0.0128   -0.0482   -0.3317   -0.0026    0.2469    0.2830   -0.0955
          36   -0.0003    0.0009   -0.0001    0.0016    0.7338    0.0059    0.0034   -0.0002
          37    0.0066    0.0258    0.0105    0.0870   -0.3741    0.3422    0.3778   -0.0383
          38    0.0309   -0.0340   -0.0922   -0.3652   -0.2299   -0.0580    0.0264   -0.0422
          39    0.0056   -0.0290   -0.0435   -0.2363    0.0930   -0.2296   -0.2143   -0.0054
          40    0.0065    0.0264    0.0102    0.0877    0.3637    0.3480    0.3811   -0.0386
          41    0.0310   -0.0336   -0.0923   -0.3641    0.2319   -0.0538    0.0292   -0.0423
          42   -0.0057    0.0292    0.0436    0.2372    0.0866    0.2321    0.2161    0.0053
          43   -0.0628    0.0432    0.0665   -0.0525   -0.0002    0.0491   -0.0406   -0.0567
          44    0.2348    0.0350    0.0022    0.1090    0.0003   -0.0523    0.0049    0.0966
          45    0.0000   -0.0000   -0.0001    0.0000    0.0010   -0.0000    0.0000    0.0000
          46   -0.3319    0.5508   -0.1386    0.0199   -0.0003   -0.0929    0.0333   -0.0235
          47   -0.0456    0.1411   -0.0323    0.0211   -0.0000   -0.0271    0.0050    0.0021
          48    0.0005   -0.0007    0.0002   -0.0000   -0.0014    0.0001   -0.0001    0.0001
          49   -0.1864    0.2920   -0.0291    0.0738   -0.0001   -0.0332   -0.0175    0.0187
          50    0.2258   -0.4279    0.0645   -0.0950    0.0001    0.0638    0.0057   -0.0180
          51    0.0004   -0.0008    0.0001   -0.0002   -0.0011    0.0001    0.0000   -0.0001


   Root No.      33        34        35        36        37        38        39        40

                33 A      34 A      35 A      36 A      37 A      38 A      39 A      40 A   

                1506.8    1859.1    1909.1    2972.8    2988.0    3055.2    3060.2    3066.0
  
           1   -0.0407   -0.0173   -0.0480    0.0000   -0.0001    0.0560    0.1227    0.0000
           2    0.1346   -0.0176    0.0777   -0.0002    0.0002    0.0660    0.1574    0.0000
           3    0.0001   -0.0000    0.0001    0.1817   -0.2453   -0.0000   -0.0000   -0.0002
           4    0.0549   -0.0120   -0.0119    0.0000    0.0000    0.1268   -0.0494   -0.0000
           5   -0.0702    0.0340    0.0190    0.0000    0.0000   -0.1563    0.0665    0.0000
           6   -0.0000    0.0000    0.0000   -0.2456   -0.1802   -0.0000   -0.0000   -0.0005
           7   -0.0477    0.0226    0.0093   -0.0000   -0.0000    0.0001    0.0004   -0.0006
           8   -0.4052   -0.1537    0.0233   -0.0000    0.0000   -0.0002    0.0004   -0.0001
           9    0.0001    0.0000   -0.0000   -0.0001    0.0001   -0.0000    0.0000   -0.2956
          10   -0.1539    0.0418    0.7365   -0.0000    0.0000   -0.0027   -0.0000   -0.0000
          11   -0.4087   -0.0410   -0.2455    0.0000   -0.0000    0.0027    0.0027    0.0000
          12   -0.0001   -0.0001   -0.0013    0.0003   -0.0004    0.0000    0.0000   -0.0002
          13    0.4720   -0.5091   -0.0757    0.0000   -0.0000   -0.0017    0.0001   -0.0000
          14    0.5116    0.5510   -0.0913    0.0000   -0.0000    0.0026   -0.0043    0.0000
          15   -0.0005    0.0002    0.0001   -0.0006   -0.0015    0.0000   -0.0000   -0.0005
          16   -0.1850    0.4497   -0.0546   -0.0000   -0.0000   -0.0072    0.0055   -0.0000
          17    0.0587   -0.4274    0.0197   -0.0000   -0.0000   -0.0059    0.0027   -0.0000
          18    0.0001   -0.0002    0.0000   -0.0003   -0.0006    0.0000   -0.0000   -0.0009
          19   -0.1032   -0.0095   -0.5453    0.0000   -0.0000    0.0004    0.0001    0.0000
          20    0.0925    0.0184    0.1991   -0.0000    0.0000   -0.0002   -0.0000   -0.0000
          21    0.0002    0.0000    0.0010    0.0003   -0.0005   -0.0000   -0.0000   -0.0000
          22   -0.0006   -0.0017    0.0192   -0.1476    0.2101   -0.0898   -0.2169    0.0001
          23    0.0021   -0.0007   -0.0090   -0.1921    0.2591   -0.1153   -0.2709    0.0002
          24    0.0119   -0.0059    0.0011   -0.3180    0.4280   -0.2248   -0.5319    0.0003
          25   -0.0007   -0.0017    0.0192    0.1474   -0.2099   -0.0900   -0.2175   -0.0001
          26    0.0022   -0.0008   -0.0091    0.1927   -0.2599   -0.1162   -0.2730   -0.0002
          27   -0.0119    0.0059   -0.0011   -0.3168    0.4263    0.2248    0.5320    0.0003
          28   -0.0116    0.0126   -0.0013    0.2057    0.1586   -0.2183    0.0940    0.0003
          29    0.0015    0.0212   -0.0003   -0.2596   -0.1902    0.2708   -0.1135   -0.0001
          30    0.0227    0.0042   -0.0065    0.4290    0.3137   -0.5317    0.2244    0.0004
          31   -0.0116    0.0126   -0.0013   -0.2057   -0.1587   -0.2183    0.0940   -0.0002
          32    0.0015    0.0212   -0.0003    0.2595    0.1902    0.2705   -0.1134    0.0001
          33   -0.0227   -0.0041    0.0065    0.4292    0.3138    0.5317   -0.2244    0.0004
          34   -0.0588   -0.0260    0.0011    0.0000   -0.0000   -0.0008   -0.0012    0.0021
          35    0.0388    0.0387    0.0106   -0.0000   -0.0000   -0.0003   -0.0005    0.0008
          36    0.0001   -0.0000   -0.0000    0.0000    0.0000   -0.0000   -0.0000   -0.0427
          37    0.0586    0.0054   -0.0021   -0.0001   -0.0003   -0.0001   -0.0002    0.3378
          38    0.1313   -0.0197   -0.0026    0.0002    0.0003    0.0001    0.0002   -0.2347
          39    0.0513    0.0044   -0.0003   -0.0002   -0.0005   -0.0002   -0.0005    0.5369
          40    0.0590    0.0055   -0.0021    0.0001    0.0003   -0.0001   -0.0002   -0.3379
          41    0.1315   -0.0199   -0.0026   -0.0002   -0.0003    0.0001    0.0002    0.2343
          42   -0.0514   -0.0043    0.0003   -0.0002   -0.0005    0.0002    0.0005    0.5332
          43   -0.0686    0.1050   -0.0183    0.0000    0.0000    0.0238   -0.0277    0.0001
[...]
 FREQUENCY          1349.59         C  2 -- C  6         +17.9% ( 51.2%)     80.7%
 TRANSITION DIPOLE   0.0123         C  2 -- H 11         +17.4% ( 50.4%)      0.0%
 TRAVEL (Ang.)       0.2668         C  2 -- H 10         +17.3% ( 50.4%)      0.0%
 REDUCED MASS        0.7017         C  1 -- C  2          +8.7% ( 35.6%)     11.2%
 EFFECTIVE MASS      4.9263
 FORCE CONSTANT      0.7530

 VIBRATION         28   28A           ATOM PAIR      ENERGY CONTRIBUTION    RADIAL
 FREQUENCY          1368.30         C  3 -- H 13         +18.9% ( 52.7%)      4.6%
 TRANSITION DIPOLE   0.0244         C  3 -- H 14         +18.9% ( 52.7%)      4.6%
 TRAVEL (Ang.)       0.2882         C  3 -- H 12         +17.1% ( 50.1%)      0.3%
 REDUCED MASS        0.5933         C  3 -- C  5          +8.5% ( 35.3%)     55.1%
 EFFECTIVE MASS      4.6654
 FORCE CONSTANT      0.6545

 VIBRATION         29   29A           ATOM PAIR      ENERGY CONTRIBUTION    RADIAL
 FREQUENCY          1389.02         C  3 -- H 12         +54.1% ( 63.7%)      0.0%
 TRANSITION DIPOLE   0.0577         C  3 -- H 13         +20.7% ( 39.4%)     11.0%
 TRAVEL (Ang.)       0.3384         C  3 -- H 14         +20.0% ( 38.7%)     11.8%
 REDUCED MASS        0.4240         C  3 -- C  5          +5.1% ( 19.6%)      0.0%
 EFFECTIVE MASS      1.5698
 FORCE CONSTANT      0.4820

 VIBRATION         30   30A           ATOM PAIR      ENERGY CONTRIBUTION    RADIAL
 FREQUENCY          1394.13         C  1 -- H  8         +12.8% ( 38.8%)      5.7%
 TRANSITION DIPOLE   0.0365         C  1 -- H  9         +12.8% ( 38.8%)      5.7%
 TRAVEL (Ang.)       0.4074         C  3 -- H 14         +10.8% ( 35.7%)      1.1%
 REDUCED MASS        0.2914         C  1 -- C  2         +10.8% ( 35.7%)      8.0%
 EFFECTIVE MASS      3.4770         C  3 -- H 13         +10.5% ( 35.2%)      1.2%
 FORCE CONSTANT      0.3337

 VIBRATION         31   31A           ATOM PAIR      ENERGY CONTRIBUTION    RADIAL
 FREQUENCY          1396.89         C  3 -- H 14         +13.3% ( 40.6%)      0.4%
 TRANSITION DIPOLE   0.0579         C  3 -- H 13         +13.1% ( 40.3%)      0.5%
 TRAVEL (Ang.)       0.3922         C  1 -- C  2         +10.1% ( 35.3%)      2.0%
 REDUCED MASS        0.3138         C  2 -- H 10          +8.3% ( 32.1%)      4.4%
 EFFECTIVE MASS      3.8024
 FORCE CONSTANT      0.3608

 VIBRATION         32   32A           ATOM PAIR      ENERGY CONTRIBUTION    RADIAL
 FREQUENCY          1413.91         C  2 -- H 10         +19.0% ( 49.8%)      6.3%
 TRANSITION DIPOLE   0.0935         C  2 -- H 11         +19.0% ( 49.8%)      6.3%
 TRAVEL (Ang.)       0.3221         C  2 -- C  6         +12.5% ( 40.4%)     70.7%
 REDUCED MASS        0.4598         C  1 -- C  2         +11.8% ( 39.4%)     84.0%
 EFFECTIVE MASS      4.0836
 FORCE CONSTANT      0.5416

 VIBRATION         33   33A           ATOM PAIR      ENERGY CONTRIBUTION    RADIAL
 FREQUENCY          1506.84         C  4 -- C  5         +25.4% ( 76.0%)     84.9%
 TRANSITION DIPOLE   0.1411         C  3 -- C  5         +24.6% ( 74.8%)     75.8%
 TRAVEL (Ang.)       0.1112         C  5 -- C  6         +16.8% ( 61.8%)     10.3%
 REDUCED MASS        3.6173         C  1 -- C  4          +6.1% ( 37.4%)     79.4%
 EFFECTIVE MASS     11.2036
 FORCE CONSTANT      4.8392

 VIBRATION         34   34A           ATOM PAIR      ENERGY CONTRIBUTION    RADIAL
 FREQUENCY          1859.13         C  5 -- C  6         +43.1% ( 97.4%)     97.6%
 TRANSITION DIPOLE   0.3098         C  3 -- C  5         +18.3% ( 63.5%)     63.6%
 TRAVEL (Ang.)       0.0805         C  4 -- C  5         +16.5% ( 60.3%)      3.0%
 REDUCED MASS        5.5907         C  2 -- C  6         +10.5% ( 48.1%)     25.3%
 EFFECTIVE MASS     11.8963
 FORCE CONSTANT     11.3852

 VIBRATION         35   35A           ATOM PAIR      ENERGY CONTRIBUTION    RADIAL
 FREQUENCY          1909.12         C  4 -- C  7         +43.8% ( 98.3%)    100.0%
 TRANSITION DIPOLE   0.4252         C  4 -- C  5         +19.1% ( 64.9%)     52.3%
 TRAVEL (Ang.)       0.0785         C  1 -- C  4         +18.7% ( 64.3%)     37.3%
 REDUCED MASS        5.7299         C  7 -- H 16          +8.6% ( 43.7%)     11.2%
 EFFECTIVE MASS     11.9086
 FORCE CONSTANT     12.3045

 VIBRATION         36   36A           ATOM PAIR      ENERGY CONTRIBUTION    RADIAL
 FREQUENCY          2972.79         C  2 -- H 11         +31.6% ( 58.5%)     96.5%
 TRANSITION DIPOLE   0.0008         C  2 -- H 10         +31.6% ( 58.5%)     96.5%
 TRAVEL (Ang.)       0.2836         C  1 -- H  8         +17.2% ( 43.2%)     96.4%
 REDUCED MASS        0.2821         C  1 -- H  9         +17.2% ( 43.2%)     96.4%
 EFFECTIVE MASS      1.5529
 FORCE CONSTANT      1.4689

 VIBRATION         37   37A           ATOM PAIR      ENERGY CONTRIBUTION    RADIAL
 FREQUENCY          2987.97         C  1 -- H  8         +31.8% ( 58.3%)     96.7%
 TRANSITION DIPOLE   0.0709         C  1 -- H  9         +31.7% ( 58.2%)     96.7%
 TRAVEL (Ang.)       0.2830         C  2 -- H 11         +17.2% ( 42.9%)     96.8%
 REDUCED MASS        0.2817         C  2 -- H 10         +17.2% ( 42.9%)     96.8%
 EFFECTIVE MASS      1.5277
 FORCE CONSTANT      1.4819

 VIBRATION         38   38A           ATOM PAIR      ENERGY CONTRIBUTION    RADIAL
 FREQUENCY          3055.24         C  2 -- H 10         +41.8% ( 63.8%)     97.5%
 TRANSITION DIPOLE   0.0776         C  2 -- H 11         +41.8% ( 63.8%)     97.5%
 TRAVEL (Ang.)       0.2479         C  1 -- H  9          +7.5% ( 27.0%)     97.5%
 REDUCED MASS        0.3592         C  1 -- H  8          +7.5% ( 27.0%)     97.5%
 EFFECTIVE MASS      1.2851
 FORCE CONSTANT      1.9756

 VIBRATION         39   39A           ATOM PAIR      ENERGY CONTRIBUTION    RADIAL
 FREQUENCY          3060.17         C  1 -- H  9         +41.9% ( 63.8%)     97.6%
 TRANSITION DIPOLE   0.1174         C  1 -- H  8         +41.8% ( 63.7%)     97.6%
 TRAVEL (Ang.)       0.2476         C  2 -- H 10          +7.4% ( 26.9%)     97.6%
 REDUCED MASS        0.3593         C  2 -- H 11          +7.4% ( 26.9%)     97.6%
 EFFECTIVE MASS      1.2806
 FORCE CONSTANT      1.9825

 VIBRATION         40   40A           ATOM PAIR      ENERGY CONTRIBUTION    RADIAL
 FREQUENCY          3065.96         C  3 -- H 13         +49.3% ( 72.4%)     97.0%
 TRANSITION DIPOLE   0.0398         C  3 -- H 14         +48.8% ( 72.1%)     97.0%
 TRAVEL (Ang.)       0.2077         C  3 -- C  5          +1.0% ( 10.2%)      0.0%
 REDUCED MASS        0.5097         C  3 -- H 12          +0.9% (  9.9%)      0.0%
 EFFECTIVE MASS      1.5030
 FORCE CONSTANT      2.8232

 VIBRATION         41   41A           ATOM PAIR      ENERGY CONTRIBUTION    RADIAL
 FREQUENCY          3078.39         C  3 -- H 12         +61.3% ( 80.8%)     98.7%
 TRANSITION DIPOLE   0.0564         C  3 -- H 14         +19.0% ( 44.9%)     85.9%
 TRAVEL (Ang.)       0.2140         C  3 -- H 13         +18.6% ( 44.5%)     85.6%
 REDUCED MASS        0.4784         C  3 -- C  5          +1.1% ( 10.6%)      0.0%
 EFFECTIVE MASS      1.5143
 FORCE CONSTANT      2.6712

 VIBRATION         42   42A           ATOM PAIR      ENERGY CONTRIBUTION    RADIAL
 FREQUENCY          3123.51         C  6 -- H 15         +96.4% ( 99.8%)    100.0%
 TRANSITION DIPOLE   0.4039         C  5 -- C  6          +1.8% ( 13.5%)     48.3%
 TRAVEL (Ang.)       0.1527         C  2 -- C  6          +1.6% ( 13.0%)     24.9%
 REDUCED MASS        0.9261
 EFFECTIVE MASS      1.5533
 FORCE CONSTANT      5.3233

 VIBRATION         43   43A           ATOM PAIR      ENERGY CONTRIBUTION    RADIAL
 FREQUENCY          3136.22         C  7 -- H 16         +88.8% ( 94.7%)     99.4%
 TRANSITION DIPOLE   0.3392         C  7 -- H 17          +9.6% ( 31.1%)     60.4%
 TRAVEL (Ang.)       0.1670         C  4 -- C  7          +1.5% ( 12.2%)     73.0%
 REDUCED MASS        0.7705
 EFFECTIVE MASS      1.4310
 FORCE CONSTANT      4.4650

 VIBRATION         44   44A           ATOM PAIR      ENERGY CONTRIBUTION    RADIAL
 FREQUENCY          3146.79         C  7 -- H 17         +87.9% ( 95.6%)     99.7%
 TRANSITION DIPOLE   0.2448         C  7 -- H 16         +10.7% ( 33.4%)     80.5%
 TRAVEL (Ang.)       0.1636         C  4 -- C  7          +1.3% ( 11.8%)     16.1%
 REDUCED MASS        0.8010
 EFFECTIVE MASS      1.5611
 FORCE CONSTANT      4.6734

 VIBRATION         45   45A           ATOM PAIR      ENERGY CONTRIBUTION    RADIAL
 FREQUENCY          3165.51         C  3 -- H 12         +37.4% ( 58.9%)     97.6%
 TRANSITION DIPOLE   0.0514         C  3 -- H 14         +31.1% ( 53.7%)     96.7%
 TRAVEL (Ang.)       0.2547         C  3 -- H 13         +31.0% ( 53.7%)     96.7%
 REDUCED MASS        0.3283         C  3 -- C  5          +0.3% (  5.4%)     99.5%
 EFFECTIVE MASS      1.1399
 FORCE CONSTANT      1.9380

      SYMMETRY NUMBER FOR POINT-GROUP C1  =  1


          SYSTEM IS A GROUND STATE



 InChI=1S/C7H10/c1-6-4-3-5-7(6)2/h5H,1,3-4H2,2H3


          MOLECULE IS NOT LINEAR

          THERE ARE 45 GENUINE VIBRATIONS IN THIS SYSTEM
          THIS THERMODYNAMICS CALCULATION IS LIMITED TO
          MOLECULES WHICH HAVE NO INTERNAL ROTATIONS




                    CALCULATED THERMODYNAMIC PROPERTIES
                                          *
   TEMP. (K)   PARTITION FUNCTION   H.O.F.    ENTHALPY  HEAT CAPACITY ENTROPY
                                   KCAL/MOL   CAL/MOLE    CAL/K/MOL  CAL/K/MOL


 298.00  VIB.     0.2793D+02                  2702.6725    20.7774    15.6859
         ROT.     0.2014D+06                   888.2803     2.9808    27.2507
         INT.     0.5624D+07                  3590.9528    23.7582    42.9366
         TRA.     0.8833D+27                  1480.4672     4.9680    39.5363
         TOT.                       14.393    5071.4200    28.7262    82.4728

 200.00  VIB.     0.6697D+01                  1098.8834    12.2061     9.2733
         ROT.     0.1107D+06                   596.1613     2.9808    26.0620
         INT.     0.7416D+06                  1695.0447    15.1870    35.3354
         TRA.     0.4856D+27                   993.6021     4.9680    37.5551
         TOT.                       12.010    2688.6468    20.1550    72.8905

 210.00  VIB.     0.7695D+01                  1224.8838    12.9981     9.8879
         ROT.     0.1191D+06                   625.9693     2.9808    26.2075
         INT.     0.9169D+06                  1850.8532    15.9789    36.0954
         TRA.     0.5225D+27                  1043.2822     4.9680    37.7975
         TOT.                       12.216    2894.1354    20.9469    73.8929

 220.00  VIB.     0.8857D+01                  1358.9252    13.8141    10.5114
         ROT.     0.1278D+06                   655.7774     2.9808    26.3461
         INT.     0.1131D+07                  2014.7026    16.7949    36.8575
         TRA.     0.5603D+27                  1092.9623     4.9680    38.0286
         TOT.                       12.429    3107.6649    21.7629    74.8861

 230.00  VIB.     0.1021D+02                  1501.2414    14.6528    11.1438
         ROT.     0.1366D+06                   685.5855     2.9808    26.4786
         INT.     0.1394D+07                  2186.8269    17.6336    37.6225
         TRA.     0.5989D+27                  1142.6424     4.9680    38.2495
         TOT.                       12.651    3329.4694    22.6016    75.8719

 240.00  VIB.     0.1178D+02                  1652.0493    15.5121    11.7855
         ROT.     0.1456D+06                   715.3935     2.9808    26.6055
         INT.     0.1715D+07                  2367.4428    18.4929    38.3910
         TRA.     0.6384D+27                  1192.3226     4.9680    38.4609
         TOT.                       12.881    3559.7654    23.4609    76.8519

 250.00  VIB.     0.1362D+02                  1811.5440    16.3897    12.4365
         ROT.     0.1548D+06                   745.2016     2.9808    26.7272
         INT.     0.2109D+07                  2556.7456    19.3705    39.1637
         TRA.     0.6787D+27                  1242.0027     4.9680    38.6637
         TOT.                       13.120    3798.7482    24.3386    77.8274

 260.00  VIB.     0.1578D+02                  1979.8970    17.2833    13.0967
         ROT.     0.1641D+06                   775.0097     2.9808    26.8441
         INT.     0.2589D+07                  2754.9067    20.2641    39.9408
         TRA.     0.7198D+27                  1291.6828     4.9680    38.8586
         TOT.                       13.368    4046.5895    25.2321    78.7993

 270.00  VIB.     0.1830D+02                  2157.2543    18.1901    13.7659
         ROT.     0.1737D+06                   804.8177     2.9808    26.9566
         INT.     0.3178D+07                  2962.0721    21.1709    40.7225
         TRA.     0.7618D+27                  1341.3629     4.9680    39.0461
         TOT.                       13.625    4303.4349    26.1390    79.7686

 280.00  VIB.     0.2125D+02                  2343.7353    19.1076    14.4440
         ROT.     0.1834D+06                   834.6258     2.9808    27.0650
         INT.     0.3898D+07                  3178.3611    22.0884    41.5090
         TRA.     0.8045D+27                  1391.0430     4.9680    39.2267
         TOT.                       13.891    4569.4040    27.0564    80.7357

 290.00  VIB.     0.2472D+02                  2539.4328    20.0330    15.1306
         ROT.     0.1934D+06                   864.4339     2.9808    27.1696
         INT.     0.4779D+07                  3403.8666    23.0138    42.3002
         TRA.     0.8479D+27                  1440.7231     4.9680    39.4011
         TOT.                       14.166    4844.5897    27.9818    81.7013

 300.00  VIB.     0.2880D+02                  2744.4137    20.9639    15.8255
         ROT.     0.2034D+06                   894.2419     2.9808    27.2706
         INT.     0.5858D+07                  3638.6556    23.9447    43.0961
         TRA.     0.8922D+27                  1490.4032     4.9680    39.5695
         TOT.                       14.451    5129.0588    28.9127    82.6656

 310.00  VIB.     0.3360D+02                  2958.7198    21.8977    16.5281
         ROT.     0.2137D+06                   924.0500     2.9808    27.3684
         INT.     0.7179D+07                  3882.7698    24.8785    43.8965
         TRA.     0.9372D+27                  1540.0833     4.9680    39.7324
         TOT.                       14.744    5422.8531    29.8465    83.6289

 320.00  VIB.     0.3925D+02                  3182.3690    22.8321    17.2381
         ROT.     0.2241D+06                   953.8580     2.9808    27.4630
         INT.     0.8798D+07                  4136.2271    25.8129    44.7011
         TRA.     0.9829D+27                  1589.7634     4.9680    39.8901
         TOT.                       15.048    5725.9905    30.7809    84.5912

 330.00  VIB.     0.4593D+02                  3415.3571    23.7651    17.9549
         ROT.     0.2347D+06                   983.6661     2.9808    27.5547
         INT.     0.1078D+08                  4399.0232    26.7459    45.5097
         TRA.     0.1029D+28                  1639.4435     4.9680    40.0430
         TOT.                       15.360    6038.4667    31.7139    85.5527

 340.00  VIB.     0.5382D+02                  3657.6593    24.6946    18.6782
         ROT.     0.2455D+06                  1013.4742     2.9808    27.6437
         INT.     0.1321D+08                  4671.1334    27.6754    46.3219
         TRA.     0.1076D+28                  1689.1236     4.9680    40.1913
         TOT.                       15.682    6360.2571    32.6434    86.5133

 350.00  VIB.     0.6316D+02                  3909.2321    25.6189    19.4074
         ROT.     0.2564D+06                  1043.2822     2.9808    27.7301
         INT.     0.1619D+08                  4952.5143    28.5997    47.1375
         TRA.     0.1124D+28                  1738.8037     4.9680    40.3353
         TOT.                       16.013    6691.3181    33.5678    87.4729

 360.00  VIB.     0.7421D+02                  4170.0154    26.5365    20.1420
         ROT.     0.2674D+06                  1073.0903     2.9808    27.8141
         INT.     0.1984D+08                  5243.1057    29.5173    47.9561
         TRA.     0.1173D+28                  1788.4838     4.9680    40.4753
         TOT.                       16.353    7031.5896    34.4853    88.4314

 370.00  VIB.     0.8731D+02                  4439.9341    27.4458    20.8815
         ROT.     0.2786D+06                  1102.8984     2.9808    27.8958
         INT.     0.2433D+08                  5542.8325    30.4266    48.7772
         TRA.     0.1222D+28                  1838.1639     4.9680    40.6114
         TOT.                       16.703    7380.9964    35.3946    89.3887

 380.00  VIB.     0.1028D+03                  4718.9000    28.3457    21.6254
         ROT.     0.2900D+06                  1132.7064     2.9808    27.9753
         INT.     0.2983D+08                  5851.6064    31.3265    49.6006
         TRA.     0.1272D+28                  1887.8440     4.9680    40.7439
         TOT.                       17.061    7739.4505    36.2945    90.3445

 390.00  VIB.     0.1213D+03                  5006.8136    29.2352    22.3732
         ROT.     0.3015D+06                  1162.5145     2.9808    28.0527
         INT.     0.3658D+08                  6169.3280    32.2160    50.4259
         TRA.     0.1322D+28                  1937.5242     4.9680    40.8729
         TOT.                       17.428    8106.8522    37.1840    91.2988

 400.00  VIB.     0.1432D+03                  5303.5657    30.1133    23.1245
         ROT.     0.3132D+06                  1192.3226     2.9808    28.1282
         INT.     0.4487D+08                  6495.8882    33.0941    51.2526
         TRA.     0.1374D+28                  1987.2043     4.9680    40.9987
         TOT.                       17.805    8483.0925    38.0621    92.2513

   *: NOTE: HEATS OF FORMATION ARE RELATIVE TO THE
            ELEMENTS IN THEIR STANDARD STATE AT 298K
              (=  Standard Enthalpy of Formation).

            Hvib:  Zero-point energy is not included.
                   frequencies of less than zero cm-1 are not included.
            Hrot = (3/2)RT
            Htra = (3/2)RT + pV = (5/2)RT

            Heat capacity is Cp, not Cv

          For more information, see: HTTP://OpenMOPAC.net/Manual/thermochemistry.html


           FORCE CONSTANT IN CARTESIAN COORDINATES (Millidynes/A)

    ATOM   CHEMICAL       X               Y               Z
   NUMBER   SYMBOL  FORCE CONSTANT  FORCE CONSTANT  FORCE CONSTANT

      1       C        7.983351        8.975985        8.135899
      2       C        7.860374        9.293683        8.077313
      3       C        8.473125        9.249568        7.947682
      4       C       16.203534        9.540185        2.562148
      5       C       12.243616       13.956655        2.567928
      6       C       14.395724       10.507890        2.299720
      7       C       14.627721        9.894692        1.910091
      8       H        1.276460        1.557942        3.572598
      9       H        1.277187        1.567368        3.563168
     10       H        1.288586        1.542952        3.556323
     11       H        1.288634        1.541671        3.557463
     12       H        4.798005        1.286464        0.649848
     13       H        1.700132        1.176572        3.761650
     14       H        1.709418        1.179878        3.749926
     15       H        4.959839        1.109170        0.341383
     16       H        0.886823        5.208649        0.326655
     17       H        3.682358        2.426484        0.324239

 **********************
 *                    *
 * JOB ENDED NORMALLY *
 *                    *
 **********************



 TOTAL JOB TIME:             1.21 SECONDS

 == MOPAC DONE ==
