 *******************************************************************************
 **                                                                           **
 **                              MOPAC v23.1.2                                **
 **                                                                           **
 *******************************************************************************
 **          Digital Object Identifier (DOI): 10.5281/zenodo.6511958          **
 **    Visit the DOI location for information on how to cite this program.    **
 *******************************************************************************

                              PM3 CALCULATION RESULTS

 *******************************************************************************
 *  CALCULATION DONE: (MAX THREADS = 1)              Tue Jun  3 16:38:18 2025  *
 *  PM3        - The PM3 Hamiltonian to be used
 *  PRECISE    - TIGHTER CRITERIA TO BE USED
 *  BFGS       - USE THE BFGS GEOMETRY OPTIMIZER
 *  NOSYM      - POINT-GROUP SYMMETRY SET TO C1
 *  THREADS=1  - MULTI-THREADING NOT USED
 *  T=         - A TIME OF 172800.0 SECONDS REQUESTED
 *  DUMP=N     - RESTART FILE WRITTEN EVERY 7200.0 SECONDS REQUESTED
 *  GNORM      - EXIT WHEN GRADIENT NORM DROPS BELOW 0.000
 *******************************************************************************
pm3  precise nosym gnorm=0.0 bfgs THREADS=1
 InChI=1S/C12H22/c1-3-5-6-7-8-12-10-9-11(12)4-2/h6-7,11-12H,3-5,8-10H2,1-2H3

   ATOM   CHEMICAL          X               Y               Z
  NUMBER   SYMBOL      (ANGSTROMS)     (ANGSTROMS)     (ANGSTROMS)

     1       C         -2.21230000  *  -0.30220000  *  -0.22180000  *
     2       C         -1.30110000  *  -0.48540000  *  -1.44620000  *
     3       C         -3.42120000  *  -0.69870000  *  -1.07020000  *
     4       C         -2.52080000  *  -0.86420000  *  -2.28770000  *
     5       C         -2.29760000  *   1.14640000  *   0.29120000  *
     6       C          2.55140000  *   0.65210000  *   1.43130000  *
     7       C         -0.29590000  *  -1.64320000  *  -1.30650000  *
     8       C          2.96080000  *  -0.16000000  *   0.19750000  *
     9       C         -1.02480000  *   1.55680000  *   1.02390000  *
    10       C          3.74450000  *   0.89470000  *   2.35070000  *
    11       C          0.82450000  *  -1.29850000  *  -0.36430000  *
    12       C          1.78490000  *  -0.42480000  *  -0.70290000  *
    13       H         -2.02640000  *  -1.03420000  *   0.59680000  *
    14       H         -0.83000000  *   0.45500000  *  -1.81130000  *
    15       H         -3.15330000  *   1.22580000  *   0.99600000  *
    16       H         -2.47800000  *   1.85220000  *  -0.54970000  *
    17       H         -4.17270000  *   0.11030000  *  -1.20720000  *
    18       H         -3.86610000  *  -1.66390000  *  -0.74310000  *
    19       H          2.14250000  *   1.63470000  *   1.11110000  *
    20       H          1.76630000  *   0.10960000  *   2.00140000  *
    21       H         -2.73850000  *  -0.11040000  *  -3.07580000  *
    22       H         -2.51130000  *  -1.91000000  *  -2.66770000  *
    23       H         -0.81150000  *  -2.55410000  *  -0.92980000  *
    24       H          0.12690000  *  -1.88870000  *  -2.30500000  *
    25       H          3.72470000  *   0.40900000  *  -0.37560000  *
    26       H          3.41400000  *  -1.12750000  *   0.50650000  *
    27       H         -0.17050000  *   1.58470000  *   0.31730000  *
    28       H         -1.15490000  *   2.57100000  *   1.45640000  *
    29       H         -0.80260000  *   0.84420000  *   1.84650000  *
    30       H          4.15900000  *  -0.07210000  *   2.70780000  *
    31       H          4.53720000  *   1.45840000  *   1.81410000  *
    32       H          3.42040000  *   1.48880000  *   3.23110000  *
    33       H          0.88030000  *  -1.82100000  *   0.58680000  *
    34       H          1.75180000  *   0.06510000  *  -1.67240000  *



          CARTESIAN COORDINATES 

    NO.       ATOM           X           Y           Z

     1         C         -2.2123     -0.3022     -0.2218
     2         C         -1.3011     -0.4854     -1.4462
     3         C         -3.4212     -0.6987     -1.0702
     4         C         -2.5208     -0.8642     -2.2877
     5         C         -2.2976      1.1464      0.2912
     6         C          2.5514      0.6521      1.4313
     7         C         -0.2959     -1.6432     -1.3065
     8         C          2.9608     -0.1600      0.1975
     9         C         -1.0248      1.5568      1.0239
    10         C          3.7445      0.8947      2.3507
    11         C          0.8245     -1.2985     -0.3643
    12         C          1.7849     -0.4248     -0.7029
    13         H         -2.0264     -1.0342      0.5968
    14         H         -0.8300      0.4550     -1.8113
    15         H         -3.1533      1.2258      0.9960
    16         H         -2.4780      1.8522     -0.5497
    17         H         -4.1727      0.1103     -1.2072
    18         H         -3.8661     -1.6639     -0.7431
    19         H          2.1425      1.6347      1.1111
    20         H          1.7663      0.1096      2.0014
    21         H         -2.7385     -0.1104     -3.0758
    22         H         -2.5113     -1.9100     -2.6677
    23         H         -0.8115     -2.5541     -0.9298
    24         H          0.1269     -1.8887     -2.3050
    25         H          3.7247      0.4090     -0.3756
    26         H          3.4140     -1.1275      0.5065
    27         H         -0.1705      1.5847      0.3173
    28         H         -1.1549      2.5710      1.4564
    29         H         -0.8026      0.8442      1.8465
    30         H          4.1590     -0.0721      2.7078
    31         H          4.5372      1.4584      1.8141
    32         H          3.4204      1.4888      3.2311
    33         H          0.8803     -1.8210      0.5868
    34         H          1.7518      0.0651     -1.6724

  H: (PM3): J. J. P. STEWART, J. COMP. CHEM. 10, 209 (1989).
  C: (PM3): J. J. P. STEWART, J. COMP. CHEM. 10, 209 (1989).

           Empirical Formula: C12 H22  =    34 atoms



      MOLECULAR POINT GROUP   :   C1  


      RHF CALCULATION, NO. OF DOUBLY OCCUPIED LEVELS = 35


          Geometry optimization using BFGS

  GNORM HAS BEEN SET TOO LOW, RESET TO 0.01
 CYCLE:     1 TIME:   0.020 TIME LEFT:  2.00D  GRAD.:    40.878 HEAT: -20.21415
 CYCLE:     2 TIME:   0.016 TIME LEFT:  2.00D  GRAD.:    35.828 HEAT: -20.66286
 CYCLE:     3 TIME:   0.012 TIME LEFT:  2.00D  GRAD.:    26.089 HEAT: -21.18620
 CYCLE:     4 TIME:   0.008 TIME LEFT:  2.00D  GRAD.:    39.228 HEAT: -21.25175
 CYCLE:     5 TIME:   0.012 TIME LEFT:  2.00D  GRAD.:    39.573 HEAT: -21.50267
 CYCLE:     6 TIME:   0.012 TIME LEFT:  2.00D  GRAD.:    18.844 HEAT: -21.73859
 CYCLE:     7 TIME:   0.012 TIME LEFT:  2.00D  GRAD.:    18.373 HEAT: -21.77927
 CYCLE:     8 TIME:   0.012 TIME LEFT:  2.00D  GRAD.:    10.112 HEAT: -21.83182
 CYCLE:     9 TIME:   0.008 TIME LEFT:  2.00D  GRAD.:    11.149 HEAT: -21.84193
 CYCLE:    10 TIME:   0.012 TIME LEFT:  2.00D  GRAD.:     7.022 HEAT: -21.87589
 CYCLE:    11 TIME:   0.008 TIME LEFT:  2.00D  GRAD.:     4.889 HEAT: -21.88930
 CYCLE:    12 TIME:   0.012 TIME LEFT:  2.00D  GRAD.:     4.069 HEAT: -21.90047
 CYCLE:    13 TIME:   0.008 TIME LEFT:  2.00D  GRAD.:     3.132 HEAT: -21.91198
 CYCLE:    14 TIME:   0.012 TIME LEFT:  2.00D  GRAD.:     3.074 HEAT: -21.92087
 CYCLE:    15 TIME:   0.012 TIME LEFT:  2.00D  GRAD.:     2.745 HEAT: -21.92795
 CYCLE:    16 TIME:   0.008 TIME LEFT:  2.00D  GRAD.:     2.189 HEAT: -21.93283
 CYCLE:    17 TIME:   0.012 TIME LEFT:  2.00D  GRAD.:     2.053 HEAT: -21.93907
 CYCLE:    18 TIME:   0.008 TIME LEFT:  2.00D  GRAD.:     2.175 HEAT: -21.94499
 CYCLE:    19 TIME:   0.012 TIME LEFT:  2.00D  GRAD.:     2.139 HEAT: -21.95154
 CYCLE:    20 TIME:   0.008 TIME LEFT:  2.00D  GRAD.:     2.520 HEAT: -21.96054
 CYCLE:    21 TIME:   0.012 TIME LEFT:  2.00D  GRAD.:     3.331 HEAT: -21.97172
 CYCLE:    22 TIME:   0.012 TIME LEFT:  2.00D  GRAD.:     3.257 HEAT: -21.98331
 CYCLE:    23 TIME:   0.008 TIME LEFT:  2.00D  GRAD.:     3.106 HEAT: -21.99381
 CYCLE:    24 TIME:   0.012 TIME LEFT:  2.00D  GRAD.:     2.821 HEAT: -22.00553
 CYCLE:    25 TIME:   0.008 TIME LEFT:  2.00D  GRAD.:     2.508 HEAT: -22.01632
 CYCLE:    26 TIME:   0.012 TIME LEFT:  2.00D  GRAD.:     2.700 HEAT: -22.02653
 CYCLE:    27 TIME:   0.012 TIME LEFT:  2.00D  GRAD.:     3.180 HEAT: -22.03279
 CYCLE:    28 TIME:   0.008 TIME LEFT:  2.00D  GRAD.:     2.207 HEAT: -22.03954
 CYCLE:    29 TIME:   0.012 TIME LEFT:  2.00D  GRAD.:     2.224 HEAT: -22.04802
 CYCLE:    30 TIME:   0.012 TIME LEFT:  2.00D  GRAD.:     2.724 HEAT: -22.05621
 CYCLE:    31 TIME:   0.008 TIME LEFT:  2.00D  GRAD.:     2.572 HEAT: -22.06353
 CYCLE:    32 TIME:   0.012 TIME LEFT:  2.00D  GRAD.:     2.663 HEAT: -22.07195
 CYCLE:    33 TIME:   0.008 TIME LEFT:  2.00D  GRAD.:     2.421 HEAT: -22.08014
 CYCLE:    34 TIME:   0.012 TIME LEFT:  2.00D  GRAD.:     1.740 HEAT: -22.08458
 CYCLE:    35 TIME:   0.008 TIME LEFT:  2.00D  GRAD.:     1.733 HEAT: -22.08907
 CYCLE:    36 TIME:   0.016 TIME LEFT:  2.00D  GRAD.:     2.302 HEAT: -22.09439
 CYCLE:    37 TIME:   0.012 TIME LEFT:  2.00D  GRAD.:     2.702 HEAT: -22.10373
 CYCLE:    38 TIME:   0.012 TIME LEFT:  2.00D  GRAD.:     2.904 HEAT: -22.11503
 CYCLE:    39 TIME:   0.012 TIME LEFT:  2.00D  GRAD.:     3.597 HEAT: -22.12797
 CYCLE:    40 TIME:   0.012 TIME LEFT:  2.00D  GRAD.:     2.853 HEAT: -22.13978
 CYCLE:    41 TIME:   0.012 TIME LEFT:  2.00D  GRAD.:     2.019 HEAT: -22.15214
 CYCLE:    42 TIME:   0.008 TIME LEFT:  2.00D  GRAD.:     1.735 HEAT: -22.15906
 CYCLE:    43 TIME:   0.008 TIME LEFT:  2.00D  GRAD.:     1.690 HEAT: -22.16493
 CYCLE:    44 TIME:   0.012 TIME LEFT:  2.00D  GRAD.:     1.659 HEAT: -22.17081
 CYCLE:    45 TIME:   0.008 TIME LEFT:  2.00D  GRAD.:     1.539 HEAT: -22.17563
 CYCLE:    46 TIME:   0.008 TIME LEFT:  2.00D  GRAD.:     1.410 HEAT: -22.17953
 CYCLE:    47 TIME:   0.012 TIME LEFT:  2.00D  GRAD.:     1.344 HEAT: -22.18285
 CYCLE:    48 TIME:   0.008 TIME LEFT:  2.00D  GRAD.:     1.321 HEAT: -22.18633
 CYCLE:    49 TIME:   0.012 TIME LEFT:  2.00D  GRAD.:     1.273 HEAT: -22.18958
 CYCLE:    50 TIME:   0.008 TIME LEFT:  2.00D  GRAD.:     1.326 HEAT: -22.19277
 CYCLE:    51 TIME:   0.012 TIME LEFT:  2.00D  GRAD.:     1.444 HEAT: -22.19621
 CYCLE:    52 TIME:   0.008 TIME LEFT:  2.00D  GRAD.:     1.696 HEAT: -22.20053
 CYCLE:    53 TIME:   0.008 TIME LEFT:  2.00D  GRAD.:     1.967 HEAT: -22.20658
 CYCLE:    54 TIME:   0.012 TIME LEFT:  2.00D  GRAD.:     2.149 HEAT: -22.21406
 CYCLE:    55 TIME:   0.008 TIME LEFT:  2.00D  GRAD.:     2.154 HEAT: -22.22288
 CYCLE:    56 TIME:   0.012 TIME LEFT:  2.00D  GRAD.:     2.374 HEAT: -22.23210
 CYCLE:    57 TIME:   0.008 TIME LEFT:  2.00D  GRAD.:     2.276 HEAT: -22.24057
 CYCLE:    58 TIME:   0.012 TIME LEFT:  2.00D  GRAD.:     2.499 HEAT: -22.24785
 CYCLE:    59 TIME:   0.008 TIME LEFT:  2.00D  GRAD.:     2.240 HEAT: -22.25738
 CYCLE:    60 TIME:   0.012 TIME LEFT:  2.00D  GRAD.:     2.248 HEAT: -22.26457
 CYCLE:    61 TIME:   0.008 TIME LEFT:  2.00D  GRAD.:     2.302 HEAT: -22.27082
 CYCLE:    62 TIME:   0.012 TIME LEFT:  2.00D  GRAD.:     2.233 HEAT: -22.27884
 CYCLE:    63 TIME:   0.016 TIME LEFT:  2.00D  GRAD.:     1.920 HEAT: -22.28932
 CYCLE:    64 TIME:   0.012 TIME LEFT:  2.00D  GRAD.:     1.896 HEAT: -22.29600
 CYCLE:    65 TIME:   0.008 TIME LEFT:  2.00D  GRAD.:     1.885 HEAT: -22.30379
 CYCLE:    66 TIME:   0.016 TIME LEFT:  2.00D  GRAD.:     2.029 HEAT: -22.31079
 CYCLE:    67 TIME:   0.008 TIME LEFT:  2.00D  GRAD.:     1.545 HEAT: -22.31669
 CYCLE:    68 TIME:   0.012 TIME LEFT:  2.00D  GRAD.:     1.355 HEAT: -22.32197
 CYCLE:    69 TIME:   0.008 TIME LEFT:  2.00D  GRAD.:     1.613 HEAT: -22.32700
 CYCLE:    70 TIME:   0.016 TIME LEFT:  2.00D  GRAD.:     2.136 HEAT: -22.33131
 CYCLE:    71 TIME:   0.012 TIME LEFT:  2.00D  GRAD.:     2.356 HEAT: -22.34094
 CYCLE:    72 TIME:   0.016 TIME LEFT:  2.00D  GRAD.:     4.260 HEAT: -22.35770
 CYCLE:    73 TIME:   0.008 TIME LEFT:  2.00D  GRAD.:     3.728 HEAT: -22.37402
 CYCLE:    74 TIME:   0.020 TIME LEFT:  2.00D  GRAD.:    10.570 HEAT: -22.41773
 CYCLE:    75 TIME:   0.012 TIME LEFT:  2.00D  GRAD.:     5.443 HEAT: -22.46550
 CYCLE:    76 TIME:   0.012 TIME LEFT:  2.00D  GRAD.:     3.965 HEAT: -22.51270
 CYCLE:    77 TIME:   0.012 TIME LEFT:  2.00D  GRAD.:     5.529 HEAT: -22.57346
 CYCLE:    78 TIME:   0.012 TIME LEFT:  2.00D  GRAD.:     6.720 HEAT: -22.61529
 CYCLE:    79 TIME:   0.008 TIME LEFT:  2.00D  GRAD.:     7.169 HEAT: -22.69281
 CYCLE:    80 TIME:   0.012 TIME LEFT:  2.00D  GRAD.:    15.371 HEAT: -22.71737
 CYCLE:    81 TIME:   0.008 TIME LEFT:  2.00D  GRAD.:    16.040 HEAT: -22.84107
 CYCLE:    82 TIME:   0.012 TIME LEFT:  2.00D  GRAD.:     9.020 HEAT: -22.95254
 CYCLE:    83 TIME:   0.016 TIME LEFT:  2.00D  GRAD.:    11.344 HEAT: -23.22994
 CYCLE:    84 TIME:   0.008 TIME LEFT:  2.00D  GRAD.:    18.020 HEAT: -23.28212
 CYCLE:    85 TIME:   0.012 TIME LEFT:  2.00D  GRAD.:     9.798 HEAT: -23.44567
 CYCLE:    86 TIME:   0.008 TIME LEFT:  2.00D  GRAD.:     7.178 HEAT: -23.54289
 CYCLE:    87 TIME:   0.012 TIME LEFT:  2.00D  GRAD.:     6.623 HEAT: -23.62460
 CYCLE:    88 TIME:   0.008 TIME LEFT:  2.00D  GRAD.:     6.497 HEAT: -23.68078
 CYCLE:    89 TIME:   0.008 TIME LEFT:  2.00D  GRAD.:     5.706 HEAT: -23.73168
 CYCLE:    90 TIME:   0.016 TIME LEFT:  2.00D  GRAD.:     7.776 HEAT: -23.82076
 CYCLE:    91 TIME:   0.012 TIME LEFT:  2.00D  GRAD.:     7.428 HEAT: -23.90286
 CYCLE:    92 TIME:   0.012 TIME LEFT:  2.00D  GRAD.:     6.280 HEAT: -23.94893
 CYCLE:    93 TIME:   0.012 TIME LEFT:  2.00D  GRAD.:     4.900 HEAT: -23.98638
 CYCLE:    94 TIME:   0.012 TIME LEFT:  2.00D  GRAD.:     6.476 HEAT: -24.02874
 CYCLE:    95 TIME:   0.008 TIME LEFT:  2.00D  GRAD.:     4.568 HEAT: -24.05958
 CYCLE:    96 TIME:   0.016 TIME LEFT:  2.00D  GRAD.:     4.768 HEAT: -24.09893
 CYCLE:    97 TIME:   0.012 TIME LEFT:  2.00D  GRAD.:     3.529 HEAT: -24.11782
 CYCLE:    98 TIME:   0.012 TIME LEFT:  2.00D  GRAD.:     3.309 HEAT: -24.14249
 CYCLE:    99 TIME:   0.012 TIME LEFT:  2.00D  GRAD.:     2.991 HEAT: -24.15484
 CYCLE:   100 TIME:   0.012 TIME LEFT:  2.00D  GRAD.:     2.467 HEAT: -24.16371
 CYCLE:   101 TIME:   0.008 TIME LEFT:  2.00D  GRAD.:     2.220 HEAT: -24.17425
 CYCLE:   102 TIME:   0.023 TIME LEFT:  2.00D  GRAD.:     2.318 HEAT: -24.18014
 CYCLE:   103 TIME:   0.012 TIME LEFT:  2.00D  GRAD.:     2.139 HEAT: -24.18555
 CYCLE:   104 TIME:   0.012 TIME LEFT:  2.00D  GRAD.:     1.692 HEAT: -24.19060
 CYCLE:   105 TIME:   0.008 TIME LEFT:  2.00D  GRAD.:     1.406 HEAT: -24.19464
 CYCLE:   106 TIME:   0.008 TIME LEFT:  2.00D  GRAD.:     1.444 HEAT: -24.19844
 CYCLE:   107 TIME:   0.012 TIME LEFT:  2.00D  GRAD.:     1.409 HEAT: -24.20253
 CYCLE:   108 TIME:   0.008 TIME LEFT:  2.00D  GRAD.:     1.345 HEAT: -24.20625
 CYCLE:   109 TIME:   0.008 TIME LEFT:  2.00D  GRAD.:     1.246 HEAT: -24.20913
 CYCLE:   110 TIME:   0.012 TIME LEFT:  2.00D  GRAD.:     1.258 HEAT: -24.21176
 CYCLE:   111 TIME:   0.008 TIME LEFT:  2.00D  GRAD.:     1.372 HEAT: -24.21441
 CYCLE:   112 TIME:   0.012 TIME LEFT:  2.00D  GRAD.:     1.281 HEAT: -24.21708
 CYCLE:   113 TIME:   0.008 TIME LEFT:  2.00D  GRAD.:     1.231 HEAT: -24.21969
 CYCLE:   114 TIME:   0.008 TIME LEFT:  2.00D  GRAD.:     1.305 HEAT: -24.22238
 CYCLE:   115 TIME:   0.012 TIME LEFT:  2.00D  GRAD.:     1.447 HEAT: -24.22536
 CYCLE:   116 TIME:   0.008 TIME LEFT:  2.00D  GRAD.:     1.451 HEAT: -24.22844
 CYCLE:   117 TIME:   0.008 TIME LEFT:  2.00D  GRAD.:     1.376 HEAT: -24.23149
 CYCLE:   118 TIME:   0.012 TIME LEFT:  2.00D  GRAD.:     1.311 HEAT: -24.23419
 CYCLE:   119 TIME:   0.008 TIME LEFT:  2.00D  GRAD.:     1.208 HEAT: -24.23658
 CYCLE:   120 TIME:   0.012 TIME LEFT:  2.00D  GRAD.:     1.110 HEAT: -24.23898
 CYCLE:   121 TIME:   0.008 TIME LEFT:  2.00D  GRAD.:     1.068 HEAT: -24.24136
 CYCLE:   122 TIME:   0.012 TIME LEFT:  2.00D  GRAD.:     0.932 HEAT: -24.24298
 CYCLE:   123 TIME:   0.008 TIME LEFT:  2.00D  GRAD.:     0.869 HEAT: -24.24437
 CYCLE:   124 TIME:   0.008 TIME LEFT:  2.00D  GRAD.:     0.611 HEAT: -24.24514
 CYCLE:   125 TIME:   0.008 TIME LEFT:  2.00D  GRAD.:     0.464 HEAT: -24.24568
 CYCLE:   126 TIME:   0.012 TIME LEFT:  2.00D  GRAD.:     0.391 HEAT: -24.24593
 CYCLE:   127 TIME:   0.008 TIME LEFT:  2.00D  GRAD.:     0.276 HEAT: -24.24609
 CYCLE:   128 TIME:   0.008 TIME LEFT:  2.00D  GRAD.:     0.227 HEAT: -24.24621
 CYCLE:   129 TIME:   0.008 TIME LEFT:  2.00D  GRAD.:     0.251 HEAT: -24.24632
 CYCLE:   130 TIME:   0.008 TIME LEFT:  2.00D  GRAD.:     0.288 HEAT: -24.24644
 CYCLE:   131 TIME:   0.012 TIME LEFT:  2.00D  GRAD.:     0.288 HEAT: -24.24656
 CYCLE:   132 TIME:   0.008 TIME LEFT:  2.00D  GRAD.:     0.271 HEAT: -24.24671
 CYCLE:   133 TIME:   0.012 TIME LEFT:  2.00D  GRAD.:     0.463 HEAT: -24.24697
 CYCLE:   134 TIME:   0.016 TIME LEFT:  2.00D  GRAD.:     0.664 HEAT: -24.24751
 CYCLE:   135 TIME:   0.008 TIME LEFT:  2.00D  GRAD.:     0.462 HEAT: -24.24786
 CYCLE:   136 TIME:   0.008 TIME LEFT:  2.00D  GRAD.:     0.445 HEAT: -24.24820
 CYCLE:   137 TIME:   0.012 TIME LEFT:  2.00D  GRAD.:     0.439 HEAT: -24.24847
 CYCLE:   138 TIME:   0.012 TIME LEFT:  2.00D  GRAD.:     0.355 HEAT: -24.24867
 CYCLE:   139 TIME:   0.012 TIME LEFT:  2.00D  GRAD.:     0.281 HEAT: -24.24882
 CYCLE:   140 TIME:   0.008 TIME LEFT:  2.00D  GRAD.:     0.251 HEAT: -24.24895
 CYCLE:   141 TIME:   0.008 TIME LEFT:  2.00D  GRAD.:     0.260 HEAT: -24.24906
 CYCLE:   142 TIME:   0.008 TIME LEFT:  2.00D  GRAD.:     0.222 HEAT: -24.24915
 CYCLE:   143 TIME:   0.008 TIME LEFT:  2.00D  GRAD.:     0.179 HEAT: -24.24921
 CYCLE:   144 TIME:   0.008 TIME LEFT:  2.00D  GRAD.:     0.186 HEAT: -24.24925
 CYCLE:   145 TIME:   0.008 TIME LEFT:  2.00D  GRAD.:     0.194 HEAT: -24.24927
 CYCLE:   146 TIME:   0.012 TIME LEFT:  2.00D  GRAD.:     0.173 HEAT: -24.24931
 CYCLE:   147 TIME:   0.008 TIME LEFT:  2.00D  GRAD.:     0.107 HEAT: -24.24934
 CYCLE:   148 TIME:   0.004 TIME LEFT:  2.00D  GRAD.:     0.103 HEAT: -24.24935
 CYCLE:   149 TIME:   0.008 TIME LEFT:  2.00D  GRAD.:     0.073 HEAT: -24.24936
 CYCLE:   150 TIME:   0.008 TIME LEFT:  2.00D  GRAD.:     0.057 HEAT: -24.24937
 CYCLE:   151 TIME:   0.008 TIME LEFT:  2.00D  GRAD.:     0.069 HEAT: -24.24937
 CYCLE:   152 TIME:   0.012 TIME LEFT:  2.00D  GRAD.:     0.074 HEAT: -24.24938
 CYCLE:   153 TIME:   0.008 TIME LEFT:  2.00D  GRAD.:     0.075 HEAT: -24.24940
 CYCLE:   154 TIME:   0.012 TIME LEFT:  2.00D  GRAD.:     0.086 HEAT: -24.24942
 CYCLE:   155 TIME:   0.012 TIME LEFT:  2.00D  GRAD.:     0.078 HEAT: -24.24943
 CYCLE:   156 TIME:   0.012 TIME LEFT:  2.00D  GRAD.:     0.072 HEAT: -24.24944
 CYCLE:   157 TIME:   0.008 TIME LEFT:  2.00D  GRAD.:     0.059 HEAT: -24.24945
 CYCLE:   158 TIME:   0.008 TIME LEFT:  2.00D  GRAD.:     0.090 HEAT: -24.24946
 CYCLE:   159 TIME:   0.012 TIME LEFT:  2.00D  GRAD.:     0.072 HEAT: -24.24947
 CYCLE:   160 TIME:   0.012 TIME LEFT:  2.00D  GRAD.:     0.150 HEAT: -24.24949
 CYCLE:   161 TIME:   0.008 TIME LEFT:  2.00D  GRAD.:     0.094 HEAT: -24.24951
 CYCLE:   162 TIME:   0.012 TIME LEFT:  2.00D  GRAD.:     0.092 HEAT: -24.24953
 CYCLE:   163 TIME:   0.004 TIME LEFT:  2.00D  GRAD.:     0.079 HEAT: -24.24955
 CYCLE:   164 TIME:   0.008 TIME LEFT:  2.00D  GRAD.:     0.074 HEAT: -24.24957
 CYCLE:   165 TIME:   0.012 TIME LEFT:  2.00D  GRAD.:     0.066 HEAT: -24.24959
 CYCLE:   166 TIME:   0.008 TIME LEFT:  2.00D  GRAD.:     0.071 HEAT: -24.24962
 CYCLE:   167 TIME:   0.008 TIME LEFT:  2.00D  GRAD.:     0.071 HEAT: -24.24965
 CYCLE:   168 TIME:   0.008 TIME LEFT:  2.00D  GRAD.:     0.058 HEAT: -24.24968
 CYCLE:   169 TIME:   0.008 TIME LEFT:  2.00D  GRAD.:     0.044 HEAT: -24.24971
 CYCLE:   170 TIME:   0.012 TIME LEFT:  2.00D  GRAD.:     0.041 HEAT: -24.24971
 CYCLE:   171 TIME:   0.008 TIME LEFT:  2.00D  GRAD.:     0.045 HEAT: -24.24971
 CYCLE:   172 TIME:   0.008 TIME LEFT:  2.00D  GRAD.:     0.028 HEAT: -24.24972
 CYCLE:   173 TIME:   0.004 TIME LEFT:  2.00D  GRAD.:     0.025 HEAT: -24.24972
 CYCLE:   174 TIME:   0.008 TIME LEFT:  2.00D  GRAD.:     0.023 HEAT: -24.24972
 CYCLE:   175 TIME:   0.012 TIME LEFT:  2.00D  GRAD.:     0.023 HEAT: -24.24973
 CYCLE:   176 TIME:   0.004 TIME LEFT:  2.00D  GRAD.:     0.029 HEAT: -24.24973
 CYCLE:   177 TIME:   0.008 TIME LEFT:  2.00D  GRAD.:     0.031 HEAT: -24.24974
 CYCLE:   178 TIME:   0.008 TIME LEFT:  2.00D  GRAD.:     0.034 HEAT: -24.24974
 CYCLE:   179 TIME:   0.008 TIME LEFT:  2.00D  GRAD.:     0.037 HEAT: -24.24975
 CYCLE:   180 TIME:   0.012 TIME LEFT:  2.00D  GRAD.:     0.055 HEAT: -24.24975
 CYCLE:   181 TIME:   0.012 TIME LEFT:  2.00D  GRAD.:     0.060 HEAT: -24.24976
 CYCLE:   182 TIME:   0.008 TIME LEFT:  2.00D  GRAD.:     0.053 HEAT: -24.24976
 CYCLE:   183 TIME:   0.012 TIME LEFT:  2.00D  GRAD.:     0.051 HEAT: -24.24977
 CYCLE:   184 TIME:   0.008 TIME LEFT:  2.00D  GRAD.:     0.034 HEAT: -24.24977
 CYCLE:   185 TIME:   0.008 TIME LEFT:  2.00D  GRAD.:     0.063 HEAT: -24.24978
 CYCLE:   186 TIME:   0.012 TIME LEFT:  2.00D  GRAD.:     0.041 HEAT: -24.24979
 CYCLE:   187 TIME:   0.008 TIME LEFT:  2.00D  GRAD.:     0.034 HEAT: -24.24979
 CYCLE:   188 TIME:   0.008 TIME LEFT:  2.00D  GRAD.:     0.028 HEAT: -24.24979
 CYCLE:   189 TIME:   0.008 TIME LEFT:  2.00D  GRAD.:     0.031 HEAT: -24.24979
 CYCLE:   190 TIME:   0.008 TIME LEFT:  2.00D  GRAD.:     0.030 HEAT: -24.24979
 CYCLE:   191 TIME:   0.016 TIME LEFT:  2.00D  GRAD.:     0.030 HEAT: -24.24979
 CYCLE:   192 TIME:   0.012 TIME LEFT:  2.00D  GRAD.:     0.031 HEAT: -24.24979
 CYCLE:   193 TIME:   0.012 TIME LEFT:  2.00D  GRAD.:     0.031 HEAT: -24.24979
 CYCLE:   194 TIME:   0.008 TIME LEFT:  2.00D  GRAD.:     0.030 HEAT: -24.24979
 CYCLE:   195 TIME:   0.008 TIME LEFT:  2.00D  GRAD.:     0.030 HEAT: -24.24979
 CYCLE:   196 TIME:   0.008 TIME LEFT:  2.00D  GRAD.:     0.029 HEAT: -24.24979
 CYCLE:   197 TIME:   0.008 TIME LEFT:  2.00D  GRAD.:     0.028 HEAT: -24.24979
 CYCLE:   198 TIME:   0.008 TIME LEFT:  2.00D  GRAD.:     0.027 HEAT: -24.24979
 CYCLE:   199 TIME:   0.008 TIME LEFT:  2.00D  GRAD.:     0.025 HEAT: -24.24979
 CYCLE:   200 TIME:   0.012 TIME LEFT:  2.00D  GRAD.:     0.026 HEAT: -24.24979
 CYCLE:   201 TIME:   0.012 TIME LEFT:  2.00D  GRAD.:     0.026 HEAT: -24.24979
 CYCLE:   202 TIME:   0.016 TIME LEFT:  2.00D  GRAD.:     0.026 HEAT: -24.24979
 CYCLE:   203 TIME:   0.016 TIME LEFT:  2.00D  GRAD.:     0.026 HEAT: -24.24979
 CYCLE:   204 TIME:   0.008 TIME LEFT:  2.00D  GRAD.:     0.026 HEAT: -24.24979
 CYCLE:   205 TIME:   0.012 TIME LEFT:  2.00D  GRAD.:     0.026 HEAT: -24.24979
 CYCLE:   206 TIME:   0.008 TIME LEFT:  2.00D  GRAD.:     0.026 HEAT: -24.24979
 CYCLE:   207 TIME:   0.008 TIME LEFT:  2.00D  GRAD.:     0.026 HEAT: -24.24979
 CYCLE:   208 TIME:   0.008 TIME LEFT:  2.00D  GRAD.:     0.025 HEAT: -24.24979
 CYCLE:   209 TIME:   0.008 TIME LEFT:  2.00D  GRAD.:     0.025 HEAT: -24.24979
 CYCLE:   210 TIME:   0.012 TIME LEFT:  2.00D  GRAD.:     0.025 HEAT: -24.24979
 CYCLE:   211 TIME:   0.008 TIME LEFT:  2.00D  GRAD.:     0.025 HEAT: -24.24979
 CYCLE:   212 TIME:   0.008 TIME LEFT:  2.00D  GRAD.:     0.025 HEAT: -24.24979
 CYCLE:   213 TIME:   0.012 TIME LEFT:  2.00D  GRAD.:     0.026 HEAT: -24.24979
 CYCLE:   214 TIME:   0.008 TIME LEFT:  2.00D  GRAD.:     0.029 HEAT: -24.24980
 CYCLE:   215 TIME:   0.012 TIME LEFT:  2.00D  GRAD.:     0.030 HEAT: -24.24980
 CYCLE:   216 TIME:   0.012 TIME LEFT:  2.00D  GRAD.:     0.029 HEAT: -24.24980
 CYCLE:   217 TIME:   0.008 TIME LEFT:  2.00D  GRAD.:     0.029 HEAT: -24.24980
 CYCLE:   218 TIME:   0.008 TIME LEFT:  2.00D  GRAD.:     0.029 HEAT: -24.24980
 CYCLE:   219 TIME:   0.008 TIME LEFT:  2.00D  GRAD.:     0.030 HEAT: -24.24980
 CYCLE:   220 TIME:   0.012 TIME LEFT:  2.00D  GRAD.:     0.031 HEAT: -24.24980
 CYCLE:   221 TIME:   0.008 TIME LEFT:  2.00D  GRAD.:     0.033 HEAT: -24.24980
 CYCLE:   222 TIME:   0.008 TIME LEFT:  2.00D  GRAD.:     0.038 HEAT: -24.24981
 CYCLE:   223 TIME:   0.008 TIME LEFT:  2.00D  GRAD.:     0.039 HEAT: -24.24981
 CYCLE:   224 TIME:   0.012 TIME LEFT:  2.00D  GRAD.:     0.039 HEAT: -24.24981
 CYCLE:   225 TIME:   0.012 TIME LEFT:  2.00D  GRAD.:     0.039 HEAT: -24.24981
 CYCLE:   226 TIME:   0.008 TIME LEFT:  2.00D  GRAD.:     0.039 HEAT: -24.24981
 CYCLE:   227 TIME:   0.016 TIME LEFT:  2.00D  GRAD.:     0.059 HEAT: -24.24981
 CYCLE:   228 TIME:   0.008 TIME LEFT:  2.00D  GRAD.:     0.047 HEAT: -24.24981
 CYCLE:   229 TIME:   0.012 TIME LEFT:  2.00D  GRAD.:     0.063 HEAT: -24.24981
 CYCLE:   230 TIME:   0.008 TIME LEFT:  2.00D  GRAD.:     0.052 HEAT: -24.24981
 CYCLE:   231 TIME:   0.008 TIME LEFT:  2.00D  GRAD.:     0.043 HEAT: -24.24982
 CYCLE:   232 TIME:   0.012 TIME LEFT:  2.00D  GRAD.:     0.033 HEAT: -24.24982
 CYCLE:   233 TIME:   0.008 TIME LEFT:  2.00D  GRAD.:     0.022 HEAT: -24.24983
 CYCLE:   234 TIME:   0.008 TIME LEFT:  2.00D  GRAD.:     0.019 HEAT: -24.24983
 CYCLE:   235 TIME:   0.012 TIME LEFT:  2.00D  GRAD.:     0.038 HEAT: -24.24983
 CYCLE:   236 TIME:   0.012 TIME LEFT:  2.00D  GRAD.:     0.020 HEAT: -24.24983
 CYCLE:   237 TIME:   0.008 TIME LEFT:  2.00D  GRAD.:     0.045 HEAT: -24.24983
 CYCLE:   238 TIME:   0.008 TIME LEFT:  2.00D  GRAD.:     0.015 HEAT: -24.24983
 CYCLE:   239 TIME:   0.016 TIME LEFT:  2.00D  GRAD.:     0.057 HEAT: -24.24984
 CYCLE:   240 TIME:   0.008 TIME LEFT:  2.00D  GRAD.:     0.016 HEAT: -24.24984
 CYCLE:   241 TIME:   0.008 TIME LEFT:  2.00D  GRAD.:     0.016 HEAT: -24.24984
 TEST ON GRADIENT SATISFIED
PETERS TEST SATISFIED

 -------------------------------------------------------------------------------
 pm3  precise nosym gnorm=0.0 bfgs THREADS=1
 InChI=1S/C12H22/c1-3-5-6-7-8-12-10-9-11(12)4-2/h6-7,11-12H,3-5,8-10H2,1-2H3



     PETERS TEST WAS SATISFIED IN BFGS OPTIMIZATION           
     SCF FIELD WAS ACHIEVED                                   


                              PM3 CALCULATION
                                                       MOPAC v23.1.2 MacOS
                                                       Tue Jun  3 16:38:21 2025




          FINAL HEAT OF FORMATION =        -24.24984 KCAL/MOL =    -101.46133 KJ/MOL


          COSMO AREA              =        233.60 SQUARE ANGSTROMS
          COSMO VOLUME            =        256.93 CUBIC ANGSTROMS

          GRADIENT NORM           =          0.00958          =       0.00164 PER ATOM
          IONIZATION POTENTIAL    =          9.835945 EV
          HOMO LUMO ENERGIES (EV) =         -9.836  1.066
          NO. OF FILLED LEVELS    =         35
          MOLECULAR WEIGHT        =        166.3058         POINT GROUP:  C1  

          MOLECULAR DIMENSIONS (Angstroms)

            Atom       Atom       Distance
            H    31    H    18     9.52659
            H    28    H    24     5.81831
            H    21    H    26     3.98515


          SCF CALCULATIONS        =        320

          WALL-CLOCK TIME         =      2.449 SECONDS
          COMPUTATION TIME        =      1.929 SECONDS




   ATOM   CHEMICAL          X               Y               Z
  NUMBER   SYMBOL      (ANGSTROMS)     (ANGSTROMS)     (ANGSTROMS)

     1       C         -2.24048022  *  -0.34781195  *  -0.22324839  *
     2       C         -1.27892501  *  -0.37524441  *  -1.44848970  *
     3       C         -3.44458957  *  -0.52829894  *  -1.17912867  *
     4       C         -2.48925776  *  -0.60810607  *  -2.38326706  *
     5       C         -2.25416585  *   0.94005081  *   0.57407790  *
     6       C          2.68751177  *   1.03006249  *   0.91371515  *
     7       C         -0.24711256  *  -1.48780614  *  -1.45342484  *
     8       C          2.93605131  *  -0.39722738  *   0.43993477  *
     9       C         -1.09321151  *   1.03031296  *   1.53943939  *
    10       C          3.56546998  *   1.38539756  *   2.09092348  *
    11       C          0.77167994  *  -1.23817020  *  -0.39810066  *
    12       C          1.98163035  *  -0.73818708  *  -0.65182510  *
    13       H         -2.09268265  *  -1.21382784  *   0.45796228  *
    14       H         -0.77486461  *   0.60055115  *  -1.61923347  *
    15       H         -3.21096496  *   1.00401057  *   1.13006868  *
    16       H         -2.24811755  *   1.81335579  *  -0.10871775  *
    17       H         -4.14335403  *   0.32236930  *  -1.20081121  *
    18       H         -4.04131890  *  -1.43452337  *  -0.99903980  *
    19       H          2.86337112  *   1.73779210  *   0.08014775  *
    20       H          1.61034743  *   1.14850338  *   1.18003490  *
    21       H         -2.63680782  *   0.17108060  *  -3.14544697  *
    22       H         -2.48548017  *  -1.57740166  *  -2.90554092  *
    23       H         -0.72822535  *  -2.47123537  *  -1.28005324  *
    24       H          0.21656108  *  -1.55112489  *  -2.45820180  *
    25       H          3.97922369  *  -0.51042350  *   0.08600926  *
    26       H          2.83033439  *  -1.10202423  *   1.28951335  *
    27       H         -0.11680260  *   1.01629771  *   1.02144323  *
    28       H         -1.13694198  *   1.95616285  *   2.12678796  *
    29       H         -1.08912125  *   0.19059887  *   2.24785791  *
    30       H          3.37803281  *   0.72719809  *   2.94984751  *
    31       H          4.63137907  *   1.29915671  *   1.84124274  *
    32       H          3.38817989  *   2.41627086  *   2.42289023  *
    33       H          0.45199711  *  -1.44290273  *   0.63320082  *
    34       H          2.30512461  *  -0.51995087  *  -1.67649417  *

                             CARTESIAN COORDINATES

   1    C       -2.240480223    -0.347811952    -0.223248390
   2    C       -1.278925007    -0.375244405    -1.448489700
   3    C       -3.444589566    -0.528298938    -1.179128670
   4    C       -2.489257765    -0.608106068    -2.383267055
   5    C       -2.254165853     0.940050811     0.574077900
   6    C        2.687511770     1.030062490     0.913715153
   7    C       -0.247112557    -1.487806135    -1.453424838
   8    C        2.936051311    -0.397227382     0.439934773
   9    C       -1.093211513     1.030312964     1.539439391
  10    C        3.565469977     1.385397565     2.090923483
  11    C        0.771679942    -1.238170200    -0.398100655
  12    C        1.981630347    -0.738187085    -0.651825103
  13    H       -2.092682651    -1.213827845     0.457962275
  14    H       -0.774864612     0.600551147    -1.619233466
  15    H       -3.210964959     1.004010572     1.130068684
  16    H       -2.248117550     1.813355788    -0.108717749
  17    H       -4.143354027     0.322369304    -1.200811205
  18    H       -4.041318904    -1.434523366    -0.999039801
  19    H        2.863371118     1.737792104     0.080147753
  20    H        1.610347426     1.148503385     1.180034899
  21    H       -2.636807818     0.171080604    -3.145446966
  22    H       -2.485480167    -1.577401656    -2.905540922
  23    H       -0.728225349    -2.471235368    -1.280053244
  24    H        0.216561078    -1.551124886    -2.458201795
  25    H        3.979223687    -0.510423500     0.086009263
  26    H        2.830334390    -1.102024234     1.289513348
  27    H       -0.116802603     1.016297713     1.021443230
  28    H       -1.136941981     1.956162850     2.126787957
  29    H       -1.089121246     0.190598872     2.247857908
  30    H        3.378032808     0.727198089     2.949847507
  31    H        4.631379072     1.299156707     1.841242744
  32    H        3.388179890     2.416270861     2.422890231
  33    H        0.451997110    -1.442902734     0.633200825
  34    H        2.305124608    -0.519950870    -1.676494170


           Empirical Formula: C12 H22  =    34 atoms



      MOLECULAR POINT GROUP   :   C1  


                  EIGENVALUES  
 -41.88261 -38.09787 -34.15862 -32.73194 -28.92637 -25.40919 -24.58001 -22.42961
 -21.44846 -20.98543 -19.48769 -18.63400 -16.64112 -16.55268 -16.17575 -15.91855
 -15.34006 -14.83502 -14.57177 -14.27826 -13.88581 -13.75226 -13.52341 -13.04077
 -12.76886 -12.69084 -12.47934 -12.29479 -12.05537 -11.87773 -11.47424 -11.36989
 -11.24862 -10.95323  -9.83595   1.06571   3.24971   3.31261   3.36827   3.54842
   3.59346   3.68222   3.78101   3.81262   3.90793   3.96290   3.99794   4.04050
   4.06832   4.14083   4.17400   4.23281   4.29931   4.34621   4.39998   4.41001
   4.52658   4.61114   4.67135   4.73300   4.83569   4.94595   4.97916   5.00521
   5.01830   5.10349   5.46620   5.64474   5.76121   5.96738


              NET ATOMIC CHARGES AND DIPOLE CONTRIBUTIONS

  ATOM NO.   TYPE          CHARGE      No. of ELECS.   s-Pop       p-Pop       
    1          C          -0.095370        4.0954     1.19453     2.90084
    2          C          -0.090449        4.0904     1.19431     2.89614
    3          C          -0.109489        4.1095     1.17385     2.93564
    4          C          -0.109772        4.1098     1.17360     2.93617
    5          C          -0.085239        4.0852     1.15661     2.92863
    6          C          -0.108726        4.1087     1.16254     2.94619
    7          C          -0.054332        4.0543     1.14756     2.90677
    8          C          -0.065717        4.0657     1.15035     2.91537
    9          C          -0.127372        4.1274     1.14352     2.98385
   10          C          -0.108517        4.1085     1.13802     2.97050
   11          C          -0.149967        4.1500     1.19751     2.95246
   12          C          -0.149392        4.1494     1.19690     2.95249
   13          H           0.076048        0.9240     0.92395
   14          H           0.077516        0.9225     0.92248
   15          H           0.048740        0.9513     0.95126
   16          H           0.051246        0.9488     0.94875
   17          H           0.058236        0.9418     0.94176
   18          H           0.054840        0.9452     0.94516
   19          H           0.050228        0.9498     0.94977
   20          H           0.061110        0.9389     0.93889
   21          H           0.055138        0.9449     0.94486
   22          H           0.058073        0.9419     0.94193
   23          H           0.055684        0.9443     0.94432
   24          H           0.053522        0.9465     0.94648
   25          H           0.051911        0.9481     0.94809
   26          H           0.053446        0.9466     0.94655
   27          H           0.054332        0.9457     0.94567
   28          H           0.037755        0.9622     0.96224
   29          H           0.038289        0.9617     0.96171
   30          H           0.037484        0.9625     0.96252
   31          H           0.037713        0.9623     0.96229
   32          H           0.037287        0.9627     0.96271
   33          H           0.104362        0.8956     0.89564
   34          H           0.101381        0.8986     0.89862
 DIPOLE           X         Y         Z       TOTAL
 POINT-CHG.    -0.068     0.124     0.028     0.144
 HYBRID        -0.005     0.022     0.021     0.031
 SUM           -0.073     0.146     0.050     0.171


          ATOMIC ORBITAL ELECTRON POPULATIONS

     Atom    s        px        py        pz   
    1  C   1.19453   0.96169   0.98507   0.95407
    2  C   1.19431   0.94142   0.99196   0.96276
    3  C   1.17385   0.95581   1.01701   0.96282
    4  C   1.17360   0.96211   1.01673   0.95733
    5  C   1.15661   0.98092   0.96760   0.98011
    6  C   1.16254   1.00318   0.96243   0.98058
    7  C   1.14756   0.95785   0.97505   0.97387
    8  C   1.15035   0.97983   0.96452   0.97101
    9  C   1.14352   0.98788   1.00807   0.98790
   10  C   1.13802   0.99133   1.00432   0.97485
   11  C   1.19751   0.95438   1.00425   0.99383
   12  C   1.19690   0.96388   0.99989   0.98872
   13  H   0.92395
   14  H   0.92248
   15  H   0.95126
   16  H   0.94875
   17  H   0.94176
   18  H   0.94516
   19  H   0.94977
   20  H   0.93889
   21  H   0.94486
   22  H   0.94193
   23  H   0.94432
   24  H   0.94648
   25  H   0.94809
   26  H   0.94655
   27  H   0.94567
   28  H   0.96224
   29  H   0.96171
   30  H   0.96252
   31  H   0.96229
   32  H   0.96271
   33  H   0.89564
   34  H   0.89862
 *******************************************************************************
 **                                                                           **
 **                              MOPAC v23.1.2                                **
 **                                                                           **
 *******************************************************************************
 **          Digital Object Identifier (DOI): 10.5281/zenodo.6511958          **
 **    Visit the DOI location for information on how to cite this program.    **
 *******************************************************************************

                              PM3 CALCULATION RESULTS

 *******************************************************************************
 *  CALCULATION DONE: (MAX THREADS = 1)              Tue Jun  3 16:38:21 2025  *
 *  PM3        - The PM3 Hamiltonian to be used
 *  OLDGEO     - PREVIOUS GEOMETRY TO BE USED
 *  PRECISE    - TIGHTER CRITERIA TO BE USED
 *  NOSYM      - POINT-GROUP SYMMETRY SET TO C1
 *  THREADS=1  - MULTI-THREADING NOT USED
 *  T=         - A TIME OF 172800.0 SECONDS REQUESTED
 *  DUMP=N     - RESTART FILE WRITTEN EVERY 7200.0 SECONDS REQUESTED
 *  THERMO     - THERMODYNAMIC QUANTITIES TO BE CALCULATED
 *******************************************************************************
oldgeo thermo nosym precise THREADS=1  pm3
 InChI=1S/C12H22/c1-3-5-6-7-8-12-10-9-11(12)4-2/h6-7,11-12H,3-5,8-10H2,1-2H3

   ATOM   CHEMICAL          X               Y               Z
  NUMBER   SYMBOL      (ANGSTROMS)     (ANGSTROMS)     (ANGSTROMS)

     1       C         -2.24048022  *  -0.34781195  *  -0.22324839  *
     2       C         -1.27892501  *  -0.37524441  *  -1.44848970  *
     3       C         -3.44458957  *  -0.52829894  *  -1.17912867  *
     4       C         -2.48925776  *  -0.60810607  *  -2.38326706  *
     5       C         -2.25416585  *   0.94005081  *   0.57407790  *
     6       C          2.68751177  *   1.03006249  *   0.91371515  *
     7       C         -0.24711256  *  -1.48780614  *  -1.45342484  *
     8       C          2.93605131  *  -0.39722738  *   0.43993477  *
     9       C         -1.09321151  *   1.03031296  *   1.53943939  *
    10       C          3.56546998  *   1.38539756  *   2.09092348  *
    11       C          0.77167994  *  -1.23817020  *  -0.39810066  *
    12       C          1.98163035  *  -0.73818708  *  -0.65182510  *
    13       H         -2.09268265  *  -1.21382784  *   0.45796228  *
    14       H         -0.77486461  *   0.60055115  *  -1.61923347  *
    15       H         -3.21096496  *   1.00401057  *   1.13006868  *
    16       H         -2.24811755  *   1.81335579  *  -0.10871775  *
    17       H         -4.14335403  *   0.32236930  *  -1.20081121  *
    18       H         -4.04131890  *  -1.43452337  *  -0.99903980  *
    19       H          2.86337112  *   1.73779210  *   0.08014775  *
    20       H          1.61034743  *   1.14850338  *   1.18003490  *
    21       H         -2.63680782  *   0.17108060  *  -3.14544697  *
    22       H         -2.48548017  *  -1.57740166  *  -2.90554092  *
    23       H         -0.72822535  *  -2.47123537  *  -1.28005324  *
    24       H          0.21656108  *  -1.55112489  *  -2.45820180  *
    25       H          3.97922369  *  -0.51042350  *   0.08600926  *
    26       H          2.83033439  *  -1.10202423  *   1.28951335  *
    27       H         -0.11680260  *   1.01629771  *   1.02144323  *
    28       H         -1.13694198  *   1.95616285  *   2.12678796  *
    29       H         -1.08912125  *   0.19059887  *   2.24785791  *
    30       H          3.37803281  *   0.72719809  *   2.94984751  *
    31       H          4.63137907  *   1.29915671  *   1.84124274  *
    32       H          3.38817989  *   2.41627086  *   2.42289023  *
    33       H          0.45199711  *  -1.44290273  *   0.63320082  *
    34       H          2.30512461  *  -0.51995087  *  -1.67649417  *



          CARTESIAN COORDINATES 

    NO.       ATOM           X           Y           Z

     1         C         -2.2405     -0.3478     -0.2232
     2         C         -1.2789     -0.3752     -1.4485
     3         C         -3.4446     -0.5283     -1.1791
     4         C         -2.4893     -0.6081     -2.3833
     5         C         -2.2542      0.9401      0.5741
     6         C          2.6875      1.0301      0.9137
     7         C         -0.2471     -1.4878     -1.4534
     8         C          2.9361     -0.3972      0.4399
     9         C         -1.0932      1.0303      1.5394
    10         C          3.5655      1.3854      2.0909
    11         C          0.7717     -1.2382     -0.3981
    12         C          1.9816     -0.7382     -0.6518
    13         H         -2.0927     -1.2138      0.4580
    14         H         -0.7749      0.6006     -1.6192
    15         H         -3.2110      1.0040      1.1301
    16         H         -2.2481      1.8134     -0.1087
    17         H         -4.1434      0.3224     -1.2008
    18         H         -4.0413     -1.4345     -0.9990
    19         H          2.8634      1.7378      0.0801
    20         H          1.6103      1.1485      1.1800
    21         H         -2.6368      0.1711     -3.1454
    22         H         -2.4855     -1.5774     -2.9055
    23         H         -0.7282     -2.4712     -1.2801
    24         H          0.2166     -1.5511     -2.4582
    25         H          3.9792     -0.5104      0.0860
    26         H          2.8303     -1.1020      1.2895
    27         H         -0.1168      1.0163      1.0214
    28         H         -1.1369      1.9562      2.1268
    29         H         -1.0891      0.1906      2.2479
    30         H          3.3780      0.7272      2.9498
    31         H          4.6314      1.2992      1.8412
    32         H          3.3882      2.4163      2.4229
    33         H          0.4520     -1.4429      0.6332
    34         H          2.3051     -0.5200     -1.6765

  H: (PM3): J. J. P. STEWART, J. COMP. CHEM. 10, 209 (1989).
  C: (PM3): J. J. P. STEWART, J. COMP. CHEM. 10, 209 (1989).

           Empirical Formula: C12 H22  =    34 atoms



      MOLECULAR POINT GROUP   :   C1  


      RHF CALCULATION, NO. OF DOUBLY OCCUPIED LEVELS = 35



          HEAT OF FORMATION =     -24.249840 KCALS/MOLE


          CARTESIAN COORDINATE DERIVATIVES

   NUMBER  ATOM         X            Y            Z

     1       C     -0.000545     0.000191     0.000919
     2       C      0.000009    -0.000390     0.000485
     3       C     -0.000716     0.000793    -0.001565
     4       C      0.000209     0.000281    -0.001871
     5       C      0.000310     0.001148     0.000005
     6       C     -0.000104    -0.001177     0.001752
     7       C      0.000322     0.000730    -0.000241
     8       C      0.001581     0.000171     0.001179
     9       C      0.000770    -0.000341    -0.001879
    10       C      0.001036     0.000446     0.001411
    11       C     -0.001721    -0.000014     0.005337
    12       C      0.002793    -0.001016    -0.005157
    13       H      0.000136     0.000186     0.000285
    14       H     -0.000199     0.000401    -0.000065
    15       H      0.000150    -0.000175    -0.000232
    16       H     -0.000092    -0.000178     0.000210
    17       H     -0.000460    -0.000184     0.000124
    18       H      0.000701     0.000154     0.000897
    19       H     -0.001153     0.000245    -0.000771
    20       H     -0.001793     0.000167    -0.000776
    21       H     -0.000316    -0.000171     0.000171
    22       H      0.000272    -0.000100     0.000341
    23       H     -0.000097     0.000250     0.000287
    24       H      0.000929     0.000357     0.000235
    25       H     -0.001110     0.000292    -0.001187
    26       H      0.000745     0.000201     0.000145
    27       H     -0.000629    -0.000132     0.000918
    28       H     -0.001074    -0.000326     0.000124
    29       H      0.001021     0.000045    -0.000153
    30       H      0.001390    -0.000407    -0.000847
    31       H     -0.000064    -0.000343     0.000537
    32       H     -0.000996     0.000028    -0.000424
    33       H     -0.001074    -0.000402     0.002167
    34       H     -0.000232    -0.000727    -0.002366



          GRADIENT NORM =   0.01125

          MOLECULAR WEIGHT =  166.31



          ROTATIONAL CONSTANTS IN CM(-1)

          A =    0.04960664   B =    0.01535081   C =    0.01250129



           PRINCIPAL MOMENTS OF INERTIA IN UNITS OF 10**(-40)*GRAM-CM**2

          A =      564.2945   B =     1823.5362   C =     2239.1893


          ORIENTATION OF MOLECULE IN FORCE CALCULATION

    NO.       ATOM         X         Y         Z

     1          C      -1.2709    1.7744   -0.0833
     2          C       0.2869    1.7744   -0.0833
     3          C      -1.2591    3.3224   -0.0833
     4          C       0.2791    3.3204   -0.1366
     5          C      -1.9292    1.1476    1.1284
     6          C       0.8525   -2.9379    0.7892
     7          C       0.9472    1.0996   -1.2711
     8          C       1.4037   -2.6764   -0.6077
     9          C      -1.9734   -0.3619    1.0414
    10          C       0.4622   -4.3863    0.9702
    11          C       0.7417   -0.3722   -1.1960
    12          C       1.6793   -1.2221   -0.7756
    13          H      -1.7002    1.3430   -1.0136
    14          H       0.7151    1.3707    0.8596
    15          H      -2.9582    1.5489    1.2216
    16          H      -1.4037    1.4587    2.0536
    17          H      -1.6884    3.7834    0.8198
    18          H      -1.7532    3.7848   -0.9504
    19          H       1.6042   -2.6482    1.5492
    20          H      -0.0240   -2.2716    0.9711
    21          H       0.7738    3.8113    0.7143
    22          H       0.7093    3.7498   -1.0547
    23          H       0.5312    1.4846   -2.2237
    24          H       2.0249    1.3585   -1.2854
    25          H       2.3280   -3.2632   -0.7741
    26          H       0.6826   -3.0312   -1.3718
    27          H      -0.9630   -0.8076    0.9930
    28          H      -2.4787   -0.7947    1.9141
    29          H      -2.5133   -0.7005    0.1466
    30          H      -0.3174   -4.6882    0.2582
    31          H       1.3181   -5.0577    0.8198
    32          H       0.0735   -4.5706    1.9798
    33          H      -0.2632   -0.7289   -1.4618
    34          H       2.6811   -0.8741   -0.4972


    FIRST DERIVATIVES WILL BE USED IN THE CALCULATION OF SECOND DERIVATIVES

          ESTIMATED TIME TO COMPLETE CALCULATION =        6.38 SECONDS

    FOR POINT-GROUP C1   THERE ARE   1 UNIQUE SYMMETRY FUNCTIONS.

 STEP:   1 TIME =     0.04 SECS, INTEGRAL =      0.04 TIME LEFT: 172799.95
 STEP:   2 TIME =     0.04 SECS, INTEGRAL =      0.08 TIME LEFT: 172799.91
 STEP:   3 TIME =     0.04 SECS, INTEGRAL =      0.12 TIME LEFT: 172799.87
 STEP:   4 TIME =     0.04 SECS, INTEGRAL =      0.16 TIME LEFT: 172799.83
 STEP:   5 TIME =     0.04 SECS, INTEGRAL =      0.19 TIME LEFT: 172799.79
 STEP:   6 TIME =     0.04 SECS, INTEGRAL =      0.23 TIME LEFT: 172799.75
 STEP:   7 TIME =     0.04 SECS, INTEGRAL =      0.27 TIME LEFT: 172799.71
 STEP:   8 TIME =     0.04 SECS, INTEGRAL =      0.31 TIME LEFT: 172799.68
 STEP:   9 TIME =     0.04 SECS, INTEGRAL =      0.35 TIME LEFT: 172799.63
 STEP:  10 TIME =     0.04 SECS, INTEGRAL =      0.39 TIME LEFT: 172799.59
 STEP:  11 TIME =     0.04 SECS, INTEGRAL =      0.43 TIME LEFT: 172799.55
 STEP:  12 TIME =     0.04 SECS, INTEGRAL =      0.47 TIME LEFT: 172799.51
 STEP:  13 TIME =     0.04 SECS, INTEGRAL =      0.52 TIME LEFT: 172799.47
 STEP:  14 TIME =     0.04 SECS, INTEGRAL =      0.55 TIME LEFT: 172799.43
 STEP:  15 TIME =     0.04 SECS, INTEGRAL =      0.59 TIME LEFT: 172799.39
 STEP:  16 TIME =     0.04 SECS, INTEGRAL =      0.63 TIME LEFT: 172799.36
 STEP:  17 TIME =     0.04 SECS, INTEGRAL =      0.66 TIME LEFT: 172799.32
 STEP:  18 TIME =     0.04 SECS, INTEGRAL =      0.70 TIME LEFT: 172799.29
 STEP:  19 TIME =     0.04 SECS, INTEGRAL =      0.74 TIME LEFT: 172799.25
 STEP:  20 TIME =     0.04 SECS, INTEGRAL =      0.77 TIME LEFT: 172799.21
 STEP:  21 TIME =     0.04 SECS, INTEGRAL =      0.81 TIME LEFT: 172799.17
 STEP:  22 TIME =     0.04 SECS, INTEGRAL =      0.86 TIME LEFT: 172799.13
 STEP:  23 TIME =     0.04 SECS, INTEGRAL =      0.89 TIME LEFT: 172799.09
 STEP:  24 TIME =     0.04 SECS, INTEGRAL =      0.93 TIME LEFT: 172799.05
 STEP:  25 TIME =     0.04 SECS, INTEGRAL =      0.97 TIME LEFT: 172799.01
 STEP:  26 TIME =     0.04 SECS, INTEGRAL =      1.01 TIME LEFT: 172798.98
 STEP:  27 TIME =     0.04 SECS, INTEGRAL =      1.05 TIME LEFT: 172798.93
 STEP:  28 TIME =     0.04 SECS, INTEGRAL =      1.09 TIME LEFT: 172798.89
 STEP:  29 TIME =     0.04 SECS, INTEGRAL =      1.13 TIME LEFT: 172798.85
 STEP:  30 TIME =     0.04 SECS, INTEGRAL =      1.17 TIME LEFT: 172798.81
 STEP:  31 TIME =     0.04 SECS, INTEGRAL =      1.21 TIME LEFT: 172798.77
 STEP:  32 TIME =     0.04 SECS, INTEGRAL =      1.25 TIME LEFT: 172798.73
 STEP:  33 TIME =     0.04 SECS, INTEGRAL =      1.29 TIME LEFT: 172798.69
 STEP:  34 TIME =     0.04 SECS, INTEGRAL =      1.33 TIME LEFT: 172798.65
 STEP:  35 TIME =     0.04 SECS, INTEGRAL =      1.37 TIME LEFT: 172798.61
 STEP:  36 TIME =     0.04 SECS, INTEGRAL =      1.41 TIME LEFT: 172798.57
 STEP:  37 TIME =     0.04 SECS, INTEGRAL =      1.46 TIME LEFT: 172798.53
 STEP:  38 TIME =     0.04 SECS, INTEGRAL =      1.50 TIME LEFT: 172798.49
 STEP:  39 TIME =     0.04 SECS, INTEGRAL =      1.53 TIME LEFT: 172798.45
 STEP:  40 TIME =     0.04 SECS, INTEGRAL =      1.57 TIME LEFT: 172798.41
 STEP:  41 TIME =     0.04 SECS, INTEGRAL =      1.61 TIME LEFT: 172798.37
 STEP:  42 TIME =     0.04 SECS, INTEGRAL =      1.65 TIME LEFT: 172798.33
 STEP:  43 TIME =     0.04 SECS, INTEGRAL =      1.69 TIME LEFT: 172798.30
 STEP:  44 TIME =     0.04 SECS, INTEGRAL =      1.72 TIME LEFT: 172798.26
 STEP:  45 TIME =     0.04 SECS, INTEGRAL =      1.77 TIME LEFT: 172798.22
 STEP:  46 TIME =     0.04 SECS, INTEGRAL =      1.80 TIME LEFT: 172798.18
 STEP:  47 TIME =     0.04 SECS, INTEGRAL =      1.84 TIME LEFT: 172798.14
 STEP:  48 TIME =     0.04 SECS, INTEGRAL =      1.88 TIME LEFT: 172798.11
 STEP:  49 TIME =     0.04 SECS, INTEGRAL =      1.92 TIME LEFT: 172798.07
 STEP:  50 TIME =     0.04 SECS, INTEGRAL =      1.96 TIME LEFT: 172798.03
 STEP:  51 TIME =     0.04 SECS, INTEGRAL =      1.99 TIME LEFT: 172797.99
 STEP:  52 TIME =     0.04 SECS, INTEGRAL =      2.03 TIME LEFT: 172797.95
 STEP:  53 TIME =     0.04 SECS, INTEGRAL =      2.07 TIME LEFT: 172797.92
 STEP:  54 TIME =     0.04 SECS, INTEGRAL =      2.11 TIME LEFT: 172797.88
 STEP:  55 TIME =     0.04 SECS, INTEGRAL =      2.15 TIME LEFT: 172797.84
 STEP:  56 TIME =     0.04 SECS, INTEGRAL =      2.19 TIME LEFT: 172797.79
 STEP:  57 TIME =     0.04 SECS, INTEGRAL =      2.23 TIME LEFT: 172797.75
 STEP:  58 TIME =     0.04 SECS, INTEGRAL =      2.27 TIME LEFT: 172797.71
 STEP:  59 TIME =     0.04 SECS, INTEGRAL =      2.31 TIME LEFT: 172797.68
 STEP:  60 TIME =     0.04 SECS, INTEGRAL =      2.35 TIME LEFT: 172797.63
 STEP:  61 TIME =     0.04 SECS, INTEGRAL =      2.39 TIME LEFT: 172797.59
 STEP:  62 TIME =     0.04 SECS, INTEGRAL =      2.43 TIME LEFT: 172797.55
 STEP:  63 TIME =     0.04 SECS, INTEGRAL =      2.47 TIME LEFT: 172797.52
 STEP:  64 TIME =     0.04 SECS, INTEGRAL =      2.51 TIME LEFT: 172797.48
 STEP:  65 TIME =     0.04 SECS, INTEGRAL =      2.55 TIME LEFT: 172797.44
 STEP:  66 TIME =     0.04 SECS, INTEGRAL =      2.59 TIME LEFT: 172797.40
 STEP:  67 TIME =     0.04 SECS, INTEGRAL =      2.63 TIME LEFT: 172797.36
 STEP:  68 TIME =     0.04 SECS, INTEGRAL =      2.67 TIME LEFT: 172797.32
 STEP:  69 TIME =     0.04 SECS, INTEGRAL =      2.71 TIME LEFT: 172797.28
 STEP:  70 TIME =     0.04 SECS, INTEGRAL =      2.75 TIME LEFT: 172797.24
 STEP:  71 TIME =     0.04 SECS, INTEGRAL =      2.79 TIME LEFT: 172797.20
 STEP:  72 TIME =     0.04 SECS, INTEGRAL =      2.83 TIME LEFT: 172797.16
 STEP:  73 TIME =     0.04 SECS, INTEGRAL =      2.87 TIME LEFT: 172797.12
 STEP:  74 TIME =     0.04 SECS, INTEGRAL =      2.91 TIME LEFT: 172797.08
 STEP:  75 TIME =     0.04 SECS, INTEGRAL =      2.95 TIME LEFT: 172797.04
 STEP:  76 TIME =     0.04 SECS, INTEGRAL =      2.99 TIME LEFT: 172796.99
 STEP:  77 TIME =     0.04 SECS, INTEGRAL =      3.04 TIME LEFT: 172796.95
 STEP:  78 TIME =     0.04 SECS, INTEGRAL =      3.07 TIME LEFT: 172796.91
 STEP:  79 TIME =     0.04 SECS, INTEGRAL =      3.11 TIME LEFT: 172796.87
 STEP:  80 TIME =     0.04 SECS, INTEGRAL =      3.15 TIME LEFT: 172796.83
 STEP:  81 TIME =     0.05 SECS, INTEGRAL =      3.20 TIME LEFT: 172796.79
 STEP:  82 TIME =     0.04 SECS, INTEGRAL =      3.24 TIME LEFT: 172796.75
 STEP:  83 TIME =     0.04 SECS, INTEGRAL =      3.28 TIME LEFT: 172796.71
 STEP:  84 TIME =     0.04 SECS, INTEGRAL =      3.32 TIME LEFT: 172796.66
 STEP:  85 TIME =     0.04 SECS, INTEGRAL =      3.36 TIME LEFT: 172796.62
 STEP:  86 TIME =     0.04 SECS, INTEGRAL =      3.40 TIME LEFT: 172796.58
 STEP:  87 TIME =     0.04 SECS, INTEGRAL =      3.44 TIME LEFT: 172796.54
 STEP:  88 TIME =     0.04 SECS, INTEGRAL =      3.48 TIME LEFT: 172796.50
 STEP:  89 TIME =     0.04 SECS, INTEGRAL =      3.52 TIME LEFT: 172796.46
 STEP:  90 TIME =     0.04 SECS, INTEGRAL =      3.56 TIME LEFT: 172796.43
 STEP:  91 TIME =     0.04 SECS, INTEGRAL =      3.60 TIME LEFT: 172796.39
 STEP:  92 TIME =     0.04 SECS, INTEGRAL =      3.64 TIME LEFT: 172796.35
 STEP:  93 TIME =     0.04 SECS, INTEGRAL =      3.68 TIME LEFT: 172796.30
 STEP:  94 TIME =     0.04 SECS, INTEGRAL =      3.72 TIME LEFT: 172796.27
 STEP:  95 TIME =     0.04 SECS, INTEGRAL =      3.76 TIME LEFT: 172796.22
 STEP:  96 TIME =     0.04 SECS, INTEGRAL =      3.80 TIME LEFT: 172796.18
 STEP:  97 TIME =     0.04 SECS, INTEGRAL =      3.84 TIME LEFT: 172796.15
 STEP:  98 TIME =     0.04 SECS, INTEGRAL =      3.88 TIME LEFT: 172796.11
 STEP:  99 TIME =     0.04 SECS, INTEGRAL =      3.92 TIME LEFT: 172796.07
 STEP: 100 TIME =     0.04 SECS, INTEGRAL =      3.96 TIME LEFT: 172796.03
 STEP: 101 TIME =     0.04 SECS, INTEGRAL =      4.00 TIME LEFT: 172795.99
 STEP: 102 TIME =     0.04 SECS, INTEGRAL =      4.04 TIME LEFT: 172795.95

(To convert to Hartree/Bohr^2, multiply by (10^(-21) x N x a0^2)/(4.184 x 627.51) =  0.0642)


           FORCE MATRIX IN MILLIDYNES/ANGSTROM


                  C  1       C  2       C  3       C  4       C  5       C  6
 ------------------------------------------------------------------------------
     C    1  14.404549
     C    2   3.162689  14.380265
     C    3   3.473737   1.820358  14.439258
     C    4   1.812375   3.496963   3.762084  14.447323
     C    5   4.299818   0.525330   0.542373   0.041501  14.474549
     C    6   0.000554   0.004141   0.000229   0.001061   0.002739  14.227559
     C    7   0.517386   4.191226   0.041827   0.538296   0.033970   0.021084
     C    8   0.001064   0.022315   0.000409   0.003774   0.001109   4.027774
     C    9   0.648726   0.023234   0.049699   0.005001   4.453305   0.013135
     C   10   0.000408   0.001441   0.000254   0.000616   0.001062   4.502473
     C   11   0.039557   0.724926   0.005761   0.050413   0.003375   0.044183
     C   12   0.002324   0.035820   0.000679   0.004358   0.001183   0.718554
     H   13   4.384726   0.438251   0.428003   0.026292   0.431098   0.000222
     H   14   0.437959   4.397970   0.026171   0.427488   0.032471   0.000641
     H   15   0.432524   0.045619   0.023320   0.003644   4.443093   0.000314
     H   16   0.450627   0.027641   0.016870   0.001839   4.439411   0.000315
     H   17   0.453292   0.029457   4.669153   0.445882   0.029890   0.000045
     H   18   0.442491   0.031228   4.708828   0.444841   0.033087   0.000062
     H   19   0.000220   0.000301   0.000085   0.000093   0.000469   4.474643
     H   20   0.000611   0.000987   0.000340   0.000379   0.002380   4.208172
     H   21   0.031197   0.442330   0.444531   4.708288   0.003853   0.000230
     H   22   0.029385   0.452895   0.445857   4.669366   0.001842   0.000110
     H   23   0.018733   0.459410   0.001771   0.021050   0.001253   0.002206
     H   24   0.045825   0.434568   0.003806   0.014854   0.005851   0.000730
     H   25   0.000171   0.001713   0.000083   0.000197   0.000257   0.451188
     H   26   0.000099   0.001070   0.000064   0.000249   0.000185   0.449176
     H   27   0.016275   0.005195   0.001916   0.000583   0.462847   0.062755
     H   28   0.052341   0.001928   0.008660   0.000672   0.450285   0.001296
     H   29   0.025063   0.002092   0.001790   0.000409   0.464018   0.001276
     H   30   0.000111   0.000128   0.000046   0.000067   0.000076   0.463248
     H   31   0.000071   0.000133   0.000058   0.000083   0.000341   0.464436
     H   32   0.000156   0.000354   0.000088   0.000177   0.000102   0.449380
     H   33   0.008158   0.011693   0.001002   0.001742   0.002888   0.014026
     H   34   0.000831   0.012896   0.000242   0.002625   0.000606   0.012712


                  C  7       C  8       C  9       C 10       C 11       C 12
 ------------------------------------------------------------------------------
     C    7  14.769779
     C    8   0.141622  14.640909
     C    9   0.001741   0.002761  14.262515
     C   10   0.004193   0.660509   0.002848  14.391101
     C   11   4.976090   0.836491   0.026046   0.003808  18.159389
     C   12   0.807606   4.925487   0.002388   0.051943  10.703125  18.093452
     H   13   0.029699   0.000411   0.036381   0.000149   0.009659   0.001469
     H   14   0.427042   0.000923   0.005486   0.000285   0.029005   0.004032
     H   15   0.006065   0.000343   0.440130   0.000453   0.000891   0.000302
     H   16   0.001326   0.000161   0.437049   0.000087   0.000606   0.000356
     H   17   0.001816   0.000089   0.002825   0.000050   0.000476   0.000280
     H   18   0.003797   0.000100   0.005982   0.000084   0.000794   0.000169
     H   19   0.000700   0.442975   0.001765   0.437512   0.002255   0.023670
     H   20   0.001266   0.441696   0.066136   0.436282   0.005399   0.040918
     H   21   0.032855   0.000580   0.000796   0.000159   0.006467   0.000737
     H   22   0.028588   0.000216   0.000512   0.000086   0.002524   0.000662
     H   23   4.439565   0.015475   0.000397   0.000238   0.423302   0.043407
     H   24   4.444231   0.003155   0.000308   0.000266   0.460541   0.040368
     H   25   0.012698   4.477977   0.000495   0.021153   0.047372   0.430946
     H   26   0.005690   4.426409   0.000192   0.031056   0.041764   0.448225
     H   27   0.003426   0.002210   4.486751   0.001651   0.007948   0.005060
     H   28   0.000400   0.000335   4.753625   0.000339   0.002045   0.000521
     H   29   0.000798   0.000557   4.708782   0.000480   0.004048   0.000957
     H   30   0.000261   0.023425   0.000330   4.721063   0.000556   0.001173
     H   31   0.000223   0.022403   0.000484   4.723731   0.000655   0.001188
     H   32   0.000854   0.051991   0.000374   4.751222   0.000631   0.009380
     H   33   0.429696   0.086036   0.006458   0.003359   4.726348   0.470505
     H   34   0.084573   0.429041   0.000419   0.002681   0.471918   4.803913


                  H 13       H 14       H 15       H 16       H 17       H 18
 ------------------------------------------------------------------------------
     H   13   4.892697
     H   14   0.029703   4.899320
     H   15   0.021648   0.003029   5.051800
     H   16   0.042745   0.029333   0.572179   5.055764
     H   17   0.031975   0.002599   0.015594   0.011678   5.298439
     H   18   0.026995   0.001228   0.002089   0.001091   0.557007   5.329629
     H   19   0.000082   0.000168   0.000177   0.000102   0.000014   0.000026
     H   20   0.000215   0.000353   0.000750   0.000354   0.000064   0.000138
     H   21   0.001233   0.026865   0.000700   0.000752   0.023141   0.032770
     H   22   0.002603   0.031932   0.000598   0.000537   0.033645   0.023079
     H   23   0.020755   0.043956   0.000413   0.000521   0.000537   0.000718
     H   24   0.003083   0.028455   0.001286   0.000406   0.000580   0.000725
     H   25   0.000055   0.000137   0.000132   0.000044   0.000020   0.000027
     H   26   0.000152   0.000120   0.000094   0.000068   0.000030   0.000032
     H   27   0.002283   0.005605   0.047874   0.023297   0.000439   0.000487
     H   28   0.002211   0.000466   0.030555   0.029788   0.000680   0.001163
     H   29   0.025643   0.000533   0.024122   0.048347   0.000454   0.000327
     H   30   0.000039   0.000071   0.000060   0.000068   0.000008   0.000016
     H   31   0.000037   0.000092   0.000124   0.000052   0.000012   0.000024
     H   32   0.000047   0.000084   0.000081   0.000034   0.000019   0.000020
     H   33   0.014192   0.002478   0.000498   0.000562   0.000441   0.000376
     H   34   0.000406   0.001433   0.000160   0.000212   0.000112   0.000090


                  H 19       H 20       H 21       H 22       H 23       H 24
 ------------------------------------------------------------------------------
     H   19   5.083858
     H   20   0.562862   5.043749
     H   21   0.000039   0.000074   5.329075
     H   22   0.000035   0.000104   0.557046   5.298476
     H   23   0.000123   0.000233   0.001414   0.019256   5.039356
     H   24   0.000165   0.000233   0.001727   0.007102   0.561426   5.047253
     H   25   0.025848   0.046406   0.000046   0.000038   0.002239   0.000412
     H   26   0.046642   0.021326   0.000058   0.000029   0.000405   0.000426
     H   27   0.000702   0.207651   0.000230   0.000274   0.000373   0.000365
     H   28   0.000173   0.001468   0.000127   0.000093   0.000139   0.000134
     H   29   0.000203   0.001030   0.000176   0.000093   0.000242   0.000196
     H   30   0.048573   0.023705   0.000020   0.000012   0.000056   0.000060
     H   31   0.023941   0.047325   0.000019   0.000021   0.000050   0.000031
     H   32   0.030175   0.028487   0.000051   0.000023   0.000062   0.000074
     H   33   0.000675   0.002678   0.000443   0.000594   0.032227   0.038795
     H   34   0.003913   0.002115   0.000437   0.000309   0.006573   0.028115


                  H 25       H 26       H 27       H 28       H 29       H 30
 ------------------------------------------------------------------------------
     H   25   5.079428
     H   26   0.569424   5.040375
     H   27   0.000455   0.000383   5.401295
     H   28   0.000109   0.000096   0.560109   5.482913
     H   29   0.000151   0.000127   0.573938   0.572341   5.449429
     H   30   0.001353   0.021278   0.000277   0.000092   0.000095   5.464461
     H   31   0.014594   0.001744   0.000428   0.000116   0.000130   0.578810
     H   32   0.001562   0.002094   0.000332   0.000111   0.000104   0.574855
     H   33   0.004687   0.026568   0.017526   0.000808   0.007490   0.000293
     H   34   0.033843   0.034613   0.000689   0.000239   0.000267   0.000541


                  H 31       H 32       H 33       H 34
 ------------------------------------------------------
     H   31   5.465982
     H   32   0.574684   5.488278
     H   33   0.000430   0.000668   5.104632
     H   34   0.000420   0.000616   0.107268   5.179363


          HEAT OF FORMATION =     -24.249840 KCALS/MOLE

          ZERO POINT ENERGY     195.092 KCAL/MOL


           NORMAL COORDINATE ANALYSIS (Total motion = 1 Angstrom)


   Root No.       1         2         3         4         5         6         7         8

                 1 A       2 A       3 A       4 A       5 A       6 A       7 A       8 A   

                  41.7      55.6      62.8      80.5      99.5     108.2     149.0     192.6
  
           1   -0.0007   -0.0043    0.0044    0.0060   -0.0093   -0.0050    0.0038   -0.0018
           2   -0.0069    0.0043   -0.0015   -0.0003    0.0071    0.0196   -0.0081   -0.0008
           3    0.0014    0.0060    0.0037    0.0011   -0.0104    0.0026    0.0030   -0.0005
           4   -0.0006   -0.0043    0.0043    0.0061   -0.0095   -0.0053    0.0042   -0.0014
           5    0.0079   -0.0093    0.0040    0.0100   -0.0098    0.0151    0.0024   -0.0008
           6    0.0031   -0.0036   -0.0122    0.0077    0.0017   -0.0052   -0.0026   -0.0018
           7   -0.0157    0.0094   -0.0011   -0.0042    0.0072   -0.0005   -0.0073   -0.0019
           8   -0.0068    0.0043   -0.0014   -0.0002    0.0070    0.0196   -0.0085   -0.0009
           9   -0.0249    0.0106    0.0045   -0.0138   -0.0072    0.0221    0.0164    0.0101
          10   -0.0155    0.0090   -0.0017   -0.0040    0.0082   -0.0020   -0.0080   -0.0025
          11    0.0072   -0.0091    0.0040    0.0096   -0.0093    0.0147    0.0026   -0.0007
          12   -0.0196    0.0003   -0.0133   -0.0069    0.0195   -0.0248   -0.0029   -0.0033
          13    0.0048   -0.0033    0.0191    0.0048   -0.0201   -0.0034    0.0081   -0.0023
          14    0.0080    0.0070   -0.0047    0.0060    0.0128   -0.0012   -0.0192   -0.0043
          15    0.0122    0.0080    0.0100    0.0039   -0.0135   -0.0079   -0.0005   -0.0027
          16   -0.0064   -0.0114   -0.0182   -0.0253   -0.0122    0.0018   -0.0231   -0.0301
          17   -0.0064    0.0100   -0.0118   -0.0049   -0.0031   -0.0150    0.0178    0.0106
          18   -0.0111   -0.0095    0.0076   -0.0140   -0.0047    0.0028   -0.0065   -0.0103
          19    0.0080   -0.0170   -0.0048    0.0153   -0.0103   -0.0096    0.0096    0.0054
          20   -0.0013   -0.0110    0.0058    0.0033   -0.0026   -0.0079    0.0050   -0.0005
          21    0.0132   -0.0096   -0.0180    0.0167   -0.0028    0.0064   -0.0017    0.0015
          22    0.0185    0.0331    0.0010   -0.0188    0.0027    0.0053   -0.0060    0.0050
          23   -0.0028   -0.0017    0.0122   -0.0063    0.0002   -0.0085    0.0008   -0.0012
          24   -0.0006    0.0058    0.0200   -0.0116    0.0018    0.0055   -0.0030    0.0014
          25    0.0112   -0.0270    0.0041   -0.0155    0.0352    0.0216    0.0291    0.0106
          26    0.0065    0.0083   -0.0035    0.0065    0.0093   -0.0015   -0.0184   -0.0041
          27    0.0343   -0.0008   -0.0019    0.0028    0.0203   -0.0220   -0.0068   -0.0014
          28   -0.0280    0.0032    0.0031    0.0392    0.0129    0.0039   -0.0205    0.0003
          29   -0.0028    0.0070   -0.0207   -0.0195   -0.0098   -0.0170    0.0210    0.0050
          30   -0.0288   -0.0028   -0.0161    0.0081   -0.0042   -0.0061    0.0196    0.0081
          31    0.0102   -0.0010    0.0013   -0.0003   -0.0055   -0.0107    0.0073    0.0091
          32   -0.0010   -0.0124    0.0045    0.0054   -0.0037   -0.0068    0.0047   -0.0011
          33    0.0206    0.0038   -0.0190    0.0124   -0.0074    0.0291   -0.0073   -0.0008
          34    0.0173    0.0157   -0.0131   -0.0047   -0.0058    0.0001    0.0038    0.0090
          35   -0.0020    0.0001    0.0167   -0.0083    0.0019   -0.0075   -0.0012   -0.0021
          36    0.0028   -0.0079    0.0380   -0.0061    0.0045    0.0036   -0.0113   -0.0024
          37    0.0038   -0.0135   -0.0032    0.0126   -0.0083   -0.0082    0.0048   -0.0021
          38   -0.0269    0.0108   -0.0025   -0.0109    0.0106    0.0360   -0.0035    0.0039
          39    0.0086    0.0073    0.0077    0.0030   -0.0123   -0.0037    0.0005   -0.0024
          40    0.0022   -0.0017    0.0155    0.0049   -0.0206   -0.0045    0.0086   -0.0028
          41    0.0254   -0.0153    0.0062    0.0217   -0.0266    0.0297    0.0072    0.0013
          42    0.0092   -0.0073   -0.0163    0.0132   -0.0004    0.0009   -0.0024   -0.0001
          43    0.0032    0.0035    0.0243    0.0101   -0.0360   -0.0105    0.0029   -0.0056
          44    0.0046    0.0220    0.0036    0.0184   -0.0200   -0.0183   -0.0324   -0.0121
          45    0.0089    0.0193    0.0310    0.0096   -0.0492   -0.0128   -0.0019   -0.0060
          46    0.0057    0.0093    0.0377    0.0131   -0.0541   -0.0158    0.0020   -0.0073
          47    0.0239   -0.0065   -0.0169   -0.0014    0.0524   -0.0012   -0.0158    0.0007
          48    0.0064    0.0054    0.0036    0.0016   -0.0074   -0.0010    0.0018   -0.0015
          49   -0.0235    0.0197    0.0079   -0.0114   -0.0044    0.0307    0.0018    0.0071
          50    0.0047    0.0053   -0.0036    0.0059    0.0104    0.0072   -0.0205   -0.0082
          51   -0.0345    0.0150    0.0099   -0.0203   -0.0145    0.0434    0.0270    0.0183
          52   -0.0170    0.0076   -0.0129   -0.0034    0.0282   -0.0275   -0.0226   -0.0106
          53   -0.0266    0.0114   -0.0025   -0.0121    0.0133    0.0344   -0.0032    0.0064
          54   -0.0347    0.0155    0.0106   -0.0206   -0.0158    0.0455    0.0280    0.0191
          55   -0.0144   -0.0416   -0.0361   -0.0473   -0.0277   -0.0006   -0.0367   -0.0564
          56   -0.0220    0.0312   -0.0080    0.0421    0.0135   -0.0180    0.0375    0.0432
          57    0.0027    0.0123    0.0238   -0.0099    0.0044    0.0062   -0.0004    0.0036
          58   -0.0008   -0.0269   -0.0320   -0.0555   -0.0254    0.0010   -0.0308   -0.0504
          59    0.0032    0.0002   -0.0284   -0.0380   -0.0162   -0.0160    0.0112   -0.0087
          60   -0.0188   -0.0480   -0.0002   -0.0370   -0.0191    0.0035   -0.0302   -0.0438
          61   -0.0233    0.0192    0.0065   -0.0111   -0.0019    0.0275   -0.0001    0.0057
          62    0.0244   -0.0155    0.0065    0.0210   -0.0255    0.0261    0.0072    0.0011
          63   -0.0250   -0.0019   -0.0196   -0.0094    0.0348   -0.0487   -0.0102   -0.0092
          64   -0.0165    0.0066   -0.0140   -0.0028    0.0299   -0.0311   -0.0237   -0.0118
          65   -0.0018   -0.0109    0.0048    0.0039   -0.0027   -0.0005    0.0049   -0.0023
          66   -0.0243   -0.0017   -0.0188   -0.0090    0.0328   -0.0457   -0.0093   -0.0085
          67    0.0132   -0.0357   -0.0127    0.0310   -0.0131   -0.0113    0.0145    0.0092
          68   -0.0099   -0.0213    0.0068    0.0068    0.0006   -0.0248    0.0083   -0.0015
          69    0.0074   -0.0056   -0.0140    0.0112   -0.0002    0.0002   -0.0025   -0.0005
          70    0.0076   -0.0197   -0.0053    0.0179   -0.0110   -0.0093    0.0098    0.0048
          71    0.0008   -0.0006    0.0078   -0.0067    0.0003   -0.0095    0.0040    0.0022
          72    0.0179   -0.0283   -0.0262    0.0304   -0.0038   -0.0009    0.0045    0.0072
          73    0.0226    0.0476    0.0118   -0.0230    0.0093    0.0081   -0.0077    0.0103
          74   -0.0009    0.0095    0.0266   -0.0136    0.0072   -0.0047   -0.0064   -0.0016
          75    0.0157    0.0470    0.0286   -0.0096    0.0136    0.0077    0.0136    0.0312
          76    0.0333    0.0653    0.0182   -0.0191    0.0149    0.0093    0.0009    0.0255
          77   -0.0036   -0.0235    0.0104    0.0015   -0.0057   -0.0106   -0.0014   -0.0095
          78   -0.0143   -0.0144    0.0045   -0.0147   -0.0069    0.0026   -0.0085   -0.0137
          79    0.0127   -0.0340   -0.0008   -0.0224    0.0508    0.0292    0.0380    0.0147
          80    0.0106   -0.0064   -0.0107   -0.0089    0.0420    0.0108    0.0069    0.0120
          81    0.0292   -0.0126   -0.0354   -0.0041    0.0385    0.0178   -0.0168   -0.0463
          82    0.0229   -0.0256    0.0261   -0.0159    0.0422   -0.0098    0.0444    0.0557
          83    0.0166    0.0106   -0.0072    0.0130    0.0109   -0.0153   -0.0325   -0.0114
          84    0.0461    0.0012    0.0090    0.0058    0.0251   -0.0471   -0.0051    0.0211
          85    0.0029   -0.0403   -0.0249   -0.0263    0.0559    0.0646    0.0292   -0.0248
          86   -0.0088    0.0218    0.0089    0.0146   -0.0295   -0.0019   -0.0242   -0.0103
          87    0.0451    0.0021    0.0110    0.0063    0.0224   -0.0480   -0.0047    0.0225
          88   -0.0226    0.0349    0.0222    0.0737    0.0363    0.0064    0.0436   -0.0908
          89    0.0137   -0.0153   -0.0263   -0.0735   -0.0309   -0.0147   -0.0185    0.0181
          90   -0.0417   -0.0281   -0.0348   -0.0067   -0.0208   -0.0098   -0.0339    0.1028
          91   -0.0350    0.0189    0.0176    0.0761    0.0305    0.0056    0.0003   -0.0161
          92   -0.0129    0.0175   -0.0042    0.0186    0.0069   -0.0145    0.0250    0.0122
          93   -0.0233    0.0401   -0.0070    0.0472    0.0209   -0.0077    0.1211   -0.1186
          94   -0.0439   -0.0327   -0.0134    0.0204   -0.0074    0.0017   -0.1044    0.1332
          95   -0.0064    0.0163   -0.0388   -0.0153   -0.0110   -0.0235    0.0592   -0.0195
          96   -0.0355   -0.0149   -0.0258    0.0016   -0.0122   -0.0082   -0.0056    0.0548
          97    0.0058   -0.0022    0.0197   -0.0078   -0.0006   -0.0196    0.0052    0.0098
          98   -0.0016   -0.0245   -0.0063    0.0181   -0.0084   -0.0063    0.0091   -0.0021
          99    0.0378    0.0245   -0.0731    0.0234   -0.0193    0.0609   -0.0057   -0.0020
         100    0.0222    0.0172   -0.0337    0.0032   -0.0115    0.0087    0.0073    0.0099
         101   -0.0033    0.0128    0.0307   -0.0218    0.0087   -0.0083   -0.0072   -0.0035
         102   -0.0135   -0.0293    0.0953   -0.0175    0.0170   -0.0263   -0.0162   -0.0040


   Root No.       9        10        11        12        13        14        15        16

                 9 A      10 A      11 A      12 A      13 A      14 A      15 A      16 A   

                 207.3     221.1     273.0     278.6     314.7     338.1     379.9     426.4
  
           1    0.0108   -0.0041   -0.0177   -0.0098    0.0059   -0.0151   -0.0093   -0.0180
           2   -0.0111   -0.0011    0.0119    0.0026    0.0009    0.0010   -0.0019    0.0085
           3    0.0049    0.0002    0.0049   -0.0190   -0.0177   -0.0043   -0.0264    0.0029
           4    0.0105   -0.0028   -0.0182   -0.0091    0.0054   -0.0148   -0.0116   -0.0168
           5   -0.0009   -0.0051   -0.0026    0.0010    0.0131   -0.0140   -0.0090   -0.0060
           6   -0.0001   -0.0061   -0.0003   -0.0273   -0.0121   -0.0030   -0.0110   -0.0017
           7    0.0011    0.0027   -0.0109   -0.0102   -0.0097   -0.0013    0.0058    0.0154
           8   -0.0114    0.0000    0.0110    0.0030    0.0016    0.0006    0.0004    0.0142
           9   -0.0062    0.0267   -0.0061    0.0123    0.0137    0.0013    0.0029   -0.0126
          10    0.0014   -0.0001   -0.0104   -0.0099   -0.0096   -0.0017    0.0061    0.0154
          11   -0.0012   -0.0053   -0.0009    0.0022    0.0158   -0.0155   -0.0129   -0.0118
          12    0.0013   -0.0232    0.0049    0.0216    0.0159   -0.0048   -0.0008   -0.0116
          13    0.0071   -0.0237    0.0120    0.0142    0.0114    0.0074    0.0228   -0.0017
          14   -0.0066    0.0051    0.0121    0.0033    0.0016    0.0046   -0.0075   -0.0168
          15    0.0052   -0.0065    0.0214   -0.0047   -0.0147    0.0107   -0.0116    0.0050
          16   -0.0169    0.0041    0.0035   -0.0073    0.0062   -0.0040    0.0031   -0.0010
          17    0.0089   -0.0001   -0.0090   -0.0062   -0.0139    0.0171    0.0131   -0.0191
          18   -0.0005   -0.0034   -0.0146    0.0102   -0.0008    0.0246   -0.0200   -0.0039
          19   -0.0028    0.0179    0.0002    0.0025    0.0172    0.0211    0.0045    0.0063
          20    0.0038    0.0005   -0.0035    0.0062    0.0028   -0.0063   -0.0126    0.0212
          21   -0.0103    0.0014    0.0092   -0.0251   -0.0007    0.0137    0.0095   -0.0010
          22   -0.0002   -0.0054    0.0083   -0.0167    0.0245   -0.0051   -0.0023    0.0056
          23    0.0089   -0.0009   -0.0148    0.0008   -0.0124    0.0052    0.0076    0.0134
          24    0.0064   -0.0074   -0.0145    0.0075    0.0055    0.0217   -0.0192    0.0027
          25   -0.0012   -0.0189    0.0100   -0.0018   -0.0066    0.0070    0.0002   -0.0040
          26   -0.0063    0.0037    0.0139    0.0041    0.0017    0.0063   -0.0075   -0.0213
          27    0.0074    0.0263   -0.0133    0.0079    0.0128   -0.0063    0.0091    0.0084
          28   -0.0003    0.0031   -0.0049   -0.0004   -0.0062    0.0089    0.0034   -0.0095
          29    0.0041    0.0008   -0.0023   -0.0111   -0.0101    0.0072    0.0197   -0.0181
          30   -0.0031   -0.0004    0.0162   -0.0015    0.0115   -0.0231   -0.0033    0.0168
          31   -0.0049    0.0225    0.0177    0.0282   -0.0196   -0.0072   -0.0198    0.0025
          32    0.0047    0.0002   -0.0086    0.0041    0.0017   -0.0024   -0.0036    0.0240
          33   -0.0019   -0.0188   -0.0180    0.0134   -0.0129   -0.0129    0.0321    0.0005
          34   -0.0023    0.0090    0.0065    0.0266   -0.0236   -0.0060   -0.0098    0.0012
          35    0.0079   -0.0022   -0.0097   -0.0059   -0.0045   -0.0043    0.0107    0.0168
          36   -0.0019    0.0063    0.0072   -0.0023   -0.0141   -0.0203    0.0335   -0.0112
          37    0.0132   -0.0041   -0.0302   -0.0241    0.0086   -0.0267   -0.0197   -0.0317
          38   -0.0174    0.0121    0.0085    0.0124    0.0071    0.0051    0.0109    0.0176
          39    0.0062   -0.0055    0.0126   -0.0158   -0.0210    0.0000   -0.0261    0.0054
          40    0.0198   -0.0073   -0.0244   -0.0119    0.0007   -0.0303   -0.0294   -0.0277
          41   -0.0014    0.0029   -0.0054   -0.0183    0.0110   -0.0169   -0.0162   -0.0171
          42   -0.0048   -0.0008    0.0019   -0.0332   -0.0101    0.0038   -0.0046   -0.0012
          43    0.0084   -0.0282    0.0172    0.0196    0.0146    0.0115    0.0309   -0.0013
          44   -0.0012    0.0018    0.0153    0.0116    0.0100    0.0074    0.0040   -0.0217
          45   -0.0024   -0.0376    0.0600    0.0200   -0.0122    0.0407    0.0268    0.0260
          46    0.0031   -0.0464    0.0416    0.0390    0.0190    0.0317    0.0597    0.0113
          47   -0.0076    0.0246   -0.0052    0.0025    0.0075   -0.0039   -0.0115   -0.0248
          48    0.0075   -0.0001    0.0105   -0.0180   -0.0204    0.0001   -0.0301    0.0004
          49   -0.0071    0.0387   -0.0169   -0.0164   -0.0147    0.0079    0.0155    0.0232
          50   -0.0067   -0.0177    0.0221   -0.0153   -0.0230    0.0009   -0.0164    0.0361
          51   -0.0126    0.0535   -0.0148    0.0190    0.0244    0.0056    0.0163   -0.0211
          52    0.0029   -0.0280    0.0001   -0.0041   -0.0143   -0.0005    0.0073    0.0298
          53   -0.0220    0.0219    0.0058    0.0219    0.0174    0.0099    0.0262    0.0113
          54   -0.0130    0.0563   -0.0154    0.0190    0.0250    0.0059    0.0163   -0.0226
          55   -0.0308    0.0108    0.0042   -0.0036   -0.0015   -0.0081    0.0060   -0.0031
          56    0.0210   -0.0020   -0.0012   -0.0109   -0.0136    0.0094    0.0231   -0.0230
          57    0.0086   -0.0092   -0.0178    0.0080    0.0068    0.0308   -0.0262   -0.0001
          58   -0.0280    0.0075    0.0060   -0.0076    0.0067   -0.0071    0.0021   -0.0023
          59   -0.0045    0.0037   -0.0021   -0.0098   -0.0092    0.0099    0.0116   -0.0215
          60   -0.0113    0.0033   -0.0234    0.0201   -0.0133    0.0297   -0.0220   -0.0015
          61   -0.0068    0.0335   -0.0145   -0.0170   -0.0171    0.0085    0.0155    0.0278
          62    0.0005    0.0067   -0.0085   -0.0292    0.0023   -0.0181   -0.0239   -0.0133
          63    0.0051   -0.0500    0.0118    0.0443    0.0284   -0.0094    0.0001   -0.0181
          64    0.0041   -0.0330    0.0001   -0.0019   -0.0120   -0.0026    0.0076    0.0252
          65    0.0030   -0.0202    0.0007    0.0341    0.0394   -0.0224   -0.0126   -0.0292
[...]
 REDUCED MASS        0.3859         C  6 -- H 19          +3.4% ( 19.1%)     92.9%
 EFFECTIVE MASS      1.5316
 FORCE CONSTANT      1.9842

 VIBRATION         81   81A           ATOM PAIR      ENERGY CONTRIBUTION    RADIAL
 FREQUENCY          3020.44         C  6 -- H 19         +63.4% ( 79.5%)     99.6%
 TRANSITION DIPOLE   0.1116         C  6 -- H 20         +18.2% ( 42.6%)     90.3%
 TRAVEL (Ang.)       0.2234         C  9 -- H 27         +12.8% ( 35.8%)     99.3%
 REDUCED MASS        0.4474         C  9 -- H 29          +1.4% ( 11.8%)     76.2%
 EFFECTIVE MASS      1.3239
 FORCE CONSTANT      2.4051

 VIBRATION         82   82A           ATOM PAIR      ENERGY CONTRIBUTION    RADIAL
 FREQUENCY          3024.87         C 11 -- H 33         +94.5% ( 98.5%)    100.0%
 TRANSITION DIPOLE   0.2450         C 11 -- C 12          +1.4% ( 12.1%)     39.4%
 TRAVEL (Ang.)       0.1595         C  7 -- H 23          +1.4% ( 11.9%)     99.9%
 REDUCED MASS        0.8762         C  7 -- C 11          +1.3% ( 11.7%)     18.8%
 EFFECTIVE MASS      1.5038
 FORCE CONSTANT      4.7236

 VIBRATION         83   83A           ATOM PAIR      ENERGY CONTRIBUTION    RADIAL
 FREQUENCY          3025.89         C  7 -- H 24         +50.4% ( 70.0%)     97.8%
 TRANSITION DIPOLE   0.0511         C  7 -- H 23         +47.1% ( 67.6%)     97.5%
 TRAVEL (Ang.)       0.2171         C 11 -- H 33          +0.9% (  9.5%)    100.0%
 REDUCED MASS        0.4727         C  2 -- C  7          +0.6% (  7.8%)     30.1%
 EFFECTIVE MASS      1.2757
 FORCE CONSTANT      2.5499

 VIBRATION         84   84A           ATOM PAIR      ENERGY CONTRIBUTION    RADIAL
 FREQUENCY          3029.00         C  4 -- H 22         +27.0% ( 54.3%)     97.4%
 TRANSITION DIPOLE   0.0045         C  3 -- H 17         +26.8% ( 54.1%)     97.4%
 TRAVEL (Ang.)       0.2951         C  4 -- H 21         +20.7% ( 47.6%)     95.8%
 REDUCED MASS        0.2556         C  3 -- H 18         +20.6% ( 47.4%)     95.8%
 EFFECTIVE MASS      1.5497
 FORCE CONSTANT      1.3817

 VIBRATION         85   85A           ATOM PAIR      ENERGY CONTRIBUTION    RADIAL
 FREQUENCY          3029.59         C  5 -- H 15         +48.2% ( 68.4%)     97.8%
 TRANSITION DIPOLE   0.0215         C  5 -- H 16         +47.8% ( 68.2%)     97.7%
 TRAVEL (Ang.)       0.2201         C  5 -- C  9          +0.6% (  7.7%)     26.0%
 REDUCED MASS        0.4595         C  1 -- C  5          +0.6% (  7.6%)     29.1%
 EFFECTIVE MASS      1.2784
 FORCE CONSTANT      2.4850

 VIBRATION         86   86A           ATOM PAIR      ENERGY CONTRIBUTION    RADIAL
 FREQUENCY          3032.30         C  8 -- H 25         +56.0% ( 73.8%)     98.5%
 TRANSITION DIPOLE   0.0504         C  8 -- H 26         +39.8% ( 62.2%)     96.5%
 TRAVEL (Ang.)       0.2180         C 11 -- H 33          +1.3% ( 11.3%)    100.0%
 REDUCED MASS        0.4680         C  8 -- C 12          +0.6% (  7.7%)     30.9%
 EFFECTIVE MASS      1.2814
 FORCE CONSTANT      2.5353

 VIBRATION         87   87A           ATOM PAIR      ENERGY CONTRIBUTION    RADIAL
 FREQUENCY          3043.56         C  3 -- H 17         +28.1% ( 55.1%)     97.8%
 TRANSITION DIPOLE   0.0895         C  4 -- H 22         +27.9% ( 54.8%)     97.8%
 TRAVEL (Ang.)       0.2899         C  3 -- H 18         +20.3% ( 46.7%)     95.9%
 REDUCED MASS        0.2636         C  4 -- H 21         +20.2% ( 46.7%)     95.9%
 EFFECTIVE MASS      1.5305
 FORCE CONSTANT      1.4385

 VIBRATION         88   88A           ATOM PAIR      ENERGY CONTRIBUTION    RADIAL
 FREQUENCY          3048.90         C 12 -- H 34         +96.0% ( 99.4%)    100.0%
 TRANSITION DIPOLE   0.2585         C 11 -- C 12          +1.5% ( 12.6%)     40.0%
 TRAVEL (Ang.)       0.1560         C  8 -- C 12          +1.4% ( 11.8%)     19.3%
 REDUCED MASS        0.9090         C  8 -- H 25          +0.8% (  8.8%)     99.8%
 EFFECTIVE MASS      1.5180
 FORCE CONSTANT      4.9784

 VIBRATION         89   89A           ATOM PAIR      ENERGY CONTRIBUTION    RADIAL
 FREQUENCY          3067.75         C  9 -- H 27         +50.4% ( 72.3%)     98.6%
 TRANSITION DIPOLE   0.0591         C  9 -- H 29         +30.5% ( 56.3%)     95.2%
 TRAVEL (Ang.)       0.2449         C  6 -- H 20         +10.7% ( 33.3%)     99.1%
 REDUCED MASS        0.3664         C  6 -- H 19          +3.8% ( 19.8%)     94.2%
 EFFECTIVE MASS      1.4321
 FORCE CONSTANT      2.0317

 VIBRATION         90   90A           ATOM PAIR      ENERGY CONTRIBUTION    RADIAL
 FREQUENCY          3078.12         C 10 -- H 30         +51.3% ( 73.9%)     97.4%
 TRANSITION DIPOLE   0.0100         C 10 -- H 31         +45.3% ( 69.4%)     96.6%
 TRAVEL (Ang.)       0.2102         C 10 -- H 32          +1.1% ( 10.7%)      3.9%
 REDUCED MASS        0.4959         C  6 -- C 10          +1.0% ( 10.2%)      0.0%
 EFFECTIVE MASS      1.5010
 FORCE CONSTANT      2.7681

 VIBRATION         91   91A           ATOM PAIR      ENERGY CONTRIBUTION    RADIAL
 FREQUENCY          3081.56         C  9 -- H 28         +53.4% ( 75.3%)     98.3%
 TRANSITION DIPOLE   0.0214         C  9 -- H 29         +32.8% ( 59.0%)     94.0%
 TRAVEL (Ang.)       0.2274         C  9 -- H 27          +7.4% ( 28.0%)     66.7%
 REDUCED MASS        0.4233         C 10 -- H 32          +2.2% ( 15.1%)     98.0%
 EFFECTIVE MASS      1.4975
 FORCE CONSTANT      2.3681

 VIBRATION         92   92A           ATOM PAIR      ENERGY CONTRIBUTION    RADIAL
 FREQUENCY          3084.37         C 10 -- H 32         +59.1% ( 79.3%)     98.7%
 TRANSITION DIPOLE   0.0054         C 10 -- H 31         +20.9% ( 47.2%)     88.4%
 TRAVEL (Ang.)       0.2228         C 10 -- H 30         +14.5% ( 39.2%)     82.3%
 REDUCED MASS        0.4403         C  9 -- H 28          +2.1% ( 14.8%)     98.7%
 EFFECTIVE MASS      1.5004
 FORCE CONSTANT      2.4677

 VIBRATION         93   93A           ATOM PAIR      ENERGY CONTRIBUTION    RADIAL
 FREQUENCY          3103.46         C  4 -- H 21         +28.9% ( 53.3%)     98.1%
 TRANSITION DIPOLE   0.0664         C  3 -- H 18         +28.6% ( 53.1%)     98.1%
 TRAVEL (Ang.)       0.2957         C  4 -- H 22         +20.4% ( 44.8%)     95.8%
 REDUCED MASS        0.2484         C  3 -- H 17         +20.1% ( 44.4%)     95.8%
 EFFECTIVE MASS      1.2814
 FORCE CONSTANT      1.4097

 VIBRATION         94   94A           ATOM PAIR      ENERGY CONTRIBUTION    RADIAL
 FREQUENCY          3105.02         C  3 -- H 18         +28.2% ( 52.7%)     98.0%
 TRANSITION DIPOLE   0.0757         C  4 -- H 21         +27.7% ( 52.2%)     98.0%
 TRAVEL (Ang.)       0.2970         C  3 -- H 17         +21.0% ( 45.5%)     96.1%
 REDUCED MASS        0.2463         C  4 -- H 22         +20.9% ( 45.3%)     96.1%
 EFFECTIVE MASS      1.2892
 FORCE CONSTANT      1.3989

 VIBRATION         95   95A           ATOM PAIR      ENERGY CONTRIBUTION    RADIAL
 FREQUENCY          3171.91         C  9 -- H 28         +41.6% ( 62.1%)     98.2%
 TRANSITION DIPOLE   0.0643         C  9 -- H 29         +33.9% ( 56.1%)     97.1%
 TRAVEL (Ang.)       0.2519         C  9 -- H 27         +23.3% ( 46.5%)     93.8%
 REDUCED MASS        0.3350         C  6 -- H 20          +0.7% (  8.2%)     99.4%
 EFFECTIVE MASS      1.1421
 FORCE CONSTANT      1.9859

 VIBRATION         96   96A           ATOM PAIR      ENERGY CONTRIBUTION    RADIAL
 FREQUENCY          3181.00         C 10 -- H 32         +36.5% ( 58.1%)     97.6%
 TRANSITION DIPOLE   0.0147         C 10 -- H 31         +31.8% ( 54.2%)     96.9%
 TRAVEL (Ang.)       0.2541         C 10 -- H 30         +31.4% ( 53.9%)     96.8%
 REDUCED MASS        0.3282         C  6 -- C 10          +0.3% (  5.1%)     99.6%
 EFFECTIVE MASS      1.1368
 FORCE CONSTANT      1.9569

      SYMMETRY NUMBER FOR POINT-GROUP C1  =  1


          SYSTEM IS A GROUND STATE



 InChI=1S/C12H22/c1-3-5-6-7-8-12-10-9-11(12)4-2/h6-7,11-12H,3-5,8-10H2,1-2H3


          MOLECULE IS NOT LINEAR

          THERE ARE 96 GENUINE VIBRATIONS IN THIS SYSTEM
          THIS THERMODYNAMICS CALCULATION IS LIMITED TO
          MOLECULES WHICH HAVE NO INTERNAL ROTATIONS




                    CALCULATED THERMODYNAMIC PROPERTIES
                                          *
   TEMP. (K)   PARTITION FUNCTION   H.O.F.    ENTHALPY  HEAT CAPACITY ENTROPY
                                   KCAL/MOL   CAL/MOLE    CAL/K/MOL  CAL/K/MOL


 298.00  VIB.     0.9802D+05                  7098.7072    46.8055    46.6601
         ROT.     0.1712D+07                   888.2803     2.9808    31.5039
         INT.     0.1679D+12                  7986.9875    49.7863    78.1640
         TRA.     0.2073D+28                  1480.4672     4.9680    41.2320
         TOT.                      -24.250    9467.4547    54.7543   119.3960

 200.00  VIB.     0.1793D+04                  3327.8116    30.8944    31.5259
         ROT.     0.9415D+06                   596.1613     2.9808    30.3152
         INT.     0.1688D+10                  3923.9729    33.8752    61.8412
         TRA.     0.1140D+28                   993.6021     4.9680    39.2509
         TOT.                      -28.800    4917.5750    38.8432   101.0920

 210.00  VIB.     0.2720D+04                  3643.7324    32.2985    33.0671
         ROT.     0.1013D+07                   625.9693     2.9808    30.4607
         INT.     0.2756D+10                  4269.7018    35.2793    63.5277
         TRA.     0.1227D+28                  1043.2822     4.9680    39.4932
         TOT.                      -28.404    5312.9840    40.2473   103.0210

 220.00  VIB.     0.4118D+04                  3973.9589    33.7559    34.6030
         ROT.     0.1086D+07                   655.7774     2.9808    30.5993
         INT.     0.4472D+10                  4629.7363    36.7367    65.2023
         TRA.     0.1315D+28                  1092.9623     4.9680    39.7244
         TOT.                      -27.995    5722.6986    41.7047   104.9267

 230.00  VIB.     0.6217D+04                  4319.0325    35.2680    36.1367
         ROT.     0.1161D+07                   685.5855     2.9808    30.7318
         INT.     0.7218D+10                  5004.6179    38.2488    66.8685
         TRA.     0.1406D+28                  1142.6424     4.9680    39.9452
         TOT.                      -27.570    6147.2604    43.2168   106.8137

 240.00  VIB.     0.9366D+04                  4679.4982    36.8341    37.6706
         ROT.     0.1238D+07                   715.3935     2.9808    30.8587
         INT.     0.1159D+11                  5394.8918    39.8149    68.5293
         TRA.     0.1499D+28                  1192.3226     4.9680    40.1566
         TOT.                      -27.130    6587.2143    44.7829   108.6859

 250.00  VIB.     0.1408D+05                  5055.8866    38.4520    39.2068
         ROT.     0.1316D+07                   745.2016     2.9808    30.9804
         INT.     0.1853D+11                  5801.0882    41.4328    70.1872
         TRA.     0.1593D+28                  1242.0027     4.9680    40.3594
         TOT.                      -26.674    7043.0909    46.4008   110.5467

 260.00  VIB.     0.2114D+05                  5448.6995    40.1183    40.7473
         ROT.     0.1396D+07                   775.0097     2.9808    31.0973
         INT.     0.2951D+11                  6223.7091    43.0991    71.8446
         TRA.     0.1690D+28                  1291.6828     4.9680    40.5543
         TOT.                      -26.202    7515.3919    48.0671   112.3988

 270.00  VIB.     0.3170D+05                  5858.3985    41.8284    42.2933
         ROT.     0.1477D+07                   804.8177     2.9808    31.2098
         INT.     0.4681D+11                  6663.2163    44.8093    73.5031
         TRA.     0.1788D+28                  1341.3629     4.9680    40.7418
         TOT.                      -25.713    8004.5791    49.7773   114.2448

 280.00  VIB.     0.4747D+05                  6285.3977    43.5774    43.8460
         ROT.     0.1560D+07                   834.6258     2.9808    31.3182
         INT.     0.7404D+11                  7120.0235    46.5582    75.1642
         TRA.     0.1888D+28                  1391.0430     4.9680    40.9225
         TOT.                      -25.206    8511.0665    51.5262   116.0866

 290.00  VIB.     0.7104D+05                  6730.0575    45.3596    45.4062
         ROT.     0.1644D+07                   864.4339     2.9808    31.4228
         INT.     0.1168D+12                  7594.4913    48.3404    76.8290
         TRA.     0.1990D+28                  1440.7231     4.9680    41.0968
         TOT.                      -24.682    9035.2144    53.3084   117.9258

 300.00  VIB.     0.1062D+06                  7192.6819    47.1694    46.9744
         ROT.     0.1730D+07                   894.2419     2.9808    31.5239
         INT.     0.1837D+12                  8086.9238    50.1502    78.4982
         TRA.     0.2094D+28                  1490.4032     4.9680    41.2652
         TOT.                      -24.140    9577.3270    55.1182   119.7634

 310.00  VIB.     0.1588D+06                  7673.5177    49.0009    48.5508
         ROT.     0.1817D+07                   924.0500     2.9808    31.6216
         INT.     0.2885D+12                  8597.5677    51.9817    80.1724
         TRA.     0.2200D+28                  1540.0833     4.9680    41.4281
         TOT.                      -23.580   10137.6510    56.9498   121.6006

 320.00  VIB.     0.2373D+06                  8172.7544    50.8486    50.1357
         ROT.     0.1905D+07                   953.8580     2.9808    31.7162
         INT.     0.4522D+12                  9126.6125    53.8294    81.8519
         TRA.     0.2307D+28                  1589.7634     4.9680    41.5859
         TOT.                      -23.001   10716.3759    58.7975   123.4378

 330.00  VIB.     0.3546D+06                  8690.5263    52.7071    51.7288
         ROT.     0.1995D+07                   983.6661     2.9808    31.8080
         INT.     0.7076D+12                  9674.1925    55.6879    83.5368
         TRA.     0.2416D+28                  1639.4435     4.9680    41.7387
         TOT.                      -22.404   11313.6360    60.6559   125.2755

 340.00  VIB.     0.5298D+06                  9226.9151    54.5712    53.3300
         ROT.     0.2087D+07                  1013.4742     2.9808    31.8969
         INT.     0.1106D+13                 10240.3893    57.5520    85.2269
         TRA.     0.2527D+28                  1689.1236     4.9680    41.8870
         TOT.                      -21.788   11929.5129    62.5200   127.1139

 350.00  VIB.     0.7918D+06                  9781.9530    56.4362    54.9387
         ROT.     0.2180D+07                  1043.2822     2.9808    31.9833
         INT.     0.1726D+13                 10825.2352    59.4170    86.9221
         TRA.     0.2639D+28                  1738.8037     4.9680    42.0310
         TOT.                      -21.153   12564.0389    64.3850   128.9531

 360.00  VIB.     0.1184D+07                 10355.6267    58.2977    56.5547
         ROT.     0.2274D+07                  1073.0903     2.9808    32.0673
         INT.     0.2691D+13                 11428.7170    61.2785    88.6220
         TRA.     0.2753D+28                  1788.4838     4.9680    42.1710
         TOT.                      -20.500   13217.2008    66.2465   130.7930

 370.00  VIB.     0.1770D+07                 10947.8814    60.1517    58.1773
         ROT.     0.2369D+07                  1102.8984     2.9808    32.1490
         INT.     0.4192D+13                 12050.7798    63.1325    90.3263
         TRA.     0.2869D+28                  1838.1639     4.9680    42.3071
         TOT.                      -19.828   13888.9437    68.1006   132.6334

 380.00  VIB.     0.2647D+07                 11558.6249    61.9949    59.8060
         ROT.     0.2466D+07                  1132.7064     2.9808    32.2285
         INT.     0.6526D+13                 12691.3313    64.9757    92.0344
         TRA.     0.2986D+28                  1887.8440     4.9680    42.4396
         TOT.                      -19.138   14579.1753    69.9437   134.4740

 390.00  VIB.     0.3961D+07                 12187.7316    63.8239    61.4400
         ROT.     0.2564D+07                  1162.5145     2.9808    32.3059
         INT.     0.1015D+14                 13350.2461    66.8047    93.7459
         TRA.     0.3104D+28                  1937.5242     4.9680    42.5687
         TOT.                      -18.430   15287.7703    71.7727   136.3146

 400.00  VIB.     0.5929D+07                 12835.0470    65.6362    63.0787
         ROT.     0.2663D+07                  1192.3226     2.9808    32.3814
         INT.     0.1579D+14                 14027.3696    68.6170    95.4601
         TRA.     0.3224D+28                  1987.2043     4.9680    42.6944
         TOT.                      -17.703   16014.5739    73.5850   138.1546

   *: NOTE: HEATS OF FORMATION ARE RELATIVE TO THE
            ELEMENTS IN THEIR STANDARD STATE AT 298K
              (=  Standard Enthalpy of Formation).

            Hvib:  Zero-point energy is not included.
                   frequencies of less than zero cm-1 are not included.
            Hrot = (3/2)RT
            Htra = (3/2)RT + pV = (5/2)RT

            Heat capacity is Cp, not Cv

          For more information, see: HTTP://OpenMOPAC.net/Manual/thermochemistry.html


           FORCE CONSTANT IN CARTESIAN COORDINATES (Millidynes/A)

    ATOM   CHEMICAL       X               Y               Z
   NUMBER   SYMBOL  FORCE CONSTANT  FORCE CONSTANT  FORCE CONSTANT

      1       C        7.725882        8.176188        8.656170
      2       C        7.694547        8.225212        8.599222
      3       C        8.102650        7.855659        8.592861
      4       C        8.100797        7.872308        8.591714
      5       C        8.279679        8.491082        8.298031
      6       C        8.022002        8.533388        8.074191
      7       C        8.432589        9.047834        8.060913
      8       C        8.287458        9.183280        7.828319
      9       C        8.072666        8.288653        8.336592
     10       C        8.233609        8.303624        8.386266
     11       C       11.383219       12.068359        3.767412
     12       C       11.523508       11.758024        3.893206
     13       H        1.353343        1.343288        3.554275
     14       H        1.355464        1.248534        3.634196
     15       H        4.411617        1.248834        0.704628
     16       H        1.747054        1.026069        3.620343
     17       H        1.349504        1.481161        3.785650
     18       H        1.577026        1.467624        3.586798
     19       H        2.755502        0.965760        2.681689
     20       H        3.353750        2.263105        0.812344
     21       H        1.579557        1.567388        3.483797
     22       H        1.351503        1.375705        3.887116
     23       H        1.364326        1.172824        3.803362
     24       H        4.734200        0.940785        0.690052
     25       H        3.773447        1.837418        0.776904
     26       H        2.566381        1.125106        2.685305
     27       H        4.556426        1.539625        0.694341
     28       H        1.675234        1.380929        3.722849
     29       H        1.823498        1.118481        3.816021
     30       H        3.046246        1.025778        2.701539
     31       H        3.636912        2.369717        0.762476
     32       H        1.250782        0.822600        4.716299
     33       H        4.281071        1.238930        0.660190
     34       H        4.353607        1.210699        0.667827

 **********************
 *                    *
 * JOB ENDED NORMALLY *
 *                    *
 **********************



 TOTAL JOB TIME:             9.21 SECONDS

 == MOPAC DONE ==
