 *******************************************************************************
 **                                                                           **
 **                              MOPAC v23.1.2                                **
 **                                                                           **
 *******************************************************************************
 **          Digital Object Identifier (DOI): 10.5281/zenodo.6511958          **
 **    Visit the DOI location for information on how to cite this program.    **
 *******************************************************************************

                              PM3 CALCULATION RESULTS

 *******************************************************************************
 *  CALCULATION DONE: (MAX THREADS = 1)              Tue Jun  3 16:36:02 2025  *
 *  PM3        - The PM3 Hamiltonian to be used
 *  PRECISE    - TIGHTER CRITERIA TO BE USED
 *  NOSYM      - POINT-GROUP SYMMETRY SET TO C1
 *  THREADS=1  - MULTI-THREADING NOT USED
 *  T=         - A TIME OF 172800.0 SECONDS REQUESTED
 *  DUMP=N     - RESTART FILE WRITTEN EVERY 7200.0 SECONDS REQUESTED
 *******************************************************************************
pm3  precise nosym THREADS=1
 InChI=1S/C12H20/c1-4-7-12-9-6-8-11(5-2)10(12)3/h4,6-8,10-12H,5,9H2,1-3H3

   ATOM   CHEMICAL          X               Y               Z
  NUMBER   SYMBOL      (ANGSTROMS)     (ANGSTROMS)     (ANGSTROMS)

     1       C         -0.14520000  *  -0.44140000  *   0.65390000  *
     2       C          1.37060000  *  -0.79240000  *   0.64260000  *
     3       C         -0.52990000  *   0.33030000  *  -0.63900000  *
     4       C          2.23910000  *   0.43760000  *   1.00150000  *
     5       C         -0.21620000  *  -0.50410000  *  -1.89580000  *
     6       C         -0.99600000  *  -1.71120000  *   0.86370000  *
     7       C          3.68820000  *   0.06170000  *   1.31600000  *
     8       C         -3.84890000  *   2.15330000  *   0.19950000  *
     9       C          1.80540000  *  -1.37240000  *  -0.69020000  *
    10       C         -1.97810000  *   0.77090000  *  -0.63330000  *
    11       C          1.13970000  *  -1.16080000  *  -1.83820000  *
    12       C         -2.41580000  *   1.72090000  *   0.20550000  *
    13       H         -0.34950000  *   0.21530000  *   1.52860000  *
    14       H          1.55260000  *  -1.56460000  *   1.42330000  *
    15       H          0.08720000  *   1.25380000  *  -0.69790000  *
    16       H          2.23540000  *   1.17420000  *   0.16960000  *
    17       H          1.82160000  *   0.94000000  *   1.90100000  *
    18       H         -0.97820000  *  -1.30160000  *  -2.03230000  *
    19       H         -0.25560000  *   0.15340000  *  -2.79100000  *
    20       H          4.19190000  *  -0.34980000  *   0.41680000  *
    21       H          4.24290000  *   0.96760000  *   1.63970000  *
    22       H          3.72650000  *  -0.68640000  *   2.13600000  *
    23       H         -0.75190000  *  -2.17130000  *   1.84480000  *
    24       H         -2.07810000  *  -1.46410000  *   0.87150000  *
    25       H         -0.80370000  *  -2.46320000  *   0.07040000  *
    26       H         -4.50560000  *   1.28990000  *   0.43750000  *
    27       H         -4.11820000  *   2.55910000  *  -0.79850000  *
    28       H         -4.00490000  *   2.94410000  *   0.96270000  *
    29       H          1.53650000  *  -1.58790000  *  -2.75420000  *
    30       H          2.74390000  *  -1.91690000  *  -0.73260000  *
    31       H         -1.72910000  *   2.19220000  *   0.90330000  *
    32       H         -2.67620000  *   0.32360000  *  -1.33730000  *



          CARTESIAN COORDINATES 

    NO.       ATOM           X           Y           Z

     1         C         -0.1452     -0.4414      0.6539
     2         C          1.3706     -0.7924      0.6426
     3         C         -0.5299      0.3303     -0.6390
     4         C          2.2391      0.4376      1.0015
     5         C         -0.2162     -0.5041     -1.8958
     6         C         -0.9960     -1.7112      0.8637
     7         C          3.6882      0.0617      1.3160
     8         C         -3.8489      2.1533      0.1995
     9         C          1.8054     -1.3724     -0.6902
    10         C         -1.9781      0.7709     -0.6333
    11         C          1.1397     -1.1608     -1.8382
    12         C         -2.4158      1.7209      0.2055
    13         H         -0.3495      0.2153      1.5286
    14         H          1.5526     -1.5646      1.4233
    15         H          0.0872      1.2538     -0.6979
    16         H          2.2354      1.1742      0.1696
    17         H          1.8216      0.9400      1.9010
    18         H         -0.9782     -1.3016     -2.0323
    19         H         -0.2556      0.1534     -2.7910
    20         H          4.1919     -0.3498      0.4168
    21         H          4.2429      0.9676      1.6397
    22         H          3.7265     -0.6864      2.1360
    23         H         -0.7519     -2.1713      1.8448
    24         H         -2.0781     -1.4641      0.8715
    25         H         -0.8037     -2.4632      0.0704
    26         H         -4.5056      1.2899      0.4375
    27         H         -4.1182      2.5591     -0.7985
    28         H         -4.0049      2.9441      0.9627
    29         H          1.5365     -1.5879     -2.7542
    30         H          2.7439     -1.9169     -0.7326
    31         H         -1.7291      2.1922      0.9033
    32         H         -2.6762      0.3236     -1.3373

  H: (PM3): J. J. P. STEWART, J. COMP. CHEM. 10, 209 (1989).
  C: (PM3): J. J. P. STEWART, J. COMP. CHEM. 10, 209 (1989).

           Empirical Formula: C12 H20  =    32 atoms



      MOLECULAR POINT GROUP   :   C1  


      RHF CALCULATION, NO. OF DOUBLY OCCUPIED LEVELS = 34


          Geometry optimization using EF

          DIAGONAL MATRIX USED AS START HESSIAN

 CYCLE:     1 TIME:   0.016 TIME LEFT:  2.00D  GRAD.:    76.530 HEAT: -3.359701
 CYCLE:     2 TIME:   0.023 TIME LEFT:  2.00D  GRAD.:    59.935 HEAT: -5.078905
 CYCLE:     3 TIME:   0.020 TIME LEFT:  2.00D  GRAD.:    44.990 HEAT: -5.779706
 CYCLE:     4 TIME:   0.012 TIME LEFT:  2.00D  GRAD.:    28.632 HEAT: -6.290593
 CYCLE:     5 TIME:   0.020 TIME LEFT:  2.00D  GRAD.:    39.454 HEAT: -6.423292
 CYCLE:     6 TIME:   0.012 TIME LEFT:  2.00D  GRAD.:    32.885 HEAT: -6.571546
 CYCLE:     7 TIME:   0.008 TIME LEFT:  2.00D  GRAD.:    25.801 HEAT: -6.738124
 CYCLE:     8 TIME:   0.012 TIME LEFT:  2.00D  GRAD.:    21.859 HEAT: -6.862953
 CYCLE:     9 TIME:   0.012 TIME LEFT:  2.00D  GRAD.:    27.466 HEAT: -6.886681
 CYCLE:    10 TIME:   0.012 TIME LEFT:  2.00D  GRAD.:    21.327 HEAT: -6.994103
 CYCLE:    11 TIME:   0.020 TIME LEFT:  2.00D  GRAD.:    10.283 HEAT: -7.105070
 CYCLE:    12 TIME:   0.016 TIME LEFT:  2.00D  GRAD.:     8.118 HEAT: -7.135696
 CYCLE:    13 TIME:   0.012 TIME LEFT:  2.00D  GRAD.:     9.104 HEAT: -7.168649
 CYCLE:    14 TIME:   0.012 TIME LEFT:  2.00D  GRAD.:    11.037 HEAT: -7.203945
 CYCLE:    15 TIME:   0.012 TIME LEFT:  2.00D  GRAD.:    15.320 HEAT: -7.205473
 CYCLE:    16 TIME:   0.012 TIME LEFT:  2.00D  GRAD.:    16.108 HEAT: -7.228390
 CYCLE:    17 TIME:   0.016 TIME LEFT:  2.00D  GRAD.:     7.926 HEAT: -7.281253
 CYCLE:    18 TIME:   0.016 TIME LEFT:  2.00D  GRAD.:     7.518 HEAT: -7.290981
 CYCLE:    19 TIME:   0.012 TIME LEFT:  2.00D  GRAD.:     6.807 HEAT: -7.298311
 CYCLE:    20 TIME:   0.012 TIME LEFT:  2.00D  GRAD.:     6.879 HEAT: -7.307812
 CYCLE:    21 TIME:   0.012 TIME LEFT:  2.00D  GRAD.:     5.796 HEAT: -7.315187
 CYCLE:    22 TIME:   0.012 TIME LEFT:  2.00D  GRAD.:     5.727 HEAT: -7.323607
 CYCLE:    23 TIME:   0.008 TIME LEFT:  2.00D  GRAD.:     5.653 HEAT: -7.329464
 CYCLE:    24 TIME:   0.020 TIME LEFT:  2.00D  GRAD.:     4.797 HEAT: -7.336751
 CYCLE:    25 TIME:   0.008 TIME LEFT:  2.00D  GRAD.:     2.890 HEAT: -7.343233
 CYCLE:    26 TIME:   0.012 TIME LEFT:  2.00D  GRAD.:     4.639 HEAT: -7.351411
 CYCLE:    27 TIME:   0.012 TIME LEFT:  2.00D  GRAD.:     4.626 HEAT: -7.358688
 CYCLE:    28 TIME:   0.012 TIME LEFT:  2.00D  GRAD.:     3.931 HEAT: -7.366112
 CYCLE:    29 TIME:   0.008 TIME LEFT:  2.00D  GRAD.:     4.775 HEAT: -7.371927
 CYCLE:    30 TIME:   0.012 TIME LEFT:  2.00D  GRAD.:     2.814 HEAT: -7.380734
 CYCLE:    31 TIME:   0.012 TIME LEFT:  2.00D  GRAD.:     5.320 HEAT: -7.385049
 CYCLE:    32 TIME:   0.008 TIME LEFT:  2.00D  GRAD.:     2.991 HEAT: -7.394687
 CYCLE:    33 TIME:   0.016 TIME LEFT:  2.00D  GRAD.:     2.838 HEAT: -7.399070
 CYCLE:    34 TIME:   0.008 TIME LEFT:  2.00D  GRAD.:     3.525 HEAT: -7.403018
 CYCLE:    35 TIME:   0.012 TIME LEFT:  2.00D  GRAD.:     2.708 HEAT: -7.410022
 CYCLE:    36 TIME:   0.012 TIME LEFT:  2.00D  GRAD.:     2.720 HEAT: -7.416376
 CYCLE:    37 TIME:   0.012 TIME LEFT:  2.00D  GRAD.:     4.036 HEAT: -7.423653
 CYCLE:    38 TIME:   0.008 TIME LEFT:  2.00D  GRAD.:     3.393 HEAT: -7.434531
 CYCLE:    39 TIME:   0.012 TIME LEFT:  2.00D  GRAD.:     3.652 HEAT: -7.448174
 CYCLE:    40 TIME:   0.012 TIME LEFT:  2.00D  GRAD.:     3.925 HEAT: -7.465183
 CYCLE:    41 TIME:   0.012 TIME LEFT:  2.00D  GRAD.:     6.466 HEAT: -7.473063
 CYCLE:    42 TIME:   0.008 TIME LEFT:  2.00D  GRAD.:     3.733 HEAT: -7.493654
 CYCLE:    43 TIME:   0.012 TIME LEFT:  2.00D  GRAD.:     6.136 HEAT: -7.500254
 CYCLE:    44 TIME:   0.012 TIME LEFT:  2.00D  GRAD.:     4.188 HEAT: -7.524269
 CYCLE:    45 TIME:   0.012 TIME LEFT:  2.00D  GRAD.:     4.855 HEAT: -7.544944
 CYCLE:    46 TIME:   0.012 TIME LEFT:  2.00D  GRAD.:     4.829 HEAT: -7.565122
 CYCLE:    47 TIME:   0.012 TIME LEFT:  2.00D  GRAD.:     4.350 HEAT: -7.584352
 CYCLE:    48 TIME:   0.012 TIME LEFT:  2.00D  GRAD.:     4.921 HEAT: -7.600335
 CYCLE:    49 TIME:   0.012 TIME LEFT:  2.00D  GRAD.:     4.818 HEAT: -7.622861
 CYCLE:    50 TIME:   0.012 TIME LEFT:  2.00D  GRAD.:     4.127 HEAT: -7.648805
 CYCLE:    51 TIME:   0.012 TIME LEFT:  2.00D  GRAD.:     3.993 HEAT: -7.688175
 CYCLE:    52 TIME:   0.012 TIME LEFT:  2.00D  GRAD.:     6.969 HEAT: -7.708030
 CYCLE:    53 TIME:   0.012 TIME LEFT:  2.00D  GRAD.:     7.000 HEAT: -7.710325
 CYCLE:    54 TIME:   0.012 TIME LEFT:  2.00D  GRAD.:     4.322 HEAT: -7.747909
 CYCLE:    55 TIME:   0.008 TIME LEFT:  2.00D  GRAD.:     2.974 HEAT: -7.763855
 CYCLE:    56 TIME:   0.012 TIME LEFT:  2.00D  GRAD.:     2.851 HEAT: -7.783465
 CYCLE:    57 TIME:   0.012 TIME LEFT:  2.00D  GRAD.:     3.995 HEAT: -7.814561
 CYCLE:    58 TIME:   0.012 TIME LEFT:  2.00D  GRAD.:     4.181 HEAT: -7.832571
 CYCLE:    59 TIME:   0.012 TIME LEFT:  2.00D  GRAD.:     4.280 HEAT: -7.865140
 CYCLE:    60 TIME:   0.012 TIME LEFT:  2.00D  GRAD.:     6.733 HEAT: -7.902164
 CYCLE:    61 TIME:   0.012 TIME LEFT:  2.00D  GRAD.:     9.312 HEAT: -7.914373
 CYCLE:    62 TIME:   0.012 TIME LEFT:  2.00D  GRAD.:     4.386 HEAT: -7.970444
 CYCLE:    63 TIME:   0.012 TIME LEFT:  2.00D  GRAD.:     5.094 HEAT: -8.008132
 CYCLE:    64 TIME:   0.012 TIME LEFT:  2.00D  GRAD.:     5.868 HEAT: -8.059547
 CYCLE:    65 TIME:   0.012 TIME LEFT:  2.00D  GRAD.:     5.327 HEAT: -8.114301
 CYCLE:    66 TIME:   0.008 TIME LEFT:  2.00D  GRAD.:     4.840 HEAT: -8.154527
 CYCLE:    67 TIME:   0.012 TIME LEFT:  2.00D  GRAD.:     4.260 HEAT: -8.194811
 CYCLE:    68 TIME:   0.012 TIME LEFT:  2.00D  GRAD.:     6.709 HEAT: -8.201166
 CYCLE:    69 TIME:   0.012 TIME LEFT:  2.00D  GRAD.:     4.107 HEAT: -8.237325
 CYCLE:    70 TIME:   0.012 TIME LEFT:  2.00D  GRAD.:     2.477 HEAT: -8.249614
 CYCLE:    71 TIME:   0.012 TIME LEFT:  2.00D  GRAD.:     2.288 HEAT: -8.265776
 CYCLE:    72 TIME:   0.008 TIME LEFT:  2.00D  GRAD.:     2.568 HEAT: -8.277311
 CYCLE:    73 TIME:   0.012 TIME LEFT:  2.00D  GRAD.:     2.154 HEAT: -8.287400
 CYCLE:    74 TIME:   0.012 TIME LEFT:  2.00D  GRAD.:     1.573 HEAT: -8.293742
 CYCLE:    75 TIME:   0.012 TIME LEFT:  2.00D  GRAD.:     1.430 HEAT: -8.298049
 CYCLE:    76 TIME:   0.012 TIME LEFT:  2.00D  GRAD.:     1.483 HEAT: -8.302904
 CYCLE:    77 TIME:   0.012 TIME LEFT:  2.00D  GRAD.:     1.441 HEAT: -8.308303
 CYCLE:    78 TIME:   0.012 TIME LEFT:  2.00D  GRAD.:     1.167 HEAT: -8.311903
 CYCLE:    79 TIME:   0.008 TIME LEFT:  2.00D  GRAD.:     0.944 HEAT: -8.313856
 CYCLE:    80 TIME:   0.012 TIME LEFT:  2.00D  GRAD.:     0.939 HEAT: -8.315658
 CYCLE:    81 TIME:   0.012 TIME LEFT:  2.00D  GRAD.:     1.033 HEAT: -8.318178
 CYCLE:    82 TIME:   0.012 TIME LEFT:  2.00D  GRAD.:     0.972 HEAT: -8.320644
 CYCLE:    83 TIME:   0.012 TIME LEFT:  2.00D  GRAD.:     0.820 HEAT: -8.322492
 CYCLE:    84 TIME:   0.012 TIME LEFT:  2.00D  GRAD.:     0.558 HEAT: -8.323200
 CYCLE:    85 TIME:   0.008 TIME LEFT:  2.00D  GRAD.:     0.538 HEAT: -8.324344
 CYCLE:    86 TIME:   0.012 TIME LEFT:  2.00D  GRAD.:     0.571 HEAT: -8.325114
 CYCLE:    87 TIME:   0.012 TIME LEFT:  2.00D  GRAD.:     0.614 HEAT: -8.326246
 CYCLE:    88 TIME:   0.012 TIME LEFT:  2.00D  GRAD.:     0.639 HEAT: -8.326979
 CYCLE:    89 TIME:   0.012 TIME LEFT:  2.00D  GRAD.:     0.667 HEAT: -8.327945
 CYCLE:    90 TIME:   0.012 TIME LEFT:  2.00D  GRAD.:     0.826 HEAT: -8.329481
 CYCLE:    91 TIME:   0.008 TIME LEFT:  2.00D  GRAD.:     1.100 HEAT: -8.331340
 CYCLE:    92 TIME:   0.012 TIME LEFT:  2.00D  GRAD.:     1.148 HEAT: -8.333680
 CYCLE:    93 TIME:   0.012 TIME LEFT:  2.00D  GRAD.:     1.294 HEAT: -8.336196
 CYCLE:    94 TIME:   0.012 TIME LEFT:  2.00D  GRAD.:     0.784 HEAT: -8.337400
 CYCLE:    95 TIME:   0.012 TIME LEFT:  2.00D  GRAD.:     0.749 HEAT: -8.338781
 CYCLE:    96 TIME:   0.008 TIME LEFT:  2.00D  GRAD.:     0.631 HEAT: -8.339465
 CYCLE:    97 TIME:   0.012 TIME LEFT:  2.00D  GRAD.:     0.572 HEAT: -8.340430
 CYCLE:    98 TIME:   0.012 TIME LEFT:  2.00D  GRAD.:     0.498 HEAT: -8.341048
 CYCLE:    99 TIME:   0.012 TIME LEFT:  2.00D  GRAD.:     0.464 HEAT: -8.341545
 CYCLE:   100 TIME:   0.012 TIME LEFT:  2.00D  GRAD.:     0.453 HEAT: -8.341930
 CYCLE:   101 TIME:   0.012 TIME LEFT:  2.00D  GRAD.:     0.435 HEAT: -8.342297
 CYCLE:   102 TIME:   0.012 TIME LEFT:  2.00D  GRAD.:     0.342 HEAT: -8.342590
 CYCLE:   103 TIME:   0.008 TIME LEFT:  2.00D  GRAD.:     0.286 HEAT: -8.342813
 CYCLE:   104 TIME:   0.016 TIME LEFT:  2.00D  GRAD.:     0.295 HEAT: -8.342984
 CYCLE:   105 TIME:   0.008 TIME LEFT:  2.00D  GRAD.:     0.299 HEAT: -8.343150
 CYCLE:   106 TIME:   0.012 TIME LEFT:  2.00D  GRAD.:     0.281 HEAT: -8.343322
 CYCLE:   107 TIME:   0.012 TIME LEFT:  2.00D  GRAD.:     0.239 HEAT: -8.343491
 CYCLE:   108 TIME:   0.012 TIME LEFT:  2.00D  GRAD.:     0.214 HEAT: -8.343628
 CYCLE:   109 TIME:   0.008 TIME LEFT:  2.00D  GRAD.:     0.207 HEAT: -8.343738
 CYCLE:   110 TIME:   0.012 TIME LEFT:  2.00D  GRAD.:     0.194 HEAT: -8.343835
 CYCLE:   111 TIME:   0.012 TIME LEFT:  2.00D  GRAD.:     0.161 HEAT: -8.343920
 CYCLE:   112 TIME:   0.008 TIME LEFT:  2.00D  GRAD.:     0.161 HEAT: -8.344019
 CYCLE:   113 TIME:   0.012 TIME LEFT:  2.00D  GRAD.:     0.177 HEAT: -8.344104
 CYCLE:   114 TIME:   0.012 TIME LEFT:  2.00D  GRAD.:     0.187 HEAT: -8.344183
 CYCLE:   115 TIME:   0.012 TIME LEFT:  2.00D  GRAD.:     0.188 HEAT: -8.344256
 CYCLE:   116 TIME:   0.012 TIME LEFT:  2.00D  GRAD.:     0.158 HEAT: -8.344318
 CYCLE:   117 TIME:   0.008 TIME LEFT:  2.00D  GRAD.:     0.171 HEAT: -8.344401
 CYCLE:   118 TIME:   0.012 TIME LEFT:  2.00D  GRAD.:     0.158 HEAT: -8.344456
 CYCLE:   119 TIME:   0.012 TIME LEFT:  2.00D  GRAD.:     0.125 HEAT: -8.344532
 CYCLE:   120 TIME:   0.012 TIME LEFT:  2.00D  GRAD.:     0.192 HEAT: -8.344585
 CYCLE:   121 TIME:   0.012 TIME LEFT:  2.00D  GRAD.:     0.161 HEAT: -8.344625
 CYCLE:   122 TIME:   0.012 TIME LEFT:  2.00D  GRAD.:     0.216 HEAT: -8.344676
 CYCLE:   123 TIME:   0.012 TIME LEFT:  2.00D  GRAD.:     0.147 HEAT: -8.344738
 CYCLE:   124 TIME:   0.008 TIME LEFT:  2.00D  GRAD.:     0.110 HEAT: -8.344801
 CYCLE:   125 TIME:   0.012 TIME LEFT:  2.00D  GRAD.:     0.146 HEAT: -8.344895
 CYCLE:   126 TIME:   0.012 TIME LEFT:  2.00D  GRAD.:     0.148 HEAT: -8.344942
 CYCLE:   127 TIME:   0.012 TIME LEFT:  2.00D  GRAD.:     0.098 HEAT: -8.344988
 CYCLE:   128 TIME:   0.012 TIME LEFT:  2.00D  GRAD.:     0.140 HEAT: -8.345030
 CYCLE:   129 TIME:   0.012 TIME LEFT:  2.00D  GRAD.:     0.122 HEAT: -8.345062
 CYCLE:   130 TIME:   0.012 TIME LEFT:  2.00D  GRAD.:     0.114 HEAT: -8.345107
 CYCLE:   131 TIME:   0.012 TIME LEFT:  2.00D  GRAD.:     0.106 HEAT: -8.345138
 CYCLE:   132 TIME:   0.008 TIME LEFT:  2.00D  GRAD.:     0.069 HEAT: -8.345163
 CYCLE:   133 TIME:   0.012 TIME LEFT:  2.00D  GRAD.:     0.083 HEAT: -8.345180
 CYCLE:   134 TIME:   0.008 TIME LEFT:  2.00D  GRAD.:     0.077 HEAT: -8.345195
 CYCLE:   135 TIME:   0.012 TIME LEFT:  2.00D  GRAD.:     0.093 HEAT: -8.345218
 CYCLE:   136 TIME:   0.008 TIME LEFT:  2.00D  GRAD.:     0.083 HEAT: -8.345230
 CYCLE:   137 TIME:   0.012 TIME LEFT:  2.00D  GRAD.:     0.216 HEAT: -8.345230
 CYCLE:   138 TIME:   0.012 TIME LEFT:  2.00D  GRAD.:     0.103 HEAT: -8.345288
 CYCLE:   139 TIME:   0.012 TIME LEFT:  2.00D  GRAD.:     0.070 HEAT: -8.345314
 CYCLE:   140 TIME:   0.008 TIME LEFT:  2.00D  GRAD.:     0.066 HEAT: -8.345338
 CYCLE:   141 TIME:   0.012 TIME LEFT:  2.00D  GRAD.:     0.082 HEAT: -8.345373
 CYCLE:   142 TIME:   0.008 TIME LEFT:  2.00D  GRAD.:     0.056 HEAT: -8.345399
 CYCLE:   143 TIME:   0.012 TIME LEFT:  2.00D  GRAD.:     0.073 HEAT: -8.345426
 CYCLE:   144 TIME:   0.012 TIME LEFT:  2.00D  GRAD.:     0.072 HEAT: -8.345436
 CYCLE:   145 TIME:   0.012 TIME LEFT:  2.00D  GRAD.:     0.046 HEAT: -8.345450

     GRADIENT =  0.04569 IS LESS THAN CUTOFF =  0.05000



 -------------------------------------------------------------------------------
 pm3  precise nosym THREADS=1
 InChI=1S/C12H20/c1-4-7-12-9-6-8-11(5-2)10(12)3/h4,6-8,10-12H,5,9H2,1-3H3



     GEOMETRY OPTIMISED USING EIGENVECTOR FOLLOWING (EF).     
     SCF FIELD WAS ACHIEVED                                   


                              PM3 CALCULATION
                                                       MOPAC v23.1.2 MacOS
                                                       Tue Jun  3 16:36:03 2025




          FINAL HEAT OF FORMATION =         -8.34545 KCAL/MOL =     -34.91736 KJ/MOL


          COSMO AREA              =        227.50 SQUARE ANGSTROMS
          COSMO VOLUME            =        244.59 CUBIC ANGSTROMS

          GRADIENT NORM           =          0.04569          =       0.00808 PER ATOM
          IONIZATION POTENTIAL    =          9.656280 EV
          HOMO LUMO ENERGIES (EV) =         -9.656  1.061
          NO. OF FILLED LEVELS    =         34
          MOLECULAR WEIGHT        =        164.2900         POINT GROUP:  C1  

          MOLECULAR DIMENSIONS (Angstroms)

            Atom       Atom       Distance
            H    27    H    22     9.10324
            H    28    H    29     5.93178
            H    23    H    21     5.09019


          SCF CALCULATIONS        =        155

          WALL-CLOCK TIME         =      1.680 SECONDS
          COMPUTATION TIME        =      1.271 SECONDS




   ATOM   CHEMICAL          X               Y               Z
  NUMBER   SYMBOL      (ANGSTROMS)     (ANGSTROMS)     (ANGSTROMS)

     1       C         -0.09430803  *  -0.51908241  *   0.69504607  *
     2       C          1.41535671  *  -0.81337942  *   0.58604010  *
     3       C         -0.56693615  *   0.27592266  *  -0.53459185  *
     4       C          2.24391624  *   0.39511175  *   1.04093271  *
     5       C         -0.31710465  *  -0.49748490  *  -1.82880202  *
     6       C         -0.87038443  *  -1.81028508  *   0.90475055  *
     7       C          3.66576015  *   0.02088213  *   1.39566804  *
     8       C         -3.83542582  *   2.25001461  *   0.05627103  *
     9       C          1.82020569  *  -1.22194497  *  -0.79393971  *
    10       C         -2.01110903  *   0.64799175  *  -0.41901178  *
    11       C          1.04893468  *  -1.07934561  *  -1.87203345  *
    12       C         -2.41048846  *   1.87037218  *  -0.06450820  *
    13       H         -0.26376419  *   0.12473754  *   1.59507994  *
    14       H          1.64710191  *  -1.67074800  *   1.26820834  *
    15       H          0.04986493  *   1.21106306  *  -0.57191609  *
    16       H          2.24279463  *   1.17304978  *   0.25153460  *
    17       H          1.75611834  *   0.86234312  *   1.92095057  *
    18       H         -1.05425260  *  -1.31875136  *  -1.94929384  *
    19       H         -0.46715999  *   0.17185303  *  -2.69863512  *
    20       H          4.20113973  *  -0.41010277  *   0.53872832  *
    21       H          4.23434890  *   0.89913126  *   1.72756086  *
    22       H          3.70188649  *  -0.71860857  *   2.20703102  *
    23       H         -0.56427689  *  -2.31074558  *   1.83335538  *
    24       H         -1.94994221  *  -1.62139475  *   0.97563421  *
    25       H         -0.71344796  *  -2.52150523  *   0.08246966  *
    26       H         -4.52079936  *   1.42406143  *  -0.17635899  *
    27       H         -4.07181659  *   3.07863599  *  -0.62482339  *
    28       H         -4.05827474  *   2.58787829  *   1.07733520  *
    29       H          1.40017807  *  -1.40923152  *  -2.85636352  *
    30       H          2.82461390  *  -1.65372880  *  -0.88363143  *
    31       H         -1.68265430  *   2.66143717  *   0.15692660  *
    32       H         -2.73964039  *  -0.14301472  *  -0.64204407  *

                             CARTESIAN COORDINATES

   1    C       -0.094308027    -0.519082413     0.695046072
   2    C        1.415356705    -0.813379425     0.586040101
   3    C       -0.566936155     0.275922662    -0.534591847
   4    C        2.243916235     0.395111754     1.040932710
   5    C       -0.317104646    -0.497484896    -1.828802022
   6    C       -0.870384433    -1.810285075     0.904750551
   7    C        3.665760149     0.020882128     1.395668041
   8    C       -3.835425815     2.250014606     0.056271026
   9    C        1.820205694    -1.221944971    -0.793939713
  10    C       -2.011109033     0.647991746    -0.419011778
  11    C        1.048934677    -1.079345608    -1.872033448
  12    C       -2.410488464     1.870372183    -0.064508201
  13    H       -0.263764187     0.124737541     1.595079935
  14    H        1.647101911    -1.670748000     1.268208341
  15    H        0.049864929     1.211063058    -0.571916086
  16    H        2.242794632     1.173049781     0.251534595
  17    H        1.756118337     0.862343118     1.920950568
  18    H       -1.054252599    -1.318751364    -1.949293844
  19    H       -0.467159995     0.171853032    -2.698635116
  20    H        4.201139725    -0.410102766     0.538728321
  21    H        4.234348903     0.899131259     1.727560860
  22    H        3.701886486    -0.718608570     2.207031016
  23    H       -0.564276888    -2.310745582     1.833355381
  24    H       -1.949942208    -1.621394752     0.975634207
  25    H       -0.713447963    -2.521505234     0.082469656
  26    H       -4.520799364     1.424061427    -0.176358987
  27    H       -4.071816587     3.078635993    -0.624823388
  28    H       -4.058274739     2.587878290     1.077335205
  29    H        1.400178068    -1.409231521    -2.856363524
  30    H        2.824613900    -1.653728800    -0.883631433
  31    H       -1.682654299     2.661437170     0.156926604
  32    H       -2.739640394    -0.143014719    -0.642044068


           Empirical Formula: C12 H20  =    32 atoms



      MOLECULAR POINT GROUP   :   C1  


                  EIGENVALUES  
 -42.37942 -36.29939 -33.85790 -31.96751 -29.53238 -26.62666 -25.08517 -22.32494
 -21.31566 -20.51886 -19.25714 -17.47054 -16.79144 -16.08464 -15.86841 -15.27708
 -14.90096 -14.84173 -14.53397 -14.32093 -14.18930 -13.60337 -13.20120 -13.08009
 -12.94802 -12.62149 -12.47171 -12.31843 -11.85823 -11.60173 -11.33016 -11.22678
  -9.77612  -9.65628   1.06087   1.18041   3.24249   3.38080   3.46464   3.63038
   3.73010   3.77735   3.83139   3.87217   3.89786   3.97178   4.06937   4.10833
   4.19154   4.24364   4.28142   4.36390   4.41313   4.46945   4.50127   4.61382
   4.65960   4.77703   4.84779   4.88372   4.97369   5.07950   5.16329   5.25482
   5.65614   5.85459   5.96911   6.04764


              NET ATOMIC CHARGES AND DIPOLE CONTRIBUTIONS

  ATOM NO.   TYPE          CHARGE      No. of ELECS.   s-Pop       p-Pop       
    1          C          -0.066407        4.0664     1.18099     2.88541
    2          C          -0.043196        4.0432     1.17049     2.87271
    3          C          -0.042786        4.0428     1.16758     2.87520
    4          C          -0.096122        4.0961     1.16250     2.93363
    5          C          -0.058623        4.0586     1.14838     2.91025
    6          C          -0.117921        4.1179     1.14252     2.97540
    7          C          -0.111241        4.1112     1.13883     2.97242
    8          C          -0.074481        4.0745     1.12524     2.94924
    9          C          -0.146872        4.1469     1.19562     2.95125
   10          C          -0.152303        4.1523     1.19881     2.95349
   11          C          -0.143510        4.1435     1.19343     2.95008
   12          C          -0.144983        4.1450     1.19392     2.95106
   13          H           0.065561        0.9344     0.93444
   14          H           0.070974        0.9290     0.92903
   15          H           0.069247        0.9308     0.93075
   16          H           0.054324        0.9457     0.94568
   17          H           0.050060        0.9499     0.94994
   18          H           0.060574        0.9394     0.93943
   19          H           0.056294        0.9437     0.94371
   20          H           0.039929        0.9601     0.96007
   21          H           0.037265        0.9627     0.96274
   22          H           0.037624        0.9624     0.96238
   23          H           0.039136        0.9609     0.96086
   24          H           0.043122        0.9569     0.95688
   25          H           0.045942        0.9541     0.95406
   26          H           0.040901        0.9591     0.95910
   27          H           0.043978        0.9560     0.95602
   28          H           0.043929        0.9561     0.95607
   29          H           0.096218        0.9038     0.90378
   30          H           0.098982        0.9010     0.90102
   31          H           0.098783        0.9012     0.90122
   32          H           0.105603        0.8944     0.89440
 DIPOLE           X         Y         Z       TOTAL
 POINT-CHG.    -0.212     0.177     0.145     0.313
 HYBRID         0.029    -0.036    -0.035     0.058
 SUM           -0.183     0.141     0.110     0.256


          ATOMIC ORBITAL ELECTRON POPULATIONS

     Atom    s        px        py        pz   
    1  C   1.18099   0.94187   0.96769   0.97585
    2  C   1.17049   0.94283   0.97685   0.95302
    3  C   1.16758   0.93871   0.98783   0.94866
    4  C   1.16250   0.95573   0.96992   1.00797
    5  C   1.14838   0.95278   0.98917   0.96829
    6  C   1.14252   0.99694   0.96855   1.00990
    7  C   1.13883   0.96039   1.00586   1.00616
    8  C   1.12524   0.93924   1.00573   1.00428
    9  C   1.19562   0.99053   1.01005   0.95067
   10  C   1.19881   0.96997   0.97141   1.01211
   11  C   1.19343   0.96839   1.00590   0.97579
   12  C   1.19392   0.97421   0.97170   1.00515
   13  H   0.93444
   14  H   0.92903
   15  H   0.93075
   16  H   0.94568
   17  H   0.94994
   18  H   0.93943
   19  H   0.94371
   20  H   0.96007
   21  H   0.96274
   22  H   0.96238
   23  H   0.96086
   24  H   0.95688
   25  H   0.95406
   26  H   0.95910
   27  H   0.95602
   28  H   0.95607
   29  H   0.90378
   30  H   0.90102
   31  H   0.90122
   32  H   0.89440
 *******************************************************************************
 **                                                                           **
 **                              MOPAC v23.1.2                                **
 **                                                                           **
 *******************************************************************************
 **          Digital Object Identifier (DOI): 10.5281/zenodo.6511958          **
 **    Visit the DOI location for information on how to cite this program.    **
 *******************************************************************************

                              PM3 CALCULATION RESULTS

 *******************************************************************************
 *  CALCULATION DONE: (MAX THREADS = 1)              Tue Jun  3 16:36:03 2025  *
 *  PM3        - The PM3 Hamiltonian to be used
 *  OLDGEO     - PREVIOUS GEOMETRY TO BE USED
 *  PRECISE    - TIGHTER CRITERIA TO BE USED
 *  NOSYM      - POINT-GROUP SYMMETRY SET TO C1
 *  THREADS=1  - MULTI-THREADING NOT USED
 *  T=         - A TIME OF 172800.0 SECONDS REQUESTED
 *  DUMP=N     - RESTART FILE WRITTEN EVERY 7200.0 SECONDS REQUESTED
 *  THERMO     - THERMODYNAMIC QUANTITIES TO BE CALCULATED
 *******************************************************************************
oldgeo thermo nosym precise THREADS=1  pm3
 InChI=1S/C12H20/c1-4-7-12-9-6-8-11(5-2)10(12)3/h4,6-8,10-12H,5,9H2,1-3H3

   ATOM   CHEMICAL          X               Y               Z
  NUMBER   SYMBOL      (ANGSTROMS)     (ANGSTROMS)     (ANGSTROMS)

     1       C         -0.09430803  *  -0.51908241  *   0.69504607  *
     2       C          1.41535671  *  -0.81337942  *   0.58604010  *
     3       C         -0.56693615  *   0.27592266  *  -0.53459185  *
     4       C          2.24391624  *   0.39511175  *   1.04093271  *
     5       C         -0.31710465  *  -0.49748490  *  -1.82880202  *
     6       C         -0.87038443  *  -1.81028508  *   0.90475055  *
     7       C          3.66576015  *   0.02088213  *   1.39566804  *
     8       C         -3.83542582  *   2.25001461  *   0.05627103  *
     9       C          1.82020569  *  -1.22194497  *  -0.79393971  *
    10       C         -2.01110903  *   0.64799175  *  -0.41901178  *
    11       C          1.04893468  *  -1.07934561  *  -1.87203345  *
    12       C         -2.41048846  *   1.87037218  *  -0.06450820  *
    13       H         -0.26376419  *   0.12473754  *   1.59507994  *
    14       H          1.64710191  *  -1.67074800  *   1.26820834  *
    15       H          0.04986493  *   1.21106306  *  -0.57191609  *
    16       H          2.24279463  *   1.17304978  *   0.25153460  *
    17       H          1.75611834  *   0.86234312  *   1.92095057  *
    18       H         -1.05425260  *  -1.31875136  *  -1.94929384  *
    19       H         -0.46715999  *   0.17185303  *  -2.69863512  *
    20       H          4.20113973  *  -0.41010277  *   0.53872832  *
    21       H          4.23434890  *   0.89913126  *   1.72756086  *
    22       H          3.70188649  *  -0.71860857  *   2.20703102  *
    23       H         -0.56427689  *  -2.31074558  *   1.83335538  *
    24       H         -1.94994221  *  -1.62139475  *   0.97563421  *
    25       H         -0.71344796  *  -2.52150523  *   0.08246966  *
    26       H         -4.52079936  *   1.42406143  *  -0.17635899  *
    27       H         -4.07181659  *   3.07863599  *  -0.62482339  *
    28       H         -4.05827474  *   2.58787829  *   1.07733520  *
    29       H          1.40017807  *  -1.40923152  *  -2.85636352  *
    30       H          2.82461390  *  -1.65372880  *  -0.88363143  *
    31       H         -1.68265430  *   2.66143717  *   0.15692660  *
    32       H         -2.73964039  *  -0.14301472  *  -0.64204407  *



          CARTESIAN COORDINATES 

    NO.       ATOM           X           Y           Z

     1         C         -0.0943     -0.5191      0.6950
     2         C          1.4154     -0.8134      0.5860
     3         C         -0.5669      0.2759     -0.5346
     4         C          2.2439      0.3951      1.0409
     5         C         -0.3171     -0.4975     -1.8288
     6         C         -0.8704     -1.8103      0.9048
     7         C          3.6658      0.0209      1.3957
     8         C         -3.8354      2.2500      0.0563
     9         C          1.8202     -1.2219     -0.7939
    10         C         -2.0111      0.6480     -0.4190
    11         C          1.0489     -1.0793     -1.8720
    12         C         -2.4105      1.8704     -0.0645
    13         H         -0.2638      0.1247      1.5951
    14         H          1.6471     -1.6707      1.2682
    15         H          0.0499      1.2111     -0.5719
    16         H          2.2428      1.1730      0.2515
    17         H          1.7561      0.8623      1.9210
    18         H         -1.0543     -1.3188     -1.9493
    19         H         -0.4672      0.1719     -2.6986
    20         H          4.2011     -0.4101      0.5387
    21         H          4.2343      0.8991      1.7276
    22         H          3.7019     -0.7186      2.2070
    23         H         -0.5643     -2.3107      1.8334
    24         H         -1.9499     -1.6214      0.9756
    25         H         -0.7134     -2.5215      0.0825
    26         H         -4.5208      1.4241     -0.1764
    27         H         -4.0718      3.0786     -0.6248
    28         H         -4.0583      2.5879      1.0773
    29         H          1.4002     -1.4092     -2.8564
    30         H          2.8246     -1.6537     -0.8836
    31         H         -1.6827      2.6614      0.1569
    32         H         -2.7396     -0.1430     -0.6420

  H: (PM3): J. J. P. STEWART, J. COMP. CHEM. 10, 209 (1989).
  C: (PM3): J. J. P. STEWART, J. COMP. CHEM. 10, 209 (1989).

           Empirical Formula: C12 H20  =    32 atoms



      MOLECULAR POINT GROUP   :   C1  


      RHF CALCULATION, NO. OF DOUBLY OCCUPIED LEVELS = 34



          HEAT OF FORMATION =      -8.345450 KCALS/MOLE


          CARTESIAN COORDINATE DERIVATIVES

   NUMBER  ATOM         X            Y            Z

     1       C     -0.004813    -0.002710    -0.001008
     2       C     -0.000164     0.000586     0.001070
     3       C     -0.001402     0.001561    -0.000985
     4       C      0.000354    -0.001850     0.003862
     5       C     -0.005922    -0.004551     0.001428
     6       C     -0.010917    -0.000788    -0.000260
     7       C      0.005985     0.000480     0.006430
     8       C      0.000390    -0.009769    -0.000848
     9       C     -0.003367     0.002347     0.002081
    10       C     -0.005310     0.001468    -0.004054
    11       C     -0.001216     0.001562     0.000845
    12       C      0.000946     0.000154    -0.012110
    13       H      0.001163    -0.003743    -0.008488
    14       H     -0.004664     0.001553     0.000452
    15       H     -0.006069    -0.000792     0.001199
    16       H      0.011976     0.003797     0.005282
    17       H      0.001646     0.005607     0.008567
    18       H     -0.004729     0.002259     0.000167
    19       H      0.001450     0.003255     0.003752
    20       H      0.012401    -0.001019    -0.000222
    21       H      0.005185     0.001271    -0.002409
    22       H      0.002474    -0.003253    -0.001261
    23       H     -0.011558     0.001615    -0.003667
    24       H      0.001051     0.001609     0.001207
    25       H     -0.004549     0.000587     0.000771
    26       H     -0.003884     0.002750     0.003842
    27       H      0.011495    -0.000480    -0.007526
    28       H      0.002280     0.003370    -0.007680
    29       H     -0.005868    -0.000452     0.002400
    30       H      0.003844     0.000946     0.004139
    31       H      0.006500     0.000247     0.003614
    32       H      0.005292    -0.007617    -0.000591



          GRADIENT NORM =   0.04503

          MOLECULAR WEIGHT =  164.29



          ROTATIONAL CONSTANTS IN CM(-1)

          A =    0.04848756   B =    0.01737724   C =    0.01574893



           PRINCIPAL MOMENTS OF INERTIA IN UNITS OF 10**(-40)*GRAM-CM**2

          A =      577.3182   B =     1610.8860   C =     1777.4379


          ORIENTATION OF MOLECULE IN FORCE CALCULATION

    NO.       ATOM         X         Y         Z

     1          C      -0.0577   -0.8820   -0.0862
     2          C       1.4842   -0.8820   -0.0862
     3          C      -0.5852    0.5633   -0.0862
     4          C       2.0326   -0.6751    1.3317
     5          C      -0.1015    1.3338   -1.3141
     6          C      -0.5859   -1.7097   -1.2478
     7          C       3.4711   -1.1227    1.4664
     8          C      -4.2039    0.8945    1.2273
     9          C       2.0562    0.1436   -1.0115
    10          C      -2.0784    0.5969   -0.0033
    11          C       1.3500    1.1337   -1.5579
    12          C      -2.7278    0.8613    1.1315
    13          H      -0.4101   -1.3668    0.8594
    14          H       1.8266   -1.8848   -0.4487
    15          H      -0.1572    1.0640    0.8207
    16          H       1.9389    0.3905    1.6216
    17          H       1.4037   -1.2368    2.0525
    18          H      -0.6580    1.0225   -2.2229
    19          H      -0.3147    2.4132   -1.1855
    20          H       4.1381   -0.5623    0.7972
    21          H       3.8367   -0.9744    2.4907
    22          H       3.5902   -2.1880    1.2269
    23          H      -0.2563   -2.7547   -1.1725
    24          H      -1.6839   -1.7138   -1.2697
    25          H      -0.2384   -1.3258   -2.2166
    26          H      -4.7008    0.6808    0.2715
    27          H      -4.5453    1.8824    1.5648
    28          H      -4.5587    0.1550    1.9578
    29          H       1.8265    1.8487   -2.2383
    30          H       3.1283    0.0453   -1.2216
    31          H      -2.1818    1.0693    2.0606
    32          H      -2.6249    0.3903   -0.9332


    FIRST DERIVATIVES WILL BE USED IN THE CALCULATION OF SECOND DERIVATIVES

          ESTIMATED TIME TO COMPLETE CALCULATION =        4.50 SECONDS

    FOR POINT-GROUP C1   THERE ARE   1 UNIQUE SYMMETRY FUNCTIONS.

 STEP:   1 TIME =     0.04 SECS, INTEGRAL =      0.04 TIME LEFT: 172799.95
 STEP:   2 TIME =     0.04 SECS, INTEGRAL =      0.07 TIME LEFT: 172799.92
 STEP:   3 TIME =     0.04 SECS, INTEGRAL =      0.11 TIME LEFT: 172799.88
 STEP:   4 TIME =     0.04 SECS, INTEGRAL =      0.14 TIME LEFT: 172799.85
 STEP:   5 TIME =     0.04 SECS, INTEGRAL =      0.18 TIME LEFT: 172799.81
 STEP:   6 TIME =     0.04 SECS, INTEGRAL =      0.21 TIME LEFT: 172799.78
 STEP:   7 TIME =     0.04 SECS, INTEGRAL =      0.25 TIME LEFT: 172799.74
 STEP:   8 TIME =     0.04 SECS, INTEGRAL =      0.28 TIME LEFT: 172799.71
 STEP:   9 TIME =     0.04 SECS, INTEGRAL =      0.32 TIME LEFT: 172799.67
 STEP:  10 TIME =     0.04 SECS, INTEGRAL =      0.36 TIME LEFT: 172799.63
 STEP:  11 TIME =     0.04 SECS, INTEGRAL =      0.39 TIME LEFT: 172799.59
 STEP:  12 TIME =     0.04 SECS, INTEGRAL =      0.43 TIME LEFT: 172799.56
 STEP:  13 TIME =     0.04 SECS, INTEGRAL =      0.46 TIME LEFT: 172799.52
 STEP:  14 TIME =     0.04 SECS, INTEGRAL =      0.50 TIME LEFT: 172799.48
 STEP:  15 TIME =     0.04 SECS, INTEGRAL =      0.54 TIME LEFT: 172799.45
 STEP:  16 TIME =     0.04 SECS, INTEGRAL =      0.58 TIME LEFT: 172799.41
 STEP:  17 TIME =     0.04 SECS, INTEGRAL =      0.62 TIME LEFT: 172799.37
 STEP:  18 TIME =     0.04 SECS, INTEGRAL =      0.65 TIME LEFT: 172799.34
 STEP:  19 TIME =     0.04 SECS, INTEGRAL =      0.69 TIME LEFT: 172799.30
 STEP:  20 TIME =     0.04 SECS, INTEGRAL =      0.73 TIME LEFT: 172799.26
 STEP:  21 TIME =     0.04 SECS, INTEGRAL =      0.77 TIME LEFT: 172799.22
 STEP:  22 TIME =     0.04 SECS, INTEGRAL =      0.80 TIME LEFT: 172799.19
 STEP:  23 TIME =     0.04 SECS, INTEGRAL =      0.84 TIME LEFT: 172799.15
 STEP:  24 TIME =     0.04 SECS, INTEGRAL =      0.88 TIME LEFT: 172799.11
 STEP:  25 TIME =     0.04 SECS, INTEGRAL =      0.91 TIME LEFT: 172799.07
 STEP:  26 TIME =     0.04 SECS, INTEGRAL =      0.95 TIME LEFT: 172799.04
 STEP:  27 TIME =     0.04 SECS, INTEGRAL =      0.99 TIME LEFT: 172799.00
 STEP:  28 TIME =     0.04 SECS, INTEGRAL =      1.02 TIME LEFT: 172798.96
 STEP:  29 TIME =     0.04 SECS, INTEGRAL =      1.06 TIME LEFT: 172798.93
 STEP:  30 TIME =     0.04 SECS, INTEGRAL =      1.10 TIME LEFT: 172798.89
 STEP:  31 TIME =     0.04 SECS, INTEGRAL =      1.13 TIME LEFT: 172798.86
 STEP:  32 TIME =     0.04 SECS, INTEGRAL =      1.17 TIME LEFT: 172798.82
 STEP:  33 TIME =     0.04 SECS, INTEGRAL =      1.21 TIME LEFT: 172798.78
 STEP:  34 TIME =     0.04 SECS, INTEGRAL =      1.25 TIME LEFT: 172798.74
 STEP:  35 TIME =     0.04 SECS, INTEGRAL =      1.29 TIME LEFT: 172798.70
 STEP:  36 TIME =     0.04 SECS, INTEGRAL =      1.32 TIME LEFT: 172798.67
 STEP:  37 TIME =     0.04 SECS, INTEGRAL =      1.36 TIME LEFT: 172798.63
 STEP:  38 TIME =     0.04 SECS, INTEGRAL =      1.39 TIME LEFT: 172798.59
 STEP:  39 TIME =     0.04 SECS, INTEGRAL =      1.43 TIME LEFT: 172798.56
 STEP:  40 TIME =     0.04 SECS, INTEGRAL =      1.46 TIME LEFT: 172798.52
 STEP:  41 TIME =     0.04 SECS, INTEGRAL =      1.50 TIME LEFT: 172798.49
 STEP:  42 TIME =     0.04 SECS, INTEGRAL =      1.54 TIME LEFT: 172798.45
 STEP:  43 TIME =     0.04 SECS, INTEGRAL =      1.57 TIME LEFT: 172798.41
 STEP:  44 TIME =     0.04 SECS, INTEGRAL =      1.61 TIME LEFT: 172798.38
 STEP:  45 TIME =     0.04 SECS, INTEGRAL =      1.65 TIME LEFT: 172798.34
 STEP:  46 TIME =     0.04 SECS, INTEGRAL =      1.69 TIME LEFT: 172798.30
 STEP:  47 TIME =     0.04 SECS, INTEGRAL =      1.73 TIME LEFT: 172798.26
 STEP:  48 TIME =     0.04 SECS, INTEGRAL =      1.77 TIME LEFT: 172798.22
 STEP:  49 TIME =     0.04 SECS, INTEGRAL =      1.80 TIME LEFT: 172798.18
 STEP:  50 TIME =     0.04 SECS, INTEGRAL =      1.84 TIME LEFT: 172798.14
 STEP:  51 TIME =     0.04 SECS, INTEGRAL =      1.88 TIME LEFT: 172798.11
 STEP:  52 TIME =     0.04 SECS, INTEGRAL =      1.92 TIME LEFT: 172798.07
 STEP:  53 TIME =     0.04 SECS, INTEGRAL =      1.96 TIME LEFT: 172798.03
 STEP:  54 TIME =     0.04 SECS, INTEGRAL =      1.99 TIME LEFT: 172798.00
 STEP:  55 TIME =     0.04 SECS, INTEGRAL =      2.03 TIME LEFT: 172797.96
 STEP:  56 TIME =     0.04 SECS, INTEGRAL =      2.07 TIME LEFT: 172797.92
 STEP:  57 TIME =     0.04 SECS, INTEGRAL =      2.11 TIME LEFT: 172797.88
 STEP:  58 TIME =     0.04 SECS, INTEGRAL =      2.14 TIME LEFT: 172797.85
 STEP:  59 TIME =     0.04 SECS, INTEGRAL =      2.18 TIME LEFT: 172797.81
 STEP:  60 TIME =     0.04 SECS, INTEGRAL =      2.21 TIME LEFT: 172797.78
 STEP:  61 TIME =     0.04 SECS, INTEGRAL =      2.25 TIME LEFT: 172797.74
 STEP:  62 TIME =     0.04 SECS, INTEGRAL =      2.29 TIME LEFT: 172797.70
 STEP:  63 TIME =     0.04 SECS, INTEGRAL =      2.32 TIME LEFT: 172797.67
 STEP:  64 TIME =     0.04 SECS, INTEGRAL =      2.36 TIME LEFT: 172797.63
 STEP:  65 TIME =     0.04 SECS, INTEGRAL =      2.39 TIME LEFT: 172797.59
 STEP:  66 TIME =     0.04 SECS, INTEGRAL =      2.44 TIME LEFT: 172797.55
 STEP:  67 TIME =     0.04 SECS, INTEGRAL =      2.47 TIME LEFT: 172797.52
 STEP:  68 TIME =     0.04 SECS, INTEGRAL =      2.51 TIME LEFT: 172797.48
 STEP:  69 TIME =     0.04 SECS, INTEGRAL =      2.55 TIME LEFT: 172797.44
 STEP:  70 TIME =     0.04 SECS, INTEGRAL =      2.58 TIME LEFT: 172797.41
 STEP:  71 TIME =     0.04 SECS, INTEGRAL =      2.62 TIME LEFT: 172797.36
 STEP:  72 TIME =     0.04 SECS, INTEGRAL =      2.67 TIME LEFT: 172797.32
 STEP:  73 TIME =     0.04 SECS, INTEGRAL =      2.70 TIME LEFT: 172797.29
 STEP:  74 TIME =     0.04 SECS, INTEGRAL =      2.74 TIME LEFT: 172797.25
 STEP:  75 TIME =     0.04 SECS, INTEGRAL =      2.78 TIME LEFT: 172797.21
 STEP:  76 TIME =     0.04 SECS, INTEGRAL =      2.81 TIME LEFT: 172797.18
 STEP:  77 TIME =     0.04 SECS, INTEGRAL =      2.85 TIME LEFT: 172797.14
 STEP:  78 TIME =     0.04 SECS, INTEGRAL =      2.89 TIME LEFT: 172797.10
 STEP:  79 TIME =     0.04 SECS, INTEGRAL =      2.92 TIME LEFT: 172797.07
 STEP:  80 TIME =     0.04 SECS, INTEGRAL =      2.96 TIME LEFT: 172797.03
 STEP:  81 TIME =     0.04 SECS, INTEGRAL =      3.00 TIME LEFT: 172796.99
 STEP:  82 TIME =     0.04 SECS, INTEGRAL =      3.04 TIME LEFT: 172796.95
 STEP:  83 TIME =     0.04 SECS, INTEGRAL =      3.07 TIME LEFT: 172796.92
 STEP:  84 TIME =     0.04 SECS, INTEGRAL =      3.11 TIME LEFT: 172796.88
 STEP:  85 TIME =     0.04 SECS, INTEGRAL =      3.14 TIME LEFT: 172796.85
 STEP:  86 TIME =     0.04 SECS, INTEGRAL =      3.18 TIME LEFT: 172796.81
 STEP:  87 TIME =     0.04 SECS, INTEGRAL =      3.22 TIME LEFT: 172796.77
 STEP:  88 TIME =     0.04 SECS, INTEGRAL =      3.25 TIME LEFT: 172796.73
 STEP:  89 TIME =     0.04 SECS, INTEGRAL =      3.30 TIME LEFT: 172796.69
 STEP:  90 TIME =     0.04 SECS, INTEGRAL =      3.34 TIME LEFT: 172796.65
 STEP:  91 TIME =     0.04 SECS, INTEGRAL =      3.37 TIME LEFT: 172796.62
 STEP:  92 TIME =     0.04 SECS, INTEGRAL =      3.41 TIME LEFT: 172796.58
 STEP:  93 TIME =     0.04 SECS, INTEGRAL =      3.45 TIME LEFT: 172796.54
 STEP:  94 TIME =     0.04 SECS, INTEGRAL =      3.48 TIME LEFT: 172796.50
 STEP:  95 TIME =     0.04 SECS, INTEGRAL =      3.52 TIME LEFT: 172796.46
 STEP:  96 TIME =     0.04 SECS, INTEGRAL =      3.56 TIME LEFT: 172796.43

(To convert to Hartree/Bohr^2, multiply by (10^(-21) x N x a0^2)/(4.184 x 627.51) =  0.0642)


           FORCE MATRIX IN MILLIDYNES/ANGSTROM


                  C  1       C  2       C  3       C  4       C  5       C  6
 ------------------------------------------------------------------------------
     C    1  14.100189
     C    2   3.497789  14.440486
     C    3   3.537265   0.619638  14.617402
     C    4   0.606472   3.715121   0.040195  14.222532
     C    5   0.619663   0.098952   3.907948   0.016285  14.711047
     C    6   4.160865   0.637574   0.581162   0.046613   0.048491  14.328919
     C    7   0.048540   0.617839   0.002539   4.457440   0.001004   0.008919
     C    8   0.021774   0.004199   0.145752   0.000402   0.018124   0.000854
     C    9   0.634011   4.705683   0.064272   0.684737   0.839892   0.029582
     C   10   0.639851   0.049769   4.682357   0.003101   0.681338   0.062404
     C   11   0.056034   0.791121   0.691546   0.037018   5.026258   0.018778
     C   12   0.035650   0.004190   0.807808   0.000732   0.041950   0.004014
     H   13   4.156892   0.426789   0.422522   0.075062   0.048228   0.415759
     H   14   0.425494   4.136870   0.042287   0.433953   0.009235   0.076368
     H   15   0.420348   0.035435   4.117148   0.016526   0.419365   0.047580
     H   16   0.011538   0.447826   0.015644   4.451619   0.001593   0.001482
     H   17   0.067827   0.443706   0.003738   4.412885   0.002784   0.002403
     H   18   0.009218   0.014285   0.455396   0.002495   4.369589   0.012934
     H   19   0.048296   0.010059   0.435781   0.001279   4.462864   0.003223
     H   20   0.001221   0.017498   0.000441   0.464856   0.000565   0.000640
     H   21   0.008376   0.050500   0.000703   0.449119   0.000187   0.001869
     H   22   0.002104   0.023945   0.000317   0.463679   0.000299   0.000559
     H   23   0.456315   0.031311   0.049949   0.001946   0.003449   4.718337
     H   24   0.455718   0.049021   0.021863   0.008181   0.003496   4.717648
     H   25   0.469602   0.021748   0.012452   0.001406   0.017748   4.713245
     H   26   0.000517   0.000167   0.002237   0.000081   0.000715   0.000208
     H   27   0.002666   0.000364   0.019489   0.000107   0.003254   0.000276
     H   28   0.003569   0.000942   0.019727   0.000131   0.001863   0.000326
     H   29   0.003278   0.123898   0.042172   0.019199   0.426558   0.001230
     H   30   0.042282   0.430413   0.004008   0.012617   0.125374   0.001434
     H   31   0.012360   0.002727   0.085772   0.000482   0.007138   0.001206
     H   32   0.009255   0.001678   0.434077   0.000906   0.032066   0.017534


                  C  7       C  8       C  9       C 10       C 11       C 12
 ------------------------------------------------------------------------------
     C    7  14.346074
     C    8   0.000384  14.718163
     C    9   0.051067   0.000561  18.168429
     C   10   0.001471   0.846684   0.004917  18.124078
     C   11   0.002397   0.003847  10.713605   0.053815  18.212336
     C   12   0.000333   5.264728   0.001646  10.673438   0.007919  18.171033
     H   13   0.002296   0.000889   0.045058   0.025167   0.004178   0.003950
     H   14   0.046563   0.000756   0.405363   0.008170   0.040429   0.000763
     H   15   0.001556   0.003519   0.008503   0.436020   0.016341   0.061374
     H   16   0.438227   0.000190   0.032366   0.001045   0.004673   0.000273
     H   17   0.435644   0.000119   0.046438   0.000812   0.006046   0.000271
     H   18   0.000394   0.000791   0.030129   0.041252   0.414712   0.002155
     H   19   0.000332   0.000521   0.043696   0.015531   0.432577   0.001724
     H   20   4.708209   0.000093   0.016123   0.000366   0.000688   0.000118
     H   21   4.745613   0.000135   0.002472   0.000380   0.000619   0.000077
     H   22   4.716559   0.000065   0.002675   0.000313   0.000498   0.000052
     H   23   0.000517   0.000237   0.001875   0.004605   0.001672   0.000572
     H   24   0.001884   0.000434   0.002153   0.027044   0.001152   0.002736
     H   25   0.000733   0.000278   0.005509   0.002944   0.005498   0.000511
     H   26   0.000075   4.723709   0.000139   0.041379   0.000192   0.480274
     H   27   0.000093   4.706409   0.000183   0.036410   0.000874   0.438771
     H   28   0.000113   4.705866   0.000162   0.035152   0.000297   0.438959
     H   29   0.000687   0.000758   0.443354   0.008543   4.814831   0.001249
     H   30   0.015689   0.000148   4.778858   0.001535   0.442867   0.000216
     H   31   0.000405   0.424339   0.000640   0.471637   0.001918   4.768037
     H   32   0.000304   0.085623   0.001181   4.739909   0.002538   0.467749


                  H 13       H 14       H 15       H 16       H 17       H 18
 ------------------------------------------------------------------------------
     H   13   4.622158
     H   14   0.016661   4.606695
     H   15   0.037595   0.002069   4.582420
     H   16   0.001720   0.042472   0.019872   5.064952
     H   17   0.057657   0.016913   0.001444   0.568841   5.016893
     H   18   0.001637   0.000888   0.042611   0.000565   0.000623   4.983029
     H   19   0.007973   0.000417   0.036735   0.000367   0.000327   0.567946
     H   20   0.000507   0.002695   0.000230   0.023752   0.048887   0.000241
     H   21   0.000530   0.002557   0.000229   0.030586   0.031480   0.000084
     H   22   0.000359   0.028029   0.000425   0.048327   0.025297   0.000126
     H   23   0.033679   0.030542   0.008064   0.000465   0.000345   0.000829
     H   24   0.029655   0.002435   0.002192   0.000337   0.000499   0.001329
     H   25   0.046397   0.006545   0.001909   0.000399   0.000487   0.025644
     H   26   0.000178   0.000046   0.000498   0.000051   0.000043   0.000204
     H   27   0.000218   0.000062   0.000293   0.000049   0.000033   0.000174
     H   28   0.000264   0.000193   0.000783   0.000047   0.000044   0.000110
     H   29   0.000591   0.014403   0.001287   0.001060   0.003052   0.018856
     H   30   0.006571   0.036457   0.000518   0.002984   0.001835   0.017931
     H   31   0.001841   0.000434   0.030149   0.000222   0.000212   0.000699
     H   32   0.002177   0.000500   0.035637   0.000305   0.000244   0.029388


                  H 19       H 20       H 21       H 22       H 23       H 24
 ------------------------------------------------------------------------------
     H   19   5.059351
     H   20   0.000195   5.452014
     H   21   0.000060   0.576156   5.484774
     H   22   0.000089   0.576929   0.575330   5.461031
     H   23   0.000269   0.000080   0.000117   0.000164   5.461002
     H   24   0.000308   0.000097   0.000420   0.000107   0.572862   5.458536
     H   25   0.000728   0.000210   0.000124   0.000114   0.572715   0.569589
     H   26   0.000131   0.000019   0.000022   0.000016   0.000073   0.000201
     H   27   0.000202   0.000020   0.000037   0.000017   0.000071   0.000176
     H   28   0.000169   0.000026   0.000040   0.000020   0.000108   0.000220
     H   29   0.034914   0.000422   0.000169   0.000204   0.000479   0.000449
     H   30   0.014602   0.020444   0.000987   0.000592   0.000520   0.000432
     H   31   0.000472   0.000134   0.000125   0.000091   0.000296   0.000566
     H   32   0.002401   0.000087   0.000075   0.000082   0.000712   0.023542


                  H 25       H 26       H 27       H 28       H 29       H 30
 ------------------------------------------------------------------------------
     H   25   5.453617
     H   26   0.000083   5.450153
     H   27   0.000073   0.566193   5.425296
     H   28   0.000118   0.566005   0.576294   5.425277
     H   29   0.000732   0.000073   0.000200   0.000081   5.189770
     H   30   0.000813   0.000052   0.000051   0.000056   0.071534   5.154690
     H   31   0.000276   0.041901   0.023893   0.023682   0.000368   0.000219
     H   32   0.000780   0.029775   0.009595   0.009632   0.000589   0.000564


                  H 31       H 32
 ------------------------------
     H   31   5.146155
     H   32   0.106663   5.124963


          HEAT OF FORMATION =      -8.345450 KCALS/MOLE

          ZERO POINT ENERGY     180.075 KCAL/MOL


           NORMAL COORDINATE ANALYSIS (Total motion = 1 Angstrom)


   Root No.       1         2         3         4         5         6         7         8

                 1 A       2 A       3 A       4 A       5 A       6 A       7 A       8 A   

                  31.5      60.7      67.2      83.6     104.7     147.6     164.9     181.2
  
           1    0.0067   -0.0075    0.0019    0.0021    0.0053   -0.0028   -0.0036   -0.0056
           2   -0.0150   -0.0107   -0.0071   -0.0017   -0.0096    0.0063    0.0059   -0.0023
           3   -0.0039   -0.0101   -0.0187    0.0038   -0.0008    0.0001    0.0065   -0.0030
           4    0.0069   -0.0074    0.0017    0.0015    0.0057   -0.0035   -0.0036   -0.0056
           5   -0.0021   -0.0178    0.0044   -0.0043    0.0017   -0.0026    0.0005   -0.0063
           6   -0.0045    0.0013   -0.0023    0.0002   -0.0014   -0.0001    0.0151   -0.0002
           7   -0.0043    0.0026   -0.0008    0.0041   -0.0033    0.0038   -0.0036   -0.0019
           8   -0.0190   -0.0069   -0.0083   -0.0008   -0.0131    0.0097    0.0066   -0.0006
           9    0.0101    0.0045   -0.0103    0.0176    0.0043   -0.0014    0.0043   -0.0069
          10    0.0063   -0.0162   -0.0162    0.0100    0.0065   -0.0066    0.0107   -0.0050
          11   -0.0096   -0.0082    0.0215    0.0283    0.0072   -0.0068   -0.0021   -0.0122
          12   -0.0033    0.0030    0.0023   -0.0076   -0.0023    0.0016    0.0089    0.0008
          13   -0.0116    0.0106   -0.0062    0.0078   -0.0092    0.0070   -0.0055    0.0047
          14   -0.0037    0.0029   -0.0061    0.0153   -0.0063    0.0074   -0.0080   -0.0006
          15    0.0166    0.0138   -0.0107    0.0286    0.0059   -0.0009   -0.0056   -0.0036
          16    0.0144   -0.0024    0.0195   -0.0010    0.0118   -0.0088    0.0206   -0.0092
          17   -0.0095    0.0089    0.0018    0.0107   -0.0097    0.0057    0.0175   -0.0055
          18   -0.0114   -0.0265   -0.0329   -0.0038   -0.0036    0.0031   -0.0143    0.0009
          19    0.0106    0.0031   -0.0285   -0.0015    0.0031   -0.0051    0.0125    0.0037
          20    0.0025    0.0535   -0.0079   -0.0061   -0.0030   -0.0006   -0.0070    0.0111
          21   -0.0087    0.0008    0.0338    0.0013    0.0006    0.0036   -0.0144   -0.0130
          22   -0.0074    0.0048    0.0172   -0.0104   -0.0039    0.0036   -0.0098    0.0041
          23    0.0285    0.0082    0.0028   -0.0071    0.0251   -0.0410   -0.0096   -0.0047
          24   -0.0101    0.0062    0.0325   -0.0173   -0.0055    0.0080   -0.0018    0.0065
          25   -0.0022   -0.0014   -0.0003   -0.0037   -0.0019    0.0008   -0.0045    0.0024
          26    0.0103   -0.0255    0.0043   -0.0218    0.0062   -0.0072   -0.0063    0.0030
          27    0.0036   -0.0039   -0.0042   -0.0224   -0.0013   -0.0022    0.0066    0.0143
          28   -0.0044    0.0028    0.0003    0.0032   -0.0034    0.0040   -0.0039   -0.0019
          29   -0.0280    0.0031   -0.0099   -0.0029   -0.0114   -0.0036    0.0058    0.0017
          30    0.0092    0.0034    0.0042    0.0074    0.0037    0.0004    0.0065   -0.0087
          31   -0.0105    0.0064   -0.0046   -0.0017   -0.0087    0.0052   -0.0058    0.0100
          32    0.0095   -0.0159   -0.0011   -0.0112    0.0034   -0.0051   -0.0133    0.0111
          33    0.0129    0.0033   -0.0091   -0.0055    0.0025   -0.0043   -0.0047    0.0193
          34   -0.0070    0.0045    0.0155   -0.0089   -0.0039    0.0043   -0.0086    0.0031
          35    0.0332   -0.0030    0.0042   -0.0023    0.0071    0.0498    0.0132    0.0059
          36   -0.0065    0.0059    0.0098    0.0002   -0.0009   -0.0118    0.0021   -0.0068
          37    0.0111   -0.0190   -0.0051    0.0036    0.0092   -0.0041   -0.0195   -0.0083
          38   -0.0268   -0.0215   -0.0179   -0.0102   -0.0152    0.0095    0.0007    0.0019
          39   -0.0084   -0.0203   -0.0269   -0.0001   -0.0023    0.0014   -0.0032   -0.0019
          40    0.0152   -0.0083    0.0133   -0.0020    0.0124   -0.0079   -0.0099   -0.0045
          41    0.0038   -0.0218    0.0046   -0.0128    0.0040   -0.0045   -0.0025   -0.0039
          42   -0.0131    0.0121    0.0085    0.0207   -0.0013    0.0009    0.0161   -0.0045
          43   -0.0065    0.0041    0.0056   -0.0012   -0.0039    0.0041   -0.0012   -0.0028
          44   -0.0247   -0.0193   -0.0105   -0.0123   -0.0146    0.0099    0.0120   -0.0011
          45    0.0144    0.0108   -0.0118    0.0263    0.0055   -0.0017   -0.0002   -0.0060
          46   -0.0031   -0.0618    0.0037    0.0405    0.0148   -0.0126    0.0175   -0.0206
          47   -0.0130   -0.0148    0.0296    0.0407    0.0100   -0.0088   -0.0023   -0.0151
          48    0.0063    0.0132   -0.0209   -0.0431   -0.0097    0.0070    0.0115    0.0070
          49    0.0122    0.0081   -0.0400   -0.0024    0.0021   -0.0060    0.0207    0.0092
          50   -0.0217   -0.0422    0.0509    0.0701    0.0172   -0.0138   -0.0016   -0.0260
          51   -0.0076   -0.0025    0.0045    0.0141    0.0017   -0.0033    0.0173    0.0019
          52   -0.0110    0.0019   -0.0060   -0.0141   -0.0088    0.0010   -0.0072    0.0211
          53    0.0008    0.0250   -0.0083    0.0508   -0.0068    0.0155   -0.0212   -0.0112
          54    0.0147    0.0116   -0.0099    0.0297    0.0058    0.0002   -0.0000   -0.0100
          55   -0.0195    0.0285   -0.0098    0.0364   -0.0156    0.0180   -0.0044   -0.0093
          56   -0.0065    0.0045   -0.0068    0.0176   -0.0080    0.0093   -0.0062   -0.0025
          57    0.0273    0.0302   -0.0107    0.0575    0.0097    0.0022   -0.0200   -0.0116
          58    0.0048   -0.0185   -0.0083    0.0073    0.0058   -0.0031    0.0022   -0.0370
          59    0.0145    0.0957   -0.0464   -0.0601   -0.0193    0.0195   -0.0154   -0.1032
          60   -0.0044    0.0146    0.0218   -0.0350   -0.0104    0.0224   -0.0319   -0.1497
          61    0.0103   -0.0082   -0.0363    0.0133    0.0075   -0.0151    0.0332    0.0682
          62   -0.0032    0.0508    0.0183    0.0364    0.0100   -0.0220   -0.0002    0.1850
          63   -0.0077    0.0053    0.0328   -0.0102   -0.0029    0.0102   -0.0229   -0.0612
          64    0.0201    0.0516   -0.0510   -0.0348   -0.0068    0.0041    0.0034   -0.0134
          65    0.0056    0.0633   -0.0188   -0.0220   -0.0078    0.0057   -0.0094   -0.0292
          66   -0.0181   -0.0186    0.0715    0.0554    0.0170   -0.0202   -0.0081    0.1596
          67    0.0290   -0.0117    0.0139    0.0106    0.0179    0.0206   -0.0900   -0.0055
          68   -0.0058    0.0053    0.0001    0.0129   -0.0079    0.0134   -0.0122   -0.0044
          69   -0.0237   -0.0369   -0.0326   -0.0238   -0.0059   -0.0168    0.0544    0.0006
          70    0.0144   -0.0022    0.0199   -0.0011    0.0119   -0.0092    0.0224   -0.0094
          71   -0.0251    0.0186    0.0070   -0.0007   -0.0158   -0.0245    0.1252   -0.0091
          72   -0.0085   -0.0378   -0.0530    0.0070   -0.0050    0.0289   -0.1213    0.0073
          73    0.0063    0.0109    0.0391   -0.0145    0.0109   -0.0423    0.1532   -0.0163
          74    0.0058    0.0190    0.0054    0.0302   -0.0051    0.0258   -0.0507   -0.0061
          75   -0.0082   -0.0177   -0.0245   -0.0009   -0.0021   -0.0010    0.0059   -0.0018
          76   -0.0049    0.0031    0.0025    0.0015   -0.0022    0.0043   -0.0039   -0.0031
          77   -0.0391    0.0290   -0.0161   -0.0220    0.2144   -0.0287   -0.0138   -0.0087
          78    0.0037    0.0025    0.0444   -0.0202   -0.0487    0.0049   -0.0040    0.0111
          79   -0.0150    0.0133    0.0205   -0.0182    0.0141   -0.0585   -0.0279   -0.0010
          80    0.0486    0.0053    0.0083   -0.0038   -0.0315   -0.0811   -0.0173   -0.0078
          81   -0.0766    0.0233    0.0197   -0.0348    0.1775    0.0612    0.0020    0.0103
          82   -0.0027   -0.0016    0.0305   -0.0161   -0.0236    0.0643    0.0011    0.0175
          83    0.0748   -0.0014    0.0157    0.0015   -0.1049   -0.1012   -0.0194   -0.0081
          84    0.0390   -0.0066    0.0520   -0.0114   -0.1462   -0.0228   -0.0063    0.0097
          85   -0.0169    0.0100   -0.0071   -0.0073   -0.0145    0.0084   -0.0060    0.0196
          86    0.0191   -0.0213   -0.0012   -0.0211    0.0079   -0.0110   -0.0219    0.0230
          87    0.0184    0.0001   -0.0109   -0.0199    0.0032   -0.0083   -0.0140    0.0387
          88   -0.0017   -0.0048    0.0008   -0.0112   -0.0018   -0.0001   -0.0045    0.0047
          89    0.0204   -0.0393    0.0090   -0.0420    0.0127   -0.0139   -0.0070    0.0067
          90    0.0014   -0.0144   -0.0006   -0.0509   -0.0035   -0.0038    0.0068    0.0235
          91   -0.0097    0.0060    0.0288   -0.0199   -0.0045    0.0043   -0.0135    0.0088
          92    0.0916   -0.0167    0.0179    0.0018    0.0060    0.1419    0.0308    0.0138
          93   -0.0180    0.0081   -0.0009    0.0056   -0.0003   -0.0324    0.0010   -0.0117
          94   -0.0021    0.0017   -0.0100    0.0113   -0.0031    0.0049   -0.0040   -0.0031
          95   -0.0858    0.0162   -0.0235   -0.0065   -0.0167   -0.0829   -0.0064   -0.0036
          96    0.0206    0.0012    0.0135    0.0033    0.0047    0.0175    0.0089   -0.0066


   Root No.       9        10        11        12        13        14        15        16

                 9 A      10 A      11 A      12 A      13 A      14 A      15 A      16 A   

                 212.6     231.4     264.2     303.8     329.7     369.6     394.1     424.7
  
           1   -0.0026    0.0090    0.0067    0.0089    0.0015   -0.0111    0.0041    0.0103
           2    0.0078    0.0021    0.0096    0.0050    0.0009   -0.0173   -0.0190   -0.0086
           3    0.0055   -0.0009    0.0023    0.0019   -0.0082   -0.0029   -0.0151    0.0241
           4   -0.0027    0.0096    0.0069    0.0143    0.0073   -0.0061    0.0090    0.0074
           5    0.0050    0.0013    0.0088   -0.0078   -0.0065   -0.0118    0.0131    0.0035
           6    0.0238   -0.0126   -0.0015   -0.0103   -0.0163    0.0086    0.0018   -0.0059
           7   -0.0069    0.0137   -0.0042   -0.0089   -0.0084   -0.0015    0.0007    0.0086
           8    0.0066    0.0041    0.0055   -0.0011    0.0034   -0.0103   -0.0203   -0.0114
           9   -0.0034    0.0123   -0.0040   -0.0005    0.0005   -0.0060    0.0034    0.0300
          10    0.0101   -0.0065   -0.0036    0.0244    0.0057    0.0268    0.0011   -0.0164
          11   -0.0071   -0.0214   -0.0281   -0.0065   -0.0084   -0.0030    0.0105   -0.0008
          12    0.0201   -0.0033    0.0066   -0.0115   -0.0166    0.0002    0.0071   -0.0008
          13   -0.0068   -0.0117   -0.0011    0.0005    0.0071   -0.0235    0.0113   -0.0082
          14   -0.0090   -0.0130    0.0287   -0.0117   -0.0072    0.0100   -0.0093   -0.0268
          15   -0.0141   -0.0097    0.0123   -0.0041   -0.0013    0.0031    0.0121    0.0188
          16    0.0203   -0.0089    0.0161   -0.0276    0.0315   -0.0090   -0.0257    0.0123
          17    0.0249    0.0146   -0.0097    0.0335   -0.0265   -0.0115   -0.0114    0.0179
          18   -0.0187   -0.0012    0.0134   -0.0020   -0.0022   -0.0107   -0.0093    0.0093
          19    0.0143   -0.0026    0.0026    0.0239    0.0057    0.0290    0.0004   -0.0193
          20   -0.0082    0.0027   -0.0043    0.0003    0.0003   -0.0024    0.0009    0.0014
          21   -0.0096    0.0206    0.0155    0.0308    0.0118    0.0243   -0.0072   -0.0106
          22   -0.0063   -0.0021    0.0008   -0.0146   -0.0333    0.0220   -0.0115    0.0094
          23    0.0042   -0.0044    0.0051    0.0064   -0.0040   -0.0093   -0.0026   -0.0030
          24    0.0055   -0.0260    0.0106    0.0199    0.0157   -0.0118    0.0072    0.0053
          25   -0.0035    0.0010   -0.0050    0.0114    0.0111   -0.0319    0.0239   -0.0005
          26   -0.0030    0.0115    0.0060   -0.0046   -0.0105    0.0021    0.0262    0.0028
          27    0.0149   -0.0076   -0.0117   -0.0074   -0.0169    0.0067    0.0252   -0.0136
          28   -0.0077    0.0167   -0.0066   -0.0158   -0.0132    0.0050   -0.0020    0.0071
          29    0.0043    0.0054   -0.0065   -0.0158    0.0465    0.0328    0.0186    0.0194
          30   -0.0022    0.0309   -0.0151   -0.0148    0.0108   -0.0170   -0.0010   -0.0273
          31   -0.0083   -0.0121   -0.0130    0.0049    0.0115   -0.0279    0.0038   -0.0115
          32   -0.0224   -0.0037   -0.0073   -0.0018    0.0030    0.0069   -0.0174    0.0027
          33   -0.0146   -0.0196   -0.0263    0.0057    0.0073    0.0086   -0.0245    0.0016
          34   -0.0067    0.0027   -0.0018   -0.0171   -0.0292    0.0201   -0.0101    0.0038
          35   -0.0046    0.0027   -0.0062   -0.0054    0.0189    0.0139    0.0107    0.0061
          36    0.0007    0.0231   -0.0123   -0.0174    0.0107   -0.0060   -0.0028   -0.0288
          37   -0.0191    0.0181    0.0093    0.0209    0.0058   -0.0229    0.0169    0.0267
          38   -0.0014   -0.0040    0.0180   -0.0006    0.0022   -0.0164   -0.0330   -0.0242
          39   -0.0064   -0.0003    0.0082    0.0032   -0.0061   -0.0080   -0.0173    0.0221
          40   -0.0043    0.0124    0.0076    0.0030    0.0041   -0.0002    0.0238    0.0129
          41    0.0038    0.0076    0.0130   -0.0096   -0.0089   -0.0079    0.0234    0.0062
          42    0.0233   -0.0264   -0.0140   -0.0132   -0.0130    0.0054   -0.0117   -0.0092
          43   -0.0068    0.0295   -0.0161   -0.0232    0.0002    0.0099    0.0037   -0.0024
          44    0.0162    0.0097    0.0015    0.0097   -0.0050   -0.0243   -0.0400   -0.0100
          45   -0.0092    0.0009    0.0044   -0.0004    0.0010   -0.0030    0.0130    0.0339
          46    0.0126   -0.0308   -0.0298    0.0214   -0.0019    0.0379    0.0089   -0.0277
          47   -0.0106   -0.0290   -0.0403   -0.0037   -0.0085    0.0030    0.0108   -0.0053
          48    0.0327    0.0171    0.0419   -0.0215   -0.0181   -0.0171    0.0086    0.0115
          49    0.0231   -0.0102   -0.0016    0.0164   -0.0004    0.0302    0.0001   -0.0207
          50   -0.0163   -0.0476   -0.0667    0.0001   -0.0107    0.0147    0.0140   -0.0149
          51    0.0235   -0.0260   -0.0207   -0.0129   -0.0232    0.0162    0.0082   -0.0144
          52   -0.0148   -0.0202   -0.0331    0.0115    0.0218   -0.0269   -0.0180   -0.0043
          53   -0.0083   -0.0369    0.0828   -0.0267   -0.0264    0.0249    0.0336   -0.0650
          54   -0.0096    0.0034    0.0139   -0.0061   -0.0041    0.0000    0.0160    0.0279
          55    0.0053   -0.0217    0.0433   -0.0101   -0.0048   -0.0265    0.0476   -0.0417
          56   -0.0055   -0.0128    0.0326   -0.0120   -0.0076    0.0073   -0.0060   -0.0308
          57   -0.0227   -0.0292    0.0571   -0.0202   -0.0199    0.0238    0.0493   -0.0055
          58   -0.0005   -0.0062   -0.0072    0.0425    0.0160    0.0431   -0.0024   -0.0277
          59   -0.0138   -0.0137   -0.0123   -0.0036   -0.0014   -0.0026   -0.0021    0.0035
          60   -0.0292    0.0034   -0.0009    0.0466    0.0210    0.0387   -0.0129   -0.0174
          61    0.0393   -0.0114    0.0016   -0.0099   -0.0170    0.0057    0.0139   -0.0086
          62   -0.0019    0.0469    0.0290    0.0138    0.0121    0.0014   -0.0058   -0.0012
          63   -0.0195    0.0175    0.0111    0.0415    0.0185    0.0327   -0.0113   -0.0144
          64    0.0074    0.0127    0.0177    0.0367    0.0172    0.0374   -0.0105   -0.0220
          65   -0.0100   -0.0047   -0.0089   -0.0015   -0.0010   -0.0026    0.0008    0.0019
          66   -0.0052    0.0619    0.0441    0.0469    0.0242    0.0307   -0.0127   -0.0152
          67    0.1183   -0.0142    0.0070   -0.0617    0.0714   -0.0095   -0.0529    0.0104
          68    0.0500    0.0121   -0.0107    0.0220   -0.0137   -0.0121   -0.0197    0.0157
          69   -0.0966   -0.0129    0.0410   -0.0207    0.0087   -0.0198   -0.0116   -0.0160
          70    0.0198   -0.0093    0.0165   -0.0286    0.0323   -0.0091   -0.0269    0.0126
          71   -0.0723    0.0212   -0.0021    0.0687   -0.0661   -0.0093    0.0189    0.0219
          72    0.0326    0.0119   -0.0035    0.0104   -0.0033   -0.0106    0.0094    0.0048
          73   -0.0594   -0.0182    0.0340   -0.0274    0.0198   -0.0092   -0.0333    0.0184
          74    0.1120    0.0186   -0.0306    0.0347   -0.0239   -0.0028   -0.0228    0.0405
          75   -0.0130   -0.0029    0.0116   -0.0015   -0.0054   -0.0073   -0.0161    0.0199
          76   -0.0110    0.0323   -0.0168   -0.0435   -0.0346    0.0312   -0.0176   -0.0155
          77    0.0057   -0.0060    0.0102    0.0128   -0.0200   -0.0253   -0.0125   -0.0122
          78    0.0077   -0.0440    0.0189    0.0341    0.0201   -0.0133    0.0128    0.0209
          79    0.0020   -0.0194    0.0160    0.0049   -0.0538   -0.0026   -0.0236    0.0083
          80    0.0075   -0.0064    0.0082    0.0091   -0.0103   -0.0164   -0.0076   -0.0069
          81    0.0045   -0.0383    0.0173    0.0324    0.0135   -0.0172    0.0093    0.0151
          82   -0.0092   -0.0253    0.0065   -0.0004   -0.0139    0.0371    0.0067    0.0429
          83    0.0086   -0.0070    0.0083    0.0092   -0.0079   -0.0162   -0.0067   -0.0065
          84    0.0086   -0.0401    0.0167    0.0300    0.0216   -0.0114    0.0124    0.0186
          85   -0.0094   -0.0227   -0.0235    0.0033    0.0122   -0.0210   -0.0174   -0.0318
          86   -0.0419   -0.0065   -0.0341    0.0099    0.0178    0.0095   -0.0423    0.0127
          87   -0.0360   -0.0299   -0.0624    0.0166    0.0232    0.0162   -0.0655   -0.0018
          88   -0.0016    0.0033   -0.0088    0.0116    0.0084   -0.0315    0.0344   -0.0045
          89    0.0011    0.0262    0.0017    0.0014   -0.0175    0.0123    0.0550    0.0022
          90    0.0220   -0.0026   -0.0289   -0.0082   -0.0267    0.0033    0.0652   -0.0322
          91   -0.0040   -0.0200    0.0088   -0.0044   -0.0376    0.0240   -0.0121    0.0153
          92   -0.0154    0.0039   -0.0082    0.0034   -0.0093   -0.0162   -0.0063   -0.0223
          93    0.0016    0.0352   -0.0176   -0.0260    0.0220   -0.0019    0.0024   -0.0283
          94   -0.0077    0.0156   -0.0042   -0.0110   -0.0127   -0.0009   -0.0015    0.0252
          95    0.0110    0.0057   -0.0093   -0.0255    0.0871    0.0772    0.0498    0.0584
          96   -0.0035    0.0304   -0.0154   -0.0151    0.0015   -0.0235   -0.0084   -0.0461


   Root No.      17        18        19        20        21        22        23        24

                17 A      18 A      19 A      20 A      21 A      22 A      23 A      24 A   

                 524.3     553.7     577.7     608.0     756.2     793.5     829.4     846.4
  
           1    0.0110   -0.0056    0.0439    0.0053   -0.0110   -0.0118   -0.0145   -0.0058
           2   -0.0064   -0.0075    0.0071   -0.0367    0.0055   -0.0067    0.0021   -0.0190
           3   -0.0182   -0.0070   -0.0199    0.0404    0.0002    0.0094    0.0049    0.0137
           4    0.0128   -0.0121    0.0371    0.0006   -0.0069   -0.0053   -0.0013    0.0146
           5    0.0267   -0.0110   -0.0351   -0.0106    0.0190    0.0227    0.0072   -0.0100
           6    0.0219    0.0063   -0.0008    0.0018   -0.0014    0.0008   -0.0021   -0.0053
           7    0.0008    0.0477    0.0083    0.0070    0.0048    0.0077    0.0024   -0.0044
           8   -0.0101    0.0188    0.0052   -0.0331   -0.0001   -0.0059   -0.0014    0.0154
           9   -0.0083    0.0204   -0.0168   -0.0332    0.0040   -0.0148   -0.0049    0.0041
          10    0.0006    0.0021   -0.0103   -0.0036    0.0039    0.0048   -0.0069    0.0011
          11    0.0029   -0.0007    0.0038   -0.0016    0.0116    0.0108   -0.0209    0.0055
          12    0.0441    0.0030    0.0125    0.0010    0.0042   -0.0199    0.0123    0.0065
          13    0.0012    0.0027   -0.0281    0.0117   -0.0091   -0.0140   -0.0091   -0.0001
          14   -0.0001    0.0123    0.0200    0.0089   -0.0142    0.0038   -0.0087    0.0118
          15   -0.0023   -0.0089   -0.0142   -0.0257   -0.0061   -0.0087   -0.0041    0.0004
          16   -0.0176   -0.0053    0.0038    0.0077   -0.0036   -0.0037   -0.0055   -0.0071
          17   -0.0076   -0.0149    0.0067    0.0155   -0.0014   -0.0021   -0.0006   -0.0129
          18   -0.0101   -0.0106    0.0069    0.0163   -0.0022    0.0012    0.0004   -0.0035
          19    0.0055    0.0041   -0.0140   -0.0058    0.0044   -0.0009    0.0003    0.0004
          20   -0.0066    0.0002    0.0025    0.0007   -0.0004    0.0019   -0.0060    0.0017
          21    0.0025    0.0026   -0.0102   -0.0016    0.0019   -0.0048    0.0051    0.0026
          22   -0.0052   -0.0248   -0.0088   -0.0150   -0.0001   -0.0039   -0.0006    0.0017
          23   -0.0001    0.0047    0.0007    0.0009   -0.0003   -0.0001   -0.0017   -0.0123
          24    0.0015    0.0170    0.0034    0.0043   -0.0001   -0.0000   -0.0004    0.0033
          25   -0.0033   -0.0285    0.0019   -0.0221    0.0099    0.0242    0.0255    0.0084
          26   -0.0086    0.0051   -0.0135    0.0045   -0.0140    0.0015    0.0074    0.0015
          27   -0.0344    0.0085    0.0107   -0.0055   -0.0244    0.0127   -0.0098   -0.0060
          28   -0.0000    0.0442    0.0072    0.0050    0.0102    0.0192    0.0085   -0.0080
          29    0.0022   -0.0031    0.0072    0.0009    0.0018    0.0018    0.0049    0.0267
          30    0.0033    0.0081    0.0023    0.0105    0.0023    0.0070    0.0022   -0.0098
          31    0.0061   -0.0019   -0.0276    0.0148   -0.0073   -0.0100   -0.0044   -0.0027
          32    0.0216    0.0131   -0.0223    0.0246   -0.0160   -0.0135   -0.0021   -0.0019
          33    0.0037   -0.0140    0.0277   -0.0183   -0.0045    0.0351    0.0070    0.0001
          34   -0.0033   -0.0236   -0.0063   -0.0079   -0.0014   -0.0025   -0.0010    0.0007
          35    0.0031   -0.0129    0.0032    0.0057   -0.0021   -0.0020   -0.0033   -0.0158
          36    0.0023   -0.0299   -0.0039    0.0058   -0.0056   -0.0067   -0.0032    0.0058
          37    0.0111   -0.0309    0.0482    0.0136   -0.0101   -0.0073   -0.0187    0.0067
          38   -0.0159   -0.0064    0.0212   -0.0249    0.0035    0.0033    0.0120   -0.0170
          39   -0.0229   -0.0163   -0.0098    0.0488   -0.0005    0.0159    0.0081    0.0174
          40    0.0218   -0.0015    0.0449    0.0186   -0.0181   -0.0133   -0.0126    0.0297
          41    0.0194   -0.0059   -0.0383   -0.0015    0.0046    0.0220    0.0101   -0.0032
          42    0.0488    0.0033    0.0169   -0.0069    0.0280   -0.0061   -0.0169   -0.0079
          43    0.0057    0.0725    0.0181    0.0220    0.0196    0.0402    0.0238   -0.0067
          44   -0.0181    0.0100    0.0122   -0.0187    0.0032    0.0019    0.0032    0.0146
          45   -0.0061    0.0117   -0.0254   -0.0477   -0.0042   -0.0337   -0.0169    0.0045
          46   -0.0083    0.0128   -0.0139   -0.0078   -0.0264   -0.0327    0.0877   -0.0242
          47   -0.0138    0.0048    0.0117   -0.0003   -0.0103   -0.0095    0.0107    0.0007
          48    0.0957   -0.0123   -0.0171   -0.0049    0.0683    0.0391   -0.0628    0.0129
          49    0.0085    0.0081   -0.0200   -0.0040    0.0181    0.0195   -0.0512    0.0051
          50   -0.0394    0.0152    0.0240    0.0006   -0.0513   -0.0546    0.0898   -0.0122
          51    0.0184    0.0197    0.0193    0.0032   -0.0304   -0.0553    0.0553   -0.0033
          52    0.0305   -0.0042   -0.0374    0.0064   -0.0609    0.0033   -0.0237    0.0029
          53   -0.0317   -0.0343    0.0529    0.0864    0.0622    0.0362    0.0382   -0.0167
          54   -0.0103    0.0106   -0.0192   -0.0467    0.0017   -0.0303   -0.0105    0.0074
          55   -0.0410   -0.0233   -0.0015    0.0270    0.0539   -0.0085    0.0123   -0.0044
          56   -0.0071    0.0103    0.0241    0.0039   -0.0073    0.0033   -0.0080    0.0154
          57   -0.0192   -0.0422    0.0040    0.0529    0.0553    0.0133    0.0369   -0.0371
          58   -0.0199    0.0040   -0.0337   -0.0098    0.0239    0.0466   -0.0755   -0.0009
          59   -0.0031    0.0024    0.0096    0.0030   -0.0222   -0.0297    0.0601   -0.0092
          60   -0.0199    0.0043   -0.0248   -0.0038    0.0041    0.0185   -0.0189   -0.0078
          61    0.0503    0.0028    0.0168   -0.0020    0.0073   -0.0426    0.0292    0.0257
          62   -0.0238    0.0002   -0.0119   -0.0007   -0.0135   -0.0005    0.0272   -0.0179
          63   -0.0116    0.0032   -0.0202   -0.0030    0.0029    0.0110   -0.0102   -0.0043
          64   -0.0108    0.0072   -0.0239   -0.0058   -0.0261   -0.0284    0.0866   -0.0294
          65   -0.0047    0.0008    0.0051    0.0013   -0.0049   -0.0063    0.0089    0.0005
          66   -0.0165    0.0020   -0.0290   -0.0044    0.0032    0.0150   -0.0075   -0.0104
          67   -0.0382    0.0016   -0.0232   -0.0176    0.0079   -0.0011    0.0125   -0.0129
          68   -0.0137   -0.0125   -0.0012    0.0040    0.0029   -0.0022    0.0051   -0.0175
          69   -0.0096    0.0008    0.0105   -0.0546    0.0097   -0.0189    0.0024   -0.0516
          70   -0.0192   -0.0051    0.0021    0.0080   -0.0030   -0.0030   -0.0042   -0.0062
          71    0.0153   -0.0249    0.0374    0.0480   -0.0150   -0.0041   -0.0212   -0.0075
          72    0.0202   -0.0127    0.0520   -0.0025   -0.0172   -0.0240   -0.0333   -0.0374
          73   -0.0382   -0.0068   -0.0256    0.0340    0.0054    0.0164    0.0171    0.0202
          74   -0.0249   -0.0248   -0.0155    0.0833   -0.0032    0.0257    0.0132    0.0340
          75   -0.0236   -0.0147   -0.0119    0.0511    0.0003    0.0187    0.0135    0.0236
          76   -0.0045   -0.0777   -0.0173   -0.0148   -0.0117   -0.0238   -0.0120    0.0119
          77   -0.0027    0.0176   -0.0020   -0.0045    0.0025    0.0030    0.0059    0.0332
          78    0.0017    0.0436    0.0087    0.0055    0.0057    0.0104    0.0042   -0.0125
          79   -0.0104    0.0162   -0.0109   -0.0267    0.0101    0.0091    0.0179    0.0800
          80   -0.0019    0.0123   -0.0013   -0.0034    0.0017    0.0017    0.0039    0.0225
          81    0.0014    0.0394    0.0075    0.0050    0.0048    0.0087    0.0030   -0.0144
          82   -0.0022   -0.0036    0.0013   -0.0091    0.0053    0.0069   -0.0041   -0.0876
          83   -0.0016    0.0150   -0.0006   -0.0023    0.0020    0.0028    0.0046    0.0255
[...]
 TRANSITION DIPOLE   0.0387         C  5 -- H 19         +35.0% ( 61.3%)     94.5%
 TRAVEL (Ang.)       0.2039         C  5 -- C 11          +1.1% ( 10.9%)      0.2%
 REDUCED MASS        0.5516         C  3 -- C  5          +1.1% ( 10.8%)      0.3%
 EFFECTIVE MASS      1.5305
 FORCE CONSTANT      2.8101

 VIBRATION         75   75A           ATOM PAIR      ENERGY CONTRIBUTION    RADIAL
 FREQUENCY          2946.30         C  4 -- H 17         +55.8% ( 77.5%)     97.2%
 TRANSITION DIPOLE   0.0127         C  4 -- H 16         +41.4% ( 66.8%)     95.5%
 TRAVEL (Ang.)       0.2092         C  4 -- C  7          +1.2% ( 11.3%)      0.1%
 REDUCED MASS        0.5232         C  2 -- C  4          +1.1% ( 11.1%)      0.1%
 EFFECTIVE MASS      1.5432
 FORCE CONSTANT      2.6758

 VIBRATION         76   76A           ATOM PAIR      ENERGY CONTRIBUTION    RADIAL
 FREQUENCY          3022.80         C  5 -- H 19         +62.7% ( 78.2%)     99.0%
 TRANSITION DIPOLE   0.0607         C  5 -- H 18         +33.3% ( 57.0%)     95.1%
 TRAVEL (Ang.)       0.2118         C 11 -- H 29          +2.2% ( 14.6%)    100.0%
 REDUCED MASS        0.4974         C  5 -- C 11          +0.7% (  8.1%)     16.3%
 EFFECTIVE MASS      1.2889
 FORCE CONSTANT      2.6776

 VIBRATION         77   77A           ATOM PAIR      ENERGY CONTRIBUTION    RADIAL
 FREQUENCY          3026.06         C  4 -- H 16         +57.0% ( 74.4%)     98.5%
 TRANSITION DIPOLE   0.0290         C  4 -- H 17         +41.0% ( 63.1%)     96.7%
 TRAVEL (Ang.)       0.2137         C  4 -- C  7          +0.6% (  7.8%)     25.2%
 REDUCED MASS        0.4880         C  2 -- C  4          +0.6% (  7.6%)     28.6%
 EFFECTIVE MASS      1.2749
 FORCE CONSTANT      2.6329

 VIBRATION         78   78A           ATOM PAIR      ENERGY CONTRIBUTION    RADIAL
 FREQUENCY          3030.48         C 10 -- H 32         +96.2% ( 99.4%)    100.0%
 TRANSITION DIPOLE   0.2667         C 10 -- C 12          +1.4% ( 12.0%)     39.7%
 TRAVEL (Ang.)       0.1565         C  3 -- C 10          +1.3% ( 11.7%)     15.1%
 REDUCED MASS        0.9090         C 12 -- H 31          +0.5% (  7.5%)     96.6%
 EFFECTIVE MASS      1.5006
 FORCE CONSTANT      4.9186

 VIBRATION         79   79A           ATOM PAIR      ENERGY CONTRIBUTION    RADIAL
 FREQUENCY          3035.89         C  9 -- H 30         +72.7% ( 86.5%)    100.0%
 TRANSITION DIPOLE   0.2833         C 11 -- H 29         +23.9% ( 49.5%)     99.9%
 TRAVEL (Ang.)       0.1971         C  9 -- C 11          +1.1% ( 10.8%)      4.3%
 REDUCED MASS        0.5719         C  2 -- C  9          +1.0% ( 10.1%)     16.7%
 EFFECTIVE MASS      1.4619
 FORCE CONSTANT      3.1057

 VIBRATION         80   80A           ATOM PAIR      ENERGY CONTRIBUTION    RADIAL
 FREQUENCY          3037.06         C 12 -- H 31         +94.3% ( 98.6%)    100.0%
 TRANSITION DIPOLE   0.2147         C 10 -- C 12          +1.6% ( 12.7%)     39.0%
 TRAVEL (Ang.)       0.1588         C  8 -- C 12          +1.4% ( 12.0%)     11.0%
 REDUCED MASS        0.8807         C  8 -- H 26          +1.4% ( 11.9%)     98.0%
 EFFECTIVE MASS      1.5266
 FORCE CONSTANT      4.7862

 VIBRATION         81   81A           ATOM PAIR      ENERGY CONTRIBUTION    RADIAL
 FREQUENCY          3059.07         C 11 -- H 29         +71.1% ( 85.5%)     99.9%
 TRANSITION DIPOLE   0.2761         C  9 -- H 30         +23.8% ( 49.5%)     99.8%
 TRAVEL (Ang.)       0.1983         C  9 -- C 11          +1.9% ( 14.1%)     89.6%
 REDUCED MASS        0.5604         C  5 -- C 11          +1.1% ( 10.8%)     18.3%
 EFFECTIVE MASS      1.5748
 FORCE CONSTANT      3.0900

 VIBRATION         82   82A           ATOM PAIR      ENERGY CONTRIBUTION    RADIAL
 FREQUENCY          3070.06         C  8 -- H 28         +49.2% ( 72.3%)     97.1%
 TRANSITION DIPOLE   0.0233         C  8 -- H 27         +48.9% ( 72.1%)     97.0%
 TRAVEL (Ang.)       0.2077         C  8 -- C 12          +1.0% ( 10.2%)      0.0%
 REDUCED MASS        0.5093         C  8 -- H 26          +0.9% (  9.9%)      0.0%
 EFFECTIVE MASS      1.5013
 FORCE CONSTANT      2.8285

 VIBRATION         83   83A           ATOM PAIR      ENERGY CONTRIBUTION    RADIAL
 FREQUENCY          3075.34         C  7 -- H 20         +56.1% ( 77.3%)     98.0%
 TRANSITION DIPOLE   0.0145         C  7 -- H 22         +40.3% ( 65.5%)     95.6%
 TRAVEL (Ang.)       0.2084         C  7 -- H 21          +1.9% ( 14.2%)     21.5%
 REDUCED MASS        0.5051         C  4 -- C  7          +1.0% ( 10.2%)      0.0%
 EFFECTIVE MASS      1.5011
 FORCE CONSTANT      2.8143

 VIBRATION         84   84A           ATOM PAIR      ENERGY CONTRIBUTION    RADIAL
 FREQUENCY          3075.57         C  8 -- H 26         +62.7% ( 81.6%)     98.9%
 TRANSITION DIPOLE   0.0576         C  8 -- H 27         +17.3% ( 42.9%)     85.1%
 TRAVEL (Ang.)       0.2139         C  8 -- H 28         +17.0% ( 42.5%)     84.8%
 REDUCED MASS        0.4792         C 12 -- H 31          +1.9% ( 14.2%)    100.0%
 EFFECTIVE MASS      1.5084
 FORCE CONSTANT      2.6708

 VIBRATION         85   85A           ATOM PAIR      ENERGY CONTRIBUTION    RADIAL
 FREQUENCY          3076.43         C  6 -- H 23         +52.2% ( 74.5%)     97.5%
 TRANSITION DIPOLE   0.0293         C  6 -- H 25         +45.3% ( 69.5%)     96.4%
 TRAVEL (Ang.)       0.2081         C  6 -- H 24          +1.4% ( 12.3%)     11.2%
 REDUCED MASS        0.5064         C  1 -- C  6          +1.0% ( 10.4%)      0.0%
 EFFECTIVE MASS      1.5045
 FORCE CONSTANT      2.8237

 VIBRATION         86   86A           ATOM PAIR      ENERGY CONTRIBUTION    RADIAL
 FREQUENCY          3077.08         C  6 -- H 24         +64.4% ( 82.8%)     98.9%
 TRANSITION DIPOLE   0.0371         C  6 -- H 25         +21.5% ( 47.8%)     88.3%
 TRAVEL (Ang.)       0.2079         C  6 -- H 23         +13.0% ( 37.2%)     79.5%
 REDUCED MASS        0.5068         C  1 -- C  6          +1.0% ( 10.5%)      0.0%
 EFFECTIVE MASS      1.5070
 FORCE CONSTANT      2.8272

 VIBRATION         87   87A           ATOM PAIR      ENERGY CONTRIBUTION    RADIAL
 FREQUENCY          3082.04         C  7 -- H 21         +60.1% ( 80.0%)     98.6%
 TRANSITION DIPOLE   0.0006         C  7 -- H 22         +26.8% ( 53.4%)     91.1%
 TRAVEL (Ang.)       0.2147         C  7 -- H 20         +11.6% ( 35.1%)     76.8%
 REDUCED MASS        0.4747         C  4 -- C  7          +1.0% ( 10.3%)      0.0%
 EFFECTIVE MASS      1.5025
 FORCE CONSTANT      2.6565

 VIBRATION         88   88A           ATOM PAIR      ENERGY CONTRIBUTION    RADIAL
 FREQUENCY          3169.59         C  8 -- H 26         +34.5% ( 56.6%)     97.2%
 TRANSITION DIPOLE   0.0683         C  8 -- H 28         +32.6% ( 55.0%)     97.0%
 TRAVEL (Ang.)       0.2550         C  8 -- H 27         +32.6% ( 54.9%)     97.0%
 REDUCED MASS        0.3272         C  8 -- C 12          +0.3% (  5.4%)    100.0%
 EFFECTIVE MASS      1.1393
 FORCE CONSTANT      1.9367

 VIBRATION         89   89A           ATOM PAIR      ENERGY CONTRIBUTION    RADIAL
 FREQUENCY          3175.38         C  6 -- H 23         +34.2% ( 56.2%)     97.3%
 TRANSITION DIPOLE   0.0292         C  6 -- H 24         +33.3% ( 55.5%)     97.1%
 TRAVEL (Ang.)       0.2548         C  6 -- H 25         +32.2% ( 54.6%)     96.9%
 REDUCED MASS        0.3271         C  1 -- C  6          +0.3% (  5.0%)     99.9%
 EFFECTIVE MASS      1.1352
 FORCE CONSTANT      1.9435

 VIBRATION         90   90A           ATOM PAIR      ENERGY CONTRIBUTION    RADIAL
 FREQUENCY          3179.34         C  7 -- H 21         +37.4% ( 58.8%)     97.7%
 TRANSITION DIPOLE   0.0143         C  7 -- H 22         +31.7% ( 54.2%)     96.8%
 TRAVEL (Ang.)       0.2539         C  7 -- H 20         +30.6% ( 53.2%)     96.7%
 REDUCED MASS        0.3290         C  4 -- C  7          +0.3% (  5.1%)     99.3%
 EFFECTIVE MASS      1.1372
 FORCE CONSTANT      1.9597

      SYMMETRY NUMBER FOR POINT-GROUP C1  =  1


          SYSTEM IS A GROUND STATE



 InChI=1S/C12H20/c1-4-7-12-9-6-8-11(5-2)10(12)3/h4,6-8,10-12H,5,9H2,1-3H3


          MOLECULE IS NOT LINEAR

          THERE ARE 90 GENUINE VIBRATIONS IN THIS SYSTEM
          THIS THERMODYNAMICS CALCULATION IS LIMITED TO
          MOLECULES WHICH HAVE NO INTERNAL ROTATIONS




                    CALCULATED THERMODYNAMIC PROPERTIES
                                          *
   TEMP. (K)   PARTITION FUNCTION   H.O.F.    ENTHALPY  HEAT CAPACITY ENTROPY
                                   KCAL/MOL   CAL/MOLE    CAL/K/MOL  CAL/K/MOL


 298.00  VIB.     0.6866D+05                  6932.1527    45.8654    45.3935
         ROT.     0.1450D+07                   888.2803     2.9808    31.1739
         INT.     0.9958D+11                  7820.4330    48.8462    76.5675
         TRA.     0.2036D+28                  1480.4672     4.9680    41.1956
         TOT.                       -8.345    9300.9002    53.8142   117.7631

 200.00  VIB.     0.1397D+04                  3221.4255    30.4247    30.4981
         ROT.     0.7974D+06                   596.1613     2.9808    29.9852
         INT.     0.1114D+10                  3817.5868    33.4055    60.4834
         TRA.     0.1119D+28                   993.6021     4.9680    39.2145
         TOT.                      -12.835    4811.1890    38.3735    99.6979

 210.00  VIB.     0.2092D+04                  3532.6776    31.8325    32.0165
         ROT.     0.8580D+06                   625.9693     2.9808    30.1307
         INT.     0.1795D+10                  4158.6469    34.8133    62.1471
         TRA.     0.1204D+28                  1043.2822     4.9680    39.4569
         TOT.                      -12.444    5201.9291    39.7813   101.6040

 220.00  VIB.     0.3128D+04                  3858.2141    33.2818    33.5306
         ROT.     0.9200D+06                   655.7774     2.9808    30.2694
         INT.     0.2878D+10                  4513.9915    36.2626    63.7999
         TRA.     0.1291D+28                  1092.9623     4.9680    39.6880
         TOT.                      -12.039    5606.9538    41.2307   103.4880

 230.00  VIB.     0.4667D+04                  4198.4555    34.7735    35.0428
         ROT.     0.9834D+06                   685.5855     2.9808    30.4019
         INT.     0.4590D+10                  4884.0410    37.7543    65.4446
         TRA.     0.1380D+28                  1142.6424     4.9680    39.9088
         TOT.                      -11.620    6026.6834    42.7223   105.3535

 240.00  VIB.     0.6953D+04                  4553.8224    36.3067    36.5550
         ROT.     0.1048D+07                   715.3935     2.9808    30.5287
         INT.     0.7289D+10                  5269.2160    39.2875    67.0837
         TRA.     0.1471D+28                  1192.3226     4.9680    40.1203
         TOT.                      -11.185    6461.5385    44.2555   107.2040

 250.00  VIB.     0.1034D+05                  4924.7214    37.8795    38.0688
         ROT.     0.1114D+07                   745.2016     2.9808    30.6504
         INT.     0.1153D+11                  5669.9230    40.8603    68.7192
         TRA.     0.1564D+28                  1242.0027     4.9680    40.3231
         TOT.                      -10.734    6911.9257    45.8283   109.0423

 260.00  VIB.     0.1537D+05                  5311.5337    39.4888    39.5857
         ROT.     0.1182D+07                   775.0097     2.9808    30.7673
         INT.     0.1817D+11                  6086.5434    42.4696    70.3530
         TRA.     0.1659D+28                  1291.6828     4.9680    40.5179
         TOT.                      -10.268    7378.2261    47.4376   110.8710

 270.00  VIB.     0.2281D+05                  5714.6065    41.1309    41.1068
         ROT.     0.1251D+07                   804.8177     2.9808    30.8798
         INT.     0.2853D+11                  6519.4242    44.1117    71.9866
         TRA.     0.1756D+28                  1341.3629     4.9680    40.7054
         TOT.                       -9.786    7860.7871    49.0797   112.6920

 280.00  VIB.     0.3383D+05                  6134.2462    42.8014    42.6327
         ROT.     0.1321D+07                   834.6258     2.9808    30.9882
         INT.     0.4469D+11                  6968.8720    45.7823    73.6209
         TRA.     0.1854D+28                  1391.0430     4.9680    40.8861
         TOT.                       -9.286    8359.9150    50.7503   114.5070

 290.00  VIB.     0.5014D+05                  6570.7149    44.4959    44.1642
         ROT.     0.1392D+07                   864.4339     2.9808    31.0928
         INT.     0.6981D+11                  7435.1488    47.4767    75.2570
         TRA.     0.1954D+28                  1440.7231     4.9680    41.0604
         TOT.                       -8.770    8875.8719    52.4447   116.3174

 300.00  VIB.     0.7427D+05                  7024.2274    46.2094    45.7015
         ROT.     0.1465D+07                   894.2419     2.9808    31.1939
         INT.     0.1088D+12                  7918.4693    49.1902    76.8953
         TRA.     0.2056D+28                  1490.4032     4.9680    41.2289
         TOT.                       -8.237    9408.8725    54.1582   118.1242

 310.00  VIB.     0.1100D+06                  7494.9507    47.9373    47.2448
         ROT.     0.1539D+07                   924.0500     2.9808    31.2916
         INT.     0.1692D+12                  8419.0007    50.9181    78.5364
         TRA.     0.2160D+28                  1540.0833     4.9680    41.3918
         TOT.                       -7.687    9959.0840    55.8861   119.9282

 320.00  VIB.     0.1628D+06                  7983.0048    49.6748    48.7942
         ROT.     0.1614D+07                   953.8580     2.9808    31.3862
         INT.     0.2628D+12                  8936.8629    52.6556    80.1804
         TRA.     0.2265D+28                  1589.7634     4.9680    41.5495
         TOT.                       -7.120   10526.6263    57.6236   121.7299

 330.00  VIB.     0.2410D+06                  8488.4638    51.4175    50.3494
         ROT.     0.1690D+07                   983.6661     2.9808    31.4780
         INT.     0.4074D+12                  9472.1299    54.3983    81.8274
         TRA.     0.2372D+28                  1639.4435     4.9680    41.7024
         TOT.                       -6.535   11111.5734    59.3663   123.5298

 340.00  VIB.     0.3568D+06                  9011.3584    53.1612    51.9103
         ROT.     0.1768D+07                  1013.4742     2.9808    31.5669
         INT.     0.6307D+12                 10024.8326    56.1420    83.4772
         TRA.     0.2481D+28                  1689.1236     4.9680    41.8507
         TOT.                       -5.932   11713.9562    61.1101   125.3279

 350.00  VIB.     0.5282D+06                  9551.6789    54.9021    53.4764
         ROT.     0.1846D+07                  1043.2822     2.9808    31.6534
         INT.     0.9751D+12                 10594.9611    57.8829    85.1298
         TRA.     0.2591D+28                  1738.8037     4.9680    41.9947
         TOT.                       -5.313   12333.7648    62.8509   127.1245

 360.00  VIB.     0.7821D+06                 10109.3779    56.6364    55.0474
         ROT.     0.1926D+07                  1073.0903     2.9808    31.7373
         INT.     0.1506D+13                 11182.4682    59.6172    86.7847
         TRA.     0.2703D+28                  1788.4838     4.9680    42.1347
         TOT.                       -4.675   12970.9521    64.5852   128.9194

 370.00  VIB.     0.1158D+07                 10684.3743    58.3610    56.6227
         ROT.     0.2007D+07                  1102.8984     2.9808    31.8190
         INT.     0.2324D+13                 11787.2727    61.3418    88.4417
         TRA.     0.2817D+28                  1838.1639     4.9680    42.2708
         TOT.                       -4.021   13625.4366    66.3098   130.7125

 380.00  VIB.     0.1715D+07                 11276.5563    60.0731    58.2019
         ROT.     0.2088D+07                  1132.7064     2.9808    31.8985
         INT.     0.3583D+13                 12409.2628    63.0539    90.1003
         TRA.     0.2932D+28                  1887.8440     4.9680    42.4033
         TOT.                       -3.349   14297.1068    68.0219   132.5036

 390.00  VIB.     0.2542D+07                 11885.7852    61.7700    59.7843
         ROT.     0.2171D+07                  1162.5145     2.9808    31.9759
         INT.     0.5519D+13                 13048.2997    64.7508    91.7602
         TRA.     0.3048D+28                  1937.5242     4.9680    42.5323
         TOT.                       -2.661   14985.8238    69.7188   134.2925

 400.00  VIB.     0.3767D+07                 12511.8984    63.4496    61.3694
         ROT.     0.2256D+07                  1192.3226     2.9808    32.0514
         INT.     0.8496D+13                 13704.2210    66.4304    93.4207
         TRA.     0.3166D+28                  1987.2043     4.9680    42.6581
         TOT.                       -1.955   15691.4252    71.3984   136.0788

   *: NOTE: HEATS OF FORMATION ARE RELATIVE TO THE
            ELEMENTS IN THEIR STANDARD STATE AT 298K
              (=  Standard Enthalpy of Formation).

            Hvib:  Zero-point energy is not included.
                   frequencies of less than zero cm-1 are not included.
            Hrot = (3/2)RT
            Htra = (3/2)RT + pV = (5/2)RT

            Heat capacity is Cp, not Cv

          For more information, see: HTTP://OpenMOPAC.net/Manual/thermochemistry.html


           FORCE CONSTANT IN CARTESIAN COORDINATES (Millidynes/A)

    ATOM   CHEMICAL       X               Y               Z
   NUMBER   SYMBOL  FORCE CONSTANT  FORCE CONSTANT  FORCE CONSTANT

      1       C        7.847490        8.050484        8.502708
      2       C        8.154922        8.693473        8.126138
      3       C        9.324874        7.556399        8.339819
      4       C        8.450880        8.251014        7.917775
      5       C        9.059453        8.400003        7.965002
      6       C        8.435127        8.298536        8.079261
      7       C        8.271254        8.194498        8.380318
      8       C        9.115205        7.972725        8.363802
      9       C       10.891687       10.086456        6.228627
     10       C       10.836767        3.115126       13.206375
     11       C       10.708045       10.277732        6.260778
     12       C       11.124583        2.937236       13.088712
     13       H        1.093595        1.445209        3.398815
     14       H        1.147095        3.717123        1.097535
     15       H        1.300186        1.481702        3.166911
     16       H        0.734325        4.686414        0.975519
     17       H        2.007965        1.861135        2.441968
     18       H        1.682196        1.062950        3.516538
     19       H        0.801075        4.755340        0.785411
     20       H        2.341964        1.958364        2.455000
     21       H        1.181208        0.771194        4.837086
     22       H        0.766520        5.105094        0.904289
     23       H        1.140313        4.890532        0.747337
     24       H        5.366884        0.701388        0.703181
     25       H        1.172374        1.326310        4.255896
     26       H        1.620815        0.838224        4.307060
     27       H        1.056910        4.512565        1.092393
     28       H        1.090604        2.820847        2.749965
     29       H        1.589076        2.463051        2.184663
     30       H        4.869104        0.661524        0.675528
     31       H        1.848904        0.528618        3.830925
     32       H        1.867064        0.524778        3.810367

 **********************
 *                    *
 * JOB ENDED NORMALLY *
 *                    *
 **********************



 TOTAL JOB TIME:             7.18 SECONDS

 == MOPAC DONE ==
