 *******************************************************************************
 **                                                                           **
 **                              MOPAC v23.1.2                                **
 **                                                                           **
 *******************************************************************************
 **          Digital Object Identifier (DOI): 10.5281/zenodo.6511958          **
 **    Visit the DOI location for information on how to cite this program.    **
 *******************************************************************************

                              PM3 CALCULATION RESULTS

 *******************************************************************************
 *  CALCULATION DONE: (MAX THREADS = 1)              Tue Jun  3 16:29:29 2025  *
 *  PM3        - The PM3 Hamiltonian to be used
 *  PRECISE    - TIGHTER CRITERIA TO BE USED
 *  NOSYM      - POINT-GROUP SYMMETRY SET TO C1
 *  THREADS=1  - MULTI-THREADING NOT USED
 *  T=         - A TIME OF 172800.0 SECONDS REQUESTED
 *  DUMP=N     - RESTART FILE WRITTEN EVERY 7200.0 SECONDS REQUESTED
 *******************************************************************************
pm3  precise nosym THREADS=1
 InChI=1S/C10H12/c1-2-5-9-7-4-8-10(9)6-3-1/h1-5,8-10H,6-7H2

   ATOM   CHEMICAL          X               Y               Z
  NUMBER   SYMBOL      (ANGSTROMS)     (ANGSTROMS)     (ANGSTROMS)

     1       C         -0.49560000  *   0.88620000  *  -0.81700000  *
     2       C         -0.70000000  *  -0.65060000  *  -0.79740000  *
     3       C          0.93380000  *   1.37960000  *  -0.52530000  *
     4       C         -1.49190000  *  -0.95150000  *   0.48730000  *
     5       C         -1.44580000  *   1.37200000  *   0.22860000  *
     6       C          0.53800000  *  -1.51310000  *  -0.94250000  *
     7       C         -1.97990000  *   0.38250000  *   0.92670000  *
     8       C          1.48910000  *   0.83360000  *   0.76150000  *
     9       C          1.80890000  *  -0.45400000  *   0.91710000  *
    10       C          1.60640000  *  -1.46790000  *  -0.13400000  *
    11       H         -0.81220000  *   1.29360000  *  -1.80260000  *
    12       H         -1.36730000  *  -0.90090000  *  -1.65380000  *
    13       H          1.60460000  *   1.10360000  *  -1.36790000  *
    14       H          0.92920000  *   2.49010000  *  -0.47100000  *
    15       H         -0.85640000  *  -1.38700000  *   1.28790000  *
    16       H         -2.34900000  *  -1.62840000  *   0.28230000  *
    17       H          1.70470000  *   1.52590000  *   1.56610000  *
    18       H         -1.65510000  *   2.41910000  *   0.42330000  *
    19       H          0.51810000  *  -2.28110000  *  -1.70650000  *
    20       H         -2.66320000  *   0.53740000  *   1.75510000  *
    21       H          2.31930000  *  -0.75560000  *   1.82280000  *
    22       H          2.36440000  *  -2.23340000  *  -0.24060000  *



          CARTESIAN COORDINATES 

    NO.       ATOM           X           Y           Z

     1         C         -0.4956      0.8862     -0.8170
     2         C         -0.7000     -0.6506     -0.7974
     3         C          0.9338      1.3796     -0.5253
     4         C         -1.4919     -0.9515      0.4873
     5         C         -1.4458      1.3720      0.2286
     6         C          0.5380     -1.5131     -0.9425
     7         C         -1.9799      0.3825      0.9267
     8         C          1.4891      0.8336      0.7615
     9         C          1.8089     -0.4540      0.9171
    10         C          1.6064     -1.4679     -0.1340
    11         H         -0.8122      1.2936     -1.8026
    12         H         -1.3673     -0.9009     -1.6538
    13         H          1.6046      1.1036     -1.3679
    14         H          0.9292      2.4901     -0.4710
    15         H         -0.8564     -1.3870      1.2879
    16         H         -2.3490     -1.6284      0.2823
    17         H          1.7047      1.5259      1.5661
    18         H         -1.6551      2.4191      0.4233
    19         H          0.5181     -2.2811     -1.7065
    20         H         -2.6632      0.5374      1.7551
    21         H          2.3193     -0.7556      1.8228
    22         H          2.3644     -2.2334     -0.2406

  H: (PM3): J. J. P. STEWART, J. COMP. CHEM. 10, 209 (1989).
  C: (PM3): J. J. P. STEWART, J. COMP. CHEM. 10, 209 (1989).

           Empirical Formula: C10 H12  =    22 atoms



      MOLECULAR POINT GROUP   :   C1  


      RHF CALCULATION, NO. OF DOUBLY OCCUPIED LEVELS = 26


          Geometry optimization using EF

          DIAGONAL MATRIX USED AS START HESSIAN

 CYCLE:     1 TIME:   0.012 TIME LEFT:  2.00D  GRAD.:    73.435 HEAT:  45.47461
 CYCLE:     2 TIME:   0.016 TIME LEFT:  2.00D  GRAD.:    52.185 HEAT:  44.36496
 CYCLE:     3 TIME:   0.012 TIME LEFT:  2.00D  GRAD.:    37.004 HEAT:  43.89027
 CYCLE:     4 TIME:   0.008 TIME LEFT:  2.00D  GRAD.:    34.796 HEAT:  43.63130
 CYCLE:     5 TIME:   0.004 TIME LEFT:  2.00D  GRAD.:    29.528 HEAT:  43.29070
 CYCLE:     6 TIME:   0.012 TIME LEFT:  2.00D  GRAD.:    23.285 HEAT:  43.07730
 CYCLE:     7 TIME:   0.008 TIME LEFT:  2.00D  GRAD.:    32.656 HEAT:  43.04049
 CYCLE:     8 TIME:   0.008 TIME LEFT:  2.00D  GRAD.:    17.985 HEAT:  42.85291
 CYCLE:     9 TIME:   0.012 TIME LEFT:  2.00D  GRAD.:    21.345 HEAT:  42.83149
 CYCLE:    10 TIME:   0.008 TIME LEFT:  2.00D  GRAD.:    23.727 HEAT:  42.81950
 CYCLE:    11 TIME:   0.004 TIME LEFT:  2.00D  GRAD.:    21.020 HEAT:  42.79104
 CYCLE:    12 TIME:   0.008 TIME LEFT:  2.00D  GRAD.:    17.988 HEAT:  42.76372
 CYCLE:    13 TIME:   0.008 TIME LEFT:  2.00D  GRAD.:    20.859 HEAT:  42.76290
 CYCLE:    14 TIME:   0.008 TIME LEFT:  2.00D  GRAD.:    18.902 HEAT:  42.74200
 CYCLE:    15 TIME:   0.008 TIME LEFT:  2.00D  GRAD.:    18.573 HEAT:  42.73226
 CYCLE:    16 TIME:   0.004 TIME LEFT:  2.00D  GRAD.:    18.020 HEAT:  42.72212
 CYCLE:    17 TIME:   0.008 TIME LEFT:  2.00D  GRAD.:    15.732 HEAT:  42.69796
 CYCLE:    18 TIME:   0.012 TIME LEFT:  2.00D  GRAD.:     5.995 HEAT:  42.63213
 CYCLE:    19 TIME:   0.012 TIME LEFT:  2.00D  GRAD.:     4.803 HEAT:  42.62282
 CYCLE:    20 TIME:   0.004 TIME LEFT:  2.00D  GRAD.:     5.134 HEAT:  42.61345
 CYCLE:    21 TIME:   0.008 TIME LEFT:  2.00D  GRAD.:     6.184 HEAT:  42.60409
 CYCLE:    22 TIME:   0.008 TIME LEFT:  2.00D  GRAD.:     4.937 HEAT:  42.58444
 CYCLE:    23 TIME:   0.008 TIME LEFT:  2.00D  GRAD.:     4.821 HEAT:  42.55853
 CYCLE:    24 TIME:   0.008 TIME LEFT:  2.00D  GRAD.:     6.610 HEAT:  42.54835
 CYCLE:    25 TIME:   0.008 TIME LEFT:  2.00D  GRAD.:     3.606 HEAT:  42.53693
 CYCLE:    26 TIME:   0.008 TIME LEFT:  2.00D  GRAD.:     4.305 HEAT:  42.53461
 CYCLE:    27 TIME:   0.008 TIME LEFT:  2.00D  GRAD.:     2.969 HEAT:  42.52889
 CYCLE:    28 TIME:   0.008 TIME LEFT:  2.00D  GRAD.:     4.409 HEAT:  42.52707
 CYCLE:    29 TIME:   0.004 TIME LEFT:  2.00D  GRAD.:     2.758 HEAT:  42.51956
 CYCLE:    30 TIME:   0.008 TIME LEFT:  2.00D  GRAD.:     2.937 HEAT:  42.51456
 CYCLE:    31 TIME:   0.008 TIME LEFT:  2.00D  GRAD.:     3.240 HEAT:  42.50937
 CYCLE:    32 TIME:   0.016 TIME LEFT:  2.00D  GRAD.:     2.357 HEAT:  42.50264
 CYCLE:    33 TIME:   0.008 TIME LEFT:  2.00D  GRAD.:     1.977 HEAT:  42.49753
 CYCLE:    34 TIME:   0.004 TIME LEFT:  2.00D  GRAD.:     2.408 HEAT:  42.48893
 CYCLE:    35 TIME:   0.012 TIME LEFT:  2.00D  GRAD.:     4.073 HEAT:  42.48164
 CYCLE:    36 TIME:   0.004 TIME LEFT:  2.00D  GRAD.:     2.618 HEAT:  42.47028
 CYCLE:    37 TIME:   0.012 TIME LEFT:  2.00D  GRAD.:     2.966 HEAT:  42.45659
 CYCLE:    38 TIME:   0.004 TIME LEFT:  2.00D  GRAD.:     3.119 HEAT:  42.44229
 CYCLE:    39 TIME:   0.008 TIME LEFT:  2.00D  GRAD.:     2.262 HEAT:  42.43002
 CYCLE:    40 TIME:   0.008 TIME LEFT:  2.00D  GRAD.:     2.159 HEAT:  42.42079
 CYCLE:    41 TIME:   0.008 TIME LEFT:  2.00D  GRAD.:     2.441 HEAT:  42.41115
 CYCLE:    42 TIME:   0.008 TIME LEFT:  2.00D  GRAD.:     2.713 HEAT:  42.39798
 CYCLE:    43 TIME:   0.008 TIME LEFT:  2.00D  GRAD.:     2.514 HEAT:  42.38611
 CYCLE:    44 TIME:   0.004 TIME LEFT:  2.00D  GRAD.:     2.248 HEAT:  42.37461
 CYCLE:    45 TIME:   0.008 TIME LEFT:  2.00D  GRAD.:     2.340 HEAT:  42.36241
 CYCLE:    46 TIME:   0.008 TIME LEFT:  2.00D  GRAD.:     2.232 HEAT:  42.35124
 CYCLE:    47 TIME:   0.012 TIME LEFT:  2.00D  GRAD.:     2.025 HEAT:  42.34311
 CYCLE:    48 TIME:   0.004 TIME LEFT:  2.00D  GRAD.:     1.984 HEAT:  42.33566
 CYCLE:    49 TIME:   0.008 TIME LEFT:  2.00D  GRAD.:     1.893 HEAT:  42.32749
 CYCLE:    50 TIME:   0.008 TIME LEFT:  2.00D  GRAD.:     1.579 HEAT:  42.32023
 CYCLE:    51 TIME:   0.008 TIME LEFT:  2.00D  GRAD.:     1.236 HEAT:  42.31646
 CYCLE:    52 TIME:   0.008 TIME LEFT:  2.00D  GRAD.:     0.994 HEAT:  42.31331
 CYCLE:    53 TIME:   0.008 TIME LEFT:  2.00D  GRAD.:     0.846 HEAT:  42.31102
 CYCLE:    54 TIME:   0.008 TIME LEFT:  2.00D  GRAD.:     0.710 HEAT:  42.30965
 CYCLE:    55 TIME:   0.004 TIME LEFT:  2.00D  GRAD.:     0.540 HEAT:  42.30883
 CYCLE:    56 TIME:   0.008 TIME LEFT:  2.00D  GRAD.:     0.470 HEAT:  42.30815
 CYCLE:    57 TIME:   0.008 TIME LEFT:  2.00D  GRAD.:     0.446 HEAT:  42.30758
 CYCLE:    58 TIME:   0.008 TIME LEFT:  2.00D  GRAD.:     0.382 HEAT:  42.30718
 CYCLE:    59 TIME:   0.008 TIME LEFT:  2.00D  GRAD.:     0.317 HEAT:  42.30690
 CYCLE:    60 TIME:   0.008 TIME LEFT:  2.00D  GRAD.:     0.282 HEAT:  42.30669
 CYCLE:    61 TIME:   0.004 TIME LEFT:  2.00D  GRAD.:     0.241 HEAT:  42.30652
 CYCLE:    62 TIME:   0.008 TIME LEFT:  2.00D  GRAD.:     0.207 HEAT:  42.30640
 CYCLE:    63 TIME:   0.004 TIME LEFT:  2.00D  GRAD.:     0.153 HEAT:  42.30633
 CYCLE:    64 TIME:   0.008 TIME LEFT:  2.00D  GRAD.:     0.164 HEAT:  42.30630
 CYCLE:    65 TIME:   0.008 TIME LEFT:  2.00D  GRAD.:     0.111 HEAT:  42.30626
 CYCLE:    66 TIME:   0.008 TIME LEFT:  2.00D  GRAD.:     0.086 HEAT:  42.30623
 CYCLE:    67 TIME:   0.004 TIME LEFT:  2.00D  GRAD.:     0.095 HEAT:  42.30622
 CYCLE:    68 TIME:   0.008 TIME LEFT:  2.00D  GRAD.:     0.072 HEAT:  42.30621
 CYCLE:    69 TIME:   0.008 TIME LEFT:  2.00D  GRAD.:     0.086 HEAT:  42.30619
 CYCLE:    70 TIME:   0.008 TIME LEFT:  2.00D  GRAD.:     0.061 HEAT:  42.30618
 CYCLE:    71 TIME:   0.004 TIME LEFT:  2.00D  GRAD.:     0.075 HEAT:  42.30617
 CYCLE:    72 TIME:   0.008 TIME LEFT:  2.00D  GRAD.:     0.063 HEAT:  42.30616
 CYCLE:    73 TIME:   0.008 TIME LEFT:  2.00D  GRAD.:     0.117 HEAT:  42.30615
 CYCLE:    74 TIME:   0.008 TIME LEFT:  2.00D  GRAD.:     0.071 HEAT:  42.30613
 CYCLE:    75 TIME:   0.004 TIME LEFT:  2.00D  GRAD.:     0.059 HEAT:  42.30612
 CYCLE:    76 TIME:   0.008 TIME LEFT:  2.00D  GRAD.:     0.057 HEAT:  42.30611
 CYCLE:    77 TIME:   0.008 TIME LEFT:  2.00D  GRAD.:     0.127 HEAT:  42.30610
 CYCLE:    78 TIME:   0.008 TIME LEFT:  2.00D  GRAD.:     0.057 HEAT:  42.30607
 CYCLE:    79 TIME:   0.008 TIME LEFT:  2.00D  GRAD.:     0.042 HEAT:  42.30606

     GRADIENT =  0.04181 IS LESS THAN CUTOFF =  0.05000



 -------------------------------------------------------------------------------
 pm3  precise nosym THREADS=1
 InChI=1S/C10H12/c1-2-5-9-7-4-8-10(9)6-3-1/h1-5,8-10H,6-7H2



     GEOMETRY OPTIMISED USING EIGENVECTOR FOLLOWING (EF).     
     SCF FIELD WAS ACHIEVED                                   


                              PM3 CALCULATION
                                                       MOPAC v23.1.2 MacOS
                                                       Tue Jun  3 16:29:30 2025




          FINAL HEAT OF FORMATION =         42.30606 KCAL/MOL =     177.00856 KJ/MOL


          COSMO AREA              =        169.23 SQUARE ANGSTROMS
          COSMO VOLUME            =        178.56 CUBIC ANGSTROMS

          GRADIENT NORM           =          0.04181          =       0.00891 PER ATOM
          IONIZATION POTENTIAL    =          9.211190 EV
          HOMO LUMO ENERGIES (EV) =         -9.211  0.430
          NO. OF FILLED LEVELS    =         26
          MOLECULAR WEIGHT        =        132.2048         POINT GROUP:  C1  

          MOLECULAR DIMENSIONS (Angstroms)

            Atom       Atom       Distance
            H    22    H    18     6.03825
            H    16    H    17     5.56242
            H    20    H    11     3.82807


          SCF CALCULATIONS        =         87

          WALL-CLOCK TIME         =      0.621 SECONDS
          COMPUTATION TIME        =      0.396 SECONDS




   ATOM   CHEMICAL          X               Y               Z
  NUMBER   SYMBOL      (ANGSTROMS)     (ANGSTROMS)     (ANGSTROMS)

     1       C         -0.48602675  *   0.89279134  *  -0.76552556  *
     2       C         -0.69516506  *  -0.64615624  *  -0.83164036  *
     3       C          0.94795628  *   1.37476457  *  -0.58282699  *
     4       C         -1.61972283  *  -0.99228467  *   0.36135450  *
     5       C         -1.37760044  *   1.34475390  *   0.35699201  *
     6       C          0.51009242  *  -1.52233229  *  -0.83667703  *
     7       C         -1.99617031  *   0.32368326  *   0.95775701  *
     8       C          1.57196051  *   0.90506237  *   0.68222362  *
     9       C          1.85794641  *  -0.38091861  *   0.90742065  *
    10       C          1.59369357  *  -1.43176407  *  -0.05952291  *
    11       H         -0.86643876  *   1.34144261  *  -1.71549323  *
    12       H         -1.24463916  *  -0.85598869  *  -1.78051607  *
    13       H          1.55855459  *   1.03005756  *  -1.44251768  *
    14       H          0.96248802  *   2.48178553  *  -0.61976928  *
    15       H         -1.11084301  *  -1.62484337  *   1.11305527  *
    16       H         -2.51343230  *  -1.55516345  *   0.03621897  *
    17       H          1.80195939  *   1.66539347  *   1.43640220  *
    18       H         -1.46507958  *   2.40109564  *   0.61040515  *
    19       H          0.44487621  *  -2.36829029  *  -1.53376964  *
    20       H         -2.69508790  *   0.38668065  *   1.79137495  *
    21       H          2.33586966  *  -0.69708906  *   1.84189057  *
    22       H          2.37710631  *  -2.19714476  *  -0.13407159  *

                             CARTESIAN COORDINATES

   1    C       -0.486026754     0.892791343    -0.765525558
   2    C       -0.695165062    -0.646156238    -0.831640359
   3    C        0.947956281     1.374764574    -0.582826991
   4    C       -1.619722830    -0.992284666     0.361354496
   5    C       -1.377600441     1.344753896     0.356992007
   6    C        0.510092419    -1.522332289    -0.836677034
   7    C       -1.996170310     0.323683263     0.957757006
   8    C        1.571960507     0.905062366     0.682223625
   9    C        1.857946410    -0.380918612     0.907420650
  10    C        1.593693574    -1.431764073    -0.059522912
  11    H       -0.866438759     1.341442605    -1.715493228
  12    H       -1.244639157    -0.855988692    -1.780516073
  13    H        1.558554586     1.030057562    -1.442517685
  14    H        0.962488021     2.481785530    -0.619769279
  15    H       -1.110843010    -1.624843369     1.113055269
  16    H       -2.513432300    -1.555163450     0.036218975
  17    H        1.801959386     1.665393473     1.436402197
  18    H       -1.465079575     2.401095639     0.610405149
  19    H        0.444876207    -2.368290294    -1.533769638
  20    H       -2.695087901     0.386680652     1.791374949
  21    H        2.335869657    -0.697089064     1.841890567
  22    H        2.377106309    -2.197144756    -0.134071592


           Empirical Formula: C10 H12  =    22 atoms



      MOLECULAR POINT GROUP   :   C1  


                  EIGENVALUES  
 -41.84313 -35.09136 -32.34565 -29.00179 -26.53192 -23.68811 -21.96541 -19.16767
 -18.30183 -17.99869 -17.55939 -16.27754 -15.75561 -15.14815 -14.51691 -13.94666
 -13.53221 -13.42965 -12.94512 -12.52117 -12.36994 -11.72844 -11.63458 -10.79066
  -9.63075  -9.21119   0.42982   1.14664   1.83530   3.29498   3.41547   3.44930
   3.59369   3.63690   3.68619   3.76579   3.97133   4.01314   4.11440   4.27158
   4.30931   4.38103   4.59142   4.71952   4.87178   5.06186   5.35825   5.55033
   5.70033   5.92751   6.00766   6.25261


              NET ATOMIC CHARGES AND DIPOLE CONTRIBUTIONS

  ATOM NO.   TYPE          CHARGE      No. of ELECS.   s-Pop       p-Pop       
    1          C          -0.029625        4.0296     1.17508     2.85455
    2          C          -0.036443        4.0364     1.17310     2.86335
    3          C          -0.054314        4.0543     1.14617     2.90814
    4          C          -0.064617        4.0646     1.15749     2.90713
    5          C          -0.157061        4.1571     1.20424     2.95282
    6          C          -0.127507        4.1275     1.19421     2.93329
    7          C          -0.147915        4.1479     1.20098     2.94693
    8          C          -0.123744        4.1237     1.19417     2.92958
    9          C          -0.115980        4.1160     1.17896     2.93702
   10          C          -0.100924        4.1009     1.17818     2.92274
   11          H           0.062367        0.9376     0.93763
   12          H           0.058728        0.9413     0.94127
   13          H           0.060092        0.9399     0.93991
   14          H           0.050336        0.9497     0.94966
   15          H           0.065525        0.9345     0.93447
   16          H           0.055340        0.9447     0.94466
   17          H           0.097156        0.9028     0.90284
   18          H           0.112271        0.8877     0.88773
   19          H           0.090556        0.9094     0.90944
   20          H           0.110535        0.8895     0.88947
   21          H           0.099838        0.9002     0.90016
   22          H           0.095387        0.9046     0.90461
 DIPOLE           X         Y         Z       TOTAL
 POINT-CHG.    -0.074     0.031    -0.142     0.163
 HYBRID        -0.018    -0.049     0.054     0.075
 SUM           -0.091    -0.018    -0.088     0.128


          ATOMIC ORBITAL ELECTRON POPULATIONS

     Atom    s        px        py        pz   
    1  C   1.17508   0.94428   0.93770   0.97257
    2  C   1.17310   0.94570   0.93654   0.98110
    3  C   1.14617   0.94925   0.99403   0.96486
    4  C   1.15749   0.98160   0.96011   0.96541
    5  C   1.20424   0.98723   0.98127   0.98432
    6  C   1.19421   0.95747   0.99185   0.98397
    7  C   1.20098   0.99881   0.95603   0.99210
    8  C   1.19417   0.98760   0.96417   0.97781
    9  C   1.17896   1.01133   0.94355   0.98214
   10  C   1.17818   0.97786   0.97930   0.96559
   11  H   0.93763
   12  H   0.94127
   13  H   0.93991
   14  H   0.94966
   15  H   0.93447
   16  H   0.94466
   17  H   0.90284
   18  H   0.88773
   19  H   0.90944
   20  H   0.88947
   21  H   0.90016
   22  H   0.90461
 *******************************************************************************
 **                                                                           **
 **                              MOPAC v23.1.2                                **
 **                                                                           **
 *******************************************************************************
 **          Digital Object Identifier (DOI): 10.5281/zenodo.6511958          **
 **    Visit the DOI location for information on how to cite this program.    **
 *******************************************************************************

                              PM3 CALCULATION RESULTS

 *******************************************************************************
 *  CALCULATION DONE: (MAX THREADS = 1)              Tue Jun  3 16:29:30 2025  *
 *  PM3        - The PM3 Hamiltonian to be used
 *  OLDGEO     - PREVIOUS GEOMETRY TO BE USED
 *  PRECISE    - TIGHTER CRITERIA TO BE USED
 *  NOSYM      - POINT-GROUP SYMMETRY SET TO C1
 *  THREADS=1  - MULTI-THREADING NOT USED
 *  T=         - A TIME OF 172800.0 SECONDS REQUESTED
 *  DUMP=N     - RESTART FILE WRITTEN EVERY 7200.0 SECONDS REQUESTED
 *  THERMO     - THERMODYNAMIC QUANTITIES TO BE CALCULATED
 *******************************************************************************
oldgeo thermo nosym precise THREADS=1  pm3
 InChI=1S/C10H12/c1-2-5-9-7-4-8-10(9)6-3-1/h1-5,8-10H,6-7H2

   ATOM   CHEMICAL          X               Y               Z
  NUMBER   SYMBOL      (ANGSTROMS)     (ANGSTROMS)     (ANGSTROMS)

     1       C         -0.48602675  *   0.89279134  *  -0.76552556  *
     2       C         -0.69516506  *  -0.64615624  *  -0.83164036  *
     3       C          0.94795628  *   1.37476457  *  -0.58282699  *
     4       C         -1.61972283  *  -0.99228467  *   0.36135450  *
     5       C         -1.37760044  *   1.34475390  *   0.35699201  *
     6       C          0.51009242  *  -1.52233229  *  -0.83667703  *
     7       C         -1.99617031  *   0.32368326  *   0.95775701  *
     8       C          1.57196051  *   0.90506237  *   0.68222362  *
     9       C          1.85794641  *  -0.38091861  *   0.90742065  *
    10       C          1.59369357  *  -1.43176407  *  -0.05952291  *
    11       H         -0.86643876  *   1.34144261  *  -1.71549323  *
    12       H         -1.24463916  *  -0.85598869  *  -1.78051607  *
    13       H          1.55855459  *   1.03005756  *  -1.44251768  *
    14       H          0.96248802  *   2.48178553  *  -0.61976928  *
    15       H         -1.11084301  *  -1.62484337  *   1.11305527  *
    16       H         -2.51343230  *  -1.55516345  *   0.03621897  *
    17       H          1.80195939  *   1.66539347  *   1.43640220  *
    18       H         -1.46507958  *   2.40109564  *   0.61040515  *
    19       H          0.44487621  *  -2.36829029  *  -1.53376964  *
    20       H         -2.69508790  *   0.38668065  *   1.79137495  *
    21       H          2.33586966  *  -0.69708906  *   1.84189057  *
    22       H          2.37710631  *  -2.19714476  *  -0.13407159  *



          CARTESIAN COORDINATES 

    NO.       ATOM           X           Y           Z

     1         C         -0.4860      0.8928     -0.7655
     2         C         -0.6952     -0.6462     -0.8316
     3         C          0.9480      1.3748     -0.5828
     4         C         -1.6197     -0.9923      0.3614
     5         C         -1.3776      1.3448      0.3570
     6         C          0.5101     -1.5223     -0.8367
     7         C         -1.9962      0.3237      0.9578
     8         C          1.5720      0.9051      0.6822
     9         C          1.8579     -0.3809      0.9074
    10         C          1.5937     -1.4318     -0.0595
    11         H         -0.8664      1.3414     -1.7155
    12         H         -1.2446     -0.8560     -1.7805
    13         H          1.5586      1.0301     -1.4425
    14         H          0.9625      2.4818     -0.6198
    15         H         -1.1108     -1.6248      1.1131
    16         H         -2.5134     -1.5552      0.0362
    17         H          1.8020      1.6654      1.4364
    18         H         -1.4651      2.4011      0.6104
    19         H          0.4449     -2.3683     -1.5338
    20         H         -2.6951      0.3867      1.7914
    21         H          2.3359     -0.6971      1.8419
    22         H          2.3771     -2.1971     -0.1341

  H: (PM3): J. J. P. STEWART, J. COMP. CHEM. 10, 209 (1989).
  C: (PM3): J. J. P. STEWART, J. COMP. CHEM. 10, 209 (1989).

           Empirical Formula: C10 H12  =    22 atoms



      MOLECULAR POINT GROUP   :   C1  


      RHF CALCULATION, NO. OF DOUBLY OCCUPIED LEVELS = 26



          HEAT OF FORMATION =      42.306061 KCALS/MOLE


          CARTESIAN COORDINATE DERIVATIVES

   NUMBER  ATOM         X            Y            Z

     1       C      0.001688    -0.003944     0.000411
     2       C     -0.000803     0.002237    -0.000868
     3       C     -0.004180    -0.000150    -0.001717
     4       C      0.001871     0.006189     0.002882
     5       C     -0.002488    -0.007581    -0.001504
     6       C     -0.005897     0.008370    -0.005015
     7       C      0.002673     0.000831     0.000665
     8       C     -0.004114     0.001118    -0.003420
     9       C     -0.001650    -0.003753     0.000626
    10       C     -0.004505     0.004495    -0.000513
    11       H      0.002678     0.016728    -0.008106
    12       H      0.003611    -0.014574     0.002690
    13       H     -0.002497    -0.008612    -0.001797
    14       H     -0.003748     0.010646    -0.000273
    15       H      0.011936    -0.010108     0.004537
    16       H      0.008345    -0.007746     0.006160
    17       H     -0.000228     0.000611     0.000875
    18       H      0.004172     0.003976     0.003482
    19       H     -0.007124    -0.002733     0.001167
    20       H     -0.004384     0.004965    -0.003255
    21       H      0.004702    -0.004836     0.000626
    22       H     -0.000054     0.003871     0.002347



          GRADIENT NORM =   0.04294

          MOLECULAR WEIGHT =  132.20



          ROTATIONAL CONSTANTS IN CM(-1)

          A =    0.06908426   B =    0.04874225   C =    0.03858134



           PRINCIPAL MOMENTS OF INERTIA IN UNITS OF 10**(-40)*GRAM-CM**2

          A =      405.1972   B =      574.3016   C =      725.5516


          ORIENTATION OF MOLECULE IN FORCE CALCULATION

    NO.       ATOM         X         Y         Z

     1          C      -0.7938   -0.7158   -0.7382
     2          C       0.7607   -0.7158   -0.7382
     3          C      -1.4717    0.6489   -0.7382
     4          C       1.1770   -1.4430    0.5640
     5          C      -1.1691   -1.5291    0.4689
     6          C       1.4661    0.5909   -0.8614
     7          C      -0.1005   -1.9285    1.1652
     8          C      -1.1444    1.4706    0.4569
     9          C       0.0806    1.9556    0.6811
    10          C       1.1976    1.7321   -0.2197
    11          H      -1.1464   -1.2594   -1.6485
    12          H       1.0827   -1.3344   -1.6100
    13          H      -1.1760    1.2005   -1.6541
    14          H      -2.5680    0.5057   -0.8061
    15          H       1.7028   -0.7699    1.2673
    16          H       1.8683   -2.2810    0.3613
    17          H      -1.9602    1.6766    1.1582
    18          H      -2.2138   -1.7330    0.7026
    19          H       2.3421    0.5653   -1.5232
    20          H      -0.1043   -2.5309    2.0732
    21          H       0.2896    2.5750    1.5611
    22          H       1.8531    2.6006   -0.3653


    FIRST DERIVATIVES WILL BE USED IN THE CALCULATION OF SECOND DERIVATIVES

          ESTIMATED TIME TO COMPLETE CALCULATION =        2.06 SECONDS

    FOR POINT-GROUP C1   THERE ARE   1 UNIQUE SYMMETRY FUNCTIONS.

 STEP:   1 TIME =     0.02 SECS, INTEGRAL =      0.02 TIME LEFT: 172799.97
 STEP:   2 TIME =     0.02 SECS, INTEGRAL =      0.05 TIME LEFT: 172799.95
 STEP:   3 TIME =     0.02 SECS, INTEGRAL =      0.07 TIME LEFT: 172799.93
 STEP:   4 TIME =     0.02 SECS, INTEGRAL =      0.09 TIME LEFT: 172799.91
 STEP:   5 TIME =     0.02 SECS, INTEGRAL =      0.11 TIME LEFT: 172799.89
 STEP:   6 TIME =     0.02 SECS, INTEGRAL =      0.13 TIME LEFT: 172799.86
 STEP:   7 TIME =     0.02 SECS, INTEGRAL =      0.15 TIME LEFT: 172799.84
 STEP:   8 TIME =     0.02 SECS, INTEGRAL =      0.18 TIME LEFT: 172799.82
 STEP:   9 TIME =     0.02 SECS, INTEGRAL =      0.20 TIME LEFT: 172799.79
 STEP:  10 TIME =     0.02 SECS, INTEGRAL =      0.22 TIME LEFT: 172799.77
 STEP:  11 TIME =     0.02 SECS, INTEGRAL =      0.24 TIME LEFT: 172799.75
 STEP:  12 TIME =     0.02 SECS, INTEGRAL =      0.26 TIME LEFT: 172799.73
 STEP:  13 TIME =     0.02 SECS, INTEGRAL =      0.28 TIME LEFT: 172799.71
 STEP:  14 TIME =     0.02 SECS, INTEGRAL =      0.30 TIME LEFT: 172799.69
 STEP:  15 TIME =     0.02 SECS, INTEGRAL =      0.32 TIME LEFT: 172799.67
 STEP:  16 TIME =     0.02 SECS, INTEGRAL =      0.34 TIME LEFT: 172799.65
 STEP:  17 TIME =     0.02 SECS, INTEGRAL =      0.36 TIME LEFT: 172799.63
 STEP:  18 TIME =     0.02 SECS, INTEGRAL =      0.38 TIME LEFT: 172799.61
 STEP:  19 TIME =     0.02 SECS, INTEGRAL =      0.40 TIME LEFT: 172799.59
 STEP:  20 TIME =     0.02 SECS, INTEGRAL =      0.42 TIME LEFT: 172799.57
 STEP:  21 TIME =     0.02 SECS, INTEGRAL =      0.44 TIME LEFT: 172799.55
 STEP:  22 TIME =     0.02 SECS, INTEGRAL =      0.46 TIME LEFT: 172799.53
 STEP:  23 TIME =     0.02 SECS, INTEGRAL =      0.49 TIME LEFT: 172799.50
 STEP:  24 TIME =     0.02 SECS, INTEGRAL =      0.51 TIME LEFT: 172799.48
 STEP:  25 TIME =     0.02 SECS, INTEGRAL =      0.54 TIME LEFT: 172799.46
 STEP:  26 TIME =     0.02 SECS, INTEGRAL =      0.56 TIME LEFT: 172799.43
 STEP:  27 TIME =     0.02 SECS, INTEGRAL =      0.58 TIME LEFT: 172799.41
 STEP:  28 TIME =     0.02 SECS, INTEGRAL =      0.61 TIME LEFT: 172799.39
 STEP:  29 TIME =     0.02 SECS, INTEGRAL =      0.63 TIME LEFT: 172799.36
 STEP:  30 TIME =     0.02 SECS, INTEGRAL =      0.65 TIME LEFT: 172799.34
 STEP:  31 TIME =     0.02 SECS, INTEGRAL =      0.68 TIME LEFT: 172799.32
 STEP:  32 TIME =     0.02 SECS, INTEGRAL =      0.70 TIME LEFT: 172799.30
 STEP:  33 TIME =     0.02 SECS, INTEGRAL =      0.71 TIME LEFT: 172799.28
 STEP:  34 TIME =     0.02 SECS, INTEGRAL =      0.74 TIME LEFT: 172799.25
 STEP:  35 TIME =     0.02 SECS, INTEGRAL =      0.76 TIME LEFT: 172799.23
 STEP:  36 TIME =     0.02 SECS, INTEGRAL =      0.78 TIME LEFT: 172799.21
 STEP:  37 TIME =     0.02 SECS, INTEGRAL =      0.80 TIME LEFT: 172799.19
 STEP:  38 TIME =     0.02 SECS, INTEGRAL =      0.82 TIME LEFT: 172799.17
 STEP:  39 TIME =     0.02 SECS, INTEGRAL =      0.84 TIME LEFT: 172799.15
 STEP:  40 TIME =     0.02 SECS, INTEGRAL =      0.86 TIME LEFT: 172799.13
 STEP:  41 TIME =     0.02 SECS, INTEGRAL =      0.89 TIME LEFT: 172799.11
 STEP:  42 TIME =     0.02 SECS, INTEGRAL =      0.91 TIME LEFT: 172799.08
 STEP:  43 TIME =     0.02 SECS, INTEGRAL =      0.93 TIME LEFT: 172799.06
 STEP:  44 TIME =     0.02 SECS, INTEGRAL =      0.96 TIME LEFT: 172799.04
 STEP:  45 TIME =     0.02 SECS, INTEGRAL =      0.98 TIME LEFT: 172799.01
 STEP:  46 TIME =     0.02 SECS, INTEGRAL =      1.00 TIME LEFT: 172798.99
 STEP:  47 TIME =     0.02 SECS, INTEGRAL =      1.02 TIME LEFT: 172798.97
 STEP:  48 TIME =     0.02 SECS, INTEGRAL =      1.04 TIME LEFT: 172798.95
 STEP:  49 TIME =     0.02 SECS, INTEGRAL =      1.07 TIME LEFT: 172798.93
 STEP:  50 TIME =     0.02 SECS, INTEGRAL =      1.09 TIME LEFT: 172798.90
 STEP:  51 TIME =     0.02 SECS, INTEGRAL =      1.11 TIME LEFT: 172798.88
 STEP:  52 TIME =     0.02 SECS, INTEGRAL =      1.13 TIME LEFT: 172798.86
 STEP:  53 TIME =     0.02 SECS, INTEGRAL =      1.16 TIME LEFT: 172798.84
 STEP:  54 TIME =     0.02 SECS, INTEGRAL =      1.18 TIME LEFT: 172798.81
 STEP:  55 TIME =     0.02 SECS, INTEGRAL =      1.20 TIME LEFT: 172798.79
 STEP:  56 TIME =     0.02 SECS, INTEGRAL =      1.22 TIME LEFT: 172798.77
 STEP:  57 TIME =     0.02 SECS, INTEGRAL =      1.25 TIME LEFT: 172798.75
 STEP:  58 TIME =     0.02 SECS, INTEGRAL =      1.27 TIME LEFT: 172798.72
 STEP:  59 TIME =     0.02 SECS, INTEGRAL =      1.29 TIME LEFT: 172798.70
 STEP:  60 TIME =     0.02 SECS, INTEGRAL =      1.31 TIME LEFT: 172798.68
 STEP:  61 TIME =     0.02 SECS, INTEGRAL =      1.34 TIME LEFT: 172798.66
 STEP:  62 TIME =     0.02 SECS, INTEGRAL =      1.36 TIME LEFT: 172798.64
 STEP:  63 TIME =     0.02 SECS, INTEGRAL =      1.38 TIME LEFT: 172798.62
 STEP:  64 TIME =     0.02 SECS, INTEGRAL =      1.40 TIME LEFT: 172798.59
 STEP:  65 TIME =     0.02 SECS, INTEGRAL =      1.42 TIME LEFT: 172798.57
 STEP:  66 TIME =     0.02 SECS, INTEGRAL =      1.44 TIME LEFT: 172798.55

(To convert to Hartree/Bohr^2, multiply by (10^(-21) x N x a0^2)/(4.184 x 627.51) =  0.0642)


           FORCE MATRIX IN MILLIDYNES/ANGSTROM


                  C  1       C  2       C  3       C  4       C  5       C  6
 ------------------------------------------------------------------------------
     C    1  14.410410
     C    2   3.178485  14.365611
     C    3   3.964543   0.493315  14.664076
     C    4   0.702105   3.348130   0.029657  14.553038
     C    5   4.457699   0.835523   0.648208   1.188059  18.368290
     C    6   0.512163   4.848116   0.069240   0.646902   0.032627  17.940040
     C    7   1.134061   0.859865   0.041348   4.792685  10.634357   0.035693
     C    8   0.652878   0.044711   4.991738   0.005874   0.040282   0.110690
     C    9   0.043316   0.109098   0.834970   0.022371   0.007523   0.922422
     C   10   0.032812   0.701733   0.124674   0.038038   0.004733  10.434238
     H   11   4.215277   0.418898   0.418984   0.029626   0.403322   0.024673
     H   12   0.415379   4.263156   0.030964   0.428385   0.023952   0.413555
     H   13   0.442046   0.015647   4.402954   0.002454   0.049305   0.020103
     H   14   0.438648   0.046354   4.472580   0.004032   0.020892   0.004914
     H   15   0.022574   0.447996   0.001894   4.500043   0.036844   0.062862
     H   16   0.033054   0.436538   0.004537   4.533347   0.040381   0.022097
     H   17   0.024005   0.007000   0.433308   0.001275   0.002867   0.015971
     H   18   0.415871   0.040228   0.011862   0.118207   5.010830   0.004698
     H   19   0.033993   0.431585   0.007325   0.015968   0.004342   4.753608
     H   20   0.116825   0.042656   0.017478   0.413067   0.450086   0.005401
     H   21   0.015719   0.008653   0.120745   0.001401   0.001465   0.046490
     H   22   0.011151   0.122075   0.010718   0.015822   0.001189   0.442034


                  C  7       C  8       C  9       C 10       H 11       H 12
 ------------------------------------------------------------------------------
     C    7  18.407194
     C    8   0.010139  18.011995
     C    9   0.005581  10.463340  18.426400
     C   10   0.004467   1.002378   5.743127  18.362528
     H   11   0.039224   0.047714   0.002923   0.002176   4.652357
     H   12   0.022352   0.002146   0.004824   0.048102   0.017344   4.656482
     H   13   0.007263   0.427991   0.036144   0.025376   0.034979   0.001451
     H   14   0.002438   0.436925   0.052200   0.003702   0.039311   0.004776
     H   15   0.425630   0.001325   0.005034   0.008709   0.003125   0.031517
     H   16   0.434100   0.001068   0.001915   0.002946   0.001315   0.027948
     H   17   0.001373   4.840610   0.440301   0.129497   0.004072   0.000397
     H   18   0.449743   0.002935   0.001188   0.001335   0.015990   0.002277
     H   19   0.001834   0.014451   0.131675   0.434463   0.002429   0.027254
     H   20   5.015950   0.001601   0.001407   0.001342   0.015417   0.002217
     H   21   0.001571   0.447117   4.805568   0.426932   0.002493   0.000316
     H   22   0.001784   0.047668   0.424595   4.754671   0.001372   0.008037


                  H 13       H 14       H 15       H 16       H 17       H 18
 ------------------------------------------------------------------------------
     H   13   4.995128
     H   14   0.552815   5.050946
     H   15   0.000217   0.000353   5.109199
     H   16   0.000806   0.000961   0.565544   5.136378
     H   17   0.027074   0.034262   0.000620   0.000237   5.203097
     H   18   0.001645   0.007947   0.016374   0.015951   0.001868   5.408725
     H   19   0.001515   0.000490   0.002788   0.001126   0.006806   0.001019
     H   20   0.002971   0.000743   0.013887   0.015423   0.000628   0.049020
     H   21   0.009759   0.006714   0.000915   0.000464   0.070237   0.000525
     H   22   0.002028   0.000588   0.001033   0.001445   0.012109   0.000463


                  H 19       H 20       H 21       H 22
 ------------------------------------------------------
     H   19   5.092486
     H   20   0.000788   5.411850
     H   21   0.011836   0.000661   5.168974
     H   22   0.075913   0.000441   0.033391   5.107408


          HEAT OF FORMATION =      42.306061 KCALS/MOLE

          ZERO POINT ENERGY     118.585 KCAL/MOL


           NORMAL COORDINATE ANALYSIS (Total motion = 1 Angstrom)


   Root No.       1         2         3         4         5         6         7         8

                 1 A       2 A       3 A       4 A       5 A       6 A       7 A       8 A   

                  52.8     131.9     251.2     269.3     332.6     367.8     408.9     451.0
  
           1    0.0026   -0.0007   -0.0164    0.0071   -0.0159    0.0219    0.0033    0.0216
           2   -0.0011   -0.0048   -0.0033   -0.0027   -0.0337    0.0043   -0.0099   -0.0089
           3   -0.0116   -0.0164    0.0020   -0.0224   -0.0070   -0.0071    0.0085   -0.0147
           4    0.0029    0.0001   -0.0172    0.0077   -0.0201    0.0190    0.0023    0.0169
           5    0.0024   -0.0047    0.0023    0.0028   -0.0022   -0.0255    0.0256   -0.0139
           6    0.0108   -0.0174   -0.0164   -0.0092   -0.0124    0.0008    0.0222   -0.0116
           7    0.0002    0.0158   -0.0249   -0.0330    0.0378    0.0149   -0.0126    0.0052
           8   -0.0017    0.0043   -0.0066   -0.0221   -0.0105    0.0093   -0.0200   -0.0230
           9    0.0198   -0.0265    0.0007    0.0269   -0.0008    0.0182   -0.0104    0.0114
          10   -0.0152    0.0008    0.0038   -0.0023   -0.0087    0.0124   -0.0095   -0.0047
          11    0.0430    0.0215    0.0410   -0.0068    0.0033   -0.0212   -0.0198   -0.0034
          12    0.0387   -0.0025   -0.0008   -0.0101   -0.0139    0.0077    0.0022    0.0046
          13   -0.0095   -0.0003    0.0072   -0.0016   -0.0083    0.0119   -0.0098   -0.0041
          14   -0.0291    0.0316   -0.0162    0.0005   -0.0364   -0.0144   -0.0098    0.0446
          15   -0.0337    0.0085    0.0019   -0.0234   -0.0058   -0.0257    0.0061    0.0102
          16   -0.0041   -0.0123   -0.0000    0.0235   -0.0320   -0.0260   -0.0135   -0.0210
          17    0.0028    0.0022   -0.0087   -0.0040    0.0104   -0.0084    0.0368    0.0070
          18   -0.0245   -0.0246   -0.0090    0.0152    0.0043   -0.0210   -0.0173   -0.0184
          19   -0.0185   -0.0003    0.0186   -0.0101   -0.0012   -0.0004   -0.0132   -0.0119
          20   -0.0038    0.0559    0.0023    0.0459    0.0167    0.0146   -0.0090   -0.0148
          21   -0.0052    0.0223   -0.0043    0.0141    0.0140    0.0104    0.0107   -0.0152
          22    0.0202   -0.0004   -0.0060    0.0023    0.0240   -0.0175    0.0207    0.0080
          23   -0.0142   -0.0366    0.0288   -0.0135   -0.0107    0.0496    0.0045   -0.0146
          24    0.0234    0.0074   -0.0301    0.0111    0.0056    0.0012   -0.0351    0.0068
          25    0.0216    0.0020    0.0050   -0.0003    0.0037   -0.0049    0.0216   -0.0053
          26   -0.0076   -0.0547   -0.0132    0.0037    0.0463    0.0069   -0.0187    0.0240
          27    0.0020    0.0349    0.0045   -0.0140   -0.0000    0.0241    0.0141   -0.0003
          28    0.0027   -0.0065    0.0328    0.0118    0.0118   -0.0260    0.0215    0.0039
          29    0.0049   -0.0173   -0.0323   -0.0010    0.0132   -0.0220    0.0311   -0.0072
          30   -0.0252    0.0132    0.0460    0.0039    0.0221    0.0034    0.0058    0.0215
          31    0.0138   -0.0080   -0.0244    0.0187   -0.0267    0.0196    0.0270    0.0168
          32    0.0233   -0.0184   -0.0052    0.0121   -0.0251    0.0364   -0.0259   -0.0232
          33   -0.0302   -0.0044    0.0059   -0.0351   -0.0074   -0.0255    0.0086   -0.0038
          34    0.0162    0.0061   -0.0257    0.0139   -0.0048    0.0253    0.0136    0.0378
          35   -0.0269   -0.0145   -0.0120    0.0115    0.0132   -0.0371    0.0375   -0.0208
          36    0.0365   -0.0075   -0.0089   -0.0131   -0.0176    0.0113    0.0171    0.0013
          37   -0.0178    0.0569   -0.0578   -0.1158    0.0979    0.0035   -0.0619   -0.0461
          38    0.0109    0.0148   -0.0231   -0.0016   -0.0204    0.0112   -0.0427   -0.0056
          39    0.0215   -0.0067   -0.0197    0.0138    0.0112    0.0150   -0.0389    0.0063
          40   -0.0007    0.0158   -0.0258   -0.0325    0.0341    0.0175   -0.0139    0.0062
          41   -0.0034    0.0255   -0.0200   -0.0662    0.0415   -0.0130   -0.0401   -0.0569
          42    0.0377   -0.0649    0.0359    0.0965   -0.0412    0.0194    0.0423    0.0509
          43   -0.0768    0.0196   -0.0379    0.0503    0.0200    0.0450    0.0344   -0.0554
          44    0.0804    0.0308    0.0798   -0.0309   -0.0009   -0.0330   -0.0646    0.0217
          45    0.0492   -0.0253   -0.0051   -0.0272   -0.0320   -0.0069    0.0097    0.0196
          46    0.0331   -0.0157    0.0478   -0.0517   -0.0292   -0.0209   -0.0513    0.0310
          47    0.0729    0.0042    0.0722   -0.0458   -0.0120   -0.0500   -0.0454    0.0196
          48    0.0811    0.0123    0.0231   -0.0204   -0.0224    0.0097   -0.0394    0.0372
          49    0.0337   -0.0056   -0.0179    0.0170    0.0153   -0.0428    0.0159    0.0016
          50   -0.0279   -0.0663    0.0977   -0.0068   -0.0307    0.1195    0.0289   -0.0082
          51    0.0431    0.0097   -0.0631    0.0270    0.0014   -0.0493   -0.0465   -0.0020
          52   -0.0104   -0.0004    0.0132   -0.0035   -0.0041    0.0098   -0.0122   -0.0140
          53   -0.0635    0.0426   -0.0437   -0.0073   -0.0674   -0.0353   -0.0076    0.1307
          54   -0.0679    0.0175    0.0047   -0.0380   -0.0148   -0.0533   -0.0026    0.0419
          55   -0.0235   -0.0336   -0.0011    0.0480   -0.0348   -0.0664   -0.0673   -0.0505
          56    0.0030    0.0238   -0.0099   -0.0139    0.0079    0.0325    0.0502    0.0391
          57   -0.0498   -0.0529   -0.0100    0.0478   -0.0002   -0.0761   -0.0885   -0.0590
          58   -0.0276   -0.0009    0.0360   -0.0210    0.0119   -0.0194   -0.0150   -0.0241
          59   -0.0130    0.0928   -0.0056    0.0986    0.0544    0.0443   -0.0055   -0.0354
          60   -0.0114    0.0468   -0.0095    0.0490    0.0392    0.0299    0.0131   -0.0292
          61    0.0375    0.0080   -0.0157   -0.0069   -0.0271    0.0103    0.0060   -0.0365
          62   -0.0142   -0.0980   -0.0054    0.0238    0.0976    0.0174   -0.0599    0.0841
          63    0.0028    0.0635    0.0046   -0.0259   -0.0291    0.0127    0.0467   -0.0351
          64   -0.0113   -0.0200    0.0750    0.0226    0.0548   -0.0448   -0.0017    0.0305
          65    0.0117   -0.0055   -0.0538   -0.0063   -0.0162   -0.0126    0.0465   -0.0236
          66   -0.0463    0.0243    0.1065    0.0198    0.0402   -0.0294   -0.0029    0.0398


   Root No.       9        10        11        12        13        14        15        16

                 9 A      10 A      11 A      12 A      13 A      14 A      15 A      16 A   

                 562.3     586.9     710.3     731.9     757.2     776.9     808.5     832.1
  
           1   -0.0021    0.0177    0.0228   -0.0070   -0.0086    0.0077    0.0134   -0.0349
           2   -0.0264   -0.0112    0.0150   -0.0148    0.0090    0.0020    0.0097   -0.0299
           3   -0.0127    0.0278    0.0101   -0.0225   -0.0091   -0.0294    0.0129   -0.0308
           4   -0.0014    0.0207    0.0087   -0.0064    0.0011   -0.0310   -0.0138    0.0167
           5   -0.0124    0.0234   -0.0145    0.0006    0.0029    0.0226    0.0259    0.0040
           6   -0.0225   -0.0239   -0.0360    0.0042   -0.0103    0.0017    0.0223   -0.0045
           7    0.0149    0.0258    0.0011   -0.0038   -0.0175    0.0123    0.0165   -0.0163
           8   -0.0184   -0.0204    0.0156    0.0018    0.0156   -0.0057   -0.0014    0.0070
           9    0.0076    0.0295   -0.0115    0.0134   -0.0128    0.0005   -0.0092   -0.0058
          10   -0.0099   -0.0321   -0.0266    0.0028   -0.0183   -0.0246   -0.0021    0.0035
          11    0.0105    0.0103   -0.0082   -0.0162   -0.0119    0.0130    0.0099    0.0030
          12   -0.0159   -0.0213   -0.0049    0.0084   -0.0059    0.0098   -0.0064    0.0231
          13   -0.0088   -0.0264    0.0182    0.0161    0.0213    0.0406   -0.0059    0.0014
          14    0.0032   -0.0131   -0.0077   -0.0069   -0.0138    0.0185   -0.0168   -0.0042
          15    0.0066    0.0173    0.0080   -0.0116   -0.0011   -0.0033   -0.0072    0.0054
          16    0.0028    0.0504   -0.0086   -0.0137    0.0265   -0.0123    0.0042    0.0350
          17   -0.0041    0.0203    0.0068    0.0109   -0.0001   -0.0020   -0.0079    0.0110
          18    0.0342   -0.0349   -0.0093   -0.0035    0.0069   -0.0052   -0.0195   -0.0292
          19   -0.0018   -0.0221   -0.0066    0.0037    0.0031    0.0035    0.0006    0.0025
          20    0.0014   -0.0049   -0.0175   -0.0170   -0.0215   -0.0173   -0.0110   -0.0039
          21   -0.0071    0.0082    0.0377    0.0037    0.0234    0.0334   -0.0114    0.0035
          22    0.0161   -0.0297    0.0002   -0.0180    0.0070    0.0066    0.0107    0.0058
          23    0.0205    0.0101    0.0102    0.0146   -0.0129   -0.0128    0.0002    0.0159
          24   -0.0124    0.0189   -0.0090    0.0094    0.0006    0.0078   -0.0085   -0.0004
          25    0.0144   -0.0122   -0.0047   -0.0005    0.0011    0.0065   -0.0020   -0.0014
          26   -0.0005   -0.0191    0.0148   -0.0126    0.0008   -0.0147    0.0142    0.0256
          27    0.0311   -0.0115   -0.0008   -0.0182    0.0080    0.0083    0.0161    0.0197
          28   -0.0208    0.0035   -0.0070    0.0141    0.0061   -0.0104   -0.0256   -0.0189
          29    0.0160   -0.0067    0.0067    0.0213   -0.0073   -0.0026   -0.0273   -0.0143
          30   -0.0133   -0.0047   -0.0017   -0.0097    0.0135   -0.0106   -0.0030    0.0015
          31   -0.0190    0.0172   -0.0064   -0.0106   -0.0180    0.0012    0.0569   -0.0590
          32   -0.0328   -0.0167    0.0119    0.0109    0.0162   -0.0044    0.0191   -0.0490
          33   -0.0020    0.0310    0.0227   -0.0358   -0.0092   -0.0240   -0.0102   -0.0085
          34    0.0164    0.0105    0.0135    0.0192   -0.0048   -0.0116   -0.0470    0.0587
          35    0.0133    0.0311   -0.0093    0.0048    0.0121    0.0170    0.0103   -0.0301
          36   -0.0336   -0.0331   -0.0377    0.0109   -0.0184    0.0120    0.0197    0.0365
          37   -0.0231    0.0970   -0.0613    0.0494   -0.0132   -0.0035   -0.0426   -0.0037
          38   -0.0342   -0.0232    0.0100    0.0124    0.0307    0.0268   -0.0181   -0.0095
          39   -0.0132    0.0487   -0.0333    0.0356   -0.0029    0.0145   -0.0372   -0.0112
          40    0.0128    0.0304    0.0028   -0.0028   -0.0203    0.0137    0.0170   -0.0252
          41   -0.0285   -0.0117   -0.0285    0.0268    0.0385   -0.0188   -0.0380    0.0693
          42    0.0514   -0.0447    0.0375   -0.0356   -0.0165    0.0084    0.0449    0.0085
          43   -0.0577   -0.0355   -0.0518   -0.0413   -0.0711    0.0405    0.0003    0.0585
          44    0.0510    0.0063    0.0329    0.0008    0.0245   -0.0270   -0.0225   -0.0460
          45   -0.0161   -0.0156   -0.0253    0.0261    0.0007   -0.0047    0.0224    0.0255
          46    0.0316   -0.0406   -0.0121    0.0422    0.0265   -0.0698    0.0057   -0.0531
          47    0.0371    0.0028   -0.0038    0.0158    0.0221   -0.0063    0.0305   -0.0411
          48    0.0226   -0.0175    0.0346    0.0168    0.0162   -0.0679   -0.0664    0.0014
          49   -0.0034   -0.0495    0.0260   -0.0047   -0.0009   -0.0292    0.0034    0.0189
          50    0.0589    0.0870   -0.1079    0.0345    0.0179    0.1035   -0.0634   -0.0451
          51   -0.0460   -0.0277    0.0559    0.0190   -0.0172   -0.0686    0.0015    0.0335
          52   -0.0102   -0.0327    0.0119    0.0105    0.0193    0.0339   -0.0134    0.0117
          53    0.0443   -0.0034   -0.0439    0.1183    0.0361    0.0090    0.0906    0.0106
          54    0.0358   -0.0033   -0.0517    0.0729    0.0333   -0.0434    0.0516    0.0668
          55    0.0360    0.0636    0.0344    0.0149   -0.0448    0.0453    0.0430    0.0687
          56   -0.0082    0.0345    0.0127   -0.0217    0.0488   -0.0537   -0.0360    0.0424
          57    0.0779   -0.0178    0.0467    0.0354   -0.0891    0.0734    0.0331    0.0129
          58    0.0123    0.0084   -0.0002   -0.0240    0.0001   -0.0097    0.0089   -0.0056
          59    0.0205   -0.0012   -0.0236    0.0980    0.0751   -0.1064    0.1140   -0.0594
          60    0.0054    0.0105    0.0340    0.0801    0.0880   -0.0259    0.0712   -0.0323
          61    0.0361   -0.0068    0.0222    0.0285   -0.0430   -0.0062    0.0107    0.0253
          62   -0.0422    0.0162   -0.0790   -0.0774    0.0974    0.0621    0.0149   -0.0020
          63    0.0548   -0.0370    0.0587    0.0209   -0.0493   -0.0430    0.0122    0.0337
          64   -0.0710   -0.0120    0.0483    0.0687   -0.0892    0.0091    0.0048   -0.0163
          65    0.0421    0.0140   -0.0236   -0.0064    0.0473   -0.0140   -0.0463   -0.0087
          66   -0.0833    0.0428    0.0639    0.0703   -0.0925    0.0134    0.0249    0.0405


   Root No.      17        18        19        20        21        22        23        24

                17 A      18 A      19 A      20 A      21 A      22 A      23 A      24 A   

                 841.6     920.6     934.1     955.3     974.8     989.6     994.0    1014.8
  
           1   -0.0072    0.0048   -0.0188    0.0068    0.0064   -0.0011   -0.0032   -0.0064
           2    0.0111    0.0013   -0.0110   -0.0115   -0.0140    0.0055    0.0010    0.0100
           3    0.0169   -0.0019   -0.0209   -0.0142   -0.0061    0.0038    0.0093   -0.0085
           4    0.0152    0.0152   -0.0155    0.0132    0.0026    0.0058    0.0041    0.0040
           5   -0.0105   -0.0177    0.0065    0.0072    0.0041   -0.0080    0.0005   -0.0090
           6   -0.0078   -0.0042    0.0119    0.0160    0.0015   -0.0106   -0.0080    0.0121
           7   -0.0127    0.0133    0.0469   -0.0189   -0.0014    0.0002    0.0052    0.0028
           8    0.0102    0.0270    0.0149    0.0065    0.0069   -0.0013   -0.0014   -0.0125
           9   -0.0101   -0.0122   -0.0063   -0.0131   -0.0033    0.0025    0.0059    0.0246
          10    0.0172   -0.0109    0.0087   -0.0126    0.0015   -0.0060   -0.0027   -0.0187
          11   -0.0208    0.0260   -0.0217   -0.0005   -0.0001    0.0207    0.0146   -0.0027
          12    0.0063   -0.0001    0.0012   -0.0189   -0.0005    0.0101    0.0072   -0.0142
          13   -0.0123   -0.0175   -0.0054   -0.0079   -0.0040    0.0029    0.0110    0.0030
          14   -0.0044   -0.0315    0.0118    0.0077    0.0071    0.0200    0.0088    0.0133
          15    0.0030    0.0088    0.0141    0.0189    0.0074    0.0087   -0.0096    0.0107
          16   -0.0103   -0.0105    0.0190   -0.0033   -0.0257   -0.0061    0.0053    0.0022
          17    0.0160   -0.0008    0.0049   -0.0083    0.0067    0.0006   -0.0067    0.0017
          18   -0.0193    0.0129   -0.0040    0.0115   -0.0149   -0.0046    0.0273   -0.0010
          19   -0.0028    0.0034    0.0034    0.0031   -0.0007    0.0021   -0.0005    0.0076
          20    0.0034   -0.0028    0.0028   -0.0016   -0.0049   -0.0289   -0.0111    0.0022
          21   -0.0073   -0.0032   -0.0022   -0.0011   -0.0049   -0.0229   -0.0094   -0.0016
          22    0.0193   -0.0056   -0.0136    0.0025   -0.0170    0.0029    0.0003    0.0077
          23   -0.0235   -0.0056    0.0018    0.0012    0.0339   -0.0150    0.0109    0.0029
          24   -0.0011    0.0061    0.0099    0.0127   -0.0015    0.0043   -0.0078   -0.0279
          25    0.0100   -0.0007   -0.0115    0.0068    0.0099   -0.0061    0.0070   -0.0003
          26   -0.0140   -0.0177   -0.0082    0.0067   -0.0304    0.0143   -0.0244   -0.0101
          27    0.0176   -0.0103   -0.0081    0.0026    0.0044   -0.0098   -0.0003    0.0012
          28   -0.0176    0.0061    0.0034   -0.0138    0.0194    0.0114   -0.0216   -0.0073
          29    0.0133    0.0113    0.0050   -0.0072   -0.0051   -0.0005    0.0041    0.0046
          30   -0.0124   -0.0027   -0.0049   -0.0104    0.0162    0.0109   -0.0167   -0.0027
          31   -0.0178    0.0009   -0.0658    0.0841    0.0201   -0.0641   -0.0779    0.0020
          32    0.0087    0.0399   -0.0091   -0.0535   -0.0528   -0.0264   -0.0380    0.1516
          33    0.0231   -0.0212   -0.0041   -0.0171    0.0122    0.0471    0.0608   -0.0956
          34    0.0014    0.0747   -0.0222    0.0894    0.0650    0.0345    0.0262    0.0242
          35   -0.0120   -0.0404    0.0102    0.0384    0.0270   -0.0684    0.0261   -0.0909
          36   -0.0106    0.0326    0.0080    0.0208    0.0079    0.0419   -0.0171    0.0763
          37   -0.0165   -0.0781   -0.1013   -0.0080   -0.0073   -0.0001    0.0160    0.0577
          38    0.0110    0.0788    0.0522    0.0452   -0.0063    0.0150   -0.0736   -0.0398
          39   -0.0114   -0.0091   -0.0282    0.0137   -0.0123    0.0124   -0.0338    0.0239
          40   -0.0170    0.0147    0.0460   -0.0158    0.0019    0.0003   -0.0016   -0.0040
          41    0.0338   -0.0235   -0.0570    0.0052   -0.0121   -0.0034    0.0383    0.0474
          42    0.0019    0.0507    0.1280   -0.0486   -0.0062    0.0007    0.0375    0.0189
          43   -0.0289    0.0674   -0.0479   -0.0543   -0.0073    0.0474    0.0315   -0.0487
          44    0.0100   -0.0106   -0.0030   -0.0086   -0.0143   -0.0458   -0.0154   -0.0161
          45    0.0128   -0.0257    0.0277    0.0216    0.0193    0.0303    0.0088    0.0212
          46    0.0459   -0.0835    0.0634    0.0202    0.0079   -0.0561   -0.0349   -0.0059
          47   -0.0103   -0.0338    0.0220    0.0313    0.0095   -0.0080   -0.0048    0.0096
          48    0.0652   -0.0145    0.0120   -0.0380   -0.0186   -0.0521   -0.0238   -0.0245
          49   -0.0114   -0.0126   -0.0440    0.0115    0.0435   -0.0189    0.0290    0.0208
          50    0.0927    0.0243   -0.0168    0.0506   -0.0979    0.0473   -0.0338   -0.0547
          51   -0.0712   -0.0108   -0.0192    0.0081    0.1079   -0.0391    0.0382    0.0041
          52   -0.0069   -0.0131    0.0134    0.0005   -0.0037    0.0071    0.0039    0.0182
          53   -0.0429    0.0681   -0.1140   -0.0840   -0.0384   -0.0751    0.0107   -0.0583
          54   -0.0042    0.1141   -0.0106   -0.0263   -0.0307   -0.0553   -0.0388    0.0109
          55    0.0872   -0.0179   -0.0142   -0.0347    0.0602    0.0217   -0.0623    0.0078
          56    0.0016    0.0124   -0.0031    0.0082   -0.0457   -0.0007    0.0573    0.0096
          57    0.1100    0.0031   -0.0477   -0.0308    0.1007    0.0322   -0.0634    0.0070
          58   -0.0194    0.0819   -0.0088    0.0690    0.0047   -0.0093   -0.0420    0.0779
          59    0.0466   -0.0205    0.0235    0.0273    0.0282    0.1251    0.0448    0.0067
          60    0.0217   -0.0137    0.0121    0.0187    0.0171    0.0789    0.0266    0.0021
          61   -0.0358   -0.0209   -0.0145    0.0626   -0.0136   -0.0027    0.0039   -0.0737
          62    0.0976    0.0244   -0.0040   -0.0031    0.1126   -0.0677    0.0631    0.0144
          63   -0.0500   -0.0356   -0.0109   -0.0032   -0.0902    0.0468   -0.0616    0.0004
          64    0.0337    0.0147   -0.0015    0.0620   -0.0617   -0.0297    0.0504   -0.0124
          65   -0.0092    0.0072    0.0174   -0.0576    0.0387    0.0198   -0.0326    0.0157
          66    0.0824    0.0113    0.0445    0.0337   -0.0875   -0.0541    0.0904    0.0410


   Root No.      25        26        27        28        29        30        31        32

                25 A      26 A      27 A      28 A      29 A      30 A      31 A      32 A   

                1025.3    1060.7    1064.2    1077.7    1081.7    1099.0    1109.3    1116.4
  
           1    0.0041   -0.0037    0.0007   -0.0000    0.0020    0.0026    0.0066   -0.0099
           2   -0.0033    0.0105   -0.0075   -0.0033    0.0066   -0.0025   -0.0101    0.0058
           3   -0.0038   -0.0027   -0.0105   -0.0031    0.0030    0.0008   -0.0086   -0.0026
           4   -0.0102   -0.0039   -0.0076   -0.0077   -0.0057   -0.0062    0.0012   -0.0025
           5   -0.0183    0.0138   -0.0035   -0.0009   -0.0042    0.0054   -0.0026    0.0028
           6    0.0011   -0.0070   -0.0096    0.0174   -0.0067    0.0157   -0.0208    0.0011
           7   -0.0126    0.0019   -0.0009    0.0038    0.0012    0.0004   -0.0010   -0.0017
           8   -0.0071   -0.0124   -0.0024    0.0038   -0.0067   -0.0002    0.0068   -0.0108
           9   -0.0114    0.0026    0.0023   -0.0063   -0.0084    0.0129    0.0010   -0.0091
          10   -0.0018   -0.0137    0.0210   -0.0072   -0.0105   -0.0021    0.0058    0.0096
          11    0.0053   -0.0021    0.0086   -0.0026   -0.0047   -0.0058    0.0029   -0.0044
          12   -0.0041    0.0175    0.0128   -0.0090    0.0027   -0.0049    0.0233    0.0052
          13   -0.0001    0.0075   -0.0162    0.0048    0.0067    0.0018   -0.0076   -0.0081
          14    0.0045    0.0075    0.0049    0.0073   -0.0041   -0.0032    0.0005   -0.0004
          15    0.0009    0.0042    0.0203   -0.0016   -0.0087   -0.0077    0.0079    0.0050
          16    0.0226   -0.0022    0.0035    0.0001   -0.0025    0.0028   -0.0005    0.0011
          17    0.0001   -0.0026    0.0024    0.0058    0.0055   -0.0009   -0.0027    0.0046
          18   -0.0019    0.0007    0.0059   -0.0025    0.0056   -0.0031    0.0016   -0.0004
          19    0.0006    0.0129   -0.0089    0.0043    0.0061    0.0030    0.0029   -0.0021
          20   -0.0092   -0.0033   -0.0230   -0.0084    0.0163    0.0033   -0.0005   -0.0055
          21   -0.0051   -0.0247    0.0051   -0.0074   -0.0045   -0.0035   -0.0013    0.0065
          22   -0.0140   -0.0014    0.0082    0.0002    0.0038    0.0117   -0.0027   -0.0054
          23    0.0160    0.0040    0.0050   -0.0020    0.0032    0.0024    0.0011   -0.0009
          24    0.0122   -0.0041   -0.0128    0.0116    0.0039   -0.0232    0.0021    0.0086
          25    0.0027    0.0031    0.0059   -0.0016    0.0078    0.0019   -0.0034    0.0036
          26    0.0038    0.0006   -0.0044   -0.0004   -0.0023   -0.0009   -0.0020    0.0033
          27    0.0401    0.0079   -0.0084   -0.0136   -0.0112   -0.0033    0.0012    0.0045
          28    0.0151   -0.0006   -0.0123   -0.0038   -0.0077   -0.0101    0.0036    0.0026
          29    0.0305   -0.0044   -0.0033   -0.0029   -0.0004   -0.0059    0.0053   -0.0018
          30   -0.0204   -0.0041    0.0033    0.0096    0.0093   -0.0009   -0.0035    0.0031
          31    0.0372    0.0142    0.0686    0.0657   -0.0098   -0.0859    0.0685   -0.1161
          32   -0.0451    0.0394    0.0619   -0.0393   -0.0326   -0.0760   -0.0160    0.1124
          33    0.0067   -0.0273   -0.0782   -0.0073    0.0297    0.0792   -0.0292   -0.0274
          34   -0.0962   -0.0067   -0.0664   -0.0374   -0.0858    0.0158   -0.1348    0.0419
          35   -0.1375    0.1027    0.0173   -0.0384   -0.0903    0.0140    0.0289    0.0217
          36    0.0515   -0.0682   -0.0458    0.0337    0.0241    0.0192   -0.0939    0.0057
          37   -0.0086    0.0129    0.0021   -0.0011   -0.0018    0.0030   -0.0027   -0.0038
          38    0.0126    0.0169    0.0882   -0.0785    0.0166    0.1505   -0.0145   -0.0457
          39    0.0024    0.0233    0.0573   -0.0572    0.0046    0.1055   -0.0124   -0.0320
          40    0.0002    0.0128    0.0059   -0.0060    0.0149    0.0079   -0.0129    0.0076
          41   -0.0823   -0.0760   -0.0327    0.0607   -0.0897   -0.0349    0.0840   -0.0817
          42   -0.0768   -0.0462   -0.0333    0.0486   -0.0532   -0.0254    0.0452   -0.0526
          43    0.0345   -0.0162    0.0923    0.0178   -0.0600   -0.0115   -0.0225    0.0196
          44    0.0231    0.0103    0.0307    0.0727   -0.0617    0.0227   -0.0891    0.0001
          45   -0.0485    0.0060   -0.0606   -0.0979    0.0917   -0.0238    0.1300   -0.0048
          46   -0.0154   -0.1097    0.0232   -0.0415   -0.0088   -0.0126   -0.0263    0.0196
          47   -0.0091   -0.1131    0.0166   -0.0582    0.0046   -0.0302   -0.0188   -0.0006
          48    0.0029    0.1589   -0.0175    0.1039   -0.0279    0.0600    0.0043    0.0180
          49   -0.0424   -0.0141    0.0515    0.0252    0.0487    0.0439   -0.0023   -0.0392
          50   -0.0493   -0.0335    0.0062    0.0454    0.0342   -0.0103    0.0064   -0.0218
          51    0.0003   -0.0084    0.0350    0.0264    0.0444    0.0163    0.0024   -0.0251
          52   -0.0052    0.0519   -0.0200   -0.0041    0.0252   -0.0285   -0.0356   -0.0464
          53   -0.0014   -0.0865   -0.0286    0.0118   -0.0165    0.0646    0.0392    0.0625
          54   -0.0272    0.1120   -0.0205   -0.0397    0.0586   -0.0819   -0.0819   -0.1047
          55   -0.0144   -0.0096   -0.0000    0.0083    0.0078    0.0018   -0.0089    0.0083
          56   -0.0715   -0.0195    0.0729    0.0135    0.0870   -0.0140   -0.0061    0.0356
          57   -0.0492   -0.0095    0.0001    0.0098    0.0187   -0.0034   -0.0098    0.0077
          58    0.0101    0.0162   -0.0607    0.0585    0.0139    0.1000    0.1611    0.1151
          59    0.0234    0.0435    0.0179    0.0198   -0.0095    0.0055    0.0090    0.0007
          60    0.0163    0.0071    0.0328    0.0114   -0.0218   -0.0017    0.0075    0.0125
          61   -0.0387    0.0154    0.0216    0.0563    0.0936   -0.0718   -0.0531    0.1280
          62    0.0701    0.0125    0.0034   -0.0114    0.0062   -0.0104   -0.0041    0.0195
          63    0.0053   -0.0034   -0.0176   -0.0191   -0.0367    0.0202    0.0142   -0.0356
          64    0.0641    0.0332   -0.0376   -0.0575   -0.0523   -0.0309    0.0113    0.0165
          65    0.0030   -0.0347    0.0238    0.0444    0.0410    0.0157   -0.0014   -0.0159
          66    0.0259   -0.0294    0.0493    0.0465    0.0482    0.0399   -0.0089   -0.0237


   Root No.      33        34        35        36        37        38        39        40

                33 A      34 A      35 A      36 A      37 A      38 A      39 A      40 A   

                1160.4    1172.2    1206.5    1211.6    1228.7    1287.9    1299.0    1355.2
  
           1   -0.0068    0.0041   -0.0002   -0.0126    0.0247    0.0697    0.0029    0.0124
           2   -0.0024   -0.0012   -0.0026    0.0125    0.0248   -0.0235    0.0034   -0.0323
           3   -0.0016    0.0054   -0.0124   -0.0003   -0.0188   -0.0098   -0.0284    0.0047
           4    0.0039    0.0029    0.0472   -0.0157   -0.0136   -0.0307    0.0287   -0.0018
           5    0.0076   -0.0067   -0.0347   -0.0111    0.0154    0.0106    0.0294   -0.0026
           6    0.0090   -0.0035    0.0507   -0.0004   -0.0206    0.0081   -0.0011   -0.0058
           7    0.0045   -0.0072   -0.0041   -0.0019   -0.0014   -0.0158   -0.0073   -0.0115
           8   -0.0004   -0.0016   -0.0029    0.0082   -0.0073   -0.0036    0.0226    0.0463
           9    0.0098    0.0124   -0.0018    0.0088    0.0082   -0.0101    0.0172    0.0210
          10   -0.0024   -0.0019   -0.0177   -0.0023    0.0051   -0.0005    0.0173   -0.0204
          11   -0.0024    0.0038    0.0123   -0.0047   -0.0192   -0.0030    0.0111   -0.0249
          12   -0.0073   -0.0009   -0.0052    0.0113    0.0251    0.0003   -0.0239    0.0394
          13    0.0036    0.0024    0.0055    0.0008   -0.0163   -0.0103   -0.0099    0.0012
          14    0.0010   -0.0002    0.0127    0.0028    0.0006   -0.0063   -0.0079   -0.0015
          15   -0.0026   -0.0009   -0.0173   -0.0081   -0.0086    0.0154    0.0129    0.0082
          16   -0.0045   -0.0046   -0.0082   -0.0018    0.0024   -0.0023   -0.0141    0.0093
          17    0.0065   -0.0013    0.0021   -0.0135    0.0047   -0.0140    0.0009    0.0208
          18    0.0046    0.0016   -0.0121   -0.0030    0.0044    0.0002    0.0125    0.0006
          19    0.0001    0.0016   -0.0156   -0.0017   -0.0216    0.0079   -0.0108    0.0246
          20   -0.0008    0.0018   -0.0064    0.0003   -0.0035    0.0078   -0.0108    0.0157
          21    0.0012   -0.0020    0.0045   -0.0000    0.0048   -0.0129    0.0156   -0.0235
          22   -0.0054    0.0019   -0.0022    0.0065   -0.0003   -0.0019    0.0150    0.0134
          23    0.0013   -0.0002    0.0012    0.0060   -0.0027    0.0082    0.0053   -0.0067
          24   -0.0085   -0.0114    0.0034    0.0124   -0.0085    0.0165    0.0080   -0.0078
          25    0.0012    0.0025    0.0008    0.0122   -0.0043    0.0098    0.0164    0.0025
          26   -0.0104    0.0021    0.0025    0.0032   -0.0028    0.0052   -0.0057   -0.0072
          27   -0.0023   -0.0008    0.0015   -0.0053    0.0006    0.0016   -0.0204   -0.0142
          28    0.0008    0.0050    0.0061    0.0095   -0.0059    0.0106   -0.0139   -0.0205
          29   -0.0023    0.0019    0.0015   -0.0045    0.0014   -0.0056   -0.0111    0.0015
          30    0.0020    0.0023    0.0006   -0.0121    0.0046   -0.0123    0.0050    0.0165
          31    0.0333    0.0376   -0.1160    0.0744   -0.0264   -0.1388   -0.0443   -0.0003
          32   -0.0511   -0.0264    0.0043   -0.0555   -0.0609    0.0731   -0.0317    0.0116
          33    0.0127    0.0093    0.0279    0.0059    0.0518    0.0131    0.0100   -0.0163
          34   -0.0719    0.0061   -0.1637    0.0695    0.0154   -0.0195   -0.0766   -0.0238
          35   -0.0633    0.0072    0.1082    0.0500   -0.0376    0.0048   -0.0584   -0.0109
          36    0.0324   -0.0133   -0.1271   -0.0111    0.0271    0.0166    0.0216   -0.0080
          37   -0.0022   -0.0035   -0.0025    0.0119    0.0355   -0.0551    0.0163    0.0188
          38    0.0523    0.0679   -0.0080   -0.0550   -0.0248    0.0013   -0.0746   -0.0481
          39    0.0405    0.0561   -0.0046   -0.0242    0.0097   -0.0250   -0.0346   -0.0247
          40   -0.0034   -0.0203   -0.0048    0.0105   -0.0068   -0.0328    0.0089    0.0095
          41    0.0479    0.0854   -0.0014   -0.0694    0.0409    0.1151   -0.0721   -0.0790
          42    0.0400    0.0270   -0.0103   -0.0359    0.0231   -0.0468   -0.0555   -0.0346
          43   -0.0035   -0.0099    0.0197    0.0207    0.0734   -0.0211    0.0030   -0.0506
          44    0.0208   -0.0120    0.0479    0.0059    0.0219    0.0133   -0.0294    0.1043
          45   -0.0282    0.0194   -0.0653   -0.0150   -0.0614   -0.0019    0.0281   -0.0713
          46   -0.0019   -0.0108   -0.0004    0.0194    0.0770   -0.0186    0.0052   -0.0439
          47   -0.0089   -0.0008    0.0496    0.0220    0.0482   -0.0187   -0.0252    0.0061
          48    0.0212   -0.0104   -0.0979   -0.0281   -0.0214    0.0128    0.0758   -0.1308
          49   -0.0657   -0.1375   -0.0063   -0.0684    0.0131   -0.0384   -0.0539   -0.0166
          50   -0.0650   -0.1331   -0.0023   -0.0504    0.0017   -0.0155   -0.0461   -0.0192
          51   -0.0581   -0.1340    0.0001   -0.0570    0.0052   -0.0165   -0.0577   -0.0411
          52    0.0010    0.0031    0.0407    0.0056    0.0244   -0.0032   -0.0114   -0.0121
          53    0.0066    0.0007   -0.0526   -0.0010   -0.0680   -0.0260   -0.0102    0.0180
          54   -0.0095    0.0016    0.0792    0.0101    0.1140    0.0247    0.0104   -0.0378
          55    0.0365   -0.0194    0.0225    0.0232   -0.0153    0.0144   -0.0267   -0.0066
          56    0.1937   -0.0733    0.0062    0.1245   -0.0424    0.1052   -0.0570   -0.0555
          57    0.0524   -0.0142    0.0279    0.0252   -0.0170    0.0194    0.0008   -0.0179
          58   -0.0052   -0.0188    0.0718    0.0543    0.1299   -0.0440   -0.0291   -0.0107
          59   -0.0017    0.0011    0.0020    0.0034    0.0020    0.0048   -0.0141    0.0142
          60    0.0004   -0.0029    0.0100    0.0026    0.0110   -0.0166    0.0151   -0.0268
          61    0.0301    0.1683    0.0041   -0.0926    0.0363   -0.0522   -0.0592    0.0050
          62    0.0025    0.0219    0.0011   -0.0123    0.0030   -0.0014   -0.0192   -0.0084
          63   -0.0205   -0.0541    0.0022    0.0301   -0.0135    0.0219    0.0048   -0.0165
          64    0.1105   -0.0750   -0.0049   -0.0446    0.0156   -0.0265   -0.0223    0.0211
          65   -0.1078    0.0782    0.0136    0.0488   -0.0204    0.0310   -0.0064   -0.0407
          66   -0.1351    0.0887    0.0179    0.0568   -0.0250    0.0343    0.0121   -0.0386


   Root No.      41        42        43        44        45        46        47        48

                41 A      42 A      43 A      44 A      45 A      46 A      47 A      48 A   

                1361.8    1383.9    1400.2    1405.2    1455.9    1833.8    1862.0    1892.3
  
           1    0.0195   -0.0187   -0.0059    0.0038    0.0069    0.0067   -0.0014    0.0012
           2    0.0247    0.0530   -0.0211   -0.0108    0.0172   -0.0097    0.0020    0.0019
           3   -0.0333   -0.0313    0.0199    0.0090    0.0005    0.0145   -0.0010    0.0005
           4   -0.0174    0.0244    0.0207   -0.0227   -0.0311    0.0055   -0.0077   -0.0094
           5   -0.0227    0.0114    0.0342   -0.0113   -0.0470    0.0047   -0.0180   -0.0265
           6    0.0157   -0.0038   -0.0138    0.0017    0.0099   -0.0054   -0.0008   -0.0012
           7   -0.0162    0.0161   -0.0166    0.0037   -0.0111   -0.0003    0.0113   -0.0078
           8    0.0195   -0.0429   -0.0048    0.0110   -0.0360   -0.0014    0.0133   -0.0064
           9    0.0014   -0.0051   -0.0386    0.0149   -0.0393    0.0023    0.0165   -0.0090
          10    0.0093    0.0083    0.0099    0.0653    0.0062   -0.0191    0.0008    0.0002
          11    0.0095   -0.0144   -0.0089    0.0150    0.0093   -0.0004    0.0004    0.0002
          12   -0.0099    0.0222    0.0099   -0.0131   -0.0067   -0.0010    0.0011    0.0018
          13   -0.0132   -0.0139    0.0043   -0.0015   -0.0016   -0.1667    0.0056    0.0035
          14   -0.0174   -0.0234    0.0090    0.0160   -0.0012    0.0800   -0.0024   -0.0016
          15    0.0226    0.0276   -0.0114   -0.0229   -0.0017   -0.1333    0.0041    0.0023
          16    0.0063   -0.0114   -0.0140    0.0092    0.0238   -0.0020   -0.0058   -0.0179
          17   -0.0035   -0.0072   -0.0153    0.0039    0.0496    0.0075    0.0972    0.1568
          18   -0.0085    0.0038    0.0089   -0.0020   -0.0021    0.0043    0.0412    0.0674
          19    0.0122    0.0226   -0.0111   -0.0365    0.0003    0.1967   -0.0060   -0.0033
          20   -0.0002    0.0046   -0.0014   -0.0163   -0.0013   -0.0559    0.0019    0.0014
          21    0.0014   -0.0031    0.0011    0.0206    0.0021    0.1013   -0.0035   -0.0025
          22   -0.0057   -0.0037   -0.0038    0.0012    0.0177   -0.0050   -0.1341    0.0903
          23   -0.0133    0.0105    0.0084   -0.0062    0.0327   -0.0028   -0.0680    0.0405
          24   -0.0161    0.0098    0.0162   -0.0090    0.0404   -0.0019   -0.0477    0.0279
          25   -0.0146    0.0056    0.0112   -0.0068    0.0409    0.0041    0.1394   -0.1280
          26    0.0040    0.0006    0.0045   -0.0010   -0.0128    0.0024    0.0518   -0.0200
          27    0.0136   -0.0008    0.0004    0.0021   -0.0398    0.0015    0.0138    0.0209
          28    0.0098    0.0038    0.0080   -0.0018   -0.0462    0.0031    0.0117    0.0789
          29    0.0070   -0.0033   -0.0087    0.0040    0.0024   -0.0079   -0.0788   -0.1345
          30   -0.0034   -0.0045   -0.0106    0.0028    0.0349   -0.0056   -0.0440   -0.1066
          31   -0.0196    0.0017   -0.0169    0.0105    0.0008   -0.0188    0.0098    0.0035
          32   -0.0480   -0.0467    0.0489   -0.0019    0.0102   -0.0111   -0.0071    0.0016
          33    0.0244    0.0201   -0.0177    0.0006    0.0058    0.0195    0.0012   -0.0009
          34    0.0094   -0.0162   -0.0200    0.0391    0.0354   -0.0019   -0.0076   -0.0132
          35    0.0412   -0.0132   -0.0425    0.0015    0.0290   -0.0059   -0.0173   -0.0287
          36   -0.0200   -0.0008    0.0259    0.0150   -0.0201   -0.0023   -0.0011   -0.0002
          37    0.1787   -0.0569    0.1448   -0.0494    0.0599   -0.0020   -0.0142    0.0126
          38   -0.0492    0.0088    0.0407   -0.0095    0.0363   -0.0024   -0.0098    0.0023
          39    0.0358   -0.0046    0.0570   -0.0189    0.0339    0.0034   -0.0089    0.0066
          40    0.0017   -0.0025   -0.0094    0.0045   -0.0204   -0.0014    0.0083   -0.0051
          41   -0.0846    0.0717   -0.0609    0.0091    0.0189    0.0013    0.0196   -0.0131
          42    0.1347   -0.0361    0.1638   -0.0543    0.0726    0.0010    0.0259   -0.0182
          43   -0.0349   -0.1047   -0.0435   -0.1639   -0.0063   -0.0196    0.0005   -0.0003
          44   -0.0049    0.1222    0.0667    0.1044   -0.0237   -0.0133   -0.0019   -0.0026
          45    0.0341   -0.0389   -0.0302    0.0484    0.0332    0.0183    0.0023    0.0029
          46   -0.0344   -0.0857   -0.0316   -0.1395   -0.0103   -0.0252   -0.0001   -0.0008
          47   -0.0272   -0.0430   -0.0216   -0.1149   -0.0067   -0.0160    0.0007    0.0009
          48    0.0012   -0.1229   -0.0487   -0.0918    0.0002    0.0208   -0.0042   -0.0061
          49    0.0223   -0.0002   -0.0263    0.0129   -0.0684   -0.0010   -0.0345    0.0388
          50    0.0151   -0.0005   -0.0071    0.0056   -0.0451    0.0014    0.0336   -0.0180
          51    0.0081    0.0177   -0.0028    0.0001   -0.0365    0.0030    0.0775   -0.0410
          52   -0.0275   -0.0433    0.0124    0.0252    0.0003   -0.1381    0.0047    0.0033
          53    0.0095    0.0340   -0.0079   -0.0359   -0.0011   -0.0589    0.0025    0.0012
          54   -0.0134   -0.0442    0.0108    0.0544    0.0063    0.0747   -0.0030   -0.0018
          55    0.0169   -0.0085   -0.0132    0.0059    0.0015   -0.0050   -0.0403   -0.0719
          56    0.0379   -0.0103    0.0088    0.0092   -0.0709   -0.0028   -0.0308   -0.0230
          57    0.0025    0.0087    0.0109   -0.0073   -0.0267    0.0031    0.0268    0.0467
          58   -0.0560   -0.0453    0.0331    0.0588   -0.0029   -0.0533    0.0023    0.0016
          59   -0.0030    0.0028   -0.0004   -0.0131   -0.0001   -0.0889    0.0032    0.0026
          60   -0.0001   -0.0030    0.0020    0.0252    0.0029    0.1296   -0.0046   -0.0032
          61    0.0512   -0.0219   -0.0336    0.0193   -0.0827   -0.0019   -0.0292   -0.0091
          62    0.0146   -0.0050   -0.0000    0.0025   -0.0330    0.0018    0.0413   -0.0149
          63   -0.0085    0.0103    0.0154   -0.0069    0.0003    0.0043    0.0902   -0.0322
          64    0.0106   -0.0125   -0.0269    0.0107    0.0233   -0.0052   -0.0621   -0.0499
          65    0.0087    0.0124    0.0239   -0.0076   -0.0683   -0.0017   -0.0265   -0.0473
          66   -0.0024    0.0180    0.0309   -0.0132   -0.0529    0.0038    0.0399    0.0291


   Root No.      49        50        51        52        53        54        55        56

                49 A      50 A      51 A      52 A      53 A      54 A      55 A      56 A   

                2867.9    2877.4    2945.8    2976.2    3015.9    3020.5    3034.7    3043.2
  
           1   -0.0136   -0.0084    0.0001   -0.0001    0.0002   -0.0009    0.0001    0.0000
           2   -0.0201   -0.0136    0.0001   -0.0001    0.0002   -0.0001    0.0002   -0.0000
           3   -0.0343   -0.0234   -0.0005   -0.0002    0.0000   -0.0014    0.0001   -0.0001
           4   -0.0091    0.0114   -0.0003    0.0007   -0.0004    0.0002   -0.0004   -0.0001
           5    0.0165   -0.0229    0.0003   -0.0017    0.0005   -0.0002    0.0007    0.0002
           6    0.0230   -0.0322    0.0001   -0.0023    0.0010   -0.0001    0.0008    0.0003
           7    0.0008    0.0005    0.0439    0.0000   -0.0004   -0.0287    0.0004   -0.0014
           8   -0.0008   -0.0004    0.0247    0.0000    0.0001    0.0093    0.0001   -0.0001
           9    0.0007    0.0004   -0.0313    0.0000   -0.0004   -0.0264   -0.0001   -0.0001
          10    0.0005   -0.0004    0.0000    0.0030    0.0000   -0.0000    0.0001    0.0001
          11   -0.0017    0.0026   -0.0000   -0.0493    0.0005   -0.0000    0.0003    0.0001
          12   -0.0004    0.0010    0.0000   -0.0308    0.0002   -0.0000    0.0002    0.0001
          13    0.0003    0.0000    0.0002    0.0000   -0.0000   -0.0001   -0.0000    0.0000
          14    0.0004    0.0001   -0.0004   -0.0003    0.0000   -0.0002   -0.0000    0.0000
          15   -0.0005   -0.0003    0.0002   -0.0001    0.0000    0.0001    0.0000    0.0000
          16    0.0009   -0.0012   -0.0000   -0.0006   -0.0310    0.0005   -0.0205   -0.0070
          17   -0.0000    0.0001   -0.0000    0.0005    0.0013   -0.0001    0.0040    0.0019
          18   -0.0006    0.0010   -0.0002    0.0001    0.0236   -0.0005    0.0169    0.0059
          19    0.0002    0.0001   -0.0001   -0.0001    0.0000    0.0000   -0.0000    0.0000
          20   -0.0002   -0.0003    0.0000   -0.0001    0.0000    0.0000   -0.0000   -0.0000
          21    0.0001    0.0002   -0.0000   -0.0001    0.0000   -0.0000    0.0000    0.0000
          22    0.0000   -0.0000   -0.0023   -0.0000   -0.0004    0.0025    0.0036   -0.0155
          23    0.0003    0.0002    0.0002   -0.0000    0.0001   -0.0007   -0.0014    0.0044
          24    0.0002    0.0001    0.0013    0.0000    0.0003   -0.0023   -0.0038    0.0142
          25   -0.0000    0.0000    0.0002    0.0000   -0.0009    0.0001    0.0039   -0.0060
          26   -0.0000   -0.0000   -0.0000    0.0000   -0.0023    0.0001    0.0092   -0.0177
          27    0.0000    0.0000   -0.0002    0.0000   -0.0031    0.0001    0.0129   -0.0248
          28   -0.0000    0.0000   -0.0001    0.0000    0.0192   -0.0004   -0.0164   -0.0083
          29   -0.0001    0.0002    0.0001   -0.0000    0.0242   -0.0003   -0.0260   -0.0126
          30    0.0000   -0.0000    0.0001   -0.0001   -0.0046    0.0002    0.0019    0.0012
          31    0.1562    0.1101    0.0021    0.0009   -0.0003    0.0039   -0.0003    0.0000
          32    0.2462    0.1679    0.0022    0.0012   -0.0003    0.0134   -0.0006    0.0002
          33    0.4127    0.2811    0.0014    0.0023   -0.0006    0.0158   -0.0009    0.0003
          34    0.0995   -0.1441    0.0004   -0.0086    0.0026   -0.0004    0.0022    0.0007
          35   -0.1934    0.2702   -0.0011    0.0157   -0.0101    0.0009   -0.0073   -0.0024
          36   -0.2769    0.3865   -0.0016    0.0296   -0.0107    0.0012   -0.0080   -0.0026
          37    0.0048    0.0032   -0.1289    0.0001   -0.0020   -0.1301   -0.0001   -0.0016
          38    0.0041    0.0023   -0.2497    0.0002   -0.0030   -0.1949   -0.0006   -0.0013
          39   -0.0115   -0.0071    0.4117   -0.0003    0.0048    0.3129    0.0011    0.0011
          40   -0.0097   -0.0098   -0.3925   -0.0006    0.0073    0.4768   -0.0049    0.0199
          41   -0.0048   -0.0033   -0.0450   -0.0001    0.0012    0.0734   -0.0009    0.0038
          42   -0.0008   -0.0007   -0.0312   -0.0000    0.0001    0.0036   -0.0006    0.0022
          43    0.0055   -0.0085   -0.0001    0.2297   -0.0022    0.0005   -0.0018   -0.0009
          44    0.0081   -0.0125   -0.0001    0.2826   -0.0025    0.0007   -0.0021   -0.0012
          45    0.0066   -0.0103   -0.0001    0.3031   -0.0031    0.0007   -0.0025   -0.0013
          46   -0.0078    0.0138   -0.0001   -0.2651    0.0017    0.0002    0.0007   -0.0005
          47    0.0085   -0.0159    0.0001    0.3096   -0.0019   -0.0003   -0.0007    0.0007
          48    0.0044   -0.0067    0.0001    0.0702   -0.0003   -0.0001   -0.0001    0.0003
          49   -0.0004   -0.0005    0.0247    0.0000    0.0033   -0.0303   -0.0486    0.1933
          50    0.0002    0.0002   -0.0025    0.0000   -0.0009    0.0078    0.0132   -0.0510
          51    0.0006    0.0005   -0.0177   -0.0000   -0.0035    0.0241    0.0436   -0.1696
          52   -0.0030   -0.0037    0.0003    0.0003    0.0002    0.0015    0.0003   -0.0001
          53   -0.0005   -0.0009   -0.0005   -0.0005    0.0000    0.0007    0.0001   -0.0000
          54   -0.0009   -0.0000    0.0003   -0.0004   -0.0000   -0.0007   -0.0001   -0.0000
[...]
 FREQUENCY          1400.16         C  3 -- H 14         +13.6% ( 48.7%)      3.9%
 TRANSITION DIPOLE   0.0621         C  3 -- H 13         +12.0% ( 45.7%)      7.0%
 TRAVEL (Ang.)       0.2780         C  2 -- C  6          +9.5% ( 40.6%)     91.3%
 REDUCED MASS        0.6230         C  1 -- C  2          +8.7% ( 38.9%)     14.4%
 EFFECTIVE MASS      6.1088
 FORCE CONSTANT      0.7196

 VIBRATION         44   44A           ATOM PAIR      ENERGY CONTRIBUTION    RADIAL
 FREQUENCY          1405.19         C  4 -- C  7         +20.8% ( 61.0%)     98.5%
 TRANSITION DIPOLE   0.0699         C  4 -- H 16         +18.3% ( 57.1%)      5.3%
 TRAVEL (Ang.)       0.2030         C  4 -- H 15         +18.1% ( 56.9%)      5.4%
 REDUCED MASS        1.1646         C  2 -- C  4         +12.3% ( 46.8%)      0.0%
 EFFECTIVE MASS      6.5565
 FORCE CONSTANT      1.3548

 VIBRATION         45   45A           ATOM PAIR      ENERGY CONTRIBUTION    RADIAL
 FREQUENCY          1455.95         C  9 -- C 10         +14.0% ( 57.0%)     99.9%
 TRANSITION DIPOLE   0.0767         C  2 -- C  6         +11.7% ( 52.1%)     99.9%
 TRAVEL (Ang.)       0.1866         C  3 -- C  8         +10.9% ( 50.3%)     98.7%
 REDUCED MASS        1.3303         C  8 -- C  9          +7.6% ( 41.9%)      0.8%
 EFFECTIVE MASS     10.0873
 FORCE CONSTANT      1.6615

 VIBRATION         46   46A           ATOM PAIR      ENERGY CONTRIBUTION    RADIAL
 FREQUENCY          1833.77         C  5 -- C  7         +45.7% (100.0%)    100.0%
 TRANSITION DIPOLE   0.0968         C  1 -- C  5         +13.9% ( 55.1%)     25.6%
 TRAVEL (Ang.)       0.0827         C  4 -- C  7         +13.9% ( 55.1%)     26.2%
 REDUCED MASS        5.3702         C  5 -- H 18         +12.9% ( 53.2%)      9.9%
 EFFECTIVE MASS     11.8839         C  7 -- H 20         +12.9% ( 53.2%)      9.5%
 FORCE CONSTANT     10.6397

 VIBRATION         47   47A           ATOM PAIR      ENERGY CONTRIBUTION    RADIAL
 FREQUENCY          1861.99         C  8 -- C  9         +31.8% ( 82.9%)     99.8%
 TRANSITION DIPOLE   0.1568         C  6 -- C 10         +13.1% ( 53.2%)     98.4%
 TRAVEL (Ang.)       0.1066         C  9 -- C 10         +11.8% ( 50.5%)      4.9%
 REDUCED MASS        3.1863         C  3 -- C  8         +10.7% ( 48.2%)     51.8%
 EFFECTIVE MASS     11.7941
 FORCE CONSTANT      6.5086

 VIBRATION         48   48A           ATOM PAIR      ENERGY CONTRIBUTION    RADIAL
 FREQUENCY          1892.28         C  6 -- C 10         +30.5% ( 81.6%)     99.4%
 TRANSITION DIPOLE   0.1566         C  9 -- C 10         +17.8% ( 62.3%)     90.7%
 TRAVEL (Ang.)       0.1032         C  8 -- C  9         +12.5% ( 52.2%)     97.0%
 REDUCED MASS        3.3479         C 10 -- H 22         +10.2% ( 47.1%)      1.7%
 EFFECTIVE MASS     11.9328
 FORCE CONSTANT      7.0630

 VIBRATION         49   49A           ATOM PAIR      ENERGY CONTRIBUTION    RADIAL
 FREQUENCY          2867.86         C  1 -- H 11         +64.8% ( 82.0%)    100.0%
 TRANSITION DIPOLE   0.0222         C  2 -- H 12         +31.6% ( 57.3%)    100.0%
 TRAVEL (Ang.)       0.2130         C  1 -- C  2          +1.2% ( 11.0%)      0.4%
 REDUCED MASS        0.5183         C  1 -- C  3          +0.7% (  8.6%)      6.5%
 EFFECTIVE MASS      1.4626
 FORCE CONSTANT      2.5118

 VIBRATION         50   50A           ATOM PAIR      ENERGY CONTRIBUTION    RADIAL
 FREQUENCY          2877.37         C  2 -- H 12         +64.8% ( 81.7%)    100.0%
 TRANSITION DIPOLE   0.0539         C  1 -- H 11         +31.7% ( 57.1%)    100.0%
 TRAVEL (Ang.)       0.2132         C  1 -- C  2          +1.0% ( 10.0%)     70.4%
 REDUCED MASS        0.5158         C  2 -- C  4          +0.7% (  8.7%)      8.6%
 EFFECTIVE MASS      1.4445
 FORCE CONSTANT      2.5158

 VIBRATION         51   51A           ATOM PAIR      ENERGY CONTRIBUTION    RADIAL
 FREQUENCY          2945.84         C  3 -- H 13         +58.7% ( 79.6%)     97.5%
 TRANSITION DIPOLE   0.0474         C  3 -- H 14         +38.6% ( 64.5%)     95.1%
 TRAVEL (Ang.)       0.2063         C  3 -- C  8          +1.2% ( 11.4%)      0.2%
 REDUCED MASS        0.5379         C  1 -- C  3          +1.2% ( 11.3%)      0.2%
 EFFECTIVE MASS      1.5498
 FORCE CONSTANT      2.7502

 VIBRATION         52   52A           ATOM PAIR      ENERGY CONTRIBUTION    RADIAL
 FREQUENCY          2976.19         C  4 -- H 15         +54.8% ( 76.8%)     97.3%
 TRANSITION DIPOLE   0.0637         C  4 -- H 16         +42.7% ( 67.8%)     95.8%
 TRAVEL (Ang.)       0.2083         C  4 -- C  7          +1.1% ( 10.9%)      0.0%
 REDUCED MASS        0.5222         C  2 -- C  4          +1.1% ( 10.9%)      0.0%
 EFFECTIVE MASS      1.5373
 FORCE CONSTANT      2.7255

 VIBRATION         53   53A           ATOM PAIR      ENERGY CONTRIBUTION    RADIAL
 FREQUENCY          3015.95         C  6 -- H 19         +58.5% ( 77.6%)    100.0%
 TRANSITION DIPOLE   0.2416         C 10 -- H 22         +38.5% ( 63.0%)    100.0%
 TRAVEL (Ang.)       0.2162         C  6 -- C 10          +1.1% ( 10.5%)      0.4%
 REDUCED MASS        0.4782         C  2 -- C  6          +0.7% (  8.7%)     16.9%
 EFFECTIVE MASS      1.4604
 FORCE CONSTANT      2.5626

 VIBRATION         54   54A           ATOM PAIR      ENERGY CONTRIBUTION    RADIAL
 FREQUENCY          3020.50         C  3 -- H 14         +59.9% ( 76.3%)     98.7%
 TRANSITION DIPOLE   0.0617         C  3 -- H 13         +38.3% ( 61.0%)     95.9%
 TRAVEL (Ang.)       0.2117         C  3 -- C  8          +0.6% (  7.8%)     25.9%
 REDUCED MASS        0.4983         C  1 -- C  3          +0.6% (  7.8%)     29.0%
 EFFECTIVE MASS      1.2793
 FORCE CONSTANT      2.6786

 VIBRATION         55   55A           ATOM PAIR      ENERGY CONTRIBUTION    RADIAL
 FREQUENCY          3034.70         C 10 -- H 22         +46.0% ( 68.8%)     99.9%
 TRANSITION DIPOLE   0.2065         C  6 -- H 19         +34.5% ( 59.6%)     99.9%
 TRAVEL (Ang.)       0.2517         C  9 -- H 21         +14.5% ( 38.6%)    100.0%
 REDUCED MASS        0.3507         C  8 -- H 17          +1.8% ( 13.4%)     99.8%
 EFFECTIVE MASS      1.5471
 FORCE CONSTANT      1.9031

 VIBRATION         56   56A           ATOM PAIR      ENERGY CONTRIBUTION    RADIAL
 FREQUENCY          3043.17         C  9 -- H 21         +53.9% ( 74.5%)    100.0%
 TRANSITION DIPOLE   0.3534         C  8 -- H 17         +28.0% ( 53.7%)    100.0%
 TRAVEL (Ang.)       0.2430         C 10 -- H 22         +11.5% ( 34.4%)    100.0%
 REDUCED MASS        0.3753         C  6 -- H 19          +3.8% ( 19.8%)     99.7%
 EFFECTIVE MASS      1.4801
 FORCE CONSTANT      2.0479

 VIBRATION         57   57A           ATOM PAIR      ENERGY CONTRIBUTION    RADIAL
 FREQUENCY          3052.15         C  4 -- H 16         +55.9% ( 73.8%)     98.2%
 TRANSITION DIPOLE   0.1022         C  4 -- H 15         +42.6% ( 64.4%)     96.6%
 TRAVEL (Ang.)       0.2123         C  2 -- C  4          +0.7% (  8.2%)     36.4%
 REDUCED MASS        0.4902         C  4 -- C  7          +0.7% (  8.1%)     31.4%
 EFFECTIVE MASS      1.2822
 FORCE CONSTANT      2.6904

 VIBRATION         58   58A           ATOM PAIR      ENERGY CONTRIBUTION    RADIAL
 FREQUENCY          3064.11         C  8 -- H 17         +66.8% ( 82.8%)     99.9%
 TRANSITION DIPOLE   0.3024         C  9 -- H 21         +28.1% ( 53.8%)     99.8%
 TRAVEL (Ang.)       0.2050         C  8 -- C  9          +1.9% ( 14.0%)     93.0%
 REDUCED MASS        0.5237         C  3 -- C  8          +1.0% ( 10.3%)     17.0%
 EFFECTIVE MASS      1.5800
 FORCE CONSTANT      2.8970

 VIBRATION         59   59A           ATOM PAIR      ENERGY CONTRIBUTION    RADIAL
 FREQUENCY          3113.49         C  5 -- H 18         +51.3% ( 72.7%)    100.0%
 TRANSITION DIPOLE   0.3615         C  7 -- H 20         +46.2% ( 69.0%)    100.0%
 TRAVEL (Ang.)       0.2156         C  5 -- C  7          +1.1% ( 10.7%)      0.1%
 REDUCED MASS        0.4661         C  1 -- C  5          +0.8% (  8.8%)     25.4%
 EFFECTIVE MASS      1.4607
 FORCE CONSTANT      2.6623

 VIBRATION         60   60A           ATOM PAIR      ENERGY CONTRIBUTION    RADIAL
 FREQUENCY          3132.72         C  7 -- H 20         +50.3% ( 72.2%)     99.9%
 TRANSITION DIPOLE   0.3475         C  5 -- H 18         +45.2% ( 68.5%)     99.9%
 TRAVEL (Ang.)       0.2145         C  5 -- C  7          +2.5% ( 16.1%)     99.9%
 REDUCED MASS        0.4676         C  4 -- C  7          +1.0% ( 10.1%)     20.7%
 EFFECTIVE MASS      1.6514
 FORCE CONSTANT      2.7040

      SYMMETRY NUMBER FOR POINT-GROUP C1  =  1


          SYSTEM IS A GROUND STATE



 InChI=1S/C10H12/c1-2-5-9-7-4-8-10(9)6-3-1/h1-5,8-10H,6-7H2


          MOLECULE IS NOT LINEAR

          THERE ARE 60 GENUINE VIBRATIONS IN THIS SYSTEM
          THIS THERMODYNAMICS CALCULATION IS LIMITED TO
          MOLECULES WHICH HAVE NO INTERNAL ROTATIONS




                    CALCULATED THERMODYNAMIC PROPERTIES
                                          *
   TEMP. (K)   PARTITION FUNCTION   H.O.F.    ENTHALPY  HEAT CAPACITY ENTROPY
                                   KCAL/MOL   CAL/MOLE    CAL/K/MOL  CAL/K/MOL


 298.00  VIB.     0.5622D+02                  3354.4061    27.6593    19.2632
         ROT.     0.4635D+06                   888.2803     2.9808    28.9071
         INT.     0.2606D+08                  4242.6864    30.6401    48.1704
         TRA.     0.1470D+28                  1480.4672     4.9680    40.5480
         TOT.                       42.306    5723.1535    35.6081    88.7183

 200.00  VIB.     0.1008D+02                  1276.2294    15.1479    10.9727
         ROT.     0.2549D+06                   596.1613     2.9808    27.7184
         INT.     0.2569D+07                  1872.3906    18.1287    38.6911
         TRA.     0.8080D+27                   993.6021     4.9680    38.5668
         TOT.                       39.449    2865.9928    23.0967    77.2579

 210.00  VIB.     0.1185D+02                  1433.3944    16.2920    11.7393
         ROT.     0.2742D+06                   625.9693     2.9808    27.8639
         INT.     0.3250D+07                  2059.3638    19.2728    39.6031
         TRA.     0.8694D+27                  1043.2822     4.9680    38.8092
         TOT.                       39.686    3102.6460    24.2408    78.4124

 220.00  VIB.     0.1398D+02                  1602.2034    17.4762    12.5243
         ROT.     0.2940D+06                   655.7774     2.9808    28.0025
         INT.     0.4111D+07                  2257.9808    20.4570    40.5269
         TRA.     0.9322D+27                  1092.9623     4.9680    39.0403
         TOT.                       39.934    3350.9431    25.4251    79.5672

 230.00  VIB.     0.1654D+02                  1783.0428    18.6975    13.3280
         ROT.     0.3143D+06                   685.5855     2.9808    28.1350
         INT.     0.5198D+07                  2468.6283    21.6783    41.4631
         TRA.     0.9965D+27                  1142.6424     4.9680    39.2612
         TOT.                       40.194    3611.2707    26.6463    80.7242

 240.00  VIB.     0.1963D+02                  1976.2650    19.9521    14.1502
         ROT.     0.3350D+06                   715.3935     2.9808    28.2619
         INT.     0.6575D+07                  2691.6585    22.9329    42.4121
         TRA.     0.1062D+28                  1192.3226     4.9680    39.4726
         TOT.                       40.467    3883.9811    27.9009    81.8847

 250.00  VIB.     0.2336D+02                  2182.1823    21.2358    14.9906
         ROT.     0.3562D+06                   745.2016     2.9808    28.3836
         INT.     0.8321D+07                  2927.3839    24.2166    43.3742
         TRA.     0.1129D+28                  1242.0027     4.9680    39.6754
         TOT.                       40.752    4169.3865    29.1846    83.0496

 260.00  VIB.     0.2789D+02                  2401.0633    22.5441    15.8489
         ROT.     0.3778D+06                   775.0097     2.9808    28.5005
         INT.     0.1054D+08                  3176.0729    25.5249    44.3494
         TRA.     0.1198D+28                  1291.6828     4.9680    39.8703
         TOT.                       41.051    4467.7557    30.4929    84.2196

 270.00  VIB.     0.3340D+02                  2633.1310    23.8724    16.7246
         ROT.     0.3998D+06                   804.8177     2.9808    28.6130
         INT.     0.1335D+08                  3437.9487    26.8532    45.3376
         TRA.     0.1267D+28                  1341.3629     4.9680    40.0578
         TOT.                       41.362    4779.3116    31.8212    85.3953

 280.00  VIB.     0.4012D+02                  2878.5622    25.2161    17.6170
         ROT.     0.4222D+06                   834.6258     2.9808    28.7214
         INT.     0.1694D+08                  3713.1880    28.1969    46.3384
         TRA.     0.1338D+28                  1391.0430     4.9680    40.2384
         TOT.                       41.687    5104.2310    33.1649    86.5768

 290.00  VIB.     0.4833D+02                  3137.4884    26.5706    18.5254
         ROT.     0.4450D+06                   864.4339     2.9808    28.8260
         INT.     0.2151D+08                  4001.9223    29.5515    47.3515
         TRA.     0.1411D+28                  1440.7231     4.9680    40.4128
         TOT.                       42.026    5442.6454    34.5195    87.7642

 300.00  VIB.     0.5840D+02                  3409.9972    27.9319    19.4492
         ROT.     0.4682D+06                   894.2419     2.9808    28.9271
         INT.     0.2734D+08                  4304.2391    30.9127    48.3762
         TRA.     0.1484D+28                  1490.4032     4.9680    40.5812
         TOT.                       42.378    5794.6423    35.8807    88.9574

 310.00  VIB.     0.7077D+02                  3696.1347    29.2957    20.3873
         ROT.     0.4918D+06                   924.0500     2.9808    29.0248
         INT.     0.3480D+08                  4620.1847    32.2766    49.4121
         TRA.     0.1559D+28                  1540.0833     4.9680    40.7441
         TOT.                       42.743    6160.2680    37.2446    90.1562

 320.00  VIB.     0.8600D+02                  3995.9085    30.6585    21.3389
         ROT.     0.5158D+06                   953.8580     2.9808    29.1194
         INT.     0.4436D+08                  4949.7666    33.6393    50.4583
         TRA.     0.1635D+28                  1589.7634     4.9680    40.9018
         TOT.                       43.122    6539.5300    38.6074    91.3602

 330.00  VIB.     0.1048D+03                  4309.2907    32.0169    22.3031
         ROT.     0.5402D+06                   983.6661     2.9808    29.2112
         INT.     0.5661D+08                  5292.9568    34.9977    51.5143
         TRA.     0.1713D+28                  1639.4435     4.9680    41.0547
         TOT.                       43.515    6932.4003    39.9657    92.5690

 340.00  VIB.     0.1281D+03                  4636.2211    33.3677    23.2790
         ROT.     0.5649D+06                  1013.4742     2.9808    29.3001
         INT.     0.7235D+08                  5649.6953    36.3485    52.5792
         TRA.     0.1791D+28                  1689.1236     4.9680    41.2030
         TOT.                       43.922    7338.8189    41.3165    93.7822

 350.00  VIB.     0.1569D+03                  4976.6112    34.7084    24.2656
         ROT.     0.5900D+06                  1043.2822     2.9808    29.3866
         INT.     0.9258D+08                  6019.8934    37.6892    53.6522
         TRA.     0.1871D+28                  1738.8037     4.9680    41.3470
         TOT.                       44.342    7758.6972    42.6572    94.9992

 360.00  VIB.     0.1928D+03                  5330.3468    36.0365    25.2620
         ROT.     0.6155D+06                  1073.0903     2.9808    29.4705
         INT.     0.1186D+09                  6403.4371    39.0173    54.7326
         TRA.     0.1951D+28                  1788.4838     4.9680    41.4870
         TOT.                       44.775    8191.9209    43.9853    96.2195

 370.00  VIB.     0.2374D+03                  5697.2916    37.3499    26.2674
         ROT.     0.6413D+06                  1102.8984     2.9808    29.5522
         INT.     0.1522D+09                  6800.1900    40.3307    55.8195
         TRA.     0.2033D+28                  1838.1639     4.9680    41.6231
         TOT.                       45.221    8638.3539    45.2987    97.4426

 380.00  VIB.     0.2930D+03                  6077.2905    38.6470    27.2807
         ROT.     0.6675D+06                  1132.7064     2.9808    29.6317
         INT.     0.1956D+09                  7209.9969    41.6278    56.9124
         TRA.     0.2116D+28                  1887.8440     4.9680    41.7556
         TOT.                       45.681    9097.8410    46.5958    98.6679

 390.00  VIB.     0.3626D+03                  6470.1721    39.9262    28.3011
         ROT.     0.6940D+06                  1162.5145     2.9808    29.7091
         INT.     0.2516D+09                  7632.6866    42.9070    58.0102
         TRA.     0.2200D+28                  1937.5242     4.9680    41.8846
         TOT.                       46.153    9570.2108    47.8751    99.8949

 400.00  VIB.     0.4496D+03                  6875.7517    41.1864    29.3279
         ROT.     0.7208D+06                  1192.3226     2.9808    29.7846
         INT.     0.3241D+09                  8068.0743    44.1672    59.1125
         TRA.     0.2285D+28                  1987.2043     4.9680    42.0104
         TOT.                       46.638   10055.2785    49.1352   101.1229

   *: NOTE: HEATS OF FORMATION ARE RELATIVE TO THE
            ELEMENTS IN THEIR STANDARD STATE AT 298K
              (=  Standard Enthalpy of Formation).

            Hvib:  Zero-point energy is not included.
                   frequencies of less than zero cm-1 are not included.
            Hrot = (3/2)RT
            Htra = (3/2)RT + pV = (5/2)RT

            Heat capacity is Cp, not Cv

          For more information, see: HTTP://OpenMOPAC.net/Manual/thermochemistry.html


           FORCE CONSTANT IN CARTESIAN COORDINATES (Millidynes/A)

    ATOM   CHEMICAL       X               Y               Z
   NUMBER   SYMBOL  FORCE CONSTANT  FORCE CONSTANT  FORCE CONSTANT

      1       C        7.538585        8.434473        8.854335
      2       C        7.724835        8.888133        8.004576
      3       C        8.563319        8.189082        8.595865
      4       C        9.611621        7.966150        7.464706
      5       C       14.572009        4.856788        7.985650
      6       C        7.059222       13.277919        6.569047
      7       C       12.010152        5.515749        9.959719
      8       C       13.952215        5.482738        7.655919
      9       C       14.068753        5.644294        7.958449
     10       C        8.103964       12.724025        6.727987
     11       H        1.069693        1.596049        3.240298
     12       H        1.007057        1.840914        3.064785
     13       H        1.006871        1.744059        3.502496
     14       H        4.867579        0.787640        0.700116
     15       H        1.560892        2.355928        2.471062
     16       H        2.285704        3.233271        0.874808
     17       H        3.154754        0.624809        2.457968
     18       H        4.961715        0.623841        0.822950
     19       H        3.325214        0.737739        2.057112
     20       H        0.709937        1.880819        3.824917
     21       H        0.873301        1.861900        3.458143
     22       H        2.146924        3.386396        0.600448

 **********************
 *                    *
 * JOB ENDED NORMALLY *
 *                    *
 **********************



 TOTAL JOB TIME:             2.83 SECONDS

 == MOPAC DONE ==
