 *******************************************************************************
 **                                                                           **
 **                              MOPAC v23.1.2                                **
 **                                                                           **
 *******************************************************************************
 **          Digital Object Identifier (DOI): 10.5281/zenodo.6511958          **
 **    Visit the DOI location for information on how to cite this program.    **
 *******************************************************************************

                              PM3 CALCULATION RESULTS

 *******************************************************************************
 *  CALCULATION DONE: (MAX THREADS = 1)              Tue Jun  3 16:40:49 2025  *
 *  PM3        - The PM3 Hamiltonian to be used
 *  PRECISE    - TIGHTER CRITERIA TO BE USED
 *  NOSYM      - POINT-GROUP SYMMETRY SET TO C1
 *  THREADS=1  - MULTI-THREADING NOT USED
 *  T=         - A TIME OF 172800.0 SECONDS REQUESTED
 *  DUMP=N     - RESTART FILE WRITTEN EVERY 7200.0 SECONDS REQUESTED
 *******************************************************************************
pm3  precise nosym THREADS=1
 InChI=1S/C12H20/c1-3-5-6-7-8-12-9-11(4-2)10-12/h5-6,9,12H,3-4,7-8,10H2,1-2H3

   ATOM   CHEMICAL          X               Y               Z
  NUMBER   SYMBOL      (ANGSTROMS)     (ANGSTROMS)     (ANGSTROMS)

     1       C         -1.23330000  *  -0.82380000  *  -1.15770000  *
     2       C          0.12550000  *  -0.18800000  *  -0.81280000  *
     3       C         -1.88210000  *  -1.51160000  *  -0.07240000  *
     4       C          1.23080000  *  -1.24940000  *  -0.74010000  *
     5       C         -4.22960000  *  -0.27640000  *   0.67910000  *
     6       C          4.20480000  *   0.50310000  *   1.03490000  *
     7       C          4.38160000  *   1.83150000  *   0.30470000  *
     8       C         -4.17060000  *   1.03720000  *   1.44890000  *
     9       C         -2.97120000  *  -0.48840000  *  -0.10100000  *
    10       C         -2.33930000  *   0.18280000  *  -1.14890000  *
    11       C          2.86060000  *  -0.10480000  *   0.74510000  *
    12       C          2.56760000  *  -0.62150000  *  -0.45810000  *
    13       H         -1.22050000  *  -1.40360000  *  -2.10830000  *
    14       H          0.38360000  *   0.54580000  *  -1.60800000  *
    15       H          0.06240000  *   0.36450000  *   0.15190000  *
    16       H          5.01120000  *  -0.20190000  *   0.73780000  *
    17       H          4.29070000  *   0.68280000  *   2.12810000  *
    18       H          1.28870000  *  -1.78280000  *  -1.71360000  *
    19       H          0.99990000  *  -1.99820000  *   0.04850000  *
    20       H         -5.09350000  *  -0.26300000  *  -0.01850000  *
    21       H         -4.36160000  *  -1.11640000  *   1.39360000  *
    22       H         -1.33680000  *  -1.49620000  *   0.89770000  *
    23       H         -2.25920000  *  -2.51870000  *  -0.35610000  *
    24       H          5.36380000  *   2.27430000  *   0.57310000  *
    25       H          3.57890000  *   2.54160000  *   0.59820000  *
    26       H          4.35200000  *   1.67900000  *  -0.79500000  *
    27       H         -5.10680000  *   1.16890000  *   2.03100000  *
    28       H         -3.31070000  *   1.03250000  *   2.15270000  *
    29       H         -4.06540000  *   1.89180000  *   0.74660000  *
    30       H          2.12630000  *  -0.14650000  *   1.54520000  *
    31       H          3.31590000  *  -0.61670000  *  -1.24600000  *
    32       H         -2.56370000  *   1.07210000  *  -1.72790000  *



          CARTESIAN COORDINATES 

    NO.       ATOM           X           Y           Z

     1         C         -1.2333     -0.8238     -1.1577
     2         C          0.1255     -0.1880     -0.8128
     3         C         -1.8821     -1.5116     -0.0724
     4         C          1.2308     -1.2494     -0.7401
     5         C         -4.2296     -0.2764      0.6791
     6         C          4.2048      0.5031      1.0349
     7         C          4.3816      1.8315      0.3047
     8         C         -4.1706      1.0372      1.4489
     9         C         -2.9712     -0.4884     -0.1010
    10         C         -2.3393      0.1828     -1.1489
    11         C          2.8606     -0.1048      0.7451
    12         C          2.5676     -0.6215     -0.4581
    13         H         -1.2205     -1.4036     -2.1083
    14         H          0.3836      0.5458     -1.6080
    15         H          0.0624      0.3645      0.1519
    16         H          5.0112     -0.2019      0.7378
    17         H          4.2907      0.6828      2.1281
    18         H          1.2887     -1.7828     -1.7136
    19         H          0.9999     -1.9982      0.0485
    20         H         -5.0935     -0.2630     -0.0185
    21         H         -4.3616     -1.1164      1.3936
    22         H         -1.3368     -1.4962      0.8977
    23         H         -2.2592     -2.5187     -0.3561
    24         H          5.3638      2.2743      0.5731
    25         H          3.5789      2.5416      0.5982
    26         H          4.3520      1.6790     -0.7950
    27         H         -5.1068      1.1689      2.0310
    28         H         -3.3107      1.0325      2.1527
    29         H         -4.0654      1.8918      0.7466
    30         H          2.1263     -0.1465      1.5452
    31         H          3.3159     -0.6167     -1.2460
    32         H         -2.5637      1.0721     -1.7279

  H: (PM3): J. J. P. STEWART, J. COMP. CHEM. 10, 209 (1989).
  C: (PM3): J. J. P. STEWART, J. COMP. CHEM. 10, 209 (1989).

           Empirical Formula: C12 H20  =    32 atoms



      MOLECULAR POINT GROUP   :   C1  


      RHF CALCULATION, NO. OF DOUBLY OCCUPIED LEVELS = 34


          Geometry optimization using EF

          DIAGONAL MATRIX USED AS START HESSIAN

 CYCLE:     1 TIME:   0.012 TIME LEFT:  2.00D  GRAD.:   215.566 HEAT:  30.45166
 CYCLE:     2 TIME:   0.020 TIME LEFT:  2.00D  GRAD.:    68.062 HEAT:  20.90700
 CYCLE:     3 TIME:   0.016 TIME LEFT:  2.00D  GRAD.:    59.935 HEAT:  19.50112
 CYCLE:     4 TIME:   0.020 TIME LEFT:  2.00D  GRAD.:    39.330 HEAT:  18.70177
 CYCLE:     5 TIME:   0.012 TIME LEFT:  2.00D  GRAD.:    55.230 HEAT:  18.40858
 CYCLE:     6 TIME:   0.012 TIME LEFT:  2.00D  GRAD.:    64.514 HEAT:  18.04003
 CYCLE:     7 TIME:   0.020 TIME LEFT:  2.00D  GRAD.:    22.968 HEAT:  17.42598
 CYCLE:     8 TIME:   0.012 TIME LEFT:  2.00D  GRAD.:    33.146 HEAT:  17.42486
 CYCLE:     9 TIME:   0.008 TIME LEFT:  2.00D  GRAD.:    21.823 HEAT:  17.15833
 CYCLE:    10 TIME:   0.027 TIME LEFT:  2.00D  GRAD.:     9.371 HEAT:  17.03303
 CYCLE:    11 TIME:   0.012 TIME LEFT:  2.00D  GRAD.:     7.948 HEAT:  16.99175
 CYCLE:    12 TIME:   0.016 TIME LEFT:  2.00D  GRAD.:     9.716 HEAT:  16.97505
 CYCLE:    13 TIME:   0.012 TIME LEFT:  2.00D  GRAD.:     8.802 HEAT:  16.95532
 CYCLE:    14 TIME:   0.012 TIME LEFT:  2.00D  GRAD.:    10.831 HEAT:  16.95415
 CYCLE:    15 TIME:   0.012 TIME LEFT:  2.00D  GRAD.:    11.238 HEAT:  16.94456
 CYCLE:    16 TIME:   0.008 TIME LEFT:  2.00D  GRAD.:    10.597 HEAT:  16.93951
 CYCLE:    17 TIME:   0.012 TIME LEFT:  2.00D  GRAD.:    11.361 HEAT:  16.93604
 CYCLE:    18 TIME:   0.012 TIME LEFT:  2.00D  GRAD.:     9.460 HEAT:  16.92230
 CYCLE:    19 TIME:   0.016 TIME LEFT:  2.00D  GRAD.:     4.074 HEAT:  16.89714
 CYCLE:    20 TIME:   0.020 TIME LEFT:  2.00D  GRAD.:     3.594 HEAT:  16.89335
 CYCLE:    21 TIME:   0.012 TIME LEFT:  2.00D  GRAD.:     4.056 HEAT:  16.89160
 CYCLE:    22 TIME:   0.008 TIME LEFT:  2.00D  GRAD.:     5.692 HEAT:  16.88976
 CYCLE:    23 TIME:   0.012 TIME LEFT:  2.00D  GRAD.:     5.464 HEAT:  16.88684
 CYCLE:    24 TIME:   0.012 TIME LEFT:  2.00D  GRAD.:     5.326 HEAT:  16.88373
 CYCLE:    25 TIME:   0.008 TIME LEFT:  2.00D  GRAD.:     3.817 HEAT:  16.87899
 CYCLE:    26 TIME:   0.016 TIME LEFT:  2.00D  GRAD.:     3.733 HEAT:  16.87786
 CYCLE:    27 TIME:   0.012 TIME LEFT:  2.00D  GRAD.:     2.985 HEAT:  16.87537
 CYCLE:    28 TIME:   0.012 TIME LEFT:  2.00D  GRAD.:     2.616 HEAT:  16.87306
 CYCLE:    29 TIME:   0.012 TIME LEFT:  2.00D  GRAD.:     2.907 HEAT:  16.87246
 CYCLE:    30 TIME:   0.008 TIME LEFT:  2.00D  GRAD.:     1.354 HEAT:  16.86945
 CYCLE:    31 TIME:   0.012 TIME LEFT:  2.00D  GRAD.:     1.549 HEAT:  16.86795
 CYCLE:    32 TIME:   0.012 TIME LEFT:  2.00D  GRAD.:     2.240 HEAT:  16.86503
 CYCLE:    33 TIME:   0.012 TIME LEFT:  2.00D  GRAD.:     2.095 HEAT:  16.86007
 CYCLE:    34 TIME:   0.012 TIME LEFT:  2.00D  GRAD.:     2.586 HEAT:  16.85709
 CYCLE:    35 TIME:   0.012 TIME LEFT:  2.00D  GRAD.:     3.008 HEAT:  16.85417
 CYCLE:    36 TIME:   0.008 TIME LEFT:  2.00D  GRAD.:     2.146 HEAT:  16.84875
 CYCLE:    37 TIME:   0.012 TIME LEFT:  2.00D  GRAD.:     2.971 HEAT:  16.84321
 CYCLE:    38 TIME:   0.012 TIME LEFT:  2.00D  GRAD.:     3.134 HEAT:  16.83667
 CYCLE:    39 TIME:   0.008 TIME LEFT:  2.00D  GRAD.:     3.449 HEAT:  16.82950
 CYCLE:    40 TIME:   0.012 TIME LEFT:  2.00D  GRAD.:     2.723 HEAT:  16.82086
 CYCLE:    41 TIME:   0.012 TIME LEFT:  2.00D  GRAD.:     3.161 HEAT:  16.81121
 CYCLE:    42 TIME:   0.012 TIME LEFT:  2.00D  GRAD.:     3.755 HEAT:  16.80470
 CYCLE:    43 TIME:   0.012 TIME LEFT:  2.00D  GRAD.:     2.695 HEAT:  16.79632
 CYCLE:    44 TIME:   0.008 TIME LEFT:  2.00D  GRAD.:     1.948 HEAT:  16.78987
 CYCLE:    45 TIME:   0.012 TIME LEFT:  2.00D  GRAD.:     1.599 HEAT:  16.78569
 CYCLE:    46 TIME:   0.012 TIME LEFT:  2.00D  GRAD.:     1.448 HEAT:  16.78272
 CYCLE:    47 TIME:   0.012 TIME LEFT:  2.00D  GRAD.:     1.532 HEAT:  16.77889
 CYCLE:    48 TIME:   0.012 TIME LEFT:  2.00D  GRAD.:     1.671 HEAT:  16.77401
 CYCLE:    49 TIME:   0.012 TIME LEFT:  2.00D  GRAD.:     1.752 HEAT:  16.77067
 CYCLE:    50 TIME:   0.012 TIME LEFT:  2.00D  GRAD.:     1.406 HEAT:  16.76752
 CYCLE:    51 TIME:   0.008 TIME LEFT:  2.00D  GRAD.:     1.577 HEAT:  16.76349
 CYCLE:    52 TIME:   0.012 TIME LEFT:  2.00D  GRAD.:     1.623 HEAT:  16.75859
 CYCLE:    53 TIME:   0.012 TIME LEFT:  2.00D  GRAD.:     1.390 HEAT:  16.75442
 CYCLE:    54 TIME:   0.012 TIME LEFT:  2.00D  GRAD.:     1.436 HEAT:  16.75036
 CYCLE:    55 TIME:   0.012 TIME LEFT:  2.00D  GRAD.:     1.612 HEAT:  16.74574
 CYCLE:    56 TIME:   0.012 TIME LEFT:  2.00D  GRAD.:     1.796 HEAT:  16.74018
 CYCLE:    57 TIME:   0.012 TIME LEFT:  2.00D  GRAD.:     1.740 HEAT:  16.73317
 CYCLE:    58 TIME:   0.012 TIME LEFT:  2.00D  GRAD.:     1.946 HEAT:  16.72569
 CYCLE:    59 TIME:   0.008 TIME LEFT:  2.00D  GRAD.:     2.003 HEAT:  16.71795
 CYCLE:    60 TIME:   0.012 TIME LEFT:  2.00D  GRAD.:     1.886 HEAT:  16.70983
 CYCLE:    61 TIME:   0.012 TIME LEFT:  2.00D  GRAD.:     2.056 HEAT:  16.70244
 CYCLE:    62 TIME:   0.012 TIME LEFT:  2.00D  GRAD.:     4.421 HEAT:  16.70370
 CYCLE:    63 TIME:   0.012 TIME LEFT:  2.00D  GRAD.:     3.760 HEAT:  16.69152
 CYCLE:    64 TIME:   0.008 TIME LEFT:  2.00D  GRAD.:     2.497 HEAT:  16.68343
 CYCLE:    65 TIME:   0.012 TIME LEFT:  2.00D  GRAD.:     1.446 HEAT:  16.67618
 CYCLE:    66 TIME:   0.012 TIME LEFT:  2.00D  GRAD.:     2.748 HEAT:  16.66502
 CYCLE:    67 TIME:   0.012 TIME LEFT:  2.00D  GRAD.:     2.542 HEAT:  16.65643
 CYCLE:    68 TIME:   0.012 TIME LEFT:  2.00D  GRAD.:     3.229 HEAT:  16.63255
 CYCLE:    69 TIME:   0.012 TIME LEFT:  2.00D  GRAD.:     3.061 HEAT:  16.61416
 CYCLE:    70 TIME:   0.012 TIME LEFT:  2.00D  GRAD.:     2.983 HEAT:  16.57799
 CYCLE:    71 TIME:   0.012 TIME LEFT:  2.00D  GRAD.:     3.045 HEAT:  16.51987
 CYCLE:    72 TIME:   0.020 TIME LEFT:  2.00D  GRAD.:     5.609 HEAT:  16.49036
 CYCLE:    73 TIME:   0.020 TIME LEFT:  2.00D  GRAD.:     5.685 HEAT:  16.47761
 CYCLE:    74 TIME:   0.012 TIME LEFT:  2.00D  GRAD.:     5.384 HEAT:  16.42790
 CYCLE:    75 TIME:   0.008 TIME LEFT:  2.00D  GRAD.:     3.590 HEAT:  16.39720
 CYCLE:    76 TIME:   0.012 TIME LEFT:  2.00D  GRAD.:     5.345 HEAT:  16.35987
 CYCLE:    77 TIME:   0.012 TIME LEFT:  2.00D  GRAD.:     4.354 HEAT:  16.31135
 CYCLE:    78 TIME:   0.012 TIME LEFT:  2.00D  GRAD.:     3.448 HEAT:  16.27431
 CYCLE:    79 TIME:   0.012 TIME LEFT:  2.00D  GRAD.:     4.214 HEAT:  16.24634
 CYCLE:    80 TIME:   0.008 TIME LEFT:  2.00D  GRAD.:     5.162 HEAT:  16.23508
 CYCLE:    81 TIME:   0.012 TIME LEFT:  2.00D  GRAD.:     5.296 HEAT:  16.20363
 CYCLE:    82 TIME:   0.012 TIME LEFT:  2.00D  GRAD.:     3.223 HEAT:  16.17783
 CYCLE:    83 TIME:   0.012 TIME LEFT:  2.00D  GRAD.:     2.785 HEAT:  16.15121
 CYCLE:    84 TIME:   0.012 TIME LEFT:  2.00D  GRAD.:     3.619 HEAT:  16.13661
 CYCLE:    85 TIME:   0.008 TIME LEFT:  2.00D  GRAD.:     2.814 HEAT:  16.12241
 CYCLE:    86 TIME:   0.016 TIME LEFT:  2.00D  GRAD.:     3.271 HEAT:  16.10154
 CYCLE:    87 TIME:   0.008 TIME LEFT:  2.00D  GRAD.:     2.868 HEAT:  16.07889
 CYCLE:    88 TIME:   0.012 TIME LEFT:  2.00D  GRAD.:     5.027 HEAT:  16.07085
 CYCLE:    89 TIME:   0.012 TIME LEFT:  2.00D  GRAD.:     3.157 HEAT:  16.05061
 CYCLE:    90 TIME:   0.012 TIME LEFT:  2.00D  GRAD.:     2.646 HEAT:  16.03564
 CYCLE:    91 TIME:   0.012 TIME LEFT:  2.00D  GRAD.:     2.940 HEAT:  16.01205
 CYCLE:    92 TIME:   0.012 TIME LEFT:  2.00D  GRAD.:     3.500 HEAT:  15.99465
 CYCLE:    93 TIME:   0.012 TIME LEFT:  2.00D  GRAD.:     3.804 HEAT:  15.97551
 CYCLE:    94 TIME:   0.012 TIME LEFT:  2.00D  GRAD.:     3.082 HEAT:  15.95301
 CYCLE:    95 TIME:   0.012 TIME LEFT:  2.00D  GRAD.:     3.948 HEAT:  15.93486
 CYCLE:    96 TIME:   0.012 TIME LEFT:  2.00D  GRAD.:     3.259 HEAT:  15.91611
 CYCLE:    97 TIME:   0.012 TIME LEFT:  2.00D  GRAD.:     3.743 HEAT:  15.89529
 CYCLE:    98 TIME:   0.008 TIME LEFT:  2.00D  GRAD.:     3.819 HEAT:  15.86922
 CYCLE:    99 TIME:   0.012 TIME LEFT:  2.00D  GRAD.:     2.841 HEAT:  15.84999
 CYCLE:   100 TIME:   0.012 TIME LEFT:  2.00D  GRAD.:     3.284 HEAT:  15.83593
 CYCLE:   101 TIME:   0.012 TIME LEFT:  2.00D  GRAD.:     5.428 HEAT:  15.83258
 CYCLE:   102 TIME:   0.012 TIME LEFT:  2.00D  GRAD.:     2.512 HEAT:  15.81177
 CYCLE:   103 TIME:   0.012 TIME LEFT:  2.00D  GRAD.:     1.995 HEAT:  15.80319
 CYCLE:   104 TIME:   0.012 TIME LEFT:  2.00D  GRAD.:     2.232 HEAT:  15.79088
 CYCLE:   105 TIME:   0.012 TIME LEFT:  2.00D  GRAD.:     2.072 HEAT:  15.78176
 CYCLE:   106 TIME:   0.012 TIME LEFT:  2.00D  GRAD.:     2.460 HEAT:  15.77139
 CYCLE:   107 TIME:   0.008 TIME LEFT:  2.00D  GRAD.:     2.747 HEAT:  15.76117
 CYCLE:   108 TIME:   0.012 TIME LEFT:  2.00D  GRAD.:     3.154 HEAT:  15.74968
 CYCLE:   109 TIME:   0.012 TIME LEFT:  2.00D  GRAD.:     3.399 HEAT:  15.73076
 CYCLE:   110 TIME:   0.012 TIME LEFT:  2.00D  GRAD.:     6.033 HEAT:  15.67998
 CYCLE:   111 TIME:   0.012 TIME LEFT:  2.00D  GRAD.:     5.327 HEAT:  15.66357
 CYCLE:   112 TIME:   0.012 TIME LEFT:  2.00D  GRAD.:     4.100 HEAT:  15.61266
 CYCLE:   113 TIME:   0.008 TIME LEFT:  2.00D  GRAD.:     8.132 HEAT:  15.59413
 CYCLE:   114 TIME:   0.012 TIME LEFT:  2.00D  GRAD.:     4.567 HEAT:  15.56434
 CYCLE:   115 TIME:   0.012 TIME LEFT:  2.00D  GRAD.:     4.134 HEAT:  15.54441
 CYCLE:   116 TIME:   0.012 TIME LEFT:  2.00D  GRAD.:     4.446 HEAT:  15.51778
 CYCLE:   117 TIME:   0.012 TIME LEFT:  2.00D  GRAD.:     7.235 HEAT:  15.48953
 CYCLE:   118 TIME:   0.008 TIME LEFT:  2.00D  GRAD.:     3.849 HEAT:  15.45005
 CYCLE:   119 TIME:   0.012 TIME LEFT:  2.00D  GRAD.:     3.258 HEAT:  15.41459
 CYCLE:   120 TIME:   0.012 TIME LEFT:  2.00D  GRAD.:     4.414 HEAT:  15.37513
 CYCLE:   121 TIME:   0.012 TIME LEFT:  2.00D  GRAD.:     3.761 HEAT:  15.35049
 CYCLE:   122 TIME:   0.012 TIME LEFT:  2.00D  GRAD.:     3.734 HEAT:  15.32246
 CYCLE:   123 TIME:   0.012 TIME LEFT:  2.00D  GRAD.:     5.859 HEAT:  15.30746
 CYCLE:   124 TIME:   0.008 TIME LEFT:  2.00D  GRAD.:     6.564 HEAT:  15.28648
 CYCLE:   125 TIME:   0.012 TIME LEFT:  2.00D  GRAD.:     3.092 HEAT:  15.26102
 CYCLE:   126 TIME:   0.012 TIME LEFT:  2.00D  GRAD.:     3.537 HEAT:  15.24041
 CYCLE:   127 TIME:   0.012 TIME LEFT:  2.00D  GRAD.:     3.869 HEAT:  15.22589
 CYCLE:   128 TIME:   0.012 TIME LEFT:  2.00D  GRAD.:     2.524 HEAT:  15.21382
 CYCLE:   129 TIME:   0.012 TIME LEFT:  2.00D  GRAD.:     2.674 HEAT:  15.20532
 CYCLE:   130 TIME:   0.012 TIME LEFT:  2.00D  GRAD.:     2.347 HEAT:  15.19808
 CYCLE:   131 TIME:   0.012 TIME LEFT:  2.00D  GRAD.:     2.368 HEAT:  15.18995
 CYCLE:   132 TIME:   0.012 TIME LEFT:  2.00D  GRAD.:     2.439 HEAT:  15.17927
 CYCLE:   133 TIME:   0.008 TIME LEFT:  2.00D  GRAD.:     2.739 HEAT:  15.17354
 CYCLE:   134 TIME:   0.012 TIME LEFT:  2.00D  GRAD.:     2.994 HEAT:  15.16627
 CYCLE:   135 TIME:   0.012 TIME LEFT:  2.00D  GRAD.:     2.142 HEAT:  15.15625
 CYCLE:   136 TIME:   0.012 TIME LEFT:  2.00D  GRAD.:     2.963 HEAT:  15.14100
 CYCLE:   137 TIME:   0.012 TIME LEFT:  2.00D  GRAD.:     3.487 HEAT:  15.12804
 CYCLE:   138 TIME:   0.012 TIME LEFT:  2.00D  GRAD.:     2.996 HEAT:  15.11177
 CYCLE:   139 TIME:   0.008 TIME LEFT:  2.00D  GRAD.:     3.526 HEAT:  15.09608
 CYCLE:   140 TIME:   0.012 TIME LEFT:  2.00D  GRAD.:     3.144 HEAT:  15.08468
 CYCLE:   141 TIME:   0.012 TIME LEFT:  2.00D  GRAD.:     2.725 HEAT:  15.07395
 CYCLE:   142 TIME:   0.012 TIME LEFT:  2.00D  GRAD.:     4.176 HEAT:  15.06600
 CYCLE:   143 TIME:   0.012 TIME LEFT:  2.00D  GRAD.:     3.016 HEAT:  15.05437
 CYCLE:   144 TIME:   0.012 TIME LEFT:  2.00D  GRAD.:     2.012 HEAT:  15.04741
 CYCLE:   145 TIME:   0.012 TIME LEFT:  2.00D  GRAD.:     1.459 HEAT:  15.04229
 CYCLE:   146 TIME:   0.012 TIME LEFT:  2.00D  GRAD.:     1.596 HEAT:  15.03848
 CYCLE:   147 TIME:   0.012 TIME LEFT:  2.00D  GRAD.:     1.501 HEAT:  15.03515
 CYCLE:   148 TIME:   0.012 TIME LEFT:  2.00D  GRAD.:     1.799 HEAT:  15.03041
 CYCLE:   149 TIME:   0.012 TIME LEFT:  2.00D  GRAD.:     1.971 HEAT:  15.02510
 CYCLE:   150 TIME:   0.012 TIME LEFT:  2.00D  GRAD.:     2.051 HEAT:  15.01843
 CYCLE:   151 TIME:   0.012 TIME LEFT:  2.00D  GRAD.:     2.235 HEAT:  15.01039
 CYCLE:   152 TIME:   0.012 TIME LEFT:  2.00D  GRAD.:     1.848 HEAT:  15.00299
 CYCLE:   153 TIME:   0.008 TIME LEFT:  2.00D  GRAD.:     1.542 HEAT:  14.99739
 CYCLE:   154 TIME:   0.012 TIME LEFT:  2.00D  GRAD.:     1.344 HEAT:  14.99381
 CYCLE:   155 TIME:   0.012 TIME LEFT:  2.00D  GRAD.:     1.472 HEAT:  14.99150
 CYCLE:   156 TIME:   0.012 TIME LEFT:  2.00D  GRAD.:     1.125 HEAT:  14.98951
 CYCLE:   157 TIME:   0.008 TIME LEFT:  2.00D  GRAD.:     0.894 HEAT:  14.98773
 CYCLE:   158 TIME:   0.012 TIME LEFT:  2.00D  GRAD.:     0.829 HEAT:  14.98672
 CYCLE:   159 TIME:   0.012 TIME LEFT:  2.00D  GRAD.:     0.779 HEAT:  14.98572
 CYCLE:   160 TIME:   0.012 TIME LEFT:  2.00D  GRAD.:     0.862 HEAT:  14.98419
 CYCLE:   161 TIME:   0.012 TIME LEFT:  2.00D  GRAD.:     0.953 HEAT:  14.98279
 CYCLE:   162 TIME:   0.012 TIME LEFT:  2.00D  GRAD.:     0.995 HEAT:  14.98115
 CYCLE:   163 TIME:   0.008 TIME LEFT:  2.00D  GRAD.:     1.068 HEAT:  14.97944
 CYCLE:   164 TIME:   0.012 TIME LEFT:  2.00D  GRAD.:     1.063 HEAT:  14.97755
 CYCLE:   165 TIME:   0.012 TIME LEFT:  2.00D  GRAD.:     1.035 HEAT:  14.97560
 CYCLE:   166 TIME:   0.012 TIME LEFT:  2.00D  GRAD.:     0.923 HEAT:  14.97399
 CYCLE:   167 TIME:   0.012 TIME LEFT:  2.00D  GRAD.:     0.869 HEAT:  14.97272
 CYCLE:   168 TIME:   0.012 TIME LEFT:  2.00D  GRAD.:     0.840 HEAT:  14.97164
 CYCLE:   169 TIME:   0.012 TIME LEFT:  2.00D  GRAD.:     0.917 HEAT:  14.97032
 CYCLE:   170 TIME:   0.008 TIME LEFT:  2.00D  GRAD.:     1.041 HEAT:  14.96864
 CYCLE:   171 TIME:   0.012 TIME LEFT:  2.00D  GRAD.:     1.113 HEAT:  14.96686
 CYCLE:   172 TIME:   0.012 TIME LEFT:  2.00D  GRAD.:     1.065 HEAT:  14.96508
 CYCLE:   173 TIME:   0.012 TIME LEFT:  2.00D  GRAD.:     0.979 HEAT:  14.96387
 CYCLE:   174 TIME:   0.008 TIME LEFT:  2.00D  GRAD.:     0.761 HEAT:  14.96280
 CYCLE:   175 TIME:   0.012 TIME LEFT:  2.00D  GRAD.:     0.567 HEAT:  14.96212
 CYCLE:   176 TIME:   0.012 TIME LEFT:  2.00D  GRAD.:     0.540 HEAT:  14.96160
 CYCLE:   177 TIME:   0.012 TIME LEFT:  2.00D  GRAD.:     0.506 HEAT:  14.96119
 CYCLE:   178 TIME:   0.012 TIME LEFT:  2.00D  GRAD.:     0.544 HEAT:  14.96070
 CYCLE:   179 TIME:   0.012 TIME LEFT:  2.00D  GRAD.:     0.586 HEAT:  14.96017
 CYCLE:   180 TIME:   0.008 TIME LEFT:  2.00D  GRAD.:     0.632 HEAT:  14.95957
 CYCLE:   181 TIME:   0.012 TIME LEFT:  2.00D  GRAD.:     0.705 HEAT:  14.95885
 CYCLE:   182 TIME:   0.012 TIME LEFT:  2.00D  GRAD.:     0.833 HEAT:  14.95791
 CYCLE:   183 TIME:   0.012 TIME LEFT:  2.00D  GRAD.:     1.123 HEAT:  14.95647
 CYCLE:   184 TIME:   0.012 TIME LEFT:  2.00D  GRAD.:     1.566 HEAT:  14.95401
 CYCLE:   185 TIME:   0.012 TIME LEFT:  2.00D  GRAD.:     2.317 HEAT:  14.94934
 CYCLE:   186 TIME:   0.012 TIME LEFT:  2.00D  GRAD.:     2.284 HEAT:  14.94130
 CYCLE:   187 TIME:   0.008 TIME LEFT:  2.00D  GRAD.:     1.874 HEAT:  14.93439
 CYCLE:   188 TIME:   0.012 TIME LEFT:  2.00D  GRAD.:     1.575 HEAT:  14.92992
 CYCLE:   189 TIME:   0.012 TIME LEFT:  2.00D  GRAD.:     1.401 HEAT:  14.92547
 CYCLE:   190 TIME:   0.016 TIME LEFT:  2.00D  GRAD.:     1.672 HEAT:  14.92193
 CYCLE:   191 TIME:   0.008 TIME LEFT:  2.00D  GRAD.:     1.510 HEAT:  14.91989
 CYCLE:   192 TIME:   0.012 TIME LEFT:  2.00D  GRAD.:     1.094 HEAT:  14.91780
 CYCLE:   193 TIME:   0.016 TIME LEFT:  2.00D  GRAD.:     1.696 HEAT:  14.91575
 CYCLE:   194 TIME:   0.008 TIME LEFT:  2.00D  GRAD.:     0.983 HEAT:  14.91383
 CYCLE:   195 TIME:   0.012 TIME LEFT:  2.00D  GRAD.:     0.716 HEAT:  14.91208
 CYCLE:   196 TIME:   0.016 TIME LEFT:  2.00D  GRAD.:     0.656 HEAT:  14.91012
 CYCLE:   197 TIME:   0.012 TIME LEFT:  2.00D  GRAD.:     0.793 HEAT:  14.90904
 CYCLE:   198 TIME:   0.012 TIME LEFT:  2.00D  GRAD.:     0.778 HEAT:  14.90814
 CYCLE:   199 TIME:   0.012 TIME LEFT:  2.00D  GRAD.:     0.610 HEAT:  14.90718
 CYCLE:   200 TIME:   0.012 TIME LEFT:  2.00D  GRAD.:     0.612 HEAT:  14.90625
 CYCLE:   201 TIME:   0.012 TIME LEFT:  2.00D  GRAD.:     0.690 HEAT:  14.90561
 CYCLE:   202 TIME:   0.012 TIME LEFT:  2.00D  GRAD.:     0.698 HEAT:  14.90460
 CYCLE:   203 TIME:   0.012 TIME LEFT:  2.00D  GRAD.:     0.728 HEAT:  14.90374
 CYCLE:   204 TIME:   0.012 TIME LEFT:  2.00D  GRAD.:     0.752 HEAT:  14.90270
 CYCLE:   205 TIME:   0.012 TIME LEFT:  2.00D  GRAD.:     0.862 HEAT:  14.90151
 CYCLE:   206 TIME:   0.012 TIME LEFT:  2.00D  GRAD.:     1.069 HEAT:  14.89951
 CYCLE:   207 TIME:   0.012 TIME LEFT:  2.00D  GRAD.:     1.417 HEAT:  14.89635
 CYCLE:   208 TIME:   0.012 TIME LEFT:  2.00D  GRAD.:     1.800 HEAT:  14.89174
 CYCLE:   209 TIME:   0.012 TIME LEFT:  2.00D  GRAD.:     2.189 HEAT:  14.88552
 CYCLE:   210 TIME:   0.012 TIME LEFT:  2.00D  GRAD.:     2.251 HEAT:  14.87910
 CYCLE:   211 TIME:   0.012 TIME LEFT:  2.00D  GRAD.:     2.399 HEAT:  14.87285
 CYCLE:   212 TIME:   0.012 TIME LEFT:  2.00D  GRAD.:     1.782 HEAT:  14.86842
 CYCLE:   213 TIME:   0.012 TIME LEFT:  2.00D  GRAD.:     1.109 HEAT:  14.86463
 CYCLE:   214 TIME:   0.012 TIME LEFT:  2.00D  GRAD.:     0.991 HEAT:  14.86272
 CYCLE:   215 TIME:   0.012 TIME LEFT:  2.00D  GRAD.:     0.888 HEAT:  14.86063
 CYCLE:   216 TIME:   0.012 TIME LEFT:  2.00D  GRAD.:     1.071 HEAT:  14.85966
 CYCLE:   217 TIME:   0.008 TIME LEFT:  2.00D  GRAD.:     0.670 HEAT:  14.85906
 CYCLE:   218 TIME:   0.016 TIME LEFT:  2.00D  GRAD.:     0.742 HEAT:  14.85845
 CYCLE:   219 TIME:   0.012 TIME LEFT:  2.00D  GRAD.:     0.822 HEAT:  14.85743
 CYCLE:   220 TIME:   0.012 TIME LEFT:  2.00D  GRAD.:     0.850 HEAT:  14.85650
 CYCLE:   221 TIME:   0.008 TIME LEFT:  2.00D  GRAD.:     0.680 HEAT:  14.85578
 CYCLE:   222 TIME:   0.016 TIME LEFT:  2.00D  GRAD.:     0.651 HEAT:  14.85498
 CYCLE:   223 TIME:   0.008 TIME LEFT:  2.00D  GRAD.:     0.732 HEAT:  14.85433
 CYCLE:   224 TIME:   0.012 TIME LEFT:  2.00D  GRAD.:     0.934 HEAT:  14.85320
 CYCLE:   225 TIME:   0.012 TIME LEFT:  2.00D  GRAD.:     0.964 HEAT:  14.85230
 CYCLE:   226 TIME:   0.012 TIME LEFT:  2.00D  GRAD.:     0.902 HEAT:  14.85118
 CYCLE:   227 TIME:   0.012 TIME LEFT:  2.00D  GRAD.:     0.762 HEAT:  14.85044
 CYCLE:   228 TIME:   0.012 TIME LEFT:  2.00D  GRAD.:     0.702 HEAT:  14.84918
 CYCLE:   229 TIME:   0.012 TIME LEFT:  2.00D  GRAD.:     0.760 HEAT:  14.84792
 CYCLE:   230 TIME:   0.016 TIME LEFT:  2.00D  GRAD.:     0.985 HEAT:  14.84616
 CYCLE:   231 TIME:   0.012 TIME LEFT:  2.00D  GRAD.:     1.190 HEAT:  14.84373
 CYCLE:   232 TIME:   0.012 TIME LEFT:  2.00D  GRAD.:     1.535 HEAT:  14.84039
 CYCLE:   233 TIME:   0.012 TIME LEFT:  2.00D  GRAD.:     1.891 HEAT:  14.83514
 CYCLE:   234 TIME:   0.012 TIME LEFT:  2.00D  GRAD.:     1.581 HEAT:  14.83205
 CYCLE:   235 TIME:   0.012 TIME LEFT:  2.00D  GRAD.:     1.103 HEAT:  14.82858
 CYCLE:   236 TIME:   0.012 TIME LEFT:  2.00D  GRAD.:     0.769 HEAT:  14.82736
 CYCLE:   237 TIME:   0.008 TIME LEFT:  2.00D  GRAD.:     0.525 HEAT:  14.82666
 CYCLE:   238 TIME:   0.016 TIME LEFT:  2.00D  GRAD.:     0.612 HEAT:  14.82615
 CYCLE:   239 TIME:   0.008 TIME LEFT:  2.00D  GRAD.:     0.476 HEAT:  14.82590
 CYCLE:   240 TIME:   0.012 TIME LEFT:  2.00D  GRAD.:     0.362 HEAT:  14.82558
 CYCLE:   241 TIME:   0.012 TIME LEFT:  2.00D  GRAD.:     0.478 HEAT:  14.82552
 CYCLE:   242 TIME:   0.012 TIME LEFT:  2.00D  GRAD.:     0.280 HEAT:  14.82533
 CYCLE:   243 TIME:   0.012 TIME LEFT:  2.00D  GRAD.:     0.179 HEAT:  14.82529
 CYCLE:   244 TIME:   0.012 TIME LEFT:  2.00D  GRAD.:     0.144 HEAT:  14.82524
 CYCLE:   245 TIME:   0.043 TIME LEFT:  2.00D  GRAD.:     4.272 HEAT:  14.83111
 CYCLE:   246 TIME:   0.012 TIME LEFT:  2.00D  GRAD.:     0.822 HEAT:  14.82640
 CYCLE:   247 TIME:   0.012 TIME LEFT:  2.00D  GRAD.:     0.915 HEAT:  14.82598
 CYCLE:   248 TIME:   0.012 TIME LEFT:  2.00D  GRAD.:     0.149 HEAT:  14.82513
 CYCLE:   249 TIME:   0.012 TIME LEFT:  2.00D  GRAD.:     0.158 HEAT:  14.82509
 CYCLE:   250 TIME:   0.043 TIME LEFT:  2.00D  GRAD.:     4.524 HEAT:  14.83176
 CYCLE:   251 TIME:   0.012 TIME LEFT:  2.00D  GRAD.:     0.145 HEAT:  14.82506
 CYCLE:   252 TIME:   0.012 TIME LEFT:  2.00D  GRAD.:     0.169 HEAT:  14.82508
 CYCLE:   253 TIME:   0.008 TIME LEFT:  2.00D  GRAD.:     0.125 HEAT:  14.82503
 CYCLE:   254 TIME:   0.012 TIME LEFT:  2.00D  GRAD.:     0.133 HEAT:  14.82497
 CYCLE:   255 TIME:   0.012 TIME LEFT:  2.00D  GRAD.:     0.153 HEAT:  14.82494
 CYCLE:   256 TIME:   0.012 TIME LEFT:  2.00D  GRAD.:     0.140 HEAT:  14.82489
 CYCLE:   257 TIME:   0.008 TIME LEFT:  2.00D  GRAD.:     0.640 HEAT:  14.82441
 CYCLE:   258 TIME:   0.012 TIME LEFT:  2.00D  GRAD.:     0.473 HEAT:  14.82402
 CYCLE:   259 TIME:   0.012 TIME LEFT:  2.00D  GRAD.:     0.705 HEAT:  14.82288
 CYCLE:   260 TIME:   0.012 TIME LEFT:  2.00D  GRAD.:     0.669 HEAT:  14.82231
 CYCLE:   261 TIME:   0.012 TIME LEFT:  2.00D  GRAD.:     0.626 HEAT:  14.82113
 CYCLE:   262 TIME:   0.012 TIME LEFT:  2.00D  GRAD.:     0.412 HEAT:  14.82067
 CYCLE:   263 TIME:   0.012 TIME LEFT:  2.00D  GRAD.:     0.290 HEAT:  14.82035
 CYCLE:   264 TIME:   0.012 TIME LEFT:  2.00D  GRAD.:     0.251 HEAT:  14.82025
 CYCLE:   265 TIME:   0.008 TIME LEFT:  2.00D  GRAD.:     0.199 HEAT:  14.82018
 CYCLE:   266 TIME:   0.012 TIME LEFT:  2.00D  GRAD.:     0.126 HEAT:  14.82013
 CYCLE:   267 TIME:   0.012 TIME LEFT:  2.00D  GRAD.:     0.077 HEAT:  14.82012
 CYCLE:   268 TIME:   0.012 TIME LEFT:  2.00D  GRAD.:     0.111 HEAT:  14.82012
 CYCLE:   269 TIME:   0.008 TIME LEFT:  2.00D  GRAD.:     0.039 HEAT:  14.82011

     GRADIENT =  0.03873 IS LESS THAN CUTOFF =  0.05000



 -------------------------------------------------------------------------------
 pm3  precise nosym THREADS=1
 InChI=1S/C12H20/c1-3-5-6-7-8-12-9-11(4-2)10-12/h5-6,9,12H,3-4,7-8,10H2,1-2H3



     GEOMETRY OPTIMISED USING EIGENVECTOR FOLLOWING (EF).     
     SCF FIELD WAS ACHIEVED                                   


                              PM3 CALCULATION
                                                       MOPAC v23.1.2 MacOS
                                                       Tue Jun  3 16:40:52 2025




          FINAL HEAT OF FORMATION =         14.82011 KCAL/MOL =      62.00735 KJ/MOL


          COSMO AREA              =        247.87 SQUARE ANGSTROMS
          COSMO VOLUME            =        250.58 CUBIC ANGSTROMS

          GRADIENT NORM           =          0.03873          =       0.00685 PER ATOM
          IONIZATION POTENTIAL    =          9.544710 EV
          HOMO LUMO ENERGIES (EV) =         -9.545  0.970
          NO. OF FILLED LEVELS    =         34
          MOLECULAR WEIGHT        =        164.2900         POINT GROUP:  C1  

          MOLECULAR DIMENSIONS (Angstroms)

            Atom       Atom       Distance
            H    24    H    21    11.07305
            H    27    H    18     5.95044
            H    32    H    25     4.15863


          SCF CALCULATIONS        =        286

          WALL-CLOCK TIME         =      3.191 SECONDS
          COMPUTATION TIME        =      2.369 SECONDS




   ATOM   CHEMICAL          X               Y               Z
  NUMBER   SYMBOL      (ANGSTROMS)     (ANGSTROMS)     (ANGSTROMS)

     1       C         -1.28025073  *  -1.16822428  *  -0.96708742  *
     2       C         -0.00132032  *  -0.36966121  *  -1.06750350  *
     3       C         -1.98007990  *  -1.18163110  *   0.44415945  *
     4       C          1.17024211  *  -1.11778559  *  -0.44699577  *
     5       C         -4.42442687  *  -0.01629747  *   0.28892666  *
     6       C          4.53051687  *   0.65028567  *   0.27711525  *
     7       C          4.65101280  *   1.75621411  *   1.30356638  *
     8       C         -4.24632175  *   0.99518993  *   1.40223953  *
     9       C         -3.13340100  *  -0.46795739  *  -0.24457870  *
    10       C         -2.53087391  *  -0.44307772  *  -1.45273534  *
    11       C          3.24962090  *  -0.09143235  *   0.42969391  *
    12       C          2.43347138  *  -0.34602972  *  -0.59368097  *
    13       H         -1.15526924  *  -2.17930552  *  -1.40741554  *
    14       H          0.20537611  *  -0.14854558  *  -2.13364815  *
    15       H         -0.12296457  *   0.61556794  *  -0.57518938  *
    16       H          4.63247927  *   1.06843766  *  -0.74443328  *
    17       H          5.36593341  *  -0.06979757  *   0.39068582  *
    18       H          1.30081092  *  -2.10372673  *  -0.93806821  *
    19       H          0.95120488  *  -1.33891063  *   0.61772336  *
    20       H         -5.03642418  *   0.41387187  *  -0.52789063  *
    21       H         -4.98262208  *  -0.90013153  *   0.65793632  *
    22       H         -1.47068149  *  -0.60184360  *   1.22834829  *
    23       H         -2.21413437  *  -2.17710210  *   0.84619452  *
    24       H          5.60856773  *   2.28371295  *   1.20765675  *
    25       H          4.59071979  *   1.36765119  *   2.32887630  *
    26       H          3.85247506  *   2.50069155  *   1.19001009  *
    27       H         -5.21403824  *   1.28948155  *   1.82755036  *
    28       H         -3.63330409  *   0.59188879  *   2.21931992  *
    29       H         -3.75172819  *   1.90734505  *   1.04441094  *
    30       H          3.00980720  *  -0.42990998  *   1.44598974  *
    31       H          2.66753129  *   0.00326126  *  -1.60772858  *
    32       H         -2.78051146  *  -0.06882751  *  -2.43600082  *

                             CARTESIAN COORDINATES

   1    C       -1.280250727    -1.168224280    -0.967087422
   2    C       -0.001320322    -0.369661213    -1.067503500
   3    C       -1.980079901    -1.181631103     0.444159451
   4    C        1.170242106    -1.117785588    -0.446995769
   5    C       -4.424426869    -0.016297470     0.288926658
   6    C        4.530516871     0.650285672     0.277115254
   7    C        4.651012797     1.756214113     1.303566381
   8    C       -4.246321751     0.995189927     1.402239528
   9    C       -3.133401004    -0.467957388    -0.244578696
  10    C       -2.530873911    -0.443077723    -1.452735342
  11    C        3.249620900    -0.091432347     0.429693914
  12    C        2.433471378    -0.346029721    -0.593680968
  13    H       -1.155269243    -2.179305518    -1.407415535
  14    H        0.205376112    -0.148545584    -2.133648149
  15    H       -0.122964567     0.615567943    -0.575189380
  16    H        4.632479272     1.068437664    -0.744433284
  17    H        5.365933414    -0.069797566     0.390685822
  18    H        1.300810925    -2.103726733    -0.938068210
  19    H        0.951204885    -1.338910634     0.617723364
  20    H       -5.036424182     0.413871872    -0.527890626
  21    H       -4.982622079    -0.900131528     0.657936323
  22    H       -1.470681494    -0.601843597     1.228348291
  23    H       -2.214134374    -2.177102101     0.846194521
  24    H        5.608567731     2.283712954     1.207656747
  25    H        4.590719786     1.367651187     2.328876300
  26    H        3.852475061     2.500691547     1.190010090
  27    H       -5.214038244     1.289481551     1.827550358
  28    H       -3.633304088     0.591888794     2.219319916
  29    H       -3.751728189     1.907345053     1.044410941
  30    H        3.009807204    -0.429909982     1.445989740
  31    H        2.667531288     0.003261264    -1.607728576
  32    H       -2.780511456    -0.068827511    -2.436000819


           Empirical Formula: C12 H20  =    32 atoms



      MOLECULAR POINT GROUP   :   C1  


                  EIGENVALUES  
 -41.06942 -37.79125 -34.95224 -32.52108 -28.39740 -25.12781 -24.68872 -22.96634
 -21.10231 -20.24629 -19.55364 -17.57948 -16.84651 -16.52682 -16.01929 -15.59919
 -15.41272 -14.95998 -14.72752 -14.19197 -13.83629 -13.57332 -13.21728 -13.00594
 -12.90209 -12.55663 -12.29740 -12.02809 -11.93864 -11.83303 -11.49213 -11.40552
  -9.77395  -9.54471   0.96961   1.11765   3.13331   3.25339   3.33782   3.44700
   3.68572   3.80686   3.81367   3.85368   3.93517   3.95831   3.98648   4.04660
   4.11467   4.14880   4.19215   4.23923   4.32214   4.51168   4.54954   4.56788
   4.69775   4.78445   4.80802   4.85249   4.87219   4.94066   5.03106   5.19899
   5.38841   5.72878   5.99137   6.25720


              NET ATOMIC CHARGES AND DIPOLE CONTRIBUTIONS

  ATOM NO.   TYPE          CHARGE      No. of ELECS.   s-Pop       p-Pop       
    1          C          -0.064543        4.0645     1.18700     2.87754
    2          C          -0.086735        4.0867     1.15756     2.92918
    3          C          -0.074307        4.0743     1.17162     2.90269
    4          C          -0.065082        4.0651     1.14923     2.91585
    5          C          -0.023672        4.0237     1.13186     2.89181
    6          C          -0.061122        4.0611     1.14567     2.91545
    7          C          -0.105744        4.1057     1.13764     2.96810
    8          C          -0.105258        4.1053     1.13702     2.96824
    9          C          -0.141567        4.1416     1.22176     2.91981
   10          C          -0.167011        4.1670     1.21989     2.94712
   11          C          -0.150876        4.1509     1.19744     2.95343
   12          C          -0.151422        4.1514     1.19675     2.95467
   13          H           0.076579        0.9234     0.92342
   14          H           0.053070        0.9469     0.94693
   15          H           0.058998        0.9410     0.94100
   16          H           0.050978        0.9490     0.94902
   17          H           0.052435        0.9476     0.94756
   18          H           0.054645        0.9454     0.94535
   19          H           0.054283        0.9457     0.94572
   20          H           0.052231        0.9478     0.94777
   21          H           0.054128        0.9459     0.94587
   22          H           0.067047        0.9330     0.93295
   23          H           0.060613        0.9394     0.93939
   24          H           0.036512        0.9635     0.96349
   25          H           0.037632        0.9624     0.96237
   26          H           0.040110        0.9599     0.95989
   27          H           0.037049        0.9630     0.96295
   28          H           0.039753        0.9602     0.96025
   29          H           0.040956        0.9590     0.95904
   30          H           0.101605        0.8984     0.89839
   31          H           0.101563        0.8984     0.89844
   32          H           0.127151        0.8728     0.87285
 DIPOLE           X         Y         Z       TOTAL
 POINT-CHG.    -0.010     0.012     0.230     0.230
 HYBRID        -0.006    -0.004    -0.016     0.018
 SUM           -0.015     0.008     0.213     0.214


          ATOMIC ORBITAL ELECTRON POPULATIONS

     Atom    s        px        py        pz   
    1  C   1.18700   0.93206   0.98629   0.95919
    2  C   1.15756   0.93513   0.98543   1.00862
    3  C   1.17162   0.95119   0.99479   0.95671
    4  C   1.14923   0.93116   0.97544   1.00926
    5  C   1.13186   0.93268   0.98099   0.97813
    6  C   1.14567   0.95715   0.96856   0.98974
    7  C   1.13764   1.00740   0.97822   0.98248
    8  C   1.13702   1.00730   0.98404   0.97691
    9  C   1.22176   0.96080   0.99160   0.96741
   10  C   1.21989   0.96559   1.01298   0.96856
   11  C   1.19744   0.96966   0.99941   0.98436
   12  C   1.19675   0.96676   1.00346   0.98445
   13  H   0.92342
   14  H   0.94693
   15  H   0.94100
   16  H   0.94902
   17  H   0.94756
   18  H   0.94535
   19  H   0.94572
   20  H   0.94777
   21  H   0.94587
   22  H   0.93295
   23  H   0.93939
   24  H   0.96349
   25  H   0.96237
   26  H   0.95989
   27  H   0.96295
   28  H   0.96025
   29  H   0.95904
   30  H   0.89839
   31  H   0.89844
   32  H   0.87285
 *******************************************************************************
 **                                                                           **
 **                              MOPAC v23.1.2                                **
 **                                                                           **
 *******************************************************************************
 **          Digital Object Identifier (DOI): 10.5281/zenodo.6511958          **
 **    Visit the DOI location for information on how to cite this program.    **
 *******************************************************************************

                              PM3 CALCULATION RESULTS

 *******************************************************************************
 *  CALCULATION DONE: (MAX THREADS = 1)              Tue Jun  3 16:40:52 2025  *
 *  PM3        - The PM3 Hamiltonian to be used
 *  OLDGEO     - PREVIOUS GEOMETRY TO BE USED
 *  PRECISE    - TIGHTER CRITERIA TO BE USED
 *  NOSYM      - POINT-GROUP SYMMETRY SET TO C1
 *  THREADS=1  - MULTI-THREADING NOT USED
 *  T=         - A TIME OF 172800.0 SECONDS REQUESTED
 *  DUMP=N     - RESTART FILE WRITTEN EVERY 7200.0 SECONDS REQUESTED
 *  THERMO     - THERMODYNAMIC QUANTITIES TO BE CALCULATED
 *******************************************************************************
oldgeo thermo nosym precise THREADS=1  pm3
 InChI=1S/C12H20/c1-3-5-6-7-8-12-9-11(4-2)10-12/h5-6,9,12H,3-4,7-8,10H2,1-2H3

   ATOM   CHEMICAL          X               Y               Z
  NUMBER   SYMBOL      (ANGSTROMS)     (ANGSTROMS)     (ANGSTROMS)

     1       C         -1.28025073  *  -1.16822428  *  -0.96708742  *
     2       C         -0.00132032  *  -0.36966121  *  -1.06750350  *
     3       C         -1.98007990  *  -1.18163110  *   0.44415945  *
     4       C          1.17024211  *  -1.11778559  *  -0.44699577  *
     5       C         -4.42442687  *  -0.01629747  *   0.28892666  *
     6       C          4.53051687  *   0.65028567  *   0.27711525  *
     7       C          4.65101280  *   1.75621411  *   1.30356638  *
     8       C         -4.24632175  *   0.99518993  *   1.40223953  *
     9       C         -3.13340100  *  -0.46795739  *  -0.24457870  *
    10       C         -2.53087391  *  -0.44307772  *  -1.45273534  *
    11       C          3.24962090  *  -0.09143235  *   0.42969391  *
    12       C          2.43347138  *  -0.34602972  *  -0.59368097  *
    13       H         -1.15526924  *  -2.17930552  *  -1.40741554  *
    14       H          0.20537611  *  -0.14854558  *  -2.13364815  *
    15       H         -0.12296457  *   0.61556794  *  -0.57518938  *
    16       H          4.63247927  *   1.06843766  *  -0.74443328  *
    17       H          5.36593341  *  -0.06979757  *   0.39068582  *
    18       H          1.30081092  *  -2.10372673  *  -0.93806821  *
    19       H          0.95120488  *  -1.33891063  *   0.61772336  *
    20       H         -5.03642418  *   0.41387187  *  -0.52789063  *
    21       H         -4.98262208  *  -0.90013153  *   0.65793632  *
    22       H         -1.47068149  *  -0.60184360  *   1.22834829  *
    23       H         -2.21413437  *  -2.17710210  *   0.84619452  *
    24       H          5.60856773  *   2.28371295  *   1.20765675  *
    25       H          4.59071979  *   1.36765119  *   2.32887630  *
    26       H          3.85247506  *   2.50069155  *   1.19001009  *
    27       H         -5.21403824  *   1.28948155  *   1.82755036  *
    28       H         -3.63330409  *   0.59188879  *   2.21931992  *
    29       H         -3.75172819  *   1.90734505  *   1.04441094  *
    30       H          3.00980720  *  -0.42990998  *   1.44598974  *
    31       H          2.66753129  *   0.00326126  *  -1.60772858  *
    32       H         -2.78051146  *  -0.06882751  *  -2.43600082  *



          CARTESIAN COORDINATES 

    NO.       ATOM           X           Y           Z

     1         C         -1.2803     -1.1682     -0.9671
     2         C         -0.0013     -0.3697     -1.0675
     3         C         -1.9801     -1.1816      0.4442
     4         C          1.1702     -1.1178     -0.4470
     5         C         -4.4244     -0.0163      0.2889
     6         C          4.5305      0.6503      0.2771
     7         C          4.6510      1.7562      1.3036
     8         C         -4.2463      0.9952      1.4022
     9         C         -3.1334     -0.4680     -0.2446
    10         C         -2.5309     -0.4431     -1.4527
    11         C          3.2496     -0.0914      0.4297
    12         C          2.4335     -0.3460     -0.5937
    13         H         -1.1553     -2.1793     -1.4074
    14         H          0.2054     -0.1485     -2.1336
    15         H         -0.1230      0.6156     -0.5752
    16         H          4.6325      1.0684     -0.7444
    17         H          5.3659     -0.0698      0.3907
    18         H          1.3008     -2.1037     -0.9381
    19         H          0.9512     -1.3389      0.6177
    20         H         -5.0364      0.4139     -0.5279
    21         H         -4.9826     -0.9001      0.6579
    22         H         -1.4707     -0.6018      1.2283
    23         H         -2.2141     -2.1771      0.8462
    24         H          5.6086      2.2837      1.2077
    25         H          4.5907      1.3677      2.3289
    26         H          3.8525      2.5007      1.1900
    27         H         -5.2140      1.2895      1.8276
    28         H         -3.6333      0.5919      2.2193
    29         H         -3.7517      1.9073      1.0444
    30         H          3.0098     -0.4299      1.4460
    31         H          2.6675      0.0033     -1.6077
    32         H         -2.7805     -0.0688     -2.4360

  H: (PM3): J. J. P. STEWART, J. COMP. CHEM. 10, 209 (1989).
  C: (PM3): J. J. P. STEWART, J. COMP. CHEM. 10, 209 (1989).

           Empirical Formula: C12 H20  =    32 atoms



      MOLECULAR POINT GROUP   :   C1  


      RHF CALCULATION, NO. OF DOUBLY OCCUPIED LEVELS = 34



          HEAT OF FORMATION =      14.820113 KCALS/MOLE


          CARTESIAN COORDINATE DERIVATIVES

   NUMBER  ATOM         X            Y            Z

     1       C      0.004090    -0.000527     0.000596
     2       C      0.000580    -0.000149     0.000788
     3       C     -0.002614     0.000716    -0.000449
     4       C     -0.001925     0.000804    -0.000335
     5       C     -0.005301     0.001483    -0.004651
     6       C     -0.002629    -0.000364     0.003500
     7       C      0.005797    -0.004539    -0.008271
     8       C     -0.000468     0.005791     0.001558
     9       C     -0.000986     0.002266    -0.000494
    10       C      0.001425    -0.001204    -0.001489
    11       C     -0.001995    -0.001098    -0.005056
    12       C      0.003241     0.001214     0.003872
    13       H      0.001101     0.001137     0.000116
    14       H      0.004490     0.002052     0.002372
    15       H     -0.003230     0.001058     0.001223
    16       H      0.000825    -0.000190     0.006783
    17       H      0.001654     0.004400    -0.002960
    18       H     -0.000748     0.001104    -0.001289
    19       H      0.001125    -0.000770     0.000146
    20       H      0.010138     0.002857    -0.002518
    21       H     -0.005589    -0.002545    -0.008609
    22       H     -0.005595    -0.001143    -0.001312
    23       H     -0.002274    -0.000379    -0.003495
    24       H     -0.000637    -0.002248    -0.001294
    25       H      0.005133    -0.002673    -0.004758
    26       H      0.003447    -0.003275     0.006456
    27       H      0.000346    -0.003201     0.003995
    28       H     -0.015922    -0.005275    -0.000400
    29       H      0.001767     0.004828     0.014128
    30       H      0.000544     0.002307    -0.005684
    31       H      0.000634    -0.003017     0.006815
    32       H      0.003578     0.000582     0.000715



          GRADIENT NORM =   0.03884

          MOLECULAR WEIGHT =  164.29



          ROTATIONAL CONSTANTS IN CM(-1)

          A =    0.06080987   B =    0.00955835   C =    0.00872769



           PRINCIPAL MOMENTS OF INERTIA IN UNITS OF 10**(-40)*GRAM-CM**2

          A =      460.3324   B =     2928.6185   C =     3207.3488


          ORIENTATION OF MOLECULE IN FORCE CALCULATION

    NO.       ATOM         X         Y         Z

     1          C      -1.4876   -1.0840   -0.0093
     2          C       0.0235   -1.0840   -0.0093
     3          C      -2.1808    0.3306   -0.0093
     4          C       0.5784   -0.7656    1.3719
     5          C      -3.6234    0.6670   -2.2815
     6          C       4.3087    0.1055    1.8901
     7          C       4.9269    1.3624    1.3163
     8          C      -3.0121    1.9795   -2.7263
     9          C      -2.7340   -0.0638   -1.3703
    10          C      -2.1306   -1.2718   -1.3794
    11          C       2.8225    0.1702    1.8562
    12          C       2.0652   -0.8157    1.3737
    13          H      -1.8869   -1.7712    0.7654
    14          H       0.3861   -2.0743   -0.3501
    15          H       0.4085   -0.3534   -0.7481
    16          H       4.6838   -0.7842    1.3456
    17          H       4.6276   -0.0313    2.9432
    18          H       0.2006   -1.4959    2.1163
    19          H       0.2055    0.2243    1.7058
    20          H      -3.8598    0.0350   -3.1598
    21          H      -4.5874    0.8473   -1.7647
    22          H      -1.4954    1.1912   -0.0129
    23          H      -2.9317    0.4889    0.7771
    24          H       6.0224    1.3248    1.3681
    25          H       4.6024    2.2598    1.8597
    26          H       4.6520    1.5024    0.2629
    27          H      -3.7039    2.5408   -3.3669
    28          H      -2.7607    2.6184   -1.8692
    29          H      -2.0877    1.8222   -3.2968
    30          H       2.3731    1.0857    2.2621
    31          H       2.5152   -1.7259    0.9565
    32          H      -2.0788   -2.1074   -2.0637


    FIRST DERIVATIVES WILL BE USED IN THE CALCULATION OF SECOND DERIVATIVES

          ESTIMATED TIME TO COMPLETE CALCULATION =        4.50 SECONDS

    FOR POINT-GROUP C1   THERE ARE   1 UNIQUE SYMMETRY FUNCTIONS.

 STEP:   1 TIME =     0.04 SECS, INTEGRAL =      0.04 TIME LEFT: 172799.95
 STEP:   2 TIME =     0.04 SECS, INTEGRAL =      0.08 TIME LEFT: 172799.91
 STEP:   3 TIME =     0.04 SECS, INTEGRAL =      0.11 TIME LEFT: 172799.88
 STEP:   4 TIME =     0.04 SECS, INTEGRAL =      0.15 TIME LEFT: 172799.84
 STEP:   5 TIME =     0.04 SECS, INTEGRAL =      0.19 TIME LEFT: 172799.80
 STEP:   6 TIME =     0.04 SECS, INTEGRAL =      0.23 TIME LEFT: 172799.76
 STEP:   7 TIME =     0.04 SECS, INTEGRAL =      0.26 TIME LEFT: 172799.73
 STEP:   8 TIME =     0.04 SECS, INTEGRAL =      0.30 TIME LEFT: 172799.69
 STEP:   9 TIME =     0.04 SECS, INTEGRAL =      0.33 TIME LEFT: 172799.66
 STEP:  10 TIME =     0.04 SECS, INTEGRAL =      0.37 TIME LEFT: 172799.62
 STEP:  11 TIME =     0.04 SECS, INTEGRAL =      0.41 TIME LEFT: 172799.58
 STEP:  12 TIME =     0.04 SECS, INTEGRAL =      0.45 TIME LEFT: 172799.54
 STEP:  13 TIME =     0.04 SECS, INTEGRAL =      0.48 TIME LEFT: 172799.50
 STEP:  14 TIME =     0.04 SECS, INTEGRAL =      0.52 TIME LEFT: 172799.47
 STEP:  15 TIME =     0.04 SECS, INTEGRAL =      0.55 TIME LEFT: 172799.43
 STEP:  16 TIME =     0.04 SECS, INTEGRAL =      0.59 TIME LEFT: 172799.40
 STEP:  17 TIME =     0.04 SECS, INTEGRAL =      0.62 TIME LEFT: 172799.36
 STEP:  18 TIME =     0.04 SECS, INTEGRAL =      0.66 TIME LEFT: 172799.32
 STEP:  19 TIME =     0.04 SECS, INTEGRAL =      0.70 TIME LEFT: 172799.29
 STEP:  20 TIME =     0.04 SECS, INTEGRAL =      0.73 TIME LEFT: 172799.25
 STEP:  21 TIME =     0.04 SECS, INTEGRAL =      0.77 TIME LEFT: 172799.21
 STEP:  22 TIME =     0.04 SECS, INTEGRAL =      0.81 TIME LEFT: 172799.18
 STEP:  23 TIME =     0.04 SECS, INTEGRAL =      0.85 TIME LEFT: 172799.14
 STEP:  24 TIME =     0.04 SECS, INTEGRAL =      0.89 TIME LEFT: 172799.10
 STEP:  25 TIME =     0.04 SECS, INTEGRAL =      0.93 TIME LEFT: 172799.06
 STEP:  26 TIME =     0.04 SECS, INTEGRAL =      0.96 TIME LEFT: 172799.02
 STEP:  27 TIME =     0.04 SECS, INTEGRAL =      1.00 TIME LEFT: 172798.98
 STEP:  28 TIME =     0.04 SECS, INTEGRAL =      1.04 TIME LEFT: 172798.95
 STEP:  29 TIME =     0.04 SECS, INTEGRAL =      1.08 TIME LEFT: 172798.91
 STEP:  30 TIME =     0.04 SECS, INTEGRAL =      1.12 TIME LEFT: 172798.87
 STEP:  31 TIME =     0.04 SECS, INTEGRAL =      1.16 TIME LEFT: 172798.83
 STEP:  32 TIME =     0.04 SECS, INTEGRAL =      1.19 TIME LEFT: 172798.80
 STEP:  33 TIME =     0.04 SECS, INTEGRAL =      1.23 TIME LEFT: 172798.76
 STEP:  34 TIME =     0.04 SECS, INTEGRAL =      1.26 TIME LEFT: 172798.73
 STEP:  35 TIME =     0.04 SECS, INTEGRAL =      1.30 TIME LEFT: 172798.69
 STEP:  36 TIME =     0.04 SECS, INTEGRAL =      1.34 TIME LEFT: 172798.65
 STEP:  37 TIME =     0.04 SECS, INTEGRAL =      1.38 TIME LEFT: 172798.61
 STEP:  38 TIME =     0.04 SECS, INTEGRAL =      1.41 TIME LEFT: 172798.57
 STEP:  39 TIME =     0.04 SECS, INTEGRAL =      1.45 TIME LEFT: 172798.54
 STEP:  40 TIME =     0.04 SECS, INTEGRAL =      1.48 TIME LEFT: 172798.50
 STEP:  41 TIME =     0.04 SECS, INTEGRAL =      1.52 TIME LEFT: 172798.47
 STEP:  42 TIME =     0.04 SECS, INTEGRAL =      1.56 TIME LEFT: 172798.43
 STEP:  43 TIME =     0.04 SECS, INTEGRAL =      1.59 TIME LEFT: 172798.39
 STEP:  44 TIME =     0.04 SECS, INTEGRAL =      1.63 TIME LEFT: 172798.36
 STEP:  45 TIME =     0.04 SECS, INTEGRAL =      1.66 TIME LEFT: 172798.32
 STEP:  46 TIME =     0.04 SECS, INTEGRAL =      1.70 TIME LEFT: 172798.29
 STEP:  47 TIME =     0.04 SECS, INTEGRAL =      1.73 TIME LEFT: 172798.25
 STEP:  48 TIME =     0.04 SECS, INTEGRAL =      1.77 TIME LEFT: 172798.22
 STEP:  49 TIME =     0.04 SECS, INTEGRAL =      1.80 TIME LEFT: 172798.18
 STEP:  50 TIME =     0.04 SECS, INTEGRAL =      1.84 TIME LEFT: 172798.14
 STEP:  51 TIME =     0.04 SECS, INTEGRAL =      1.88 TIME LEFT: 172798.11
 STEP:  52 TIME =     0.04 SECS, INTEGRAL =      1.92 TIME LEFT: 172798.07
 STEP:  53 TIME =     0.04 SECS, INTEGRAL =      1.95 TIME LEFT: 172798.04
 STEP:  54 TIME =     0.04 SECS, INTEGRAL =      1.99 TIME LEFT: 172798.00
 STEP:  55 TIME =     0.04 SECS, INTEGRAL =      2.02 TIME LEFT: 172797.96
 STEP:  56 TIME =     0.04 SECS, INTEGRAL =      2.06 TIME LEFT: 172797.93
 STEP:  57 TIME =     0.04 SECS, INTEGRAL =      2.10 TIME LEFT: 172797.89
 STEP:  58 TIME =     0.04 SECS, INTEGRAL =      2.14 TIME LEFT: 172797.85
 STEP:  59 TIME =     0.04 SECS, INTEGRAL =      2.18 TIME LEFT: 172797.81
 STEP:  60 TIME =     0.04 SECS, INTEGRAL =      2.21 TIME LEFT: 172797.77
 STEP:  61 TIME =     0.04 SECS, INTEGRAL =      2.25 TIME LEFT: 172797.74
 STEP:  62 TIME =     0.04 SECS, INTEGRAL =      2.29 TIME LEFT: 172797.70
 STEP:  63 TIME =     0.04 SECS, INTEGRAL =      2.32 TIME LEFT: 172797.66
 STEP:  64 TIME =     0.04 SECS, INTEGRAL =      2.36 TIME LEFT: 172797.62
 STEP:  65 TIME =     0.04 SECS, INTEGRAL =      2.40 TIME LEFT: 172797.59
 STEP:  66 TIME =     0.04 SECS, INTEGRAL =      2.44 TIME LEFT: 172797.55
 STEP:  67 TIME =     0.04 SECS, INTEGRAL =      2.48 TIME LEFT: 172797.51
 STEP:  68 TIME =     0.04 SECS, INTEGRAL =      2.52 TIME LEFT: 172797.47
 STEP:  69 TIME =     0.04 SECS, INTEGRAL =      2.55 TIME LEFT: 172797.43
 STEP:  70 TIME =     0.04 SECS, INTEGRAL =      2.59 TIME LEFT: 172797.40
 STEP:  71 TIME =     0.04 SECS, INTEGRAL =      2.63 TIME LEFT: 172797.36
 STEP:  72 TIME =     0.04 SECS, INTEGRAL =      2.68 TIME LEFT: 172797.31
 STEP:  73 TIME =     0.04 SECS, INTEGRAL =      2.71 TIME LEFT: 172797.27
 STEP:  74 TIME =     0.04 SECS, INTEGRAL =      2.75 TIME LEFT: 172797.23
 STEP:  75 TIME =     0.04 SECS, INTEGRAL =      2.79 TIME LEFT: 172797.20
 STEP:  76 TIME =     0.04 SECS, INTEGRAL =      2.83 TIME LEFT: 172797.16
 STEP:  77 TIME =     0.04 SECS, INTEGRAL =      2.87 TIME LEFT: 172797.12
 STEP:  78 TIME =     0.04 SECS, INTEGRAL =      2.91 TIME LEFT: 172797.08
 STEP:  79 TIME =     0.04 SECS, INTEGRAL =      2.95 TIME LEFT: 172797.04
 STEP:  80 TIME =     0.04 SECS, INTEGRAL =      2.98 TIME LEFT: 172797.00
 STEP:  81 TIME =     0.04 SECS, INTEGRAL =      3.02 TIME LEFT: 172796.97
 STEP:  82 TIME =     0.04 SECS, INTEGRAL =      3.06 TIME LEFT: 172796.93
 STEP:  83 TIME =     0.04 SECS, INTEGRAL =      3.09 TIME LEFT: 172796.89
 STEP:  84 TIME =     0.04 SECS, INTEGRAL =      3.13 TIME LEFT: 172796.86
 STEP:  85 TIME =     0.04 SECS, INTEGRAL =      3.17 TIME LEFT: 172796.82
 STEP:  86 TIME =     0.04 SECS, INTEGRAL =      3.21 TIME LEFT: 172796.78
 STEP:  87 TIME =     0.04 SECS, INTEGRAL =      3.24 TIME LEFT: 172796.75
 STEP:  88 TIME =     0.04 SECS, INTEGRAL =      3.28 TIME LEFT: 172796.71
 STEP:  89 TIME =     0.04 SECS, INTEGRAL =      3.32 TIME LEFT: 172796.67
 STEP:  90 TIME =     0.04 SECS, INTEGRAL =      3.36 TIME LEFT: 172796.63
 STEP:  91 TIME =     0.04 SECS, INTEGRAL =      3.39 TIME LEFT: 172796.59
 STEP:  92 TIME =     0.04 SECS, INTEGRAL =      3.43 TIME LEFT: 172796.55
 STEP:  93 TIME =     0.04 SECS, INTEGRAL =      3.47 TIME LEFT: 172796.52
 STEP:  94 TIME =     0.04 SECS, INTEGRAL =      3.51 TIME LEFT: 172796.48
 STEP:  95 TIME =     0.04 SECS, INTEGRAL =      3.55 TIME LEFT: 172796.44
 STEP:  96 TIME =     0.04 SECS, INTEGRAL =      3.59 TIME LEFT: 172796.40

(To convert to Hartree/Bohr^2, multiply by (10^(-21) x N x a0^2)/(4.184 x 627.51) =  0.0642)


           FORCE MATRIX IN MILLIDYNES/ANGSTROM


                  C  1       C  2       C  3       C  4       C  5       C  6
 ------------------------------------------------------------------------------
     C    1  14.439897
     C    2   4.388849  14.455747
     C    3   2.861634   0.493945  14.175706
     C    4   0.654167   4.108679   0.030405  14.668121
     C    5   0.130833   0.020093   0.366511   0.003182  14.936747
     C    6   0.003471   0.019707   0.000304   0.146847   0.000124  14.688810
     C    7   0.001129   0.003884   0.000134   0.019730   0.000091   4.411424
     C    8   0.017945   0.003781   0.027824   0.001056   4.371121   0.000130
     C    9   2.240758   0.050232   3.971873   0.007686   5.590807   0.000138
     C   10   3.893463   0.551323   2.234499   0.049125   0.563304   0.000796
     C   11   0.007509   0.039987   0.000801   0.826057   0.000153   4.962742
     C   12   0.054856   0.700100   0.001616   4.974463   0.001037   0.823665
     H   13   4.420295   0.436262   0.415505   0.030210   0.017261   0.000177
     H   14   0.432494   4.449926   0.044627   0.448029   0.001759   0.000610
     H   15   0.449926   4.464764   0.020504   0.441205   0.001427   0.000702
     H   16   0.000132   0.000443   0.000075   0.003295   0.000035   4.440709
     H   17   0.000254   0.002374   0.000122   0.020498   0.000053   4.421042
     H   18   0.029186   0.453351   0.002134   4.406113   0.000179   0.020347
     H   19   0.025928   0.440261   0.006139   4.417244   0.000660   0.003171
     H   20   0.004814   0.001301   0.033913   0.000285   4.470695   0.000041
     H   21   0.016706   0.002186   0.008648   0.000180   4.426390   0.000055
     H   22   0.434187   0.020316   4.675536   0.008603   0.006131   0.000196
     H   23   0.421051   0.027768   4.721141   0.001866   0.007078   0.000094
     H   24   0.000302   0.000830   0.000053   0.003345   0.000027   0.450048
     H   25   0.000106   0.000159   0.000029   0.000667   0.000033   0.465018
     H   26   0.000108   0.000225   0.000031   0.000811   0.000033   0.461200
     H   27   0.003146   0.000785   0.001536   0.000307   0.450476   0.000040
     H   28   0.000971   0.000366   0.005806   0.000126   0.463745   0.000042
     H   29   0.000794   0.000294   0.002606   0.000128   0.461226   0.000037
     H   30   0.001961   0.008687   0.000314   0.084761   0.000168   0.430907
     H   31   0.001838   0.026976   0.000578   0.430100   0.000216   0.085120
     H   32   0.337921   0.010462   0.110330   0.001947   0.036674   0.000137


                  C  7       C  8       C  9       C 10       C 11       C 12
 ------------------------------------------------------------------------------
     C    7  14.350574
     C    8   0.000121  14.338644
     C    9   0.000044   0.740235  19.103499
     C   10   0.000547   0.034546  10.081707  18.235738
     C   11   0.715772   0.000132   0.000451   0.001345  18.185780
     C   12   0.041216   0.000676   0.001115   0.011271  10.696998  18.191543
     H   13   0.000111   0.002048   0.043193   0.413670   0.000628   0.001787
     H   14   0.000186   0.000203   0.004249   0.015822   0.001805   0.032633
     H   15   0.000271   0.000386   0.003705   0.015067   0.002434   0.021209
     H   16   0.434956   0.000032   0.000032   0.000174   0.460769   0.050452
     H   17   0.446283   0.000076   0.000016   0.000234   0.409843   0.031350
     H   18   0.002112   0.000074   0.000646   0.001499   0.031581   0.410383
     H   19   0.000534   0.000108   0.001051   0.001527   0.049400   0.460713
     H   20   0.000040   0.439363   0.451271   0.014070   0.000053   0.000150
     H   21   0.000047   0.446642   0.425883   0.030067   0.000061   0.000190
     H   22   0.000114   0.006203   0.439443   0.040135   0.000337   0.000935
     H   23   0.000047   0.001364   0.439539   0.039881   0.000153   0.000468
     H   24   4.750922   0.000043   0.000031   0.000163   0.052392   0.006940
     H   25   4.725308   0.000025   0.000035   0.000100   0.027246   0.001950
     H   26   4.746801   0.000032   0.000058   0.000136   0.016014   0.002381
     H   27   0.000035   4.755021   0.055082   0.005891   0.000057   0.000184
     H   28   0.000051   4.725533   0.026098   0.001949   0.000049   0.000169
     H   29   0.000041   4.749580   0.015686   0.002550   0.000043   0.000179
     H   30   0.025696   0.000136   0.000337   0.000703   4.761634   0.469189
     H   31   0.008968   0.000116   0.000205   0.001197   0.469192   4.758859
     H   32   0.000171   0.004691   0.429919   5.283680   0.000375   0.001229


                  H 13       H 14       H 15       H 16       H 17       H 18
 ------------------------------------------------------------------------------
     H   13   4.936920
     H   14   0.023764   5.061252
     H   15   0.043391   0.568540   5.072939
     H   16   0.000053   0.000187   0.000157   5.052228
     H   17   0.000080   0.000144   0.000223   0.567144   5.019163
     H   18   0.023746   0.022790   0.046680   0.000777   0.003515   5.007828
     H   19   0.001900   0.046309   0.024824   0.000495   0.000787   0.563024
     H   20   0.000954   0.000359   0.000244   0.000011   0.000024   0.000051
     H   21   0.002991   0.000294   0.000226   0.000013   0.000032   0.000048
     H   22   0.024642   0.002650   0.018751   0.000057   0.000078   0.000520
     H   23   0.026155   0.005114   0.001628   0.000028   0.000038   0.000352
     H   24   0.000039   0.000066   0.000093   0.030237   0.028616   0.000278
     H   25   0.000025   0.000049   0.000046   0.047693   0.023753   0.000151
     H   26   0.000044   0.000039   0.000071   0.024610   0.049356   0.000219
     H   27   0.000300   0.000072   0.000137   0.000009   0.000021   0.000036
     H   28   0.000292   0.000104   0.000156   0.000014   0.000030   0.000033
     H   29   0.000158   0.000048   0.000238   0.000013   0.000026   0.000056
     H   30   0.000203   0.000611   0.000517   0.039284   0.017606   0.009838
     H   31   0.000702   0.022461   0.002608   0.030073   0.009940   0.018231
     H   32   0.005402   0.004118   0.002209   0.000069   0.000092   0.000650


                  H 19       H 20       H 21       H 22       H 23       H 24
 ------------------------------------------------------------------------------
     H   19   5.027686
     H   20   0.000161   5.053573
     H   21   0.000096   0.557845   5.011305
     H   22   0.010373   0.001341   0.000765   5.295494
     H   23   0.000785   0.001269   0.002902   0.527677   5.335579
     H   24   0.000129   0.000012   0.000017   0.000047   0.000020   5.487720
     H   25   0.000199   0.000011   0.000010   0.000042   0.000012   0.573703
     H   26   0.000161   0.000011   0.000012   0.000054   0.000019   0.574499
     H   27   0.000045   0.027570   0.029497   0.000485   0.000169   0.000011
     H   28   0.000076   0.048482   0.022593   0.007784   0.000488   0.000017
     H   29   0.000037   0.025302   0.049017   0.000650   0.000238   0.000014
     H   30   0.030090   0.000047   0.000058   0.000306   0.000151   0.002028
     H   31   0.039026   0.000054   0.000047   0.000327   0.000215   0.001807
     H   32   0.000600   0.005916   0.003691   0.014910   0.014539   0.000045


                  H 25       H 26       H 27       H 28       H 29       H 30
 ------------------------------------------------------------------------------
     H   25   5.470578
     H   26   0.578351   5.484871
     H   27   0.000007   0.000009   5.488399
     H   28   0.000015   0.000019   0.568494   5.464171
     H   29   0.000011   0.000018   0.572181   0.579600   5.487390
     H   30   0.019933   0.002619   0.000046   0.000057   0.000052   5.143227
     H   31   0.000612   0.000500   0.000029   0.000054   0.000062   0.105951
     H   32   0.000050   0.000070   0.001090   0.000510   0.000553   0.000208


                  H 31       H 32
 ------------------------------
     H   31   5.141075
     H   32   0.000493   5.672499


          HEAT OF FORMATION =      14.820113 KCALS/MOLE

          ZERO POINT ENERGY     179.817 KCAL/MOL


           NORMAL COORDINATE ANALYSIS (Total motion = 1 Angstrom)


   Root No.       1         2         3         4         5         6         7         8

                 1 A       2 A       3 A       4 A       5 A       6 A       7 A       8 A   

                  23.5      31.4      45.6      60.5      73.7      90.1     128.2     163.6
  
           1   -0.0040   -0.0063   -0.0083   -0.0073   -0.0015    0.0088   -0.0032   -0.0026
           2   -0.0127    0.0024    0.0023   -0.0211   -0.0078   -0.0009    0.0068    0.0058
           3    0.0042    0.0073    0.0106   -0.0040   -0.0030   -0.0091    0.0059    0.0041
           4   -0.0041   -0.0062   -0.0082   -0.0072   -0.0012    0.0085   -0.0024   -0.0024
           5   -0.0221   -0.0089   -0.0200   -0.0099   -0.0266   -0.0240    0.0162    0.0149
           6    0.0096   -0.0037    0.0090   -0.0019   -0.0139    0.0006   -0.0106    0.0001
           7    0.0064    0.0052    0.0134   -0.0153    0.0187    0.0274   -0.0085   -0.0043
           8   -0.0075    0.0080    0.0129   -0.0252    0.0021    0.0084    0.0044    0.0040
           9    0.0094    0.0037   -0.0161    0.0133   -0.0060   -0.0086    0.0018   -0.0124
          10   -0.0069    0.0054   -0.0020   -0.0103    0.0064   -0.0031    0.0064   -0.0003
          11   -0.0275   -0.0096    0.0026    0.0297    0.0115   -0.0120   -0.0202   -0.0020
          12    0.0120   -0.0083    0.0013   -0.0098   -0.0259    0.0028   -0.0063    0.0032
          13    0.0234   -0.0052    0.0165    0.0056   -0.0030   -0.0127    0.0021    0.0041
          14    0.0191    0.0080   -0.0099    0.0085    0.0065    0.0064   -0.0029   -0.0049
          15    0.0029    0.0105   -0.0222    0.0067    0.0098    0.0170   -0.0068   -0.0091
          16   -0.0146    0.0043    0.0010   -0.0036   -0.0019   -0.0090   -0.0040   -0.0000
          17    0.0206   -0.0023   -0.0016   -0.0009    0.0086    0.0087    0.0104    0.0001
          18   -0.0133   -0.0153   -0.0147   -0.0072    0.0334    0.0043    0.0136   -0.0005
          19   -0.0339   -0.0047    0.0022    0.0240   -0.0052    0.0093    0.0128    0.0022
          20    0.0197    0.0245    0.0103   -0.0048   -0.0088    0.0023   -0.0012   -0.0005
          21   -0.0363    0.0337    0.0128    0.0145   -0.0084    0.0103    0.0070    0.0007
          22    0.0432    0.0194   -0.0089    0.0265    0.0032   -0.0225    0.0115    0.0077
          23    0.0116   -0.0152    0.0177    0.0013    0.0028    0.0017   -0.0025    0.0020
          24    0.0079   -0.0243    0.0248    0.0135    0.0072   -0.0093    0.0068    0.0145
          25    0.0108   -0.0071    0.0073   -0.0044   -0.0022    0.0072   -0.0103   -0.0013
          26    0.0051    0.0046   -0.0042   -0.0072   -0.0004    0.0088   -0.0035   -0.0115
          27    0.0040    0.0097   -0.0087    0.0038    0.0035   -0.0003    0.0048   -0.0094
          28    0.0006   -0.0176   -0.0117   -0.0012   -0.0187    0.0013   -0.0131   -0.0046
          29    0.0001   -0.0007   -0.0139   -0.0055   -0.0087    0.0058   -0.0049   -0.0130
          30    0.0003    0.0130    0.0144   -0.0093    0.0053   -0.0063    0.0124    0.0069
          31   -0.0156    0.0038    0.0010   -0.0024   -0.0018   -0.0080   -0.0033   -0.0000
          32    0.0020   -0.0091    0.0006    0.0199    0.0024    0.0112    0.0055    0.0006
          33   -0.0058   -0.0051   -0.0104   -0.0237    0.0215   -0.0260   -0.0220   -0.0009
          34   -0.0064    0.0056   -0.0021   -0.0109    0.0065   -0.0034    0.0069   -0.0002
          35   -0.0121   -0.0027   -0.0001    0.0151    0.0183   -0.0151   -0.0086    0.0006
          36    0.0088   -0.0211   -0.0040   -0.0007   -0.0244    0.0204   -0.0097   -0.0006
          37   -0.0114   -0.0059   -0.0178   -0.0039   -0.0036   -0.0038    0.0081    0.0021
          38   -0.0143    0.0101    0.0233   -0.0340    0.0035    0.0057    0.0098    0.0138
          39   -0.0011    0.0143    0.0242   -0.0139    0.0060   -0.0092    0.0142    0.0135
          40   -0.0082   -0.0156   -0.0228    0.0003   -0.0141   -0.0019    0.0012    0.0028
          41   -0.0234   -0.0122   -0.0326   -0.0158   -0.0413   -0.0336    0.0285    0.0221
          42    0.0092   -0.0040    0.0304    0.0231    0.0155    0.0182   -0.0423   -0.0152
          43    0.0026   -0.0063    0.0014   -0.0120    0.0029    0.0255   -0.0143   -0.0087
          44   -0.0228   -0.0133   -0.0418   -0.0256   -0.0542   -0.0395    0.0400    0.0279
          45    0.0123   -0.0082   -0.0075   -0.0199   -0.0389   -0.0058    0.0068    0.0096
          46   -0.0069    0.0064   -0.0012   -0.0101    0.0055   -0.0003    0.0116   -0.0000
          47    0.0170    0.0220    0.0100   -0.0010   -0.0090    0.0036   -0.0003   -0.0001
          48   -0.0021   -0.0535   -0.0351   -0.0115    0.0674    0.0189    0.0420   -0.0002
          49   -0.0065    0.0099    0.0024   -0.0193   -0.0075   -0.0329   -0.0333   -0.0014
          50    0.0406   -0.0438   -0.0256   -0.0167    0.0476    0.0149    0.0318   -0.0003
          51   -0.0132   -0.0223   -0.0182   -0.0044    0.0401    0.0125    0.0254   -0.0001
          52    0.0005    0.0152   -0.0008   -0.0207    0.0120   -0.0133    0.0168    0.0032
          53   -0.0368   -0.0129    0.0163    0.0572    0.0294   -0.0028   -0.0450   -0.0129
          54    0.0065   -0.0066    0.0153    0.0120   -0.0053    0.0066   -0.0251   -0.0057
          55   -0.0163    0.0041    0.0016   -0.0024    0.0037   -0.0042   -0.0004   -0.0018
          56   -0.0336   -0.0119    0.0092    0.0439    0.0188   -0.0073   -0.0331   -0.0074
          57    0.0198   -0.0027   -0.0143   -0.0431   -0.0500   -0.0116    0.0246    0.0172
          58    0.0175   -0.0343    0.0625   -0.0029   -0.0135   -0.0383    0.0171    0.0042
          59    0.0244   -0.0030    0.0015    0.0160    0.0091    0.0008   -0.0012    0.0085
          60    0.0007    0.0263   -0.0428    0.0037    0.0108    0.0279   -0.0121   -0.0183
          61    0.0242    0.0076   -0.0053    0.0079    0.0017    0.0017   -0.0066    0.0038
          62    0.0314    0.0409   -0.0493    0.0207    0.0127    0.0126   -0.0037   -0.0112
          63    0.0003    0.0227   -0.0489    0.0067    0.0166    0.0420   -0.0230   -0.0072
          64    0.0126    0.0121    0.0265   -0.0205    0.0310    0.0396   -0.0122   -0.0058
          65   -0.0124    0.0025    0.0024   -0.0209   -0.0076   -0.0012    0.0074    0.0054
          66    0.0186   -0.0059   -0.0323    0.0311   -0.0209   -0.0223   -0.0023   -0.0194
          67    0.0032    0.0117    0.0159   -0.0215    0.0302    0.0394   -0.0078   -0.0069
          68   -0.0071    0.0186    0.0393   -0.0420    0.0192    0.0239    0.0040    0.0114
          69    0.0063    0.0078   -0.0190    0.0108    0.0016   -0.0004    0.0026   -0.0163
          70   -0.0330   -0.0044    0.0022    0.0227   -0.0055    0.0078    0.0102    0.0016
          71    0.0328    0.0291    0.0073   -0.0230    0.0017   -0.0004    0.0170    0.0046
          72   -0.0456    0.0296    0.0103    0.0288    0.0048    0.0397    0.0778    0.0159
          73   -0.0392   -0.0088    0.0047    0.0313   -0.0182   -0.0024   -0.0349   -0.0092
          74    0.0235    0.0008   -0.0013   -0.0052    0.0096    0.0078    0.0140    0.0013
          75   -0.0458    0.0704    0.0335    0.0197   -0.0465   -0.0057   -0.0465   -0.0090
          76   -0.0450   -0.0080    0.0009    0.0405    0.0049    0.0376    0.0777    0.0161
          77    0.0020    0.0651    0.0346    0.0109   -0.0517   -0.0056   -0.0438   -0.0078
          78   -0.0358    0.0399    0.0163    0.0123   -0.0167    0.0019   -0.0155   -0.0039
          79    0.0527    0.0227   -0.0055    0.0357    0.0023   -0.0420    0.0314   -0.0662
          80    0.0233   -0.0106    0.0101    0.0154    0.0090    0.0015   -0.0092    0.1066
          81    0.0078   -0.0238    0.0144    0.0160    0.0136    0.0115   -0.0204    0.1861
          82    0.0504    0.0486   -0.0555    0.0361    0.0147    0.0089   -0.0211    0.1914
          83    0.0057   -0.0051    0.0075   -0.0070   -0.0005    0.0046    0.0034   -0.0964
          84    0.0102   -0.0405    0.0460    0.0169    0.0063   -0.0207    0.0119    0.0345
          85    0.0423    0.0064    0.0140    0.0243   -0.0025   -0.0425    0.0322   -0.0981
          86   -0.0001   -0.0484    0.0576   -0.0105   -0.0031   -0.0044   -0.0017    0.0020
          87    0.0096   -0.0362    0.0509    0.0133   -0.0003   -0.0399    0.0399   -0.1570
          88   -0.0244    0.0016    0.0035    0.0060   -0.0091   -0.0128   -0.0141   -0.0000
          89    0.0013   -0.0201    0.0025    0.0369   -0.0145    0.0346    0.0117    0.0001
          90   -0.0139    0.0175   -0.0118   -0.0529    0.0517   -0.0837   -0.0476    0.0003
          91    0.0018    0.0071   -0.0050   -0.0181    0.0131   -0.0009    0.0139   -0.0000
          92   -0.0118    0.0083   -0.0024   -0.0017    0.0363   -0.0390   -0.0131    0.0016
          93    0.0170   -0.0434   -0.0022    0.0280   -0.0563    0.0757    0.0084   -0.0027
          94   -0.0030   -0.0295   -0.0245    0.0050   -0.0381   -0.0103   -0.0169   -0.0058
          95    0.0035   -0.0053   -0.0277    0.0040   -0.0143    0.0054   -0.0103   -0.0230
          96   -0.0041    0.0178    0.0302   -0.0204    0.0107   -0.0066    0.0187    0.0190


   Root No.       9        10        11        12        13        14        15        16

                 9 A      10 A      11 A      12 A      13 A      14 A      15 A      16 A   

                 174.3     194.4     226.6     260.7     310.1     327.8     417.4     441.1
  
           1   -0.0076    0.0127    0.0049    0.0124    0.0072   -0.0113   -0.0016   -0.0105
           2   -0.0045    0.0065   -0.0007   -0.0100    0.0258   -0.0065   -0.0217   -0.0041
           3    0.0057   -0.0098   -0.0099    0.0099    0.0081    0.0143   -0.0169    0.0024
           4   -0.0079    0.0122    0.0035    0.0095    0.0004   -0.0139   -0.0042   -0.0132
           5   -0.0127    0.0172    0.0016    0.0176   -0.0075    0.0200    0.0144    0.0072
           6    0.0158   -0.0119    0.0049   -0.0218    0.0072    0.0167    0.0223   -0.0076
           7   -0.0098    0.0123    0.0141    0.0239    0.0004    0.0009    0.0296    0.0085
           8   -0.0052    0.0052    0.0023   -0.0041    0.0228   -0.0054   -0.0080    0.0048
           9    0.0098   -0.0136   -0.0174    0.0233    0.0027   -0.0202    0.0035    0.0021
          10    0.0001   -0.0046   -0.0113   -0.0112   -0.0018   -0.0012   -0.0106   -0.0158
          11    0.0058    0.0263   -0.0166    0.0077    0.0040    0.0111    0.0106    0.0048
          12    0.0079   -0.0066    0.0168   -0.0143   -0.0022    0.0105    0.0283   -0.0070
          13    0.0054   -0.0095   -0.0104    0.0286   -0.0092    0.0047   -0.0027    0.0018
          14    0.0011   -0.0012    0.0026   -0.0080   -0.0218    0.0137   -0.0050   -0.0078
          15   -0.0043    0.0091    0.0103    0.0048    0.0043    0.0246   -0.0082    0.0043
          16    0.0079    0.0030   -0.0092   -0.0232   -0.0203   -0.0011    0.0097   -0.0093
          17   -0.0046   -0.0109   -0.0036   -0.0118   -0.0068   -0.0012   -0.0013    0.0350
          18   -0.0110   -0.0093   -0.0200   -0.0107    0.0022    0.0093    0.0091   -0.0089
          19   -0.0017   -0.0236    0.0173   -0.0132   -0.0152   -0.0082   -0.0031    0.0392
          20    0.0056    0.0068   -0.0094   -0.0124   -0.0104   -0.0009    0.0026    0.0174
          21    0.0003   -0.0010   -0.0015    0.0024    0.0047    0.0031    0.0021   -0.0075
          22   -0.0119    0.0143    0.0071   -0.0111    0.0118   -0.0050    0.0010    0.0012
          23    0.0059   -0.0089   -0.0050    0.0032   -0.0270    0.0103   -0.0049   -0.0092
          24   -0.0127    0.0174    0.0111   -0.0128    0.0221   -0.0001   -0.0007    0.0058
          25    0.0090   -0.0088   -0.0019    0.0274    0.0028    0.0321   -0.0136    0.0123
          26    0.0077   -0.0103   -0.0080    0.0091    0.0026   -0.0154    0.0093    0.0065
          27   -0.0020    0.0002   -0.0071    0.0180    0.0073   -0.0273    0.0151    0.0008
          28    0.0126   -0.0054    0.0002    0.0003    0.0447    0.0142   -0.0162    0.0061
          29    0.0095   -0.0085   -0.0069   -0.0045    0.0255   -0.0251    0.0081    0.0045
          30   -0.0059    0.0008   -0.0078    0.0197   -0.0050    0.0013   -0.0161   -0.0041
          31    0.0072    0.0033   -0.0105   -0.0209   -0.0160    0.0011    0.0101   -0.0144
          32   -0.0091   -0.0161    0.0202    0.0083    0.0000   -0.0086   -0.0106   -0.0341
          33    0.0050    0.0049    0.0177   -0.0032   -0.0218   -0.0205   -0.0197    0.0190
          34    0.0009   -0.0065   -0.0113   -0.0163   -0.0058   -0.0010   -0.0070   -0.0129
          35    0.0019   -0.0153    0.0291    0.0094    0.0005   -0.0040    0.0036   -0.0310
          36   -0.0072    0.0202    0.0008   -0.0091   -0.0338   -0.0242   -0.0194    0.0020
          37   -0.0170    0.0203   -0.0007    0.0315   -0.0104   -0.0147   -0.0099   -0.0151
          38   -0.0111    0.0117    0.0045   -0.0144    0.0279    0.0035   -0.0367   -0.0055
          39   -0.0051   -0.0008   -0.0079    0.0152    0.0014    0.0202   -0.0349   -0.0020
          40   -0.0151    0.0219    0.0108    0.0319   -0.0258    0.0028    0.0326   -0.0048
          41   -0.0212    0.0191    0.0081    0.0336   -0.0249    0.0320    0.0317    0.0144
          42    0.0322   -0.0067   -0.0060   -0.0434    0.0277   -0.0006    0.0115   -0.0190
          43   -0.0019    0.0101    0.0098   -0.0131    0.0205   -0.0318   -0.0111   -0.0259
          44   -0.0279    0.0180    0.0142    0.0416   -0.0330    0.0381    0.0389    0.0178
          45    0.0036   -0.0121    0.0206   -0.0102   -0.0077    0.0243    0.0417   -0.0043
          46    0.0084    0.0049   -0.0392   -0.0373   -0.0135    0.0177    0.0333    0.0003
          47    0.0036    0.0006    0.0010   -0.0089   -0.0114   -0.0068   -0.0072    0.0337
          48   -0.0237   -0.0261   -0.0493   -0.0258    0.0143    0.0322    0.0365   -0.0005
          49    0.0154    0.0173    0.0093   -0.0196   -0.0401   -0.0232   -0.0143   -0.0065
          50   -0.0150   -0.0213   -0.0376   -0.0317   -0.0016    0.0194    0.0251    0.0494
          51   -0.0146   -0.0151   -0.0299   -0.0145    0.0089    0.0188    0.0201   -0.0070
          52    0.0038   -0.0406    0.0163   -0.0152    0.0068    0.0069    0.0036   -0.0509
          53    0.0176    0.0520   -0.0526   -0.0007    0.0119    0.0112    0.0041    0.0301
          54    0.0210    0.0003   -0.0045   -0.0243    0.0098    0.0145    0.0284   -0.0006
          55    0.0059    0.0171   -0.0422   -0.0179    0.0022    0.0124   -0.0051    0.0112
          56    0.0117    0.0436   -0.0393    0.0034    0.0078    0.0125    0.0069    0.0227
          57   -0.0034   -0.0331    0.0477   -0.0085   -0.0079    0.0218    0.0438   -0.0277
          58    0.0102   -0.0228   -0.0345    0.0514    0.0017   -0.0714    0.0382    0.0033
          59   -0.0046    0.0070    0.0110   -0.0247   -0.0242    0.0310   -0.0170   -0.0124
          60   -0.0017    0.0071    0.0111    0.0102    0.0034    0.0335   -0.0114    0.0073
          61    0.0043   -0.0041    0.0012    0.0197   -0.0138    0.0450   -0.0242    0.0027
          62   -0.0067    0.0109    0.0151   -0.0276   -0.0248    0.0304   -0.0142   -0.0136
          63   -0.0036    0.0146    0.0275   -0.0046   -0.0043    0.0955   -0.0462    0.0079
          64   -0.0110    0.0120    0.0207    0.0289   -0.0023    0.0064    0.0591    0.0231
          65   -0.0044    0.0057   -0.0026   -0.0080    0.0253   -0.0094   -0.0301   -0.0062
          66    0.0285   -0.0362   -0.0366    0.0379   -0.0139   -0.0102   -0.0240    0.0019
          67   -0.0213    0.0261    0.0249    0.0208    0.0057   -0.0229    0.0659    0.0087
          68   -0.0149    0.0153    0.0187   -0.0091    0.0301    0.0114    0.0202    0.0206
          69    0.0009   -0.0026   -0.0106    0.0214    0.0059   -0.0460    0.0311   -0.0014
          70   -0.0052   -0.0243    0.0152   -0.0141   -0.0154   -0.0077   -0.0024    0.0378
          71    0.0713    0.0541   -0.0157   -0.0144   -0.0163    0.0018    0.0131   -0.0399
          72    0.1217    0.0458    0.0418    0.0190    0.0015   -0.0089   -0.0096    0.0094
          73   -0.1125   -0.0842    0.0012   -0.0202   -0.0094   -0.0046   -0.0059    0.0789
          74    0.0117    0.0013   -0.0053   -0.0135   -0.0104   -0.0016    0.0003    0.0335
          75   -0.0757   -0.0277   -0.0179    0.0000    0.0083    0.0065    0.0045   -0.0121
[...]
 TRANSITION DIPOLE   0.0444         C  2 -- H 14         +19.2% ( 45.2%)     96.5%
 TRAVEL (Ang.)       0.2711         C  2 -- H 15         +18.8% ( 44.7%)     96.4%
 REDUCED MASS        0.3106         C  4 -- H 18          +6.0% ( 25.2%)     96.7%
 EFFECTIVE MASS      1.4931
 FORCE CONSTANT      1.5962

 VIBRATION         75   75A           ATOM PAIR      ENERGY CONTRIBUTION    RADIAL
 FREQUENCY          2961.16         C  1 -- H 13         +46.1% ( 69.8%)    100.0%
 TRANSITION DIPOLE   0.0889         C  2 -- H 14         +25.3% ( 51.7%)     97.0%
 TRAVEL (Ang.)       0.2592         C  2 -- H 15         +21.7% ( 47.9%)     96.3%
 REDUCED MASS        0.3389         C  4 -- H 18          +2.1% ( 14.8%)     97.4%
 EFFECTIVE MASS      1.4836
 FORCE CONSTANT      1.7510

 VIBRATION         76   76A           ATOM PAIR      ENERGY CONTRIBUTION    RADIAL
 FREQUENCY          3017.86         C  4 -- H 19         +49.8% ( 69.6%)     97.9%
 TRANSITION DIPOLE   0.0297         C  4 -- H 18         +46.9% ( 67.5%)     97.5%
 TRAVEL (Ang.)       0.2190         C 12 -- H 31          +0.6% (  7.9%)     99.6%
 REDUCED MASS        0.4657         C  4 -- C 12          +0.6% (  7.9%)     31.3%
 EFFECTIVE MASS      1.2779
 FORCE CONSTANT      2.4988

 VIBRATION         77   77A           ATOM PAIR      ENERGY CONTRIBUTION    RADIAL
 FREQUENCY          3024.39         C  5 -- H 20         +57.0% ( 74.5%)     98.4%
 TRANSITION DIPOLE   0.0490         C  5 -- H 21         +41.1% ( 63.3%)     96.5%
 TRAVEL (Ang.)       0.2135         C  5 -- C  8          +0.7% (  8.0%)     26.3%
 REDUCED MASS        0.4893         C  5 -- C  9          +0.6% (  7.9%)     30.2%
 EFFECTIVE MASS      1.2795
 FORCE CONSTANT      2.6371

 VIBRATION         78   78A           ATOM PAIR      ENERGY CONTRIBUTION    RADIAL
 FREQUENCY          3024.44         C  6 -- H 16         +51.2% ( 70.6%)     98.1%
 TRANSITION DIPOLE   0.0374         C  6 -- H 17         +44.7% ( 66.0%)     97.3%
 TRAVEL (Ang.)       0.2199         C 11 -- H 30          +1.5% ( 12.0%)     99.7%
 REDUCED MASS        0.4610         C  6 -- C 11          +0.7% (  8.1%)     29.5%
 EFFECTIVE MASS      1.2846
 FORCE CONSTANT      2.4844

 VIBRATION         79   79A           ATOM PAIR      ENERGY CONTRIBUTION    RADIAL
 FREQUENCY          3033.66         C  2 -- H 15         +49.3% ( 69.2%)     97.9%
 TRANSITION DIPOLE   0.0974         C  2 -- H 14         +44.7% ( 65.9%)     97.4%
 TRAVEL (Ang.)       0.2246         C 12 -- H 31          +2.2% ( 14.5%)    100.0%
 REDUCED MASS        0.4408         C 11 -- H 30          +1.4% ( 11.8%)    100.0%
 EFFECTIVE MASS      1.2769
 FORCE CONSTANT      2.3903

 VIBRATION         80   80A           ATOM PAIR      ENERGY CONTRIBUTION    RADIAL
 FREQUENCY          3035.45         C 12 -- H 31         +64.8% ( 81.3%)    100.0%
 TRANSITION DIPOLE   0.3227         C 11 -- H 30         +29.7% ( 55.0%)    100.0%
 TRAVEL (Ang.)       0.2126         C  2 -- H 15          +1.7% ( 13.1%)     97.7%
 REDUCED MASS        0.4914         C  2 -- H 14          +1.7% ( 13.0%)     97.7%
 EFFECTIVE MASS      1.4321
 FORCE CONSTANT      2.6678

 VIBRATION         81   81A           ATOM PAIR      ENERGY CONTRIBUTION    RADIAL
 FREQUENCY          3037.54         C 11 -- H 30         +64.2% ( 81.5%)    100.0%
 TRANSITION DIPOLE   0.0614         C 12 -- H 31         +29.4% ( 55.1%)     99.9%
 TRAVEL (Ang.)       0.2110         C 11 -- C 12          +2.1% ( 14.8%)     39.9%
 REDUCED MASS        0.4988         C  6 -- H 16          +1.6% ( 13.0%)     99.5%
 EFFECTIVE MASS      1.5761
 FORCE CONSTANT      2.7116

 VIBRATION         82   82A           ATOM PAIR      ENERGY CONTRIBUTION    RADIAL
 FREQUENCY          3045.34         C  3 -- H 22         +58.5% ( 79.5%)     98.0%
 TRANSITION DIPOLE   0.0778         C  3 -- H 23         +37.7% ( 63.8%)     95.5%
 TRAVEL (Ang.)       0.2035         C  3 -- C 10          +1.1% ( 10.9%)      0.6%
 REDUCED MASS        0.5348         C  3 -- C  9          +1.1% ( 10.9%)      0.3%
 EFFECTIVE MASS      1.5369
 FORCE CONSTANT      2.9221

 VIBRATION         83   83A           ATOM PAIR      ENERGY CONTRIBUTION    RADIAL
 FREQUENCY          3080.86         C  8 -- H 28         +63.0% ( 81.9%)     98.6%
 TRANSITION DIPOLE   0.0164         C  8 -- H 29         +31.4% ( 57.8%)     93.3%
 TRAVEL (Ang.)       0.2043         C  8 -- H 27          +4.3% ( 21.3%)     49.8%
 REDUCED MASS        0.5244         C  5 -- C  8          +1.0% ( 10.2%)      0.0%
 EFFECTIVE MASS      1.5014
 FORCE CONSTANT      2.9327

 VIBRATION         84   84A           ATOM PAIR      ENERGY CONTRIBUTION    RADIAL
 FREQUENCY          3081.40         C  7 -- H 25         +64.1% ( 82.6%)     98.7%
 TRANSITION DIPOLE   0.0095         C  7 -- H 26         +28.3% ( 54.8%)     92.1%
 TRAVEL (Ang.)       0.2047         C  7 -- H 24          +6.4% ( 26.1%)     62.4%
 REDUCED MASS        0.5221         C  6 -- C  7          +1.0% ( 10.2%)      0.0%
 EFFECTIVE MASS      1.5012
 FORCE CONSTANT      2.9208

 VIBRATION         85   85A           ATOM PAIR      ENERGY CONTRIBUTION    RADIAL
 FREQUENCY          3086.03         C  7 -- H 24         +58.3% ( 78.7%)     98.3%
 TRANSITION DIPOLE   0.0107         C  7 -- H 26         +36.6% ( 62.4%)     94.6%
 TRAVEL (Ang.)       0.2085         C  7 -- H 25          +3.8% ( 20.1%)     44.7%
 REDUCED MASS        0.5027         C  6 -- C  7          +1.0% ( 10.3%)      0.1%
 EFFECTIVE MASS      1.5042
 FORCE CONSTANT      2.8210

 VIBRATION         86   86A           ATOM PAIR      ENERGY CONTRIBUTION    RADIAL
 FREQUENCY          3087.31         C  8 -- H 27         +60.5% ( 80.2%)     98.5%
 TRANSITION DIPOLE   0.0140         C  8 -- H 29         +32.6% ( 58.9%)     93.5%
 TRAVEL (Ang.)       0.2081         C  8 -- H 28          +5.5% ( 24.2%)     57.1%
 REDUCED MASS        0.5042         C  5 -- C  8          +1.0% ( 10.4%)      0.1%
 EFFECTIVE MASS      1.5052
 FORCE CONSTANT      2.8317

 VIBRATION         87   87A           ATOM PAIR      ENERGY CONTRIBUTION    RADIAL
 FREQUENCY          3100.87         C  3 -- H 23         +60.3% ( 77.2%)     98.2%
 TRANSITION DIPOLE   0.1100         C  3 -- H 22         +37.5% ( 60.8%)     94.9%
 TRAVEL (Ang.)       0.2074         C  3 -- C 10          +0.7% (  8.3%)     97.3%
 REDUCED MASS        0.5053         C  1 -- C  3          +0.7% (  8.3%)     51.1%
 EFFECTIVE MASS      1.2830
 FORCE CONSTANT      2.8627

 VIBRATION         88   88A           ATOM PAIR      ENERGY CONTRIBUTION    RADIAL
 FREQUENCY          3182.34         C  8 -- H 29         +35.4% ( 57.2%)     97.4%
 TRANSITION DIPOLE   0.0206         C  8 -- H 27         +34.3% ( 56.3%)     97.3%
 TRAVEL (Ang.)       0.2541         C  8 -- H 28         +30.1% ( 52.8%)     96.5%
 REDUCED MASS        0.3283         C  5 -- C  8          +0.3% (  5.1%)     99.6%
 EFFECTIVE MASS      1.1357
 FORCE CONSTANT      1.9589

 VIBRATION         89   89A           ATOM PAIR      ENERGY CONTRIBUTION    RADIAL
 FREQUENCY          3183.14         C  7 -- H 26         +34.4% ( 56.4%)     97.3%
 TRANSITION DIPOLE   0.0224         C  7 -- H 24         +34.4% ( 56.4%)     97.3%
 TRAVEL (Ang.)       0.2543         C  7 -- H 25         +30.9% ( 53.5%)     96.7%
 REDUCED MASS        0.3277         C  6 -- C  7          +0.3% (  5.1%)     99.8%
 EFFECTIVE MASS      1.1360
 FORCE CONSTANT      1.9562

 VIBRATION         90   90A           ATOM PAIR      ENERGY CONTRIBUTION    RADIAL
 FREQUENCY          3206.50         C 10 -- H 32         +94.1% ( 99.9%)    100.0%
 TRANSITION DIPOLE   0.4431         C  9 -- C 10          +2.0% ( 14.7%)     64.9%
 TRAVEL (Ang.)       0.1504         C  3 -- C 10          +1.9% ( 14.1%)     99.3%
 REDUCED MASS        0.9294         C  1 -- C 10          +1.8% ( 14.0%)     37.3%
 EFFECTIVE MASS      1.6010
 FORCE CONSTANT      5.6304

      SYMMETRY NUMBER FOR POINT-GROUP C1  =  1


          SYSTEM IS A GROUND STATE



 InChI=1S/C12H20/c1-3-5-6-7-8-12-9-11(4-2)10-12/h5-6,9,12H,3-4,7-8,10H2,1-2H3


          MOLECULE IS NOT LINEAR

          THERE ARE 90 GENUINE VIBRATIONS IN THIS SYSTEM
          THIS THERMODYNAMICS CALCULATION IS LIMITED TO
          MOLECULES WHICH HAVE NO INTERNAL ROTATIONS




                    CALCULATED THERMODYNAMIC PROPERTIES
                                          *
   TEMP. (K)   PARTITION FUNCTION   H.O.F.    ENTHALPY  HEAT CAPACITY ENTROPY
                                   KCAL/MOL   CAL/MOLE    CAL/K/MOL  CAL/K/MOL


 298.00  VIB.     0.1123D+07                  7377.5523    46.3874    52.4408
         ROT.     0.2346D+07                   888.2803     2.9808    32.1293
         INT.     0.2633D+13                  8265.8326    49.3682    84.5701
         TRA.     0.2036D+28                  1480.4672     4.9680    41.1956
         TOT.                       14.820    9746.2998    54.3362   125.7658

 200.00  VIB.     0.1626D+05                  3598.6268    31.3806    37.2622
         ROT.     0.1290D+07                   596.1613     2.9808    30.9407
         INT.     0.2097D+11                  4194.7881    34.3614    68.2029
         TRA.     0.1119D+28                   993.6021     4.9680    39.2145
         TOT.                       10.262    5188.3902    39.3294   107.4174

 210.00  VIB.     0.2550D+05                  3919.0718    32.7166    38.8254
         ROT.     0.1388D+07                   625.9693     2.9808    31.0861
         INT.     0.3539D+11                  4545.0411    35.6974    69.9115
         TRA.     0.1204D+28                  1043.2822     4.9680    39.4569
         TOT.                       10.662    5588.3234    40.6654   109.3684

 220.00  VIB.     0.3978D+05                  4253.1242    34.1022    40.3791
         ROT.     0.1488D+07                   655.7774     2.9808    31.2248
         INT.     0.5919D+11                  4908.9016    37.0830    71.6039
         TRA.     0.1291D+28                  1092.9623     4.9680    39.6880
         TOT.                       11.076    6001.8639    42.0510   111.2919

 230.00  VIB.     0.6176D+05                  4601.2816    35.5375    41.9265
         ROT.     0.1591D+07                   685.5855     2.9808    31.3573
         INT.     0.9824D+11                  5286.8671    38.5183    73.2838
         TRA.     0.1380D+28                  1142.6424     4.9680    39.9088
         TOT.                       11.503    6429.5095    43.4863   113.1926

 240.00  VIB.     0.9548D+05                  4964.0346    37.0210    43.4702
         ROT.     0.1695D+07                   715.3935     2.9808    31.4841
         INT.     0.1619D+12                  5679.4281    40.0018    74.9543
         TRA.     0.1471D+28                  1192.3226     4.9680    40.1203
         TOT.                       11.946    6871.7507    44.9698   115.0746

 250.00  VIB.     0.1471D+06                  5341.8524    38.5499    45.0123
         ROT.     0.1802D+07                   745.2016     2.9808    31.6058
         INT.     0.2651D+12                  6087.0540    41.5307    76.6181
         TRA.     0.1564D+28                  1242.0027     4.9680    40.3231
         TOT.                       12.403    7329.0567    46.4987   116.9412

 260.00  VIB.     0.2257D+06                  5735.1719    40.1206    46.5547
         ROT.     0.1912D+07                   775.0097     2.9808    31.7227
         INT.     0.4315D+12                  6510.1816    43.1014    78.2774
         TRA.     0.1659D+28                  1291.6828     4.9680    40.5179
         TOT.                       12.876    7801.8644    48.0694   118.7954

 270.00  VIB.     0.3454D+06                  6144.3891    41.7287    48.0989
         ROT.     0.2023D+07                   804.8177     2.9808    31.8352
         INT.     0.6988D+12                  6949.2069    44.7095    79.9341
         TRA.     0.1756D+28                  1341.3629     4.9680    40.7054
         TOT.                       13.364    8290.5697    49.6775   120.6396

 280.00  VIB.     0.5273D+06                  6569.8533    43.3692    49.6460
         ROT.     0.2136D+07                   834.6258     2.9808    31.9436
         INT.     0.1126D+13                  7404.4791    46.3500    81.5897
         TRA.     0.1854D+28                  1391.0430     4.9680    40.8861
         TOT.                       13.869    8795.5221    51.3180   122.4758

 290.00  VIB.     0.8029D+06                  7011.8635    45.0370    51.1969
         ROT.     0.2252D+07                   864.4339     2.9808    32.0482
         INT.     0.1808D+13                  7876.2973    48.0178    83.2452
         TRA.     0.1954D+28                  1440.7231     4.9680    41.0604
         TOT.                       14.391    9317.0204    52.9858   124.3056

 300.00  VIB.     0.1220D+07                  7470.6664    46.7268    52.7522
         ROT.     0.2369D+07                   894.2419     2.9808    32.1493
         INT.     0.2892D+13                  8364.9083    49.7077    84.9015
         TRA.     0.2056D+28                  1490.4032     4.9680    41.2289
         TOT.                       14.929    9855.3115    54.6757   126.1304

 310.00  VIB.     0.1852D+07                  7946.4566    48.4336    54.3122
         ROT.     0.2489D+07                   924.0500     2.9808    32.2470
         INT.     0.4608D+13                  8870.5066    51.4144    86.5592
         TRA.     0.2160D+28                  1540.0833     4.9680    41.3918
         TOT.                       15.484   10410.5899    56.3824   127.9509

 320.00  VIB.     0.2805D+07                  8439.3774    50.1521    55.8770
         ROT.     0.2610D+07                   953.8580     2.9808    32.3417
         INT.     0.7322D+13                  9393.2354    53.1329    88.2186
         TRA.     0.2265D+28                  1589.7634     4.9680    41.5495
         TOT.                       16.057   10982.9988    58.1009   129.7681

 330.00  VIB.     0.4244D+07                  8949.5226    51.8777    57.4466
         ROT.     0.2734D+07                   983.6661     2.9808    32.4334
         INT.     0.1160D+14                  9933.1888    54.8585    89.8800
         TRA.     0.2372D+28                  1639.4435     4.9680    41.7024
         TOT.                       16.646   11572.6323    59.8265   131.5824

 340.00  VIB.     0.6415D+07                  9476.9400    53.6058    59.0210
         ROT.     0.2859D+07                  1013.4742     2.9808    32.5224
         INT.     0.1834D+14                 10490.4141    56.5866    91.5434
         TRA.     0.2481D+28                  1689.1236     4.9680    41.8507
         TOT.                       17.253   12179.5378    61.5546   133.3941

 350.00  VIB.     0.9686D+07                 10021.6336    55.3323    60.5998
         ROT.     0.2986D+07                  1043.2822     2.9808    32.6088
         INT.     0.2892D+14                 11064.9158    58.3131    93.2086
         TRA.     0.2591D+28                  1738.8037     4.9680    41.9947
         TOT.                       17.878   12803.7195    63.2811   135.2033

 360.00  VIB.     0.1461D+08                 10583.5680    57.0534    62.1827
         ROT.     0.3115D+07                  1073.0903     2.9808    32.6927
         INT.     0.4552D+14                 11656.6583    60.0342    94.8755
         TRA.     0.2703D+28                  1788.4838     4.9680    42.1347
         TOT.                       18.519   13445.1421    65.0022   137.0101

 370.00  VIB.     0.2203D+08                 11162.6718    58.7656    63.7693
         ROT.     0.3245D+07                  1102.8984     2.9808    32.7744
         INT.     0.7151D+14                 12265.5701    61.7465    96.5437
         TRA.     0.2817D+28                  1838.1639     4.9680    42.2708
         TOT.                       19.178   14103.7341    66.7145   138.8145

 380.00  VIB.     0.3320D+08                 11758.8413    60.4661    65.3591
         ROT.     0.3378D+07                  1132.7064     2.9808    32.8539
         INT.     0.1122D+15                 12891.5478    63.4469    98.2130
         TRA.     0.2932D+28                  1887.8440     4.9680    42.4033
         TOT.                       19.853   14779.3918    68.4149   140.6162

 390.00  VIB.     0.5001D+08                 12371.9446    62.1520    66.9515
         ROT.     0.3512D+07                  1162.5145     2.9808    32.9313
         INT.     0.1756D+15                 13534.4590    65.1328    99.8829
         TRA.     0.3048D+28                  1937.5242     4.9680    42.5323
         TOT.                       20.546   15471.9832    70.1008   142.4152

 400.00  VIB.     0.7529D+08                 13001.8245    63.8210    68.5462
         ROT.     0.3648D+07                  1192.3226     2.9808    33.0068
         INT.     0.2746D+15                 14194.1470    66.8018   101.5530
         TRA.     0.3166D+28                  1987.2043     4.9680    42.6581
         TOT.                       21.255   16181.3513    71.7699   144.2111

   *: NOTE: HEATS OF FORMATION ARE RELATIVE TO THE
            ELEMENTS IN THEIR STANDARD STATE AT 298K
              (=  Standard Enthalpy of Formation).

            Hvib:  Zero-point energy is not included.
                   frequencies of less than zero cm-1 are not included.
            Hrot = (3/2)RT
            Htra = (3/2)RT + pV = (5/2)RT

            Heat capacity is Cp, not Cv

          For more information, see: HTTP://OpenMOPAC.net/Manual/thermochemistry.html


           FORCE CONSTANT IN CARTESIAN COORDINATES (Millidynes/A)

    ATOM   CHEMICAL       X               Y               Z
   NUMBER   SYMBOL  FORCE CONSTANT  FORCE CONSTANT  FORCE CONSTANT

      1       C        9.058873        6.931192        8.410499
      2       C        8.568180        8.242041        8.223144
      3       C        7.385851        8.303992        8.170156
      4       C        9.161193        8.229618        7.964553
      5       C        8.542196        8.539147        8.725129
      6       C        8.974028        8.424715        8.014283
      7       C        8.440267        8.208153        8.205124
      8       C        8.259281        8.266400        8.306726
      9       C        7.406646       12.317848        8.260844
     10       C        4.864431       13.732310        7.780310
     11       C       11.516012       11.306897        4.333748
     12       C       11.525808       11.138408        4.507913
     13       H        1.273402        2.266820        2.679608
     14       H        1.126962        4.181184        1.066745
     15       H        1.202225        2.651310        2.538853
     16       H        1.214030        3.382107        1.801394
     17       H        0.978703        0.736092        4.562782
     18       H        1.118756        2.613568        2.546243
     19       H        1.193763        4.136834        1.041075
     20       H        0.825235        2.102339        3.406862
     21       H        3.787841        0.813473        1.652401
     22       H        2.451269        3.442805        0.650418
     23       H        2.811281        0.789458        2.972860
     24       H        5.370346        0.727891        0.692288
     25       H        1.132194        3.745816        1.904115
     26       H        1.001989        0.762460        5.017444
     27       H        2.658838        1.861214        2.266356
     28       H        0.902853        2.216607        3.644413
     29       H        4.003840        0.845097        1.936464
     30       H        1.517435        3.681733        1.014654
     31       H        1.520211        3.643985        1.049331
     32       H        0.442222        3.569539        2.568383

 **********************
 *                    *
 * JOB ENDED NORMALLY *
 *                    *
 **********************



 TOTAL JOB TIME:            10.18 SECONDS

 == MOPAC DONE ==
