 *******************************************************************************
 **                                                                           **
 **                              MOPAC v23.1.2                                **
 **                                                                           **
 *******************************************************************************
 **          Digital Object Identifier (DOI): 10.5281/zenodo.6511958          **
 **    Visit the DOI location for information on how to cite this program.    **
 *******************************************************************************

                              PM3 CALCULATION RESULTS

 *******************************************************************************
 *  CALCULATION DONE: (MAX THREADS = 1)              Tue Jun  3 16:31:23 2025  *
 *  PM3        - The PM3 Hamiltonian to be used
 *  PRECISE    - TIGHTER CRITERIA TO BE USED
 *  NOSYM      - POINT-GROUP SYMMETRY SET TO C1
 *  THREADS=1  - MULTI-THREADING NOT USED
 *  T=         - A TIME OF 172800.0 SECONDS REQUESTED
 *  DUMP=N     - RESTART FILE WRITTEN EVERY 7200.0 SECONDS REQUESTED
 *******************************************************************************
pm3  precise nosym THREADS=1
 InChI=1S/C10H12/c1-2-3-7-10-8-5-4-6-9-10/h2-6,8-9H,7H2,1H3

   ATOM   CHEMICAL          X               Y               Z
  NUMBER   SYMBOL      (ANGSTROMS)     (ANGSTROMS)     (ANGSTROMS)

     1       C         -0.43930000  *   0.22770000  *  -1.43680000  *
     2       C         -3.36000000  *  -0.37340000  *   1.02840000  *
     3       C          0.79920000  *   0.16350000  *  -0.58360000  *
     4       C         -1.66320000  *   0.41480000  *  -0.58460000  *
     5       C         -2.13990000  *  -0.57400000  *   0.18460000  *
     6       C          1.36070000  *  -1.07670000  *  -0.23530000  *
     7       C          1.37850000  *   1.34440000  *  -0.08940000  *
     8       C          2.49480000  *  -1.13170000  *   0.58110000  *
     9       C          2.51260000  *   1.28480000  *   0.72650000  *
    10       C          3.07110000  *   0.04790000  *   1.06040000  *
    11       H         -0.35510000  *   1.08360000  *  -2.14090000  *
    12       H         -0.54660000  *  -0.69080000  *  -2.05470000  *
    13       H         -4.22840000  *  -0.11910000  *   0.38460000  *
    14       H         -3.18620000  *   0.44700000  *   1.75640000  *
    15       H         -3.58730000  *  -1.30590000  *   1.58600000  *
    16       H         -2.17060000  *   1.37570000  *  -0.60640000  *
    17       H         -1.64100000  *  -1.53900000  *   0.20420000  *
    18       H          0.92040000  *  -1.99890000  *  -0.59370000  *
    19       H          0.95030000  *   2.30850000  *  -0.33490000  *
    20       H          2.92530000  *  -2.08920000  *   0.84440000  *
    21       H          2.95670000  *   2.19740000  *   1.10240000  *
    22       H          3.94820000  *   0.00340000  *   1.69300000  *



          CARTESIAN COORDINATES 

    NO.       ATOM           X           Y           Z

     1         C         -0.4393      0.2277     -1.4368
     2         C         -3.3600     -0.3734      1.0284
     3         C          0.7992      0.1635     -0.5836
     4         C         -1.6632      0.4148     -0.5846
     5         C         -2.1399     -0.5740      0.1846
     6         C          1.3607     -1.0767     -0.2353
     7         C          1.3785      1.3444     -0.0894
     8         C          2.4948     -1.1317      0.5811
     9         C          2.5126      1.2848      0.7265
    10         C          3.0711      0.0479      1.0604
    11         H         -0.3551      1.0836     -2.1409
    12         H         -0.5466     -0.6908     -2.0547
    13         H         -4.2284     -0.1191      0.3846
    14         H         -3.1862      0.4470      1.7564
    15         H         -3.5873     -1.3059      1.5860
    16         H         -2.1706      1.3757     -0.6064
    17         H         -1.6410     -1.5390      0.2042
    18         H          0.9204     -1.9989     -0.5937
    19         H          0.9503      2.3085     -0.3349
    20         H          2.9253     -2.0892      0.8444
    21         H          2.9567      2.1974      1.1024
    22         H          3.9482      0.0034      1.6930

  H: (PM3): J. J. P. STEWART, J. COMP. CHEM. 10, 209 (1989).
  C: (PM3): J. J. P. STEWART, J. COMP. CHEM. 10, 209 (1989).

           Empirical Formula: C10 H12  =    22 atoms



      MOLECULAR POINT GROUP   :   C1  


      RHF CALCULATION, NO. OF DOUBLY OCCUPIED LEVELS = 26


          Geometry optimization using EF

          DIAGONAL MATRIX USED AS START HESSIAN

 CYCLE:     1 TIME:   0.008 TIME LEFT:  2.00D  GRAD.:    66.994 HEAT:  27.54159
 CYCLE:     2 TIME:   0.016 TIME LEFT:  2.00D  GRAD.:    42.255 HEAT:  26.66674
 CYCLE:     3 TIME:   0.012 TIME LEFT:  2.00D  GRAD.:    27.004 HEAT:  26.34198
 CYCLE:     4 TIME:   0.012 TIME LEFT:  2.00D  GRAD.:    14.940 HEAT:  26.20640
 CYCLE:     5 TIME:   0.008 TIME LEFT:  2.00D  GRAD.:    10.082 HEAT:  26.12973
 CYCLE:     6 TIME:   0.008 TIME LEFT:  2.00D  GRAD.:     7.902 HEAT:  26.09458
 CYCLE:     7 TIME:   0.008 TIME LEFT:  2.00D  GRAD.:    13.936 HEAT:  26.09358
 CYCLE:     8 TIME:   0.008 TIME LEFT:  2.00D  GRAD.:    11.745 HEAT:  26.06756
 CYCLE:     9 TIME:   0.008 TIME LEFT:  2.00D  GRAD.:     7.084 HEAT:  26.04548
 CYCLE:    10 TIME:   0.008 TIME LEFT:  2.00D  GRAD.:     7.184 HEAT:  26.03793
 CYCLE:    11 TIME:   0.008 TIME LEFT:  2.00D  GRAD.:     8.724 HEAT:  26.03655
 CYCLE:    12 TIME:   0.008 TIME LEFT:  2.00D  GRAD.:     6.746 HEAT:  26.02599
 CYCLE:    13 TIME:   0.004 TIME LEFT:  2.00D  GRAD.:     6.125 HEAT:  26.02059
 CYCLE:    14 TIME:   0.012 TIME LEFT:  2.00D  GRAD.:     2.937 HEAT:  26.01082
 CYCLE:    15 TIME:   0.008 TIME LEFT:  2.00D  GRAD.:     5.725 HEAT:  26.01274
 CYCLE:    16 TIME:   0.008 TIME LEFT:  2.00D  GRAD.:     2.928 HEAT:  26.00397
 CYCLE:    17 TIME:   0.008 TIME LEFT:  2.00D  GRAD.:     5.332 HEAT:  26.00663
 CYCLE:    18 TIME:   0.008 TIME LEFT:  2.00D  GRAD.:     3.023 HEAT:  26.00083
 CYCLE:    19 TIME:   0.008 TIME LEFT:  2.00D  GRAD.:     6.311 HEAT:  26.00814
 CYCLE:    20 TIME:   0.004 TIME LEFT:  2.00D  GRAD.:     1.837 HEAT:  25.99756
 CYCLE:    21 TIME:   0.008 TIME LEFT:  2.00D  GRAD.:     5.228 HEAT:  26.00302
 CYCLE:    22 TIME:   0.008 TIME LEFT:  2.00D  GRAD.:     2.662 HEAT:  25.99713
 CYCLE:    23 TIME:   0.012 TIME LEFT:  2.00D  GRAD.:     3.395 HEAT:  25.99839
 CYCLE:    24 TIME:   0.008 TIME LEFT:  2.00D  GRAD.:     0.731 HEAT:  25.99476
 CYCLE:    25 TIME:   0.008 TIME LEFT:  2.00D  GRAD.:     1.442 HEAT:  25.99449
 CYCLE:    26 TIME:   0.004 TIME LEFT:  2.00D  GRAD.:     0.977 HEAT:  25.99309
 CYCLE:    27 TIME:   0.008 TIME LEFT:  2.00D  GRAD.:     2.401 HEAT:  25.99046
 CYCLE:    28 TIME:   0.008 TIME LEFT:  2.00D  GRAD.:     2.833 HEAT:  25.98719
 CYCLE:    29 TIME:   0.008 TIME LEFT:  2.00D  GRAD.:     3.237 HEAT:  25.98452
 CYCLE:    30 TIME:   0.008 TIME LEFT:  2.00D  GRAD.:     1.826 HEAT:  25.97840
 CYCLE:    31 TIME:   0.008 TIME LEFT:  2.00D  GRAD.:     2.954 HEAT:  25.97207
 CYCLE:    32 TIME:   0.008 TIME LEFT:  2.00D  GRAD.:     3.696 HEAT:  25.96658
 CYCLE:    33 TIME:   0.008 TIME LEFT:  2.00D  GRAD.:     2.825 HEAT:  25.95890
 CYCLE:    34 TIME:   0.004 TIME LEFT:  2.00D  GRAD.:     2.719 HEAT:  25.94385
 CYCLE:    35 TIME:   0.008 TIME LEFT:  2.00D  GRAD.:     4.931 HEAT:  25.92846
 CYCLE:    36 TIME:   0.008 TIME LEFT:  2.00D  GRAD.:     5.853 HEAT:  25.89934
 CYCLE:    37 TIME:   0.008 TIME LEFT:  2.00D  GRAD.:     6.117 HEAT:  25.83971
 CYCLE:    38 TIME:   0.012 TIME LEFT:  2.00D  GRAD.:     6.762 HEAT:  25.82798
 CYCLE:    39 TIME:   0.004 TIME LEFT:  2.00D  GRAD.:     9.961 HEAT:  25.75839
 CYCLE:    40 TIME:   0.008 TIME LEFT:  2.00D  GRAD.:     8.019 HEAT:  25.70830
 CYCLE:    41 TIME:   0.008 TIME LEFT:  2.00D  GRAD.:     5.874 HEAT:  25.62667
 CYCLE:    42 TIME:   0.008 TIME LEFT:  2.00D  GRAD.:    17.611 HEAT:  25.58746
 CYCLE:    43 TIME:   0.008 TIME LEFT:  2.00D  GRAD.:     9.505 HEAT:  25.46413
 CYCLE:    44 TIME:   0.008 TIME LEFT:  2.00D  GRAD.:     5.604 HEAT:  25.37344
 CYCLE:    45 TIME:   0.008 TIME LEFT:  2.00D  GRAD.:    17.728 HEAT:  25.29459
 CYCLE:    46 TIME:   0.008 TIME LEFT:  2.00D  GRAD.:     9.970 HEAT:  25.21140
 CYCLE:    47 TIME:   0.008 TIME LEFT:  2.00D  GRAD.:     6.044 HEAT:  25.14641
 CYCLE:    48 TIME:   0.008 TIME LEFT:  2.00D  GRAD.:    13.629 HEAT:  25.09213
 CYCLE:    49 TIME:   0.008 TIME LEFT:  2.00D  GRAD.:     5.950 HEAT:  25.02626
 CYCLE:    50 TIME:   0.012 TIME LEFT:  2.00D  GRAD.:     4.517 HEAT:  24.97932
 CYCLE:    51 TIME:   0.004 TIME LEFT:  2.00D  GRAD.:    17.964 HEAT:  24.96529
 CYCLE:    52 TIME:   0.008 TIME LEFT:  2.00D  GRAD.:     4.427 HEAT:  24.87622
 CYCLE:    53 TIME:   0.008 TIME LEFT:  2.00D  GRAD.:     3.772 HEAT:  24.84246
 CYCLE:    54 TIME:   0.008 TIME LEFT:  2.00D  GRAD.:    10.913 HEAT:  24.80690
 CYCLE:    55 TIME:   0.008 TIME LEFT:  2.00D  GRAD.:     5.658 HEAT:  24.76461
 CYCLE:    56 TIME:   0.008 TIME LEFT:  2.00D  GRAD.:     3.006 HEAT:  24.73050
 CYCLE:    57 TIME:   0.008 TIME LEFT:  2.00D  GRAD.:     4.438 HEAT:  24.68554
 CYCLE:    58 TIME:   0.008 TIME LEFT:  2.00D  GRAD.:     6.112 HEAT:  24.65215
 CYCLE:    59 TIME:   0.008 TIME LEFT:  2.00D  GRAD.:     5.377 HEAT:  24.60690
 CYCLE:    60 TIME:   0.008 TIME LEFT:  2.00D  GRAD.:    12.466 HEAT:  24.55041
 CYCLE:    61 TIME:   0.020 TIME LEFT:  2.00D  GRAD.:     6.295 HEAT:  24.47153
 CYCLE:    62 TIME:   0.008 TIME LEFT:  2.00D  GRAD.:     3.771 HEAT:  24.45086
 CYCLE:    63 TIME:   0.008 TIME LEFT:  2.00D  GRAD.:     2.717 HEAT:  24.43490
 CYCLE:    64 TIME:   0.008 TIME LEFT:  2.00D  GRAD.:     2.829 HEAT:  24.42507
 CYCLE:    65 TIME:   0.004 TIME LEFT:  2.00D  GRAD.:     2.760 HEAT:  24.41949
 CYCLE:    66 TIME:   0.008 TIME LEFT:  2.00D  GRAD.:     1.616 HEAT:  24.41430
 CYCLE:    67 TIME:   0.008 TIME LEFT:  2.00D  GRAD.:     1.340 HEAT:  24.40833
 CYCLE:    68 TIME:   0.008 TIME LEFT:  2.00D  GRAD.:     1.216 HEAT:  24.40610
 CYCLE:    69 TIME:   0.008 TIME LEFT:  2.00D  GRAD.:     0.854 HEAT:  24.40413
 CYCLE:    70 TIME:   0.004 TIME LEFT:  2.00D  GRAD.:     0.782 HEAT:  24.40262
 CYCLE:    71 TIME:   0.008 TIME LEFT:  2.00D  GRAD.:     0.685 HEAT:  24.40180
 CYCLE:    72 TIME:   0.008 TIME LEFT:  2.00D  GRAD.:     0.591 HEAT:  24.40108
 CYCLE:    73 TIME:   0.008 TIME LEFT:  2.00D  GRAD.:     0.492 HEAT:  24.40055
 CYCLE:    74 TIME:   0.008 TIME LEFT:  2.00D  GRAD.:     0.468 HEAT:  24.40015
 CYCLE:    75 TIME:   0.008 TIME LEFT:  2.00D  GRAD.:     0.520 HEAT:  24.39968
 CYCLE:    76 TIME:   0.004 TIME LEFT:  2.00D  GRAD.:     0.617 HEAT:  24.39905
 CYCLE:    77 TIME:   0.008 TIME LEFT:  2.00D  GRAD.:     0.520 HEAT:  24.39850
 CYCLE:    78 TIME:   0.008 TIME LEFT:  2.00D  GRAD.:     0.448 HEAT:  24.39794
 CYCLE:    79 TIME:   0.008 TIME LEFT:  2.00D  GRAD.:     0.441 HEAT:  24.39761
 CYCLE:    80 TIME:   0.008 TIME LEFT:  2.00D  GRAD.:     0.461 HEAT:  24.39721
 CYCLE:    81 TIME:   0.008 TIME LEFT:  2.00D  GRAD.:     0.482 HEAT:  24.39676
 CYCLE:    82 TIME:   0.008 TIME LEFT:  2.00D  GRAD.:     0.495 HEAT:  24.39612
 CYCLE:    83 TIME:   0.008 TIME LEFT:  2.00D  GRAD.:     0.497 HEAT:  24.39569
 CYCLE:    84 TIME:   0.004 TIME LEFT:  2.00D  GRAD.:     0.777 HEAT:  24.39463
 CYCLE:    85 TIME:   0.008 TIME LEFT:  2.00D  GRAD.:     0.626 HEAT:  24.39414
 CYCLE:    86 TIME:   0.008 TIME LEFT:  2.00D  GRAD.:     0.735 HEAT:  24.39272
 CYCLE:    87 TIME:   0.008 TIME LEFT:  2.00D  GRAD.:     0.488 HEAT:  24.39222
 CYCLE:    88 TIME:   0.008 TIME LEFT:  2.00D  GRAD.:     0.421 HEAT:  24.39141
 CYCLE:    89 TIME:   0.008 TIME LEFT:  2.00D  GRAD.:     0.575 HEAT:  24.39078
 CYCLE:    90 TIME:   0.008 TIME LEFT:  2.00D  GRAD.:     0.782 HEAT:  24.38958
 CYCLE:    91 TIME:   0.008 TIME LEFT:  2.00D  GRAD.:     0.800 HEAT:  24.38839
 CYCLE:    92 TIME:   0.008 TIME LEFT:  2.00D  GRAD.:     0.828 HEAT:  24.38604
 CYCLE:    93 TIME:   0.008 TIME LEFT:  2.00D  GRAD.:     0.629 HEAT:  24.38501
 CYCLE:    94 TIME:   0.008 TIME LEFT:  2.00D  GRAD.:     0.572 HEAT:  24.38412
 CYCLE:    95 TIME:   0.008 TIME LEFT:  2.00D  GRAD.:     0.463 HEAT:  24.38377
 CYCLE:    96 TIME:   0.008 TIME LEFT:  2.00D  GRAD.:     0.600 HEAT:  24.38291
 CYCLE:    97 TIME:   0.008 TIME LEFT:  2.00D  GRAD.:     0.422 HEAT:  24.38247
 CYCLE:    98 TIME:   0.008 TIME LEFT:  2.00D  GRAD.:     0.604 HEAT:  24.38220
 CYCLE:    99 TIME:   0.008 TIME LEFT:  2.00D  GRAD.:     0.405 HEAT:  24.38182
 CYCLE:   100 TIME:   0.008 TIME LEFT:  2.00D  GRAD.:     0.408 HEAT:  24.38148
 CYCLE:   101 TIME:   0.008 TIME LEFT:  2.00D  GRAD.:     0.425 HEAT:  24.38115
 CYCLE:   102 TIME:   0.012 TIME LEFT:  2.00D  GRAD.:     0.869 HEAT:  24.37956
 CYCLE:   103 TIME:   0.004 TIME LEFT:  2.00D  GRAD.:     0.871 HEAT:  24.37808
 CYCLE:   104 TIME:   0.008 TIME LEFT:  2.00D  GRAD.:     1.747 HEAT:  24.37204
 CYCLE:   105 TIME:   0.008 TIME LEFT:  2.00D  GRAD.:     1.103 HEAT:  24.36861
 CYCLE:   106 TIME:   0.012 TIME LEFT:  2.00D  GRAD.:     1.261 HEAT:  24.36344
 CYCLE:   107 TIME:   0.008 TIME LEFT:  2.00D  GRAD.:     1.275 HEAT:  24.35977
 CYCLE:   108 TIME:   0.008 TIME LEFT:  2.00D  GRAD.:     2.032 HEAT:  24.35087
 CYCLE:   109 TIME:   0.008 TIME LEFT:  2.00D  GRAD.:     1.973 HEAT:  24.34651
 CYCLE:   110 TIME:   0.008 TIME LEFT:  2.00D  GRAD.:     3.640 HEAT:  24.34486
 CYCLE:   111 TIME:   0.004 TIME LEFT:  2.00D  GRAD.:     3.475 HEAT:  24.33785
 CYCLE:   112 TIME:   0.008 TIME LEFT:  2.00D  GRAD.:     1.293 HEAT:  24.33551
 CYCLE:   113 TIME:   0.012 TIME LEFT:  2.00D  GRAD.:     1.422 HEAT:  24.32975
 CYCLE:   114 TIME:   0.008 TIME LEFT:  2.00D  GRAD.:     1.601 HEAT:  24.32436
 CYCLE:   115 TIME:   0.008 TIME LEFT:  2.00D  GRAD.:     1.953 HEAT:  24.31809
 CYCLE:   116 TIME:   0.008 TIME LEFT:  2.00D  GRAD.:     0.886 HEAT:  24.31475
 CYCLE:   117 TIME:   0.008 TIME LEFT:  2.00D  GRAD.:     0.858 HEAT:  24.31346
 CYCLE:   118 TIME:   0.008 TIME LEFT:  2.00D  GRAD.:     0.692 HEAT:  24.31259
 CYCLE:   119 TIME:   0.008 TIME LEFT:  2.00D  GRAD.:     2.293 HEAT:  24.31433
 CYCLE:   120 TIME:   0.008 TIME LEFT:  2.00D  GRAD.:     1.104 HEAT:  24.31097
 CYCLE:   121 TIME:   0.008 TIME LEFT:  2.00D  GRAD.:     0.604 HEAT:  24.31030
 CYCLE:   122 TIME:   0.008 TIME LEFT:  2.00D  GRAD.:     0.539 HEAT:  24.30978
 CYCLE:   123 TIME:   0.008 TIME LEFT:  2.00D  GRAD.:     3.011 HEAT:  24.31936
 CYCLE:   124 TIME:   0.008 TIME LEFT:  2.00D  GRAD.:     0.670 HEAT:  24.30875
 CYCLE:   125 TIME:   0.008 TIME LEFT:  2.00D  GRAD.:     0.709 HEAT:  24.30850
 CYCLE:   126 TIME:   0.004 TIME LEFT:  2.00D  GRAD.:     0.356 HEAT:  24.30827
 CYCLE:   127 TIME:   0.008 TIME LEFT:  2.00D  GRAD.:     0.260 HEAT:  24.30819
 CYCLE:   128 TIME:   0.008 TIME LEFT:  2.00D  GRAD.:     0.312 HEAT:  24.30804
 CYCLE:   129 TIME:   0.008 TIME LEFT:  2.00D  GRAD.:     0.608 HEAT:  24.30795
 CYCLE:   130 TIME:   0.008 TIME LEFT:  2.00D  GRAD.:     0.470 HEAT:  24.30788
 CYCLE:   131 TIME:   0.008 TIME LEFT:  2.00D  GRAD.:     0.312 HEAT:  24.30774
 CYCLE:   132 TIME:   0.008 TIME LEFT:  2.00D  GRAD.:     0.184 HEAT:  24.30768
 CYCLE:   133 TIME:   0.008 TIME LEFT:  2.00D  GRAD.:     0.279 HEAT:  24.30762
 CYCLE:   134 TIME:   0.008 TIME LEFT:  2.00D  GRAD.:     0.429 HEAT:  24.30760
 CYCLE:   135 TIME:   0.008 TIME LEFT:  2.00D  GRAD.:     0.188 HEAT:  24.30755
 CYCLE:   136 TIME:   0.008 TIME LEFT:  2.00D  GRAD.:     0.080 HEAT:  24.30750
 CYCLE:   137 TIME:   0.012 TIME LEFT:  2.00D  GRAD.:     1.685 HEAT:  24.30963
 CYCLE:   138 TIME:   0.008 TIME LEFT:  2.00D  GRAD.:     0.148 HEAT:  24.30747
 CYCLE:   139 TIME:   0.008 TIME LEFT:  2.00D  GRAD.:     0.091 HEAT:  24.30745
 CYCLE:   140 TIME:   0.008 TIME LEFT:  2.00D  GRAD.:     0.267 HEAT:  24.30749
 CYCLE:   141 TIME:   0.008 TIME LEFT:  2.00D  GRAD.:     0.036 HEAT:  24.30744

     GRADIENT =  0.03602 IS LESS THAN CUTOFF =  0.05000



 -------------------------------------------------------------------------------
 pm3  precise nosym THREADS=1
 InChI=1S/C10H12/c1-2-3-7-10-8-5-4-6-9-10/h2-6,8-9H,7H2,1H3



     GEOMETRY OPTIMISED USING EIGENVECTOR FOLLOWING (EF).     
     SCF FIELD WAS ACHIEVED                                   


                              PM3 CALCULATION
                                                       MOPAC v23.1.2 MacOS
                                                       Tue Jun  3 16:31:24 2025




          FINAL HEAT OF FORMATION =         24.30744 KCAL/MOL =     101.70233 KJ/MOL


          COSMO AREA              =        190.34 SQUARE ANGSTROMS
          COSMO VOLUME            =        187.81 CUBIC ANGSTROMS

          GRADIENT NORM           =          0.03602          =       0.00768 PER ATOM
          IONIZATION POTENTIAL    =          9.529159 EV
          HOMO LUMO ENERGIES (EV) =         -9.529  0.351
          NO. OF FILLED LEVELS    =         26
          MOLECULAR WEIGHT        =        132.2048         POINT GROUP:  C1  

          MOLECULAR DIMENSIONS (Angstroms)

            Atom       Atom       Distance
            H    22    H    13     9.09671
            H    18    H    21     4.43390
            H    15    H    11     4.06274


          SCF CALCULATIONS        =        154

          WALL-CLOCK TIME         =      1.125 SECONDS
          COMPUTATION TIME        =      0.746 SECONDS




   ATOM   CHEMICAL          X               Y               Z
  NUMBER   SYMBOL      (ANGSTROMS)     (ANGSTROMS)     (ANGSTROMS)

     1       C         -0.43820130  *   0.01742073  *  -1.12650533  *
     2       C         -3.78205920  *  -0.28078488  *   0.77817335  *
     3       C          0.88025077  *   0.07963237  *  -0.42181861  *
     4       C         -1.56259294  *   0.24824597  *  -0.17665670  *
     5       C         -2.65390419  *  -0.51801323  *  -0.14903452  *
     6       C          1.56780648  *  -1.09282783  *  -0.10709031  *
     7       C          1.43107627  *   1.31464751  *  -0.07437380  *
     8       C          2.79332956  *  -1.02902794  *   0.54718551  *
     9       C          2.65592381  *   1.37443824  *   0.57950200  *
    10       C          3.33874713  *   0.20302794  *   0.89088928  *
    11       H         -0.47780757  *   0.79685190  *  -1.91508687  *
    12       H         -0.54815235  *  -0.95200460  *  -1.65395076  *
    13       H         -4.70845108  *  -0.09562574  *   0.21783681  *
    14       H         -3.61829116  *   0.57896299  *   1.44153049  *
    15       H         -3.95017151  *  -1.16146226  *   1.41263177  *
    16       H         -1.44397409  *   1.09907909  *   0.50681801  *
    17       H         -2.76233449  *  -1.37263438  *  -0.82874885  *
    18       H          1.14116209  *  -2.06596429  *  -0.37533815  *
    19       H          0.89225938  *   2.23701823  *  -0.31899379  *
    20       H          3.32891420  *  -1.95199374  *   0.79196274  *
    21       H          3.08359786  *   2.34547600  *   0.84919628  *
    22       H          4.30372612  *   0.25138565  *   1.40540782  *

                             CARTESIAN COORDINATES

   1    C       -0.438201304     0.017420728    -1.126505334
   2    C       -3.782059197    -0.280784878     0.778173352
   3    C        0.880250772     0.079632369    -0.421818607
   4    C       -1.562592942     0.248245970    -0.176656704
   5    C       -2.653904186    -0.518013233    -0.149034517
   6    C        1.567806477    -1.092827832    -0.107090313
   7    C        1.431076274     1.314647507    -0.074373796
   8    C        2.793329563    -1.029027943     0.547185508
   9    C        2.655923810     1.374438239     0.579501997
  10    C        3.338747126     0.203027937     0.890889275
  11    H       -0.477807573     0.796851903    -1.915086872
  12    H       -0.548152350    -0.952004596    -1.653950762
  13    H       -4.708451082    -0.095625735     0.217836808
  14    H       -3.618291161     0.578962987     1.441530491
  15    H       -3.950171512    -1.161462258     1.412631775
  16    H       -1.443974087     1.099079091     0.506818006
  17    H       -2.762334492    -1.372634380    -0.828748855
  18    H        1.141162090    -2.065964286    -0.375338155
  19    H        0.892259381     2.237018233    -0.318993795
  20    H        3.328914200    -1.951993736     0.791962737
  21    H        3.083597863     2.345475999     0.849196276
  22    H        4.303726121     0.251385650     1.405407817


           Empirical Formula: C10 H12  =    22 atoms



      MOLECULAR POINT GROUP   :   C1  


                  EIGENVALUES  
 -40.31426 -36.30348 -31.89434 -29.62158 -27.29189 -23.49234 -21.69256 -20.44663
 -19.43002 -17.89691 -16.60113 -15.84496 -15.48118 -15.06050 -14.64990 -14.49181
 -14.09804 -13.40517 -12.92873 -12.75984 -12.48170 -12.37931 -12.17060  -9.75596
  -9.72235  -9.52916   0.35056   0.43497   1.08504   2.81539   3.16363   3.38533
   3.48636   3.52966   3.64580   3.79450   3.86042   4.01892   4.03995   4.18267
   4.30870   4.44632   4.51369   4.55073   5.05824   5.14426   5.28171   5.29151
   5.65034   5.92333   6.17903   6.37319


              NET ATOMIC CHARGES AND DIPOLE CONTRIBUTIONS

  ATOM NO.   TYPE          CHARGE      No. of ELECS.   s-Pop       p-Pop       
    1          C          -0.017205        4.0172     1.13542     2.88178
    2          C          -0.073347        4.0733     1.12498     2.94836
    3          C          -0.074058        4.0741     1.18315     2.89091
    4          C          -0.151534        4.1515     1.19675     2.95479
    5          C          -0.147689        4.1477     1.19328     2.95441
    6          C          -0.096797        4.0968     1.17886     2.91794
    7          C          -0.101635        4.1016     1.17856     2.92308
    8          C          -0.100041        4.1000     1.17895     2.92109
    9          C          -0.099487        4.0995     1.17863     2.92086
   10          C          -0.105879        4.1059     1.17923     2.92664
   11          H           0.060196        0.9398     0.93980
   12          H           0.057137        0.9429     0.94286
   13          H           0.043297        0.9567     0.95670
   14          H           0.041399        0.9586     0.95860
   15          H           0.044266        0.9557     0.95573
   16          H           0.105708        0.8943     0.89429
   17          H           0.098068        0.9019     0.90193
   18          H           0.105802        0.8942     0.89420
   19          H           0.105480        0.8945     0.89452
   20          H           0.101979        0.8980     0.89802
   21          H           0.101936        0.8981     0.89806
   22          H           0.102406        0.8976     0.89759
 DIPOLE           X         Y         Z       TOTAL
 POINT-CHG.    -0.234    -0.015    -0.069     0.244
 HYBRID        -0.009     0.001     0.028     0.029
 SUM           -0.242    -0.014    -0.042     0.246


          ATOMIC ORBITAL ELECTRON POPULATIONS

     Atom    s        px        py        pz   
    1  C   1.13542   0.91128   1.01557   0.95493
    2  C   1.12498   0.96554   1.00627   0.97655
    3  C   1.18315   0.95799   0.94558   0.98734
    4  C   1.19675   0.95598   0.99949   0.99931
    5  C   1.19328   0.96369   0.99362   0.99710
    6  C   1.17886   0.95854   0.96731   0.99209
    7  C   1.17856   0.96384   0.96476   0.99448
    8  C   1.17895   0.96278   0.97014   0.98817
    9  C   1.17863   0.95881   0.97331   0.98874
   10  C   1.17923   0.98701   0.94067   0.99897
   11  H   0.93980
   12  H   0.94286
   13  H   0.95670
   14  H   0.95860
   15  H   0.95573
   16  H   0.89429
   17  H   0.90193
   18  H   0.89420
   19  H   0.89452
   20  H   0.89802
   21  H   0.89806
   22  H   0.89759
 *******************************************************************************
 **                                                                           **
 **                              MOPAC v23.1.2                                **
 **                                                                           **
 *******************************************************************************
 **          Digital Object Identifier (DOI): 10.5281/zenodo.6511958          **
 **    Visit the DOI location for information on how to cite this program.    **
 *******************************************************************************

                              PM3 CALCULATION RESULTS

 *******************************************************************************
 *  CALCULATION DONE: (MAX THREADS = 1)              Tue Jun  3 16:31:24 2025  *
 *  PM3        - The PM3 Hamiltonian to be used
 *  OLDGEO     - PREVIOUS GEOMETRY TO BE USED
 *  PRECISE    - TIGHTER CRITERIA TO BE USED
 *  NOSYM      - POINT-GROUP SYMMETRY SET TO C1
 *  THREADS=1  - MULTI-THREADING NOT USED
 *  T=         - A TIME OF 172800.0 SECONDS REQUESTED
 *  DUMP=N     - RESTART FILE WRITTEN EVERY 7200.0 SECONDS REQUESTED
 *  THERMO     - THERMODYNAMIC QUANTITIES TO BE CALCULATED
 *******************************************************************************
oldgeo thermo nosym precise THREADS=1  pm3
 InChI=1S/C10H12/c1-2-3-7-10-8-5-4-6-9-10/h2-6,8-9H,7H2,1H3

   ATOM   CHEMICAL          X               Y               Z
  NUMBER   SYMBOL      (ANGSTROMS)     (ANGSTROMS)     (ANGSTROMS)

     1       C         -0.43820130  *   0.01742073  *  -1.12650533  *
     2       C         -3.78205920  *  -0.28078488  *   0.77817335  *
     3       C          0.88025077  *   0.07963237  *  -0.42181861  *
     4       C         -1.56259294  *   0.24824597  *  -0.17665670  *
     5       C         -2.65390419  *  -0.51801323  *  -0.14903452  *
     6       C          1.56780648  *  -1.09282783  *  -0.10709031  *
     7       C          1.43107627  *   1.31464751  *  -0.07437380  *
     8       C          2.79332956  *  -1.02902794  *   0.54718551  *
     9       C          2.65592381  *   1.37443824  *   0.57950200  *
    10       C          3.33874713  *   0.20302794  *   0.89088928  *
    11       H         -0.47780757  *   0.79685190  *  -1.91508687  *
    12       H         -0.54815235  *  -0.95200460  *  -1.65395076  *
    13       H         -4.70845108  *  -0.09562574  *   0.21783681  *
    14       H         -3.61829116  *   0.57896299  *   1.44153049  *
    15       H         -3.95017151  *  -1.16146226  *   1.41263177  *
    16       H         -1.44397409  *   1.09907909  *   0.50681801  *
    17       H         -2.76233449  *  -1.37263438  *  -0.82874885  *
    18       H          1.14116209  *  -2.06596429  *  -0.37533815  *
    19       H          0.89225938  *   2.23701823  *  -0.31899379  *
    20       H          3.32891420  *  -1.95199374  *   0.79196274  *
    21       H          3.08359786  *   2.34547600  *   0.84919628  *
    22       H          4.30372612  *   0.25138565  *   1.40540782  *



          CARTESIAN COORDINATES 

    NO.       ATOM           X           Y           Z

     1         C         -0.4382      0.0174     -1.1265
     2         C         -3.7821     -0.2808      0.7782
     3         C          0.8803      0.0796     -0.4218
     4         C         -1.5626      0.2482     -0.1767
     5         C         -2.6539     -0.5180     -0.1490
     6         C          1.5678     -1.0928     -0.1071
     7         C          1.4311      1.3146     -0.0744
     8         C          2.7933     -1.0290      0.5472
     9         C          2.6559      1.3744      0.5795
    10         C          3.3387      0.2030      0.8909
    11         H         -0.4778      0.7969     -1.9151
    12         H         -0.5482     -0.9520     -1.6540
    13         H         -4.7085     -0.0956      0.2178
    14         H         -3.6183      0.5790      1.4415
    15         H         -3.9502     -1.1615      1.4126
    16         H         -1.4440      1.0991      0.5068
    17         H         -2.7623     -1.3726     -0.8287
    18         H          1.1412     -2.0660     -0.3753
    19         H          0.8923      2.2370     -0.3190
    20         H          3.3289     -1.9520      0.7920
    21         H          3.0836      2.3455      0.8492
    22         H          4.3037      0.2514      1.4054

  H: (PM3): J. J. P. STEWART, J. COMP. CHEM. 10, 209 (1989).
  C: (PM3): J. J. P. STEWART, J. COMP. CHEM. 10, 209 (1989).

           Empirical Formula: C10 H12  =    22 atoms



      MOLECULAR POINT GROUP   :   C1  


      RHF CALCULATION, NO. OF DOUBLY OCCUPIED LEVELS = 26



          HEAT OF FORMATION =      24.307441 KCALS/MOLE


          CARTESIAN COORDINATE DERIVATIVES

   NUMBER  ATOM         X            Y            Z

     1       C      0.002312    -0.000098    -0.004053
     2       C      0.000029    -0.003061     0.001721
     3       C      0.005766    -0.001766    -0.003869
     4       C      0.010196    -0.012359     0.001676
     5       C     -0.011125     0.010702     0.000269
     6       C     -0.003844     0.004233     0.002996
     7       C     -0.007971     0.006855     0.002894
     8       C      0.006035    -0.002146    -0.000228
     9       C     -0.002935    -0.004172     0.002021
    10       C     -0.001847     0.003842     0.006866
    11       H     -0.001268    -0.001982     0.004053
    12       H     -0.000242    -0.000587    -0.002760
    13       H     -0.000634     0.000352     0.007079
    14       H     -0.003877     0.008004    -0.000632
    15       H      0.007487    -0.003752    -0.007857
    16       H      0.000526     0.003045    -0.000505
    17       H     -0.004906    -0.001326    -0.002092
    18       H      0.003879    -0.006524    -0.007898
    19       H     -0.000263     0.003308    -0.001881
    20       H      0.001631     0.000588    -0.001253
    21       H      0.000080    -0.002219     0.001022
    22       H      0.000971    -0.000935     0.002429



          GRADIENT NORM =   0.03695

          MOLECULAR WEIGHT =  132.20



          ROTATIONAL CONSTANTS IN CM(-1)

          A =    0.11117058   B =    0.02076632   C =    0.01972736



           PRINCIPAL MOMENTS OF INERTIA IN UNITS OF 10**(-40)*GRAM-CM**2

          A =      251.8000   B =     1347.9879   C =     1418.9811


          ORIENTATION OF MOLECULE IN FORCE CALCULATION

    NO.       ATOM         X         Y         Z

     1          C       0.0870   -1.4366   -0.0019
     2          C       3.9468   -1.4366   -0.0019
     3          C      -0.7123   -0.1717   -0.0019
     4          C       1.5120   -1.1676    0.3399
     5          C       2.5303   -1.6840   -0.3495
     6          C      -1.0620    0.4416   -1.2052
     7          C      -1.1134    0.4033    1.2055
     8          C      -1.8058    1.6167   -1.1993
     9          C      -1.8565    1.5777    1.2075
    10          C      -2.2039    2.1857    0.0054
    11          H      -0.3280   -2.1411    0.7480
    12          H      -0.0031   -1.9497   -0.9810
    13          H       4.4586   -2.3819    0.2238
    14          H       4.0659   -0.7788    0.8694
    15          H       4.4736   -0.9688   -0.8446
    16          H       1.6808   -0.5147    1.2062
    17          H       2.3548   -2.3286   -1.2201
    18          H      -0.7496   -0.0030   -2.1569
    19          H      -0.8386   -0.0756    2.1521
    20          H      -2.0777    2.0941   -2.1463
    21          H      -2.1689    2.0240    2.1571
    22          H      -2.7897    3.1104    0.0082


    FIRST DERIVATIVES WILL BE USED IN THE CALCULATION OF SECOND DERIVATIVES

          ESTIMATED TIME TO COMPLETE CALCULATION =        2.06 SECONDS

    FOR POINT-GROUP C1   THERE ARE   1 UNIQUE SYMMETRY FUNCTIONS.

 STEP:   1 TIME =     0.02 SECS, INTEGRAL =      0.02 TIME LEFT: 172799.97
 STEP:   2 TIME =     0.02 SECS, INTEGRAL =      0.05 TIME LEFT: 172799.95
 STEP:   3 TIME =     0.02 SECS, INTEGRAL =      0.07 TIME LEFT: 172799.92
 STEP:   4 TIME =     0.02 SECS, INTEGRAL =      0.09 TIME LEFT: 172799.90
 STEP:   5 TIME =     0.02 SECS, INTEGRAL =      0.12 TIME LEFT: 172799.88
 STEP:   6 TIME =     0.02 SECS, INTEGRAL =      0.14 TIME LEFT: 172799.85
 STEP:   7 TIME =     0.02 SECS, INTEGRAL =      0.16 TIME LEFT: 172799.83
 STEP:   8 TIME =     0.02 SECS, INTEGRAL =      0.18 TIME LEFT: 172799.81
 STEP:   9 TIME =     0.03 SECS, INTEGRAL =      0.21 TIME LEFT: 172799.78
 STEP:  10 TIME =     0.02 SECS, INTEGRAL =      0.23 TIME LEFT: 172799.76
 STEP:  11 TIME =     0.02 SECS, INTEGRAL =      0.25 TIME LEFT: 172799.74
 STEP:  12 TIME =     0.02 SECS, INTEGRAL =      0.27 TIME LEFT: 172799.72
 STEP:  13 TIME =     0.02 SECS, INTEGRAL =      0.30 TIME LEFT: 172799.70
 STEP:  14 TIME =     0.02 SECS, INTEGRAL =      0.32 TIME LEFT: 172799.67
 STEP:  15 TIME =     0.02 SECS, INTEGRAL =      0.34 TIME LEFT: 172799.65
 STEP:  16 TIME =     0.02 SECS, INTEGRAL =      0.37 TIME LEFT: 172799.62
 STEP:  17 TIME =     0.03 SECS, INTEGRAL =      0.39 TIME LEFT: 172799.60
 STEP:  18 TIME =     0.03 SECS, INTEGRAL =      0.42 TIME LEFT: 172799.57
 STEP:  19 TIME =     0.02 SECS, INTEGRAL =      0.45 TIME LEFT: 172799.55
 STEP:  20 TIME =     0.02 SECS, INTEGRAL =      0.47 TIME LEFT: 172799.52
 STEP:  21 TIME =     0.02 SECS, INTEGRAL =      0.49 TIME LEFT: 172799.50
 STEP:  22 TIME =     0.02 SECS, INTEGRAL =      0.52 TIME LEFT: 172799.48
 STEP:  23 TIME =     0.02 SECS, INTEGRAL =      0.54 TIME LEFT: 172799.45
 STEP:  24 TIME =     0.02 SECS, INTEGRAL =      0.56 TIME LEFT: 172799.43
 STEP:  25 TIME =     0.02 SECS, INTEGRAL =      0.59 TIME LEFT: 172799.41
 STEP:  26 TIME =     0.03 SECS, INTEGRAL =      0.61 TIME LEFT: 172799.38
 STEP:  27 TIME =     0.02 SECS, INTEGRAL =      0.64 TIME LEFT: 172799.36
 STEP:  28 TIME =     0.02 SECS, INTEGRAL =      0.66 TIME LEFT: 172799.34
 STEP:  29 TIME =     0.02 SECS, INTEGRAL =      0.68 TIME LEFT: 172799.32
 STEP:  30 TIME =     0.03 SECS, INTEGRAL =      0.70 TIME LEFT: 172799.29
 STEP:  31 TIME =     0.02 SECS, INTEGRAL =      0.73 TIME LEFT: 172799.27
 STEP:  32 TIME =     0.02 SECS, INTEGRAL =      0.75 TIME LEFT: 172799.24
 STEP:  33 TIME =     0.02 SECS, INTEGRAL =      0.77 TIME LEFT: 172799.22
 STEP:  34 TIME =     0.02 SECS, INTEGRAL =      0.80 TIME LEFT: 172799.20
 STEP:  35 TIME =     0.02 SECS, INTEGRAL =      0.82 TIME LEFT: 172799.18
 STEP:  36 TIME =     0.02 SECS, INTEGRAL =      0.84 TIME LEFT: 172799.15
 STEP:  37 TIME =     0.02 SECS, INTEGRAL =      0.86 TIME LEFT: 172799.13
 STEP:  38 TIME =     0.02 SECS, INTEGRAL =      0.88 TIME LEFT: 172799.11
 STEP:  39 TIME =     0.02 SECS, INTEGRAL =      0.91 TIME LEFT: 172799.09
 STEP:  40 TIME =     0.02 SECS, INTEGRAL =      0.93 TIME LEFT: 172799.06
 STEP:  41 TIME =     0.02 SECS, INTEGRAL =      0.95 TIME LEFT: 172799.04
 STEP:  42 TIME =     0.02 SECS, INTEGRAL =      0.97 TIME LEFT: 172799.02
 STEP:  43 TIME =     0.02 SECS, INTEGRAL =      0.99 TIME LEFT: 172799.00
 STEP:  44 TIME =     0.02 SECS, INTEGRAL =      1.01 TIME LEFT: 172798.98
 STEP:  45 TIME =     0.02 SECS, INTEGRAL =      1.03 TIME LEFT: 172798.96
 STEP:  46 TIME =     0.02 SECS, INTEGRAL =      1.05 TIME LEFT: 172798.94
 STEP:  47 TIME =     0.02 SECS, INTEGRAL =      1.07 TIME LEFT: 172798.92
 STEP:  48 TIME =     0.02 SECS, INTEGRAL =      1.10 TIME LEFT: 172798.89
 STEP:  49 TIME =     0.02 SECS, INTEGRAL =      1.12 TIME LEFT: 172798.87
 STEP:  50 TIME =     0.02 SECS, INTEGRAL =      1.14 TIME LEFT: 172798.85
 STEP:  51 TIME =     0.02 SECS, INTEGRAL =      1.16 TIME LEFT: 172798.83
 STEP:  52 TIME =     0.02 SECS, INTEGRAL =      1.19 TIME LEFT: 172798.80
 STEP:  53 TIME =     0.02 SECS, INTEGRAL =      1.21 TIME LEFT: 172798.78
 STEP:  54 TIME =     0.02 SECS, INTEGRAL =      1.23 TIME LEFT: 172798.76
 STEP:  55 TIME =     0.02 SECS, INTEGRAL =      1.26 TIME LEFT: 172798.73
 STEP:  56 TIME =     0.02 SECS, INTEGRAL =      1.28 TIME LEFT: 172798.71
 STEP:  57 TIME =     0.02 SECS, INTEGRAL =      1.30 TIME LEFT: 172798.69
 STEP:  58 TIME =     0.02 SECS, INTEGRAL =      1.33 TIME LEFT: 172798.66
 STEP:  59 TIME =     0.02 SECS, INTEGRAL =      1.35 TIME LEFT: 172798.64
 STEP:  60 TIME =     0.02 SECS, INTEGRAL =      1.37 TIME LEFT: 172798.62
 STEP:  61 TIME =     0.02 SECS, INTEGRAL =      1.39 TIME LEFT: 172798.60
 STEP:  62 TIME =     0.02 SECS, INTEGRAL =      1.42 TIME LEFT: 172798.57
 STEP:  63 TIME =     0.02 SECS, INTEGRAL =      1.44 TIME LEFT: 172798.55
 STEP:  64 TIME =     0.02 SECS, INTEGRAL =      1.46 TIME LEFT: 172798.53
 STEP:  65 TIME =     0.02 SECS, INTEGRAL =      1.48 TIME LEFT: 172798.51
 STEP:  66 TIME =     0.02 SECS, INTEGRAL =      1.50 TIME LEFT: 172798.49

(To convert to Hartree/Bohr^2, multiply by (10^(-21) x N x a0^2)/(4.184 x 627.51) =  0.0642)


           FORCE MATRIX IN MILLIDYNES/ANGSTROM


                  C  1       C  2       C  3       C  4       C  5       C  6
 ------------------------------------------------------------------------------
     C    1  14.952187
     C    2   0.146680  14.718832
     C    3   4.680171   0.019815  17.519499
     C    4   4.872765   0.849307   0.734067  18.142625
     C    5   0.827289   5.269426   0.040916  10.677828  18.178948
     C    6   0.704336   0.002211   6.790223   0.025149   0.003067  17.329433
     C    7   0.696075   0.001090   6.746211   0.051762   0.004722   2.438240
     C    8   0.096931   0.001070   2.509009   0.014978   0.001883   6.992516
     C    9   0.094710   0.000911   2.506732   0.012876   0.001903   1.855892
     C   10   0.013019   0.000391   1.890977   0.005887   0.000896   2.535045
     H   11   4.396810   0.020941   0.443708   0.415804   0.030486   0.036013
     H   12   4.425488   0.003878   0.444496   0.462096   0.048756   0.052037
     H   13   0.020244   4.703953   0.002320   0.034639   0.439550   0.000289
     H   14   0.002494   4.724793   0.000786   0.041816   0.480667   0.000208
     H   15   0.019529   4.706939   0.003490   0.036277   0.438696   0.000758
     H   16   0.431334   0.085175   0.028539   4.765161   0.467198   0.002057
     H   17   0.083799   0.424433   0.007808   0.470081   4.772802   0.001671
     H   18   0.046937   0.000755   0.449703   0.005107   0.001619   4.827738
     H   19   0.045228   0.000620   0.450131   0.010302   0.002888   0.084515
     H   20   0.008068   0.000278   0.092330   0.001060   0.000263   0.438015
     H   21   0.007921   0.000238   0.092760   0.001104   0.000345   0.010896
     H   22   0.008861   0.000288   0.009128   0.001307   0.000269   0.089528


                  C  7       C  8       C  9       C 10       H 11       H 12
 ------------------------------------------------------------------------------
     C    7  17.338197
     C    8   1.853107  17.275768
     C    9   7.035540   2.530222  17.284390
     C   10   2.533525   7.021509   6.996627  17.254114
     H   11   0.038251   0.011091   0.007407   0.003681   4.979639
     H   12   0.044049   0.002938   0.009266   0.001758   0.558171   5.024125
     H   13   0.000294   0.000103   0.000090   0.000105   0.003437   0.000891
     H   14   0.000207   0.000087   0.000095   0.000068   0.000459   0.000466
     H   15   0.000411   0.000245   0.000187   0.000104   0.002481   0.000309
     H   16   0.007484   0.001036   0.001421   0.001273   0.016135   0.038767
     H   17   0.001104   0.000687   0.000484   0.000241   0.010148   0.030158
     H   18   0.084320   0.437960   0.010927   0.090515   0.003600   0.029847
     H   19   4.828250   0.010944   0.438618   0.091087   0.020681   0.002294
     H   20   0.011029   4.862491   0.090326   0.439096   0.001066   0.000476
     H   21   0.438262   0.089758   4.863207   0.439120   0.000585   0.001341
     H   22   0.088805   0.440271   0.440125   4.867743   0.000779   0.000328


                  H 13       H 14       H 15       H 16       H 17       H 18
 ------------------------------------------------------------------------------
     H   13   5.423190
     H   14   0.565264   5.450707
     H   15   0.576280   0.565244   5.425649
     H   16   0.009670   0.029637   0.009574   5.142824
     H   17   0.023392   0.041969   0.024143   0.105813   5.151363
     H   18   0.000172   0.000180   0.000297   0.000943   0.000957   5.200193
     H   19   0.000160   0.000216   0.000183   0.005560   0.000571   0.007015
     H   20   0.000083   0.000060   0.000115   0.000297   0.000247   0.042286
     H   21   0.000080   0.000062   0.000084   0.000550   0.000165   0.008146
     H   22   0.000083   0.000053   0.000094   0.000336   0.000191   0.007015


                  H 19       H 20       H 21       H 22
 ------------------------------------------------------
     H   19   5.202323
     H   20   0.008156   5.227930
     H   21   0.042284   0.007054   5.228943
     H   22   0.007015   0.041512   0.041202   5.234853


          HEAT OF FORMATION =      24.307441 KCALS/MOLE

          ZERO POINT ENERGY     117.646 KCAL/MOL


           NORMAL COORDINATE ANALYSIS (Total motion = 1 Angstrom)


   Root No.       1         2         3         4         5         6         7         8

                 1 A       2 A       3 A       4 A       5 A       6 A       7 A       8 A   

                  24.0      46.9      97.9     130.8     194.5     264.6     304.7     356.4
  
           1   -0.0048   -0.0174   -0.0094   -0.0003    0.0134    0.0148   -0.0079    0.0004
           2   -0.0070   -0.0230   -0.0141   -0.0011    0.0093    0.0110   -0.0028    0.0009
           3    0.0390    0.0008   -0.0074   -0.0040    0.0059   -0.0067    0.0143   -0.0070
           4   -0.0047   -0.0167   -0.0086    0.0005    0.0157    0.0176   -0.0261   -0.0008
           5    0.0125    0.0381    0.0352    0.0150   -0.0373   -0.0084   -0.0172   -0.0006
           6   -0.0450    0.0036    0.0044    0.0002    0.0134   -0.0397   -0.0030   -0.0012
           7   -0.0016   -0.0053   -0.0155   -0.0105   -0.0257   -0.0029    0.0011   -0.0009
           8   -0.0050   -0.0153   -0.0179   -0.0074   -0.0167   -0.0001   -0.0068   -0.0006
           9    0.0209   -0.0011   -0.0050   -0.0038    0.0076   -0.0199   -0.0215    0.0051
          10    0.0013   -0.0211   -0.0117   -0.0005    0.0144    0.0049   -0.0203   -0.0016
          11    0.0014   -0.0319    0.0112    0.0211    0.0396   -0.0016    0.0597    0.0024
          12    0.0071    0.0239   -0.0162   -0.0194   -0.0149    0.0628    0.0100   -0.0003
          13   -0.0111   -0.0121   -0.0030    0.0025    0.0107   -0.0032   -0.0344   -0.0014
          14    0.0026    0.0379   -0.0083   -0.0327    0.0403    0.0032    0.0354    0.0007
          15   -0.0120   -0.0149    0.0117    0.0254   -0.0218    0.0461    0.0117    0.0014
          16    0.0408   -0.0055   -0.0103   -0.0107   -0.0317   -0.0216    0.0236    0.0536
          17    0.0033   -0.0174   -0.0101   -0.0047   -0.0259    0.0011    0.0047    0.0307
          18    0.0127   -0.0020   -0.0023   -0.0022    0.0044   -0.0146   -0.0199    0.0052
          19   -0.0391    0.0108   -0.0066   -0.0068   -0.0363   -0.0120    0.0333   -0.0515
          20   -0.0105   -0.0033   -0.0180   -0.0083   -0.0181   -0.0153   -0.0117   -0.0313
          21    0.0108   -0.0013   -0.0019   -0.0020    0.0046   -0.0158   -0.0098    0.0027
          22    0.0460    0.0119    0.0140    0.0025    0.0018   -0.0117    0.0125   -0.0490
          23    0.0065   -0.0063    0.0053    0.0037   -0.0052    0.0087   -0.0021   -0.0351
          24   -0.0053   -0.0032    0.0040    0.0016   -0.0008   -0.0011   -0.0012   -0.0023
          25   -0.0345    0.0287    0.0178    0.0064   -0.0032   -0.0003    0.0252    0.0511
          26   -0.0073    0.0079   -0.0027   -0.0001    0.0032   -0.0090   -0.0211    0.0343
          27   -0.0072   -0.0026    0.0042    0.0017   -0.0007   -0.0019    0.0058    0.0014
          28    0.0083    0.0297    0.0315    0.0141    0.0319    0.0124   -0.0039   -0.0001
          29    0.0012    0.0067    0.0109    0.0079    0.0196    0.0122   -0.0326   -0.0016
          30   -0.0151   -0.0035    0.0071    0.0035   -0.0025    0.0051    0.0080   -0.0019
          31    0.0084   -0.0343    0.0030    0.0154    0.0491   -0.0222    0.0063   -0.0003
          32    0.0109   -0.0252   -0.0159   -0.0004    0.0018   -0.0105    0.0181   -0.0120
          33    0.0631   -0.0109   -0.0024    0.0053    0.0189   -0.0475    0.0420   -0.0198
          34   -0.0230   -0.0064   -0.0083   -0.0033    0.0121    0.0649   -0.0010    0.0061
          35   -0.0299   -0.0149   -0.0179   -0.0088   -0.0014    0.0358   -0.0409    0.0154
          36    0.0527   -0.0045   -0.0052    0.0006    0.0115   -0.0251    0.0341   -0.0154
          37    0.0077    0.0018   -0.0159    0.0813   -0.0422    0.0231   -0.0638   -0.0012
          38    0.0162    0.0305    0.0639    0.0229   -0.0734   -0.0090   -0.0431   -0.0010
          39   -0.0581   -0.0702    0.1416   -0.1521   -0.0048   -0.0548   -0.0247   -0.0023
          40    0.0109   -0.0288   -0.0232   -0.0071    0.0304    0.0795    0.0082    0.0015
          41    0.0125   -0.0272    0.1520   -0.0938   -0.0731    0.0097   -0.0377   -0.0006
          42   -0.0471    0.0545   -0.0817    0.0834    0.0383   -0.0628    0.0073   -0.0016
          43   -0.0281   -0.0264    0.0093   -0.0739    0.0624   -0.0336   -0.0162   -0.0024
          44    0.0174    0.1138   -0.0797    0.1686   -0.0396   -0.0326   -0.0253   -0.0012
          45   -0.0570    0.0395   -0.0481    0.0383    0.0417   -0.0859   -0.0011   -0.0025
          46    0.0167   -0.0323   -0.0204   -0.0024    0.0169   -0.0073   -0.0277   -0.0042
          47    0.0077   -0.0941    0.0548    0.0884    0.0288   -0.0237    0.0939    0.0033
          48   -0.0008    0.0730   -0.0471   -0.0696   -0.0077    0.0799   -0.0151   -0.0008
          49   -0.0267   -0.0005    0.0098    0.0074    0.0016   -0.0382   -0.0617   -0.0023
          50   -0.0037    0.1002   -0.0560   -0.1017    0.0691    0.0129    0.0194   -0.0008
          51   -0.0043   -0.0633    0.0447    0.0756   -0.0416    0.0441    0.0282    0.0026
          52    0.0706   -0.0187   -0.0216   -0.0183   -0.0507   -0.0397    0.0410    0.1454
          53    0.0070   -0.0271   -0.0134   -0.0072   -0.0427    0.0014    0.0206    0.0852
          54    0.0208   -0.0018   -0.0044   -0.0035    0.0060   -0.0205   -0.0212    0.0099
          55   -0.0727    0.0106   -0.0151   -0.0113   -0.0596   -0.0206    0.0616   -0.1406
          56   -0.0167   -0.0024   -0.0277   -0.0136   -0.0277   -0.0308   -0.0125   -0.0846
          57    0.0174   -0.0008   -0.0044   -0.0034    0.0064   -0.0210   -0.0180    0.0015
          58    0.0797    0.0120    0.0209    0.0050    0.0098   -0.0194    0.0124   -0.1358
          59    0.0133   -0.0077    0.0141    0.0080   -0.0049    0.0144    0.0149   -0.0930
          60   -0.0116   -0.0039    0.0064    0.0030   -0.0030    0.0039    0.0075   -0.0065
          61   -0.0643    0.0421    0.0278    0.0120    0.0006    0.0021    0.0384    0.1389
          62   -0.0116    0.0179   -0.0005    0.0009    0.0106   -0.0188   -0.0223    0.0936
          63   -0.0150   -0.0029    0.0064    0.0031   -0.0029    0.0035    0.0105    0.0024
          64    0.0121    0.0442    0.0544    0.0280    0.0762    0.0359   -0.0348   -0.0020
          65    0.0037    0.0158    0.0254    0.0166    0.0476    0.0271   -0.0521   -0.0028
          66   -0.0293   -0.0045    0.0119    0.0064   -0.0057    0.0162    0.0186   -0.0047


   Root No.       9        10        11        12        13        14        15        16

                 9 A      10 A      11 A      12 A      13 A      14 A      15 A      16 A   

                 373.4     446.5     538.4     588.4     629.2     659.5     776.1     814.7
  
           1   -0.0030    0.0163    0.0361    0.0321    0.0032   -0.0018   -0.0006   -0.0061
           2   -0.0072    0.0324    0.0257   -0.0479    0.0009   -0.0171   -0.0009   -0.0157
           3    0.0543   -0.0010    0.0079   -0.0029   -0.0129   -0.0057   -0.0055    0.0249
           4    0.0069   -0.0400   -0.0319   -0.0247   -0.0012   -0.0017   -0.0015    0.0052
           5    0.0048    0.0067    0.0053   -0.0005   -0.0003   -0.0003    0.0012    0.0099
           6    0.0091    0.0066    0.0049    0.0003   -0.0005   -0.0008   -0.0003   -0.0085
           7    0.0078    0.0416   -0.0201    0.0249    0.0029    0.0638    0.0402   -0.0015
           8    0.0050    0.0365   -0.0134   -0.0422    0.0005    0.0243    0.0194    0.0052
           9   -0.0362    0.0025   -0.0037    0.0004   -0.0350    0.0036    0.0018   -0.0011
          10    0.0137    0.0070    0.0310    0.0111   -0.0009   -0.0095   -0.0073    0.0068
          11   -0.0192    0.0085    0.0038    0.0146    0.0004    0.0014   -0.0033   -0.0205
          12   -0.0004    0.0074    0.0207    0.0129   -0.0016   -0.0037   -0.0033    0.0204
          13    0.0115   -0.0246   -0.0136   -0.0137   -0.0004   -0.0027   -0.0013    0.0024
          14   -0.0083   -0.0153   -0.0259    0.0024   -0.0006    0.0107    0.0064    0.0140
          15   -0.0133   -0.0172   -0.0236   -0.0096   -0.0004    0.0044    0.0033   -0.0218
          16   -0.0109    0.0050   -0.0151    0.0091    0.0375   -0.0128   -0.0092   -0.0038
          17    0.0176   -0.0084   -0.0069    0.0091   -0.0586   -0.0105   -0.0101    0.0065
          18   -0.0252   -0.0080   -0.0034    0.0326   -0.0629    0.0113    0.0060   -0.0097
          19   -0.0057    0.0045   -0.0129    0.0112   -0.0372   -0.0119   -0.0095   -0.0028
          20   -0.0120   -0.0080   -0.0107    0.0095    0.0590   -0.0104   -0.0096    0.0050
          21   -0.0318    0.0097   -0.0040   -0.0307   -0.0642   -0.0059   -0.0025    0.0006
          22   -0.0228   -0.0162    0.0184   -0.0163    0.0392    0.0224   -0.0129   -0.0054
          23    0.0161   -0.0250    0.0148    0.0003   -0.0632    0.0130   -0.0127    0.0076
          24    0.0050   -0.0076   -0.0005    0.0284    0.0730    0.0098    0.0073   -0.0147
          25    0.0042   -0.0171    0.0211   -0.0147   -0.0401    0.0229   -0.0128   -0.0039
          26   -0.0095   -0.0245    0.0105    0.0007    0.0622    0.0134   -0.0117    0.0040
          27    0.0007    0.0058   -0.0011   -0.0301    0.0717   -0.0094   -0.0077    0.0124
          28    0.0009    0.0426   -0.0229   -0.0173   -0.0026   -0.0213   -0.0285    0.0064
          29    0.0140   -0.0000   -0.0139    0.0543   -0.0003    0.0032   -0.0083   -0.0128
          30    0.0140    0.0004   -0.0004    0.0002    0.0404   -0.0014   -0.0013    0.0009
          31    0.0080   -0.0044    0.0428    0.0442   -0.0110   -0.0216   -0.0245   -0.0818
          32    0.0835    0.0306   -0.0005   -0.0777   -0.0021   -0.0006    0.0272   -0.0730
          33    0.1482   -0.0141   -0.0132   -0.0257   -0.0249   -0.0011    0.0082   -0.0741
          34   -0.0494    0.0181    0.0688    0.0676    0.0213   -0.0162   -0.0234    0.0629
          35   -0.1092    0.0434    0.0411   -0.0304    0.0037   -0.0214   -0.0139    0.0662
          36    0.1145   -0.0079   -0.0045   -0.0163   -0.0175   -0.0020    0.0039   -0.0268
          37    0.0120   -0.0244   -0.0033   -0.0360   -0.0003   -0.0203   -0.0169   -0.0784
          38    0.0099    0.0198    0.0277   -0.0051    0.0004   -0.0125   -0.0091   -0.0348
          39    0.0190    0.0229    0.0296    0.0061   -0.0003   -0.0083   -0.0069    0.0035
          40   -0.0146   -0.0766   -0.0852   -0.0406   -0.0020    0.0133    0.0123   -0.0136
          41    0.0051    0.0120    0.0159   -0.0068    0.0003   -0.0078   -0.0046   -0.0335
          42    0.0124    0.0089    0.0061    0.0079   -0.0008    0.0023    0.0017    0.0275
          43    0.0193   -0.0321   -0.0243   -0.0079   -0.0020    0.0037    0.0015    0.1073
          44    0.0111    0.0197    0.0249    0.0031    0.0001   -0.0075   -0.0056   -0.0012
          45    0.0206    0.0194    0.0212    0.0138   -0.0008   -0.0013   -0.0021    0.0518
          46    0.0365    0.0306    0.0701    0.0046   -0.0061   -0.0276   -0.0196    0.0311
          47   -0.0258    0.0012   -0.0260    0.0477   -0.0011    0.0327    0.0135    0.1096
          48    0.0012    0.0082    0.0348   -0.0117    0.0002   -0.0237   -0.0133   -0.0830
          49    0.0205   -0.0331   -0.0272   -0.0304    0.0006   -0.0031    0.0006    0.0045
          50    0.0008   -0.0128   -0.0077   -0.0150   -0.0005   -0.0075   -0.0082   -0.1075
          51   -0.0208   -0.0161   -0.0329    0.0067   -0.0008    0.0177    0.0135    0.0676
          52   -0.0248   -0.0227   -0.0122    0.0152    0.0157   -0.1840    0.0310   -0.0054
          53    0.0313   -0.0362   -0.0020    0.0479   -0.0316   -0.1103    0.0177    0.0055
          54   -0.0353   -0.0042   -0.0047    0.0165   -0.0825    0.0017    0.0062   -0.0100
          55   -0.0163   -0.0238   -0.0074    0.0165   -0.0226   -0.1872    0.0283    0.0001
          56   -0.0347   -0.0356   -0.0092    0.0484    0.0293   -0.1074    0.0204   -0.0047
          57   -0.0394    0.0039   -0.0049   -0.0126   -0.0831   -0.0042    0.0018   -0.0053
          58   -0.0490   -0.0764    0.0791   -0.0311    0.0247    0.0083    0.1793   -0.0095
          59    0.0213   -0.0562    0.0558   -0.0447   -0.0359   -0.0105    0.0967    0.0284
          60    0.0149   -0.0059    0.0026    0.0097    0.0906    0.0021    0.0075   -0.0036
          61    0.0143   -0.0783    0.0845   -0.0306   -0.0203    0.0054    0.1762   -0.0025
          62   -0.0299   -0.0547    0.0475   -0.0444    0.0361   -0.0068    0.1010    0.0155
          63    0.0135   -0.0003    0.0023   -0.0139    0.0901   -0.0057    0.0014    0.0077
          64    0.0137    0.0963   -0.0640    0.0105   -0.0037   -0.1375    0.1721    0.0158
          65    0.0221    0.0340   -0.0399    0.0717   -0.0007   -0.0704    0.1185   -0.0067
          66    0.0337    0.0016    0.0015    0.0015   -0.0634   -0.0051    0.0042    0.0057


   Root No.      17        18        19        20        21        22        23        24

                17 A      18 A      19 A      20 A      21 A      22 A      23 A      24 A   

                 846.8     880.8     904.1     929.7     957.9     966.0     976.1    1013.7
  
           1   -0.0001   -0.0219   -0.0164   -0.0114    0.0107    0.0088    0.0001    0.0006
           2   -0.0003    0.0458   -0.0013    0.0012    0.0168    0.0053   -0.0003   -0.0024
           3    0.0003    0.0131    0.0277    0.0153   -0.0284    0.0169    0.0009   -0.0011
           4   -0.0001    0.0090    0.0085    0.0069   -0.0049   -0.0276   -0.0006   -0.0005
           5   -0.0000    0.0068   -0.0121   -0.0034    0.0119    0.0185    0.0001   -0.0097
           6    0.0001   -0.0030    0.0073   -0.0006   -0.0074    0.0247    0.0008    0.0079
           7    0.0006   -0.0096   -0.0027   -0.0195   -0.0230   -0.0020    0.0003    0.0137
           8    0.0003    0.0035    0.0010   -0.0094   -0.0091   -0.0022    0.0001    0.0045
           9    0.0003   -0.0002    0.0003    0.0002   -0.0023    0.0013   -0.0001   -0.0010
          10   -0.0002   -0.0070   -0.0005    0.0008    0.0026   -0.0002    0.0001    0.0007
          11    0.0001   -0.0085    0.0022    0.0191   -0.0252   -0.0137    0.0001    0.0005
          12   -0.0003   -0.0016    0.0003   -0.0103    0.0193   -0.0178   -0.0005    0.0003
          13   -0.0000    0.0003   -0.0000   -0.0004    0.0009    0.0049    0.0001    0.0002
          14    0.0000    0.0050   -0.0152    0.0022   -0.0061    0.0020    0.0002    0.0115
          15    0.0001   -0.0066    0.0040   -0.0068    0.0069    0.0028   -0.0002   -0.0095
          16    0.0273    0.0043    0.0068    0.0236    0.0141    0.0018   -0.0381   -0.0214
          17    0.0173   -0.0222    0.0013    0.0128    0.0050    0.0020   -0.0241   -0.0114
          18    0.0012   -0.0014   -0.0055   -0.0047    0.0013   -0.0031   -0.0020    0.0078
          19   -0.0278    0.0045    0.0076    0.0242    0.0137    0.0013    0.0379   -0.0210
          20   -0.0174   -0.0227    0.0005    0.0122    0.0057    0.0010    0.0239   -0.0107
          21   -0.0008   -0.0027   -0.0038   -0.0012    0.0097   -0.0044    0.0010   -0.0050
          22    0.0270    0.0151    0.0000    0.0017    0.0078   -0.0003    0.0378    0.0291
          23    0.0171   -0.0204   -0.0026   -0.0012   -0.0007    0.0014    0.0242    0.0203
          24    0.0007    0.0407    0.0044    0.0032    0.0075   -0.0022    0.0011   -0.0018
          25   -0.0272    0.0175    0.0022    0.0026    0.0054    0.0017   -0.0386    0.0286
          26   -0.0171   -0.0205   -0.0051   -0.0026    0.0014    0.0008   -0.0246    0.0197
          27   -0.0007   -0.0419   -0.0075   -0.0055   -0.0032   -0.0005   -0.0014    0.0052
          28    0.0002   -0.0140   -0.0085   -0.0248   -0.0194   -0.0021    0.0007   -0.0310
          29   -0.0000    0.0394    0.0014   -0.0109   -0.0056   -0.0024    0.0003   -0.0237
          30   -0.0002    0.0007    0.0010    0.0003   -0.0018    0.0010    0.0004   -0.0017
          31   -0.0001   -0.0922   -0.0602    0.0110    0.0269    0.0449    0.0014   -0.0692
          32   -0.0017    0.0513   -0.0643   -0.0514    0.0895   -0.0432   -0.0030    0.0299
          33   -0.0013   -0.0213   -0.0582   -0.0228    0.0507   -0.0102   -0.0007   -0.0091
          34    0.0008   -0.0220    0.0300    0.0066   -0.0150    0.0221   -0.0002    0.0216
          35    0.0014    0.0857    0.0808    0.0479   -0.0678    0.0523    0.0023   -0.0178
          36   -0.0008   -0.0082   -0.0218   -0.0116    0.0203   -0.0095   -0.0004    0.0048
          37   -0.0001   -0.0300    0.0985    0.0295   -0.0759   -0.1283   -0.0011    0.0503
          38   -0.0001   -0.0154    0.0402    0.0119   -0.0285   -0.0622   -0.0007    0.0177
          39   -0.0001   -0.0023    0.0151    0.0114   -0.0104   -0.0811   -0.0017    0.0032
          40    0.0005    0.0148   -0.0100   -0.0178    0.0067    0.1966    0.0043    0.0031
          41    0.0001   -0.0132    0.0261    0.0024   -0.0172   -0.0001    0.0005    0.0130
          42   -0.0001    0.0114   -0.0182   -0.0006    0.0125    0.0009   -0.0003   -0.0098
          43   -0.0005    0.0527   -0.0555    0.0123    0.0490   -0.1320   -0.0045   -0.0534
          44   -0.0001   -0.0026    0.0111    0.0082   -0.0067   -0.0594   -0.0012    0.0009
          45   -0.0003    0.0198   -0.0221    0.0090    0.0176   -0.0849   -0.0025   -0.0205
          46    0.0007    0.0254    0.0292    0.0154   -0.0104    0.0634    0.0007    0.0055
          47    0.0001   -0.0102    0.1164   -0.1157    0.1063   -0.0222   -0.0019    0.0033
          48   -0.0004   -0.0063   -0.0917    0.0884   -0.0772   -0.0249    0.0008   -0.0029
          49    0.0002    0.0132    0.0059   -0.0059   -0.0002    0.1080    0.0025    0.0041
          50    0.0004   -0.0655    0.1676   -0.0764    0.0471   -0.0096   -0.0010   -0.0289
          51   -0.0003    0.0432   -0.1323    0.0528   -0.0323   -0.0111    0.0002    0.0194
          52   -0.1834    0.0431   -0.0272   -0.1023   -0.0467   -0.0119    0.1674    0.0662
          53   -0.1144    0.0125   -0.0121   -0.0598   -0.0390   -0.0011    0.1039    0.0328
          54   -0.0065   -0.0052   -0.0107   -0.0124    0.0020   -0.0062    0.0057    0.0163
          55    0.1845    0.0462   -0.0210   -0.0976   -0.0562   -0.0031   -0.1672    0.0619
          56    0.1136    0.0080   -0.0232   -0.0667   -0.0284   -0.0067   -0.1005    0.0363
          57    0.0040    0.0009   -0.0076   -0.0060    0.0131   -0.0073   -0.0026   -0.0054
          58   -0.1806    0.0179    0.0041   -0.0124   -0.0210   -0.0069   -0.1674   -0.0955
          59   -0.1144   -0.0629    0.0027   -0.0059   -0.0320    0.0064   -0.1033   -0.0733
          60   -0.0060    0.0199    0.0059    0.0049    0.0003    0.0021   -0.0043   -0.0132
          61    0.1810    0.0229    0.0132   -0.0037   -0.0282   -0.0033    0.1696   -0.0990
          62    0.1152   -0.0676   -0.0133   -0.0168   -0.0097   -0.0109    0.1068   -0.0653
          63    0.0056   -0.0195   -0.0005   -0.0011   -0.0091    0.0032    0.0053    0.0032
          64   -0.0004   -0.0692    0.0288    0.1209    0.0773    0.0121   -0.0025    0.1153
          65   -0.0004    0.0044    0.0250    0.0814    0.0557    0.0065   -0.0017    0.0686
          66   -0.0005    0.0012    0.0081    0.0090   -0.0069    0.0067    0.0018    0.0013


   Root No.      25        26        27        28        29        30        31        32

                25 A      26 A      27 A      28 A      29 A      30 A      31 A      32 A   

                1024.8    1038.9    1052.6    1102.1    1111.8    1147.3    1153.1    1154.8
  
           1   -0.0025   -0.0074    0.0022    0.0032   -0.0030   -0.0210   -0.0005   -0.0007
           2   -0.0016    0.0106    0.0179    0.0033    0.0177   -0.0194    0.0035    0.0071
           3    0.0131   -0.0000    0.0020   -0.0031    0.0010   -0.0245    0.0028   -0.0001
           4    0.0031    0.0022    0.0016   -0.0008    0.0028    0.0154    0.0008    0.0014
           5    0.0191    0.0108   -0.0124   -0.0010    0.0011    0.0160   -0.0003    0.0001
           6   -0.0188   -0.0048    0.0049   -0.0012    0.0023    0.0219   -0.0003    0.0002
           7    0.0119   -0.0000   -0.0015   -0.0002    0.0091    0.0014    0.0007   -0.0002
           8    0.0073   -0.0130   -0.0013   -0.0025   -0.0257    0.0027   -0.0005   -0.0019
           9    0.0046   -0.0025    0.0049    0.0088    0.0012    0.0025   -0.0116    0.0043
          10   -0.0058    0.0005   -0.0069   -0.0022   -0.0006    0.0245   -0.0027   -0.0027
          11    0.0084    0.0136   -0.0251   -0.0018   -0.0024    0.0142   -0.0017   -0.0019
          12   -0.0109   -0.0076    0.0105   -0.0017    0.0008    0.0209   -0.0008   -0.0005
          13   -0.0014   -0.0016   -0.0003    0.0008   -0.0020   -0.0142   -0.0009   -0.0015
          14   -0.0265   -0.0164    0.0223    0.0011    0.0015   -0.0124    0.0006    0.0006
          15    0.0248    0.0076   -0.0088    0.0008   -0.0009   -0.0172    0.0003   -0.0001
          16   -0.0097   -0.0023   -0.0016    0.0104   -0.0061    0.0007    0.0030    0.0015
          17   -0.0056    0.0093    0.0043   -0.0143    0.0111   -0.0034   -0.0051   -0.0022
          18   -0.0056    0.0423    0.0147   -0.0099    0.0318   -0.0079    0.0078    0.0163
          19   -0.0089   -0.0006    0.0000   -0.0101   -0.0034   -0.0008   -0.0022    0.0031
          20   -0.0058    0.0111    0.0043    0.0165    0.0098   -0.0016    0.0043   -0.0027
          21   -0.0067   -0.0360   -0.0249   -0.0147   -0.0332    0.0048   -0.0044   -0.0177
          22    0.0094   -0.0041   -0.0000   -0.0021    0.0036    0.0002   -0.0002   -0.0014
          23    0.0061    0.0014   -0.0010    0.0035   -0.0073   -0.0000    0.0000    0.0013
          24   -0.0024   -0.0152   -0.0103   -0.0143    0.0152   -0.0043    0.0077    0.0094
          25    0.0096   -0.0049   -0.0012    0.0031    0.0035   -0.0017   -0.0003   -0.0013
          26    0.0060    0.0002    0.0002   -0.0039   -0.0054    0.0028    0.0003    0.0022
          27   -0.0020    0.0176    0.0056   -0.0156   -0.0152    0.0013   -0.0000   -0.0128
          28   -0.0091    0.0090    0.0016    0.0016    0.0250   -0.0038    0.0015    0.0027
          29   -0.0062   -0.0089   -0.0016   -0.0030   -0.0390    0.0059   -0.0024   -0.0040
          30    0.0015   -0.0010    0.0017    0.0106   -0.0001    0.0013    0.0018   -0.0006
          31    0.1150   -0.1242    0.1514   -0.0110   -0.0326   -0.0108    0.0150   -0.0012
          32   -0.0836    0.0624   -0.0415    0.0145    0.0444   -0.0176   -0.0075    0.0044
          33    0.0002   -0.0154    0.0282   -0.0012    0.0085   -0.0154    0.0011   -0.0019
          34   -0.0636    0.0353   -0.1084    0.0144   -0.0873   -0.1728   -0.0007   -0.0056
          35    0.0699   -0.0119    0.0777   -0.0054    0.0678   -0.0165    0.0115    0.0028
          36   -0.0189    0.0073   -0.0181   -0.0002   -0.0160   -0.0149   -0.0014    0.0018
          37   -0.0960   -0.0458    0.0599    0.0005    0.0048    0.0069    0.0030    0.0040
          38   -0.0325   -0.0168    0.0216    0.0002    0.0016    0.0032    0.0010    0.0014
          39   -0.0019   -0.0065    0.0104    0.0006    0.0002   -0.0074    0.0007    0.0007
          40   -0.0200    0.0172   -0.0207   -0.0077    0.0113    0.1278   -0.0004    0.0026
          41   -0.0269   -0.0104    0.0114   -0.0004    0.0014    0.0091   -0.0001    0.0002
          42    0.0196    0.0091   -0.0096   -0.0009    0.0012    0.0139   -0.0002    0.0001
          43    0.1209    0.0459   -0.0409   -0.0003    0.0012    0.0052    0.0027    0.0035
          44    0.0021   -0.0034    0.0056    0.0005   -0.0003   -0.0083    0.0003    0.0003
          45    0.0479    0.0153   -0.0124    0.0000    0.0004    0.0007    0.0011    0.0014
          46   -0.0278    0.0360   -0.0443   -0.0204    0.0093    0.2039   -0.0019    0.0026
          47   -0.0329   -0.0305    0.0525    0.0020    0.0063   -0.0017    0.0003    0.0013
          48    0.0252    0.0184   -0.0396   -0.0011   -0.0075   -0.0044   -0.0024   -0.0038
          49   -0.0187    0.0147   -0.0289    0.0065   -0.0286   -0.1961    0.0020   -0.0042
          50    0.0726    0.0299   -0.0378   -0.0005   -0.0003    0.0063   -0.0008   -0.0008
          51   -0.0445   -0.0302    0.0422    0.0007    0.0064    0.0075    0.0007    0.0016
          52    0.0254    0.0139    0.0089    0.0768   -0.0924    0.0181   -0.0140    0.0937
          53    0.0271   -0.0515   -0.0260   -0.1320    0.1403   -0.0218    0.0231   -0.1602
          54   -0.0097    0.0776    0.0324    0.0653   -0.0535    0.0053   -0.0113    0.1221
          55    0.0344    0.0107    0.0222   -0.0957   -0.0803    0.0096    0.0619    0.0795
          56    0.0114   -0.0442   -0.0427    0.1508    0.1180   -0.0068   -0.0982   -0.1279
          57   -0.0108   -0.0684   -0.0558    0.0759    0.0404   -0.0006   -0.0763   -0.1044
          58   -0.0370    0.0575    0.0299   -0.0482   -0.0409    0.0007    0.0830   -0.1278
          59   -0.0066   -0.0714   -0.0411    0.0758    0.0617   -0.0007   -0.1275    0.1958
          60    0.0043   -0.0694   -0.0392    0.0363    0.0644   -0.0051   -0.0786    0.1454
          61   -0.0210    0.0478    0.0432    0.0452   -0.0366    0.0046   -0.1340   -0.0608
          62   -0.0318   -0.0598   -0.0662   -0.0742    0.0606   -0.0076    0.2194    0.1011
          63    0.0055    0.0631    0.0511    0.0319   -0.0613    0.0088   -0.1464   -0.0813
          64    0.0292    0.0008    0.0003   -0.0040    0.0262   -0.0046   -0.0045    0.0033
          65    0.0180   -0.0157   -0.0032   -0.0076   -0.0417    0.0060   -0.0067   -0.0021
          66    0.0109   -0.0047    0.0060    0.2725   -0.0172    0.0288    0.2751   -0.0639


   Root No.      33        34        35        36        37        38        39        40

                33 A      34 A      35 A      36 A      37 A      38 A      39 A      40 A   

                1191.9    1197.4    1223.7    1243.3    1301.3    1343.0    1382.7    1395.3
  
           1   -0.0090   -0.0224    0.0033   -0.0047   -0.0411    0.0078    0.0413    0.0329
           2    0.0112   -0.0101    0.0011   -0.0047   -0.0044   -0.0037   -0.0016    0.0103
           3   -0.0047   -0.0190   -0.0060   -0.0062   -0.0087   -0.0061    0.0087    0.0075
           4    0.0191   -0.0202    0.0035    0.0092    0.0012   -0.0014   -0.0337    0.0148
           5    0.0016   -0.0174    0.0006    0.0067    0.0030   -0.0001    0.0020   -0.0096
           6    0.0023   -0.0231    0.0008    0.0092    0.0040   -0.0001    0.0024   -0.0216
           7    0.0061    0.0019    0.0002    0.0011   -0.0167   -0.0076   -0.0162   -0.0067
           8    0.0062    0.0027   -0.0010    0.0006    0.0415    0.0066    0.0180    0.0051
           9   -0.0054    0.0031    0.0171    0.0005   -0.0021    0.0994   -0.0018   -0.0003
          10   -0.0387    0.0086   -0.0078    0.0121    0.0309   -0.0033   -0.0067   -0.0144
          11   -0.0067    0.0129   -0.0004    0.0279    0.0071   -0.0006   -0.0080   -0.0042
          12    0.0011    0.0214   -0.0000    0.0385    0.0142   -0.0024   -0.0132   -0.0064
          13   -0.0347    0.0112   -0.0083   -0.0359    0.0225   -0.0023    0.0004   -0.0139
          14   -0.0013    0.0170   -0.0012   -0.0295   -0.0079    0.0007    0.0095    0.0020
          15   -0.0051    0.0215   -0.0019   -0.0403   -0.0111    0.0012    0.0134    0.0025
          16   -0.0043   -0.0012    0.0099   -0.0010   -0.0112   -0.0473   -0.0052   -0.0015
          17    0.0033   -0.0004   -0.0163    0.0008    0.0138    0.0771    0.0102    0.0038
          18    0.0070    0.0006    0.0106   -0.0014    0.0138   -0.0452   -0.0025   -0.0016
          19   -0.0017   -0.0014   -0.0100    0.0003   -0.0132    0.0440   -0.0080   -0.0027
          20   -0.0000    0.0003    0.0158   -0.0015    0.0181   -0.0668    0.0143    0.0055
          21   -0.0058   -0.0021    0.0121   -0.0009   -0.0081   -0.0441    0.0032    0.0012
          22    0.0002    0.0017    0.0060    0.0002    0.0062    0.0494   -0.0004   -0.0006
          23    0.0001   -0.0026   -0.0088   -0.0004   -0.0114   -0.0758   -0.0001    0.0008
          24    0.0066    0.0001   -0.0089   -0.0002    0.0298   -0.0446    0.0187    0.0066
          25    0.0030   -0.0006   -0.0060   -0.0001    0.0075   -0.0453    0.0041    0.0015
          26   -0.0039    0.0011    0.0097    0.0003   -0.0104    0.0744   -0.0054   -0.0019
          27   -0.0017   -0.0027   -0.0076   -0.0001   -0.0283   -0.0567   -0.0161   -0.0058
          28    0.0038    0.0008    0.0003   -0.0003    0.0151    0.0009    0.0085    0.0031
          29   -0.0064   -0.0013    0.0006    0.0003   -0.0237   -0.0063   -0.0133   -0.0050
          30    0.0018    0.0002   -0.0235    0.0018   -0.0040    0.0970   -0.0018   -0.0002
          31    0.1269    0.0189   -0.0055   -0.0017    0.0699   -0.0435   -0.0559   -0.0414
          32   -0.0282   -0.0151    0.0240   -0.0063   -0.0926    0.0373   -0.0694   -0.0746
          33    0.0313    0.0002    0.0111   -0.0040   -0.0264    0.0084   -0.0952   -0.0982
          34    0.1629   -0.1183    0.0425   -0.0939    0.0824    0.0604   -0.0886   -0.0791
          35   -0.0503   -0.0107   -0.0312    0.0041   -0.1128   -0.0717   -0.0788   -0.0891
          36    0.0117   -0.0101    0.0082   -0.0017    0.0333    0.0269    0.0509    0.0588
          37    0.0747   -0.0082    0.0173    0.0689   -0.0615    0.0102    0.1256   -0.0714
          38    0.0296    0.0009    0.0070    0.0264   -0.0288    0.0050    0.0508    0.0086
          39    0.0114    0.0197    0.0014   -0.0130   -0.0058   -0.0012   -0.0972    0.2242
          40    0.0685   -0.1315    0.0196    0.1402   -0.0339    0.0081    0.0234    0.0959
          41   -0.0002   -0.0085   -0.0001   -0.0017    0.0039   -0.0006   -0.0032   -0.0537
          42    0.0007   -0.0139    0.0001   -0.0007    0.0044   -0.0005   -0.0041    0.0196
          43    0.0745   -0.0088    0.0174    0.0677   -0.0614    0.0100    0.1236   -0.0876
          44    0.0020    0.0191   -0.0008   -0.0205    0.0032   -0.0027   -0.1090    0.1668
          45    0.0324    0.0061    0.0074    0.0223   -0.0299    0.0045    0.0238    0.0272
          46    0.1374    0.2314    0.0128   -0.1817   -0.0563    0.0015    0.0195    0.0036
          47   -0.0137   -0.0033   -0.0017    0.0504    0.0194   -0.0029   -0.0144   -0.0071
          48   -0.0297   -0.0084   -0.0033    0.0640    0.0228   -0.0018   -0.0151   -0.0087
          49    0.0308    0.2673    0.0075    0.2217   -0.0282   -0.0058   -0.0061    0.0151
          50   -0.0152   -0.0110   -0.0037   -0.0579   -0.0052    0.0017    0.0128   -0.0006
          51   -0.0083   -0.0071   -0.0036   -0.0752   -0.0045    0.0010    0.0147   -0.0014
          52    0.0098    0.0010   -0.0792    0.0054    0.0002   -0.0223    0.0043   -0.0006
          53   -0.0053    0.0052    0.1320   -0.0071    0.0093    0.0353   -0.0129   -0.0030
          54    0.0167   -0.0013   -0.0866    0.0041    0.0239   -0.0162    0.0129    0.0026
          55   -0.0215    0.0056    0.0762    0.0004    0.0072    0.0254    0.0032   -0.0006
          56    0.0437   -0.0018   -0.1209    0.0038    0.0004   -0.0393   -0.0101   -0.0029
          57    0.0209   -0.0057   -0.0806    0.0019   -0.0266   -0.0247   -0.0142   -0.0044
          58    0.0100   -0.0037   -0.0582    0.0021    0.0206    0.0171    0.0176    0.0067
          59   -0.0153    0.0060    0.0888   -0.0030   -0.0321   -0.0268   -0.0288   -0.0113
          60   -0.0032    0.0062    0.0582   -0.0021    0.0202   -0.0097    0.0018   -0.0007
          61   -0.0062    0.0037    0.0575   -0.0024    0.0285   -0.0034    0.0162    0.0056
          62    0.0107   -0.0054   -0.0932    0.0041   -0.0431    0.0063   -0.0262   -0.0094
          63   -0.0121    0.0016    0.0613   -0.0026   -0.0108   -0.0120   -0.0053   -0.0021
          64    0.0048    0.0006   -0.0026   -0.0002    0.0171    0.0027    0.0097    0.0036
          65   -0.0066   -0.0016   -0.0016    0.0004   -0.0275   -0.0061   -0.0156   -0.0059
          66   -0.0242    0.0133    0.1133   -0.0027    0.0066    0.0449   -0.0041   -0.0027


   Root No.      41        42        43        44        45        46        47        48

                41 A      42 A      43 A      44 A      45 A      46 A      47 A      48 A   

                1396.9    1407.8    1433.3    1541.9    1605.0    1781.6    1798.8    1888.1
  
           1    0.0075   -0.0136    0.0407   -0.0028    0.0305    0.0011   -0.0103    0.0338
           2    0.0034    0.0455   -0.0187   -0.0001   -0.0377   -0.0005    0.0153    0.0003
           3    0.0019    0.0028    0.0028   -0.0118    0.0006    0.0084    0.0000    0.0017
           4    0.0040    0.0161    0.0623   -0.0002    0.0025   -0.0003    0.0004   -0.0370
           5   -0.0339    0.0082    0.0137    0.0001    0.0002   -0.0001    0.0000   -0.0019
           6    0.0196    0.0098    0.0189    0.0001    0.0006   -0.0001   -0.0001   -0.0031
           7   -0.0012    0.0151   -0.0101   -0.0021   -0.0608    0.0026    0.0490    0.0041
           8    0.0007   -0.0211    0.0106    0.0001    0.0935    0.0022   -0.0763   -0.0025
           9   -0.0000    0.0011    0.0001    0.0779   -0.0002   -0.1399    0.0033    0.0018
          10   -0.0036   -0.0029   -0.0296    0.0012   -0.0030   -0.0010    0.0019   -0.2043
          11   -0.0012   -0.0008    0.0048    0.0009    0.0004   -0.0003   -0.0012    0.0708
          12   -0.0012    0.0038    0.0032    0.0015   -0.0009   -0.0003   -0.0016    0.0925
          13   -0.0035   -0.0006   -0.0340    0.0005   -0.0048    0.0011   -0.0019    0.2070
          14   -0.0002   -0.0028   -0.0075   -0.0004   -0.0000   -0.0002    0.0010   -0.0696
          15    0.0008   -0.0052   -0.0097   -0.0007    0.0006   -0.0002    0.0012   -0.0920
          16   -0.0002    0.0082   -0.0053    0.0323    0.0092    0.0187   -0.0670   -0.0016
          17    0.0006   -0.0136    0.0099   -0.0498   -0.0167   -0.0333    0.1080    0.0027
          18   -0.0003    0.0066   -0.0071   -0.0258    0.0514    0.0735   -0.0460   -0.0022
          19   -0.0004    0.0099   -0.0067   -0.0300    0.0123   -0.0239   -0.0688   -0.0009
          20    0.0009   -0.0157    0.0115    0.0488   -0.0165    0.0342    0.1064    0.0017
          21    0.0002   -0.0072    0.0065   -0.0276   -0.0519    0.0739    0.0435    0.0008
          22   -0.0002    0.0000   -0.0012   -0.0317    0.0333    0.0228    0.0626    0.0008
          23    0.0002    0.0012    0.0012    0.0513   -0.0502   -0.0322   -0.0971   -0.0012
          24    0.0011   -0.0217    0.0148   -0.0255   -0.0485   -0.0764   -0.0357    0.0000
          25    0.0003   -0.0026    0.0012    0.0330    0.0310   -0.0167    0.0624    0.0009
          26   -0.0003    0.0033   -0.0010   -0.0511   -0.0515    0.0299   -0.1005   -0.0014
          27   -0.0009    0.0201   -0.0142   -0.0241    0.0504   -0.0738    0.0374    0.0009
          28    0.0005   -0.0097    0.0069   -0.0020   -0.0295   -0.0038   -0.0270   -0.0003
          29   -0.0008    0.0152   -0.0110   -0.0006    0.0467   -0.0010    0.0426    0.0005
          30   -0.0000    0.0012   -0.0000    0.0746   -0.0023    0.1418   -0.0019   -0.0009
          31   -0.0099    0.0041   -0.0297   -0.0116   -0.0091    0.0165    0.0002    0.0094
          32   -0.0202   -0.1255    0.0287    0.0270    0.0038   -0.0250   -0.0004    0.0090
          33   -0.0258   -0.1270    0.0072    0.0087    0.0129   -0.0090   -0.0051    0.0067
          34   -0.0194   -0.0340   -0.0506    0.0273   -0.0081   -0.0248    0.0025   -0.0426
          35   -0.0242   -0.1549    0.0325   -0.0353    0.0064    0.0341   -0.0029    0.0084
          36    0.0158    0.0944   -0.0147    0.0043   -0.0162   -0.0097    0.0066    0.0059
          37   -0.0847   -0.0157   -0.0767   -0.0003   -0.0003   -0.0000    0.0003   -0.0219
          38   -0.0972   -0.0261   -0.0739   -0.0000   -0.0013    0.0001    0.0001   -0.0005
          39   -0.1604   -0.0683   -0.0779   -0.0002   -0.0004    0.0001    0.0001   -0.0020
          40    0.0222   -0.0860   -0.1738    0.0006   -0.0027    0.0002   -0.0007    0.0475
          41    0.3032    0.0051    0.0196    0.0000    0.0007   -0.0001    0.0000   -0.0077
          42   -0.2333    0.0145    0.0262    0.0001    0.0006   -0.0001    0.0001   -0.0098
          43    0.0469   -0.0170   -0.0777   -0.0002   -0.0011   -0.0000    0.0006   -0.0220
          44    0.2111   -0.0630   -0.0554   -0.0002    0.0001    0.0000    0.0001   -0.0014
          45    0.1568   -0.0478   -0.0946   -0.0001   -0.0014    0.0001    0.0001   -0.0013
          46    0.0006   -0.0110    0.0330    0.0008    0.0099    0.0012   -0.0036    0.0902
          47   -0.0006    0.0071   -0.0047    0.0018   -0.0045   -0.0011   -0.0001    0.0645
          48   -0.0027    0.0006   -0.0009    0.0009   -0.0007   -0.0003   -0.0016    0.0901
          49    0.0032    0.0033    0.0318   -0.0009    0.0018   -0.0001    0.0010   -0.0921
          50   -0.0025   -0.0070   -0.0131   -0.0007    0.0011   -0.0000    0.0004   -0.0628
          51    0.0011   -0.0034   -0.0205   -0.0004   -0.0016   -0.0001    0.0016   -0.0856
          52   -0.0004   -0.0155    0.0089   -0.0156   -0.0538   -0.0266    0.0202    0.0009
          53   -0.0001    0.0276   -0.0187    0.0302    0.0838    0.0401   -0.0338   -0.0018
          54    0.0001   -0.0211    0.0112   -0.0884   -0.0061    0.0328    0.0524    0.0006
          55   -0.0004   -0.0132    0.0081    0.0157   -0.0551    0.0253    0.0210    0.0008
          56   -0.0002    0.0225   -0.0164   -0.0221    0.0853   -0.0410   -0.0304   -0.0014
          57   -0.0006    0.0198   -0.0126   -0.0866    0.0092    0.0294   -0.0562   -0.0012
          58    0.0011   -0.0208    0.0151    0.0148   -0.0471   -0.0272   -0.0124    0.0002
          59   -0.0019    0.0331   -0.0245   -0.0192    0.0727    0.0446    0.0172   -0.0003
          60   -0.0003   -0.0031   -0.0006   -0.0855    0.0337   -0.0333    0.0490    0.0008
          61    0.0009   -0.0205    0.0142   -0.0129   -0.0462    0.0275   -0.0112   -0.0001
          62   -0.0015    0.0323   -0.0228    0.0246    0.0742   -0.0417    0.0202    0.0004
          63   -0.0004    0.0041   -0.0022   -0.0857   -0.0308   -0.0357   -0.0491   -0.0004
          64    0.0006   -0.0114    0.0081    0.0022   -0.0350    0.0002   -0.0317   -0.0004
          65   -0.0010    0.0179   -0.0130    0.0028    0.0552    0.0025    0.0506    0.0005
          66   -0.0006    0.0013   -0.0024   -0.1280    0.0022   -0.0572    0.0005    0.0003


   Root No.      49        50        51        52        53        54        55        56

                49 A      50 A      51 A      52 A      53 A      54 A      55 A      56 A   

                2937.3    3013.8    3037.0    3038.7    3052.1    3052.9    3061.1    3068.4
  
           1    0.0115   -0.0139   -0.0004    0.0009    0.0001   -0.0001    0.0001    0.0000
[...]
 TRANSITION DIPOLE   0.1646         C  2 -- H 14         +15.6% ( 55.6%)      5.3%
 TRAVEL (Ang.)       0.1961         C  2 -- H 15         +12.7% ( 50.3%)      3.1%
 REDUCED MASS        1.2230         C  2 -- H 13         +12.6% ( 50.1%)      3.1%
 EFFECTIVE MASS      7.4162
 FORCE CONSTANT      1.4803

 VIBRATION         44   44A           ATOM PAIR      ENERGY CONTRIBUTION    RADIAL
 FREQUENCY          1541.86         C  6 -- C  8         +12.8% ( 52.5%)    100.0%
 TRANSITION DIPOLE   0.4882         C  7 -- C  9         +12.5% ( 52.1%)     99.9%
 TRAVEL (Ang.)       0.1690         C  3 -- C  6         +11.5% ( 49.9%)     24.0%
 REDUCED MASS        1.5310         C  3 -- C  7         +11.5% ( 49.8%)     27.9%
 EFFECTIVE MASS     10.8803         C  8 -- C 10         +10.8% ( 48.4%)     23.9%
 FORCE CONSTANT      2.1444         C  9 -- C 10         +10.8% ( 48.3%)     22.0%

 VIBRATION         45   45A           ATOM PAIR      ENERGY CONTRIBUTION    RADIAL
 FREQUENCY          1604.98         C  3 -- C  7         +15.1% ( 57.1%)     61.3%
 TRANSITION DIPOLE   0.4740         C  3 -- C  6         +15.0% ( 56.8%)     61.9%
 TRAVEL (Ang.)       0.1451         C  1 -- C  3         +14.1% ( 55.2%)     99.8%
 REDUCED MASS        1.9966         C  9 -- C 10          +9.6% ( 45.5%)     66.7%
 EFFECTIVE MASS     11.0607
 FORCE CONSTANT      3.0303

 VIBRATION         46   46A           ATOM PAIR      ENERGY CONTRIBUTION    RADIAL
 FREQUENCY          1781.59         C  8 -- C 10         +15.5% ( 54.2%)     89.0%
 TRANSITION DIPOLE   0.0599         C  3 -- C  7         +14.9% ( 53.3%)     89.2%
 TRAVEL (Ang.)       0.1244         C  9 -- C 10         +14.9% ( 53.2%)     86.6%
 REDUCED MASS        2.4476         C  3 -- C  6         +14.8% ( 53.0%)     88.2%
 EFFECTIVE MASS     11.8433
 FORCE CONSTANT      4.5773

 VIBRATION         47   47A           ATOM PAIR      ENERGY CONTRIBUTION    RADIAL
 FREQUENCY          1798.81         C  7 -- C  9         +16.6% ( 56.6%)     99.9%
 TRANSITION DIPOLE   0.2564         C  6 -- C  8         +16.3% ( 56.0%)     99.8%
 TRAVEL (Ang.)       0.1283         C  3 -- C  6         +12.0% ( 48.1%)     46.7%
 REDUCED MASS        2.2788         C  3 -- C  7         +11.7% ( 47.5%)     42.4%
 EFFECTIVE MASS     11.8324
 FORCE CONSTANT      4.3444

 VIBRATION         48   48A           ATOM PAIR      ENERGY CONTRIBUTION    RADIAL
 FREQUENCY          1888.13         C  4 -- C  5         +43.9% ( 97.6%)     96.5%
 TRANSITION DIPOLE   0.2129         C  2 -- C  5         +14.4% ( 55.9%)     56.3%
 TRAVEL (Ang.)       0.0815         C  1 -- C  4         +14.1% ( 55.2%)     54.0%
 REDUCED MASS        5.3735         C  5 -- H 17         +13.4% ( 53.8%)      3.4%
 EFFECTIVE MASS     11.7913         C  4 -- H 16         +13.2% ( 53.4%)      3.8%
 FORCE CONSTANT     11.2867

 VIBRATION         49   49A           ATOM PAIR      ENERGY CONTRIBUTION    RADIAL
 FREQUENCY          2937.27         C  1 -- H 11         +53.8% ( 76.2%)     97.0%
 TRANSITION DIPOLE   0.0550         C  1 -- H 12         +43.7% ( 68.7%)     95.9%
 TRAVEL (Ang.)       0.2095         C  1 -- C  4          +1.2% ( 11.4%)      0.1%
 REDUCED MASS        0.5232         C  1 -- C  3          +1.2% ( 11.3%)      0.0%
 EFFECTIVE MASS      1.5505
 FORCE CONSTANT      2.6597

 VIBRATION         50   50A           ATOM PAIR      ENERGY CONTRIBUTION    RADIAL
 FREQUENCY          3013.77         C  1 -- H 12         +54.1% ( 72.5%)     98.2%
 TRANSITION DIPOLE   0.0590         C  1 -- H 11         +43.7% ( 65.2%)     97.0%
 TRAVEL (Ang.)       0.2158         C  1 -- C  4          +0.7% (  8.1%)     29.6%
 REDUCED MASS        0.4803         C  4 -- H 16          +0.7% (  8.1%)     99.5%
 EFFECTIVE MASS      1.2810
 FORCE CONSTANT      2.5705

 VIBRATION         51   51A           ATOM PAIR      ENERGY CONTRIBUTION    RADIAL
 FREQUENCY          3037.05         C  4 -- H 16         +83.6% ( 92.4%)    100.0%
 TRANSITION DIPOLE   0.3353         C  5 -- H 17         +13.5% ( 37.2%)    100.0%
 TRAVEL (Ang.)       0.1784         C  1 -- C  4          +1.1% ( 10.6%)     16.0%
 REDUCED MASS        0.6978         C  4 -- C  5          +1.0% ( 10.1%)     41.0%
 EFFECTIVE MASS      1.4573
 FORCE CONSTANT      3.7922

 VIBRATION         52   52A           ATOM PAIR      ENERGY CONTRIBUTION    RADIAL
 FREQUENCY          3038.74         C  5 -- H 17         +80.8% ( 91.5%)    100.0%
 TRANSITION DIPOLE   0.1281         C  4 -- H 16         +13.0% ( 36.6%)     99.8%
 TRAVEL (Ang.)       0.1819         C  4 -- C  5          +1.9% ( 14.2%)     39.3%
 REDUCED MASS        0.6705         C  2 -- H 14          +1.5% ( 12.4%)     98.2%
 EFFECTIVE MASS      1.5681
 FORCE CONSTANT      3.6477

 VIBRATION         53   53A           ATOM PAIR      ENERGY CONTRIBUTION    RADIAL
 FREQUENCY          3052.12         C  6 -- H 18         +60.9% ( 79.3%)    100.0%
 TRANSITION DIPOLE   0.1758         C  8 -- H 20         +21.2% ( 46.9%)    100.0%
 TRAVEL (Ang.)       0.2279         C  7 -- H 19         +11.9% ( 35.1%)    100.0%
 REDUCED MASS        0.4252         C  9 -- H 21          +1.7% ( 13.2%)     99.8%
 EFFECTIVE MASS      1.4950
 FORCE CONSTANT      2.3338

 VIBRATION         54   54A           ATOM PAIR      ENERGY CONTRIBUTION    RADIAL
 FREQUENCY          3052.93         C  7 -- H 19         +51.0% ( 72.6%)    100.0%
 TRANSITION DIPOLE   0.1989         C  9 -- H 21         +27.1% ( 52.9%)    100.0%
 TRAVEL (Ang.)       0.2543         C 10 -- H 22          +8.2% ( 29.1%)    100.0%
 REDUCED MASS        0.3417         C  8 -- H 20          +6.3% ( 25.6%)    100.0%
 EFFECTIVE MASS      1.5029
 FORCE CONSTANT      1.8762

 VIBRATION         55   55A           ATOM PAIR      ENERGY CONTRIBUTION    RADIAL
 FREQUENCY          3061.10         C 10 -- H 22         +47.6% ( 70.1%)    100.0%
 TRANSITION DIPOLE   0.2890         C  7 -- H 19         +18.1% ( 43.2%)    100.0%
 TRAVEL (Ang.)       0.2735         C  6 -- H 18         +17.3% ( 42.2%)    100.0%
 REDUCED MASS        0.2946         C  8 -- H 20          +8.2% ( 29.0%)     99.8%
 EFFECTIVE MASS      1.5138
 FORCE CONSTANT      1.6263

 VIBRATION         56   56A           ATOM PAIR      ENERGY CONTRIBUTION    RADIAL
 FREQUENCY          3068.43         C  8 -- H 20         +38.1% ( 62.6%)    100.0%
 TRANSITION DIPOLE   0.5575         C  9 -- H 21         +37.8% ( 62.4%)    100.0%
 TRAVEL (Ang.)       0.2675         C  7 -- H 19         +11.0% ( 33.7%)     99.9%
 REDUCED MASS        0.3071         C  6 -- H 18          +9.8% ( 31.8%)     99.9%
 EFFECTIVE MASS      1.5412
 FORCE CONSTANT      1.7035

 VIBRATION         57   57A           ATOM PAIR      ENERGY CONTRIBUTION    RADIAL
 FREQUENCY          3069.76         C  2 -- H 13         +50.8% ( 73.5%)     97.3%
 TRANSITION DIPOLE   0.0192         C  2 -- H 15         +47.3% ( 70.9%)     96.8%
 TRAVEL (Ang.)       0.2076         C  2 -- C  5          +1.0% ( 10.2%)      0.0%
 REDUCED MASS        0.5096         C  2 -- H 14          +1.0% ( 10.1%)      1.0%
 EFFECTIVE MASS      1.5012
 FORCE CONSTANT      2.8293

 VIBRATION         58   58A           ATOM PAIR      ENERGY CONTRIBUTION    RADIAL
 FREQUENCY          3075.68         C  2 -- H 14         +62.4% ( 81.4%)     98.9%
 TRANSITION DIPOLE   0.0617         C  2 -- H 15         +18.7% ( 44.6%)     86.3%
 TRAVEL (Ang.)       0.2145         C  2 -- H 13         +15.7% ( 40.9%)     83.4%
 REDUCED MASS        0.4764         C  5 -- H 17          +2.0% ( 14.7%)    100.0%
 EFFECTIVE MASS      1.5086
 FORCE CONSTANT      2.6555

 VIBRATION         59   59A           ATOM PAIR      ENERGY CONTRIBUTION    RADIAL
 FREQUENCY          3080.02         C 10 -- H 22         +39.9% ( 64.0%)    100.0%
 TRANSITION DIPOLE   0.3539         C  9 -- H 21         +24.6% ( 50.2%)    100.0%
 TRAVEL (Ang.)       0.2809         C  8 -- H 20         +23.1% ( 48.8%)    100.0%
 REDUCED MASS        0.2776         C  7 -- H 19          +4.6% ( 21.8%)     99.9%
 EFFECTIVE MASS      1.5999
 FORCE CONSTANT      1.5513

 VIBRATION         60   60A           ATOM PAIR      ENERGY CONTRIBUTION    RADIAL
 FREQUENCY          3169.39         C  2 -- H 14         +34.7% ( 56.7%)     97.3%
 TRANSITION DIPOLE   0.0686         C  2 -- H 15         +32.7% ( 55.1%)     97.1%
 TRAVEL (Ang.)       0.2550         C  2 -- H 13         +32.2% ( 54.6%)     97.0%
 REDUCED MASS        0.3273         C  2 -- C  5          +0.3% (  5.4%)    100.0%
 EFFECTIVE MASS      1.1393
 FORCE CONSTANT      1.9369

      SYMMETRY NUMBER FOR POINT-GROUP C1  =  1


          SYSTEM IS A GROUND STATE



 InChI=1S/C10H12/c1-2-3-7-10-8-5-4-6-9-10/h2-6,8-9H,7H2,1H3


          MOLECULE IS NOT LINEAR

          THERE ARE 60 GENUINE VIBRATIONS IN THIS SYSTEM
          THIS THERMODYNAMICS CALCULATION IS LIMITED TO
          MOLECULES WHICH HAVE NO INTERNAL ROTATIONS




                    CALCULATED THERMODYNAMIC PROPERTIES
                                          *
   TEMP. (K)   PARTITION FUNCTION   H.O.F.    ENTHALPY  HEAT CAPACITY ENTROPY
                                   KCAL/MOL   CAL/MOLE    CAL/K/MOL  CAL/K/MOL


 298.00  VIB.     0.1909D+04                  4435.7702    30.6605    29.8973
         ROT.     0.7829D+06                   888.2803     2.9808    29.9486
         INT.     0.1495D+10                  5324.0505    33.6413    59.8459
         TRA.     0.1470D+28                  1480.4672     4.9680    40.5480
         TOT.                       24.307    6804.5176    38.6093   100.3939

 200.00  VIB.     0.1640D+03                  2001.6885    19.3392    20.1425
         ROT.     0.4304D+06                   596.1613     2.9808    28.7600
         INT.     0.7058D+08                  2597.8498    22.3200    48.9025
         TRA.     0.8080D+27                   993.6021     4.9680    38.5668
         TOT.                       21.094    3591.4519    27.2880    87.4693

 210.00  VIB.     0.2108D+03                  2200.3075    20.3897    21.1114
         ROT.     0.4631D+06                   625.9693     2.9808    28.9054
         INT.     0.9765D+08                  2826.2768    23.3705    50.0168
         TRA.     0.8694D+27                  1043.2822     4.9680    38.8092
         TOT.                       21.372    3869.5591    28.3385    88.8260

 220.00  VIB.     0.2709D+03                  2409.5814    21.4700    22.0847
         ROT.     0.4966D+06                   655.7774     2.9808    29.0441
         INT.     0.1345D+09                  3065.3588    24.4508    51.1288
         TRA.     0.9322D+27                  1092.9623     4.9680    39.0403
         TOT.                       21.661    4158.3211    29.4188    90.1691

 230.00  VIB.     0.3480D+03                  2629.8019    22.5787    23.0635
         ROT.     0.5308D+06                   685.5855     2.9808    29.1766
         INT.     0.1847D+09                  3315.3873    25.5595    52.2400
         TRA.     0.9965D+27                  1142.6424     4.9680    39.2612
         TOT.                       21.961    4458.0298    30.5275    91.5012

 240.00  VIB.     0.4469D+03                  2861.2422    23.7136    24.0483
         ROT.     0.5658D+06                   715.3935     2.9808    29.3034
         INT.     0.2529D+09                  3576.6357    26.6944    53.3517
         TRA.     0.1062D+28                  1192.3226     4.9680    39.4726
         TOT.                       22.272    4768.9583    31.6624    92.8243

 250.00  VIB.     0.5738D+03                  3104.1517    24.8720    25.0397
         ROT.     0.6016D+06                   745.2016     2.9808    29.4251
         INT.     0.3452D+09                  3849.3533    27.8528    54.4649
         TRA.     0.1129D+28                  1242.0027     4.9680    39.6754
         TOT.                       22.594    5091.3559    32.8208    94.1403

 260.00  VIB.     0.7367D+03                  3358.7511    26.0510    26.0381
         ROT.     0.6380D+06                   775.0097     2.9808    29.5420
         INT.     0.4700D+09                  4133.7607    29.0318    55.5802
         TRA.     0.1198D+28                  1291.6828     4.9680    39.8703
         TOT.                       22.928    5425.4435    33.9998    95.4504

 270.00  VIB.     0.9461D+03                  3625.2298    27.2473    27.0437
         ROT.     0.6752D+06                   804.8177     2.9808    29.6545
         INT.     0.6388D+09                  4430.0475    30.2281    56.6982
         TRA.     0.1267D+28                  1341.3629     4.9680    40.0578
         TOT.                       23.274    5771.4104    35.1961    96.7560

 280.00  VIB.     0.1215D+04                  3903.7442    28.4576    28.0565
         ROT.     0.7130D+06                   834.6258     2.9808    29.7629
         INT.     0.8665D+09                  4738.3700    31.4384    57.8194
         TRA.     0.1338D+28                  1391.0430     4.9680    40.2384
         TOT.                       23.632    6129.4130    36.4064    98.0578

 290.00  VIB.     0.1562D+04                  4194.4169    29.6784    29.0763
         ROT.     0.7516D+06                   864.4339     2.9808    29.8675
         INT.     0.1174D+10                  5058.8508    32.6592    58.9439
         TRA.     0.1411D+28                  1440.7231     4.9680    40.4128
         TOT.                       24.002    6499.5738    37.6273    99.3566

 300.00  VIB.     0.2008D+04                  4497.3372    30.9066    30.1032
         ROT.     0.7908D+06                   894.2419     2.9808    29.9686
         INT.     0.1588D+10                  5391.5791    33.8874    60.0718
         TRA.     0.1484D+28                  1490.4032     4.9680    40.5812
         TOT.                       24.385    6881.9823    38.8554   100.6529

 310.00  VIB.     0.2582D+04                  4812.5620    32.1388    31.1367
         ROT.     0.8307D+06                   924.0500     2.9808    30.0663
         INT.     0.2145D+10                  5736.6119    35.1196    61.2030
         TRA.     0.1559D+28                  1540.0833     4.9680    40.7441
         TOT.                       24.780    7276.6952    40.0876   101.9471

 320.00  VIB.     0.3323D+04                  5140.1170    33.3721    32.1765
         ROT.     0.8712D+06                   953.8580     2.9808    30.1610
         INT.     0.2895D+10                  6093.9750    36.3529    62.3375
         TRA.     0.1635D+28                  1589.7634     4.9680    40.9018
         TOT.                       25.187    7683.7384    41.3210   103.2393

 330.00  VIB.     0.4280D+04                  5479.9991    34.6038    33.2223
         ROT.     0.9123D+06                   983.6661     2.9808    30.2527
         INT.     0.3904D+10                  6463.6652    37.5846    63.4750
         TRA.     0.1713D+28                  1639.4435     4.9680    41.0547
         TOT.                       25.606    8103.1087    42.5526   104.5297

 340.00  VIB.     0.5515D+04                  5832.1782    35.8311    34.2736
         ROT.     0.9541D+06                  1013.4742     2.9808    30.3417
         INT.     0.5262D+10                  6845.6524    38.8119    64.6152
         TRA.     0.1791D+28                  1689.1236     4.9680    41.2030
         TOT.                       26.038    8534.7760    43.7800   105.8182

 350.00  VIB.     0.7111D+04                  6196.5997    37.0519    35.3298
         ROT.     0.9965D+06                  1043.2822     2.9808    30.4281
         INT.     0.7086D+10                  7239.8819    40.0327    65.7579
         TRA.     0.1871D+28                  1738.8037     4.9680    41.3470
         TOT.                       26.482    8978.6856    45.0007   107.1049

 360.00  VIB.     0.9175D+04                  6573.1866    38.2639    36.3906
         ROT.     0.1040D+07                  1073.0903     2.9808    30.5121
         INT.     0.9538D+10                  7646.2769    41.2447    66.9027
         TRA.     0.1951D+28                  1788.4838     4.9680    41.4870
         TOT.                       26.938    9434.7608    46.2127   108.3897

 370.00  VIB.     0.1185D+05                  6961.8424    39.4654    37.4554
         ROT.     0.1083D+07                  1102.8984     2.9808    30.5937
         INT.     0.1283D+11                  8064.7408    42.4462    68.0492
         TRA.     0.2033D+28                  1838.1639     4.9680    41.6231
         TOT.                       27.406    9902.9047    47.4142   109.6723

 380.00  VIB.     0.1531D+05                  7362.4529    40.6546    38.5237
         ROT.     0.1127D+07                  1132.7064     2.9808    30.6732
         INT.     0.1726D+11                  8495.1594    43.6354    69.1969
         TRA.     0.2116D+28                  1887.8440     4.9680    41.7556
         TOT.                       27.886   10383.0034    48.6034   110.9525

 390.00  VIB.     0.1979D+05                  7774.8890    41.8302    39.5950
         ROT.     0.1172D+07                  1162.5145     2.9808    30.7506
         INT.     0.2320D+11                  8937.4035    44.8110    70.3456
         TRA.     0.2200D+28                  1937.5242     4.9680    41.8846
         TOT.                       28.378   10874.9277    49.7791   112.2303

 400.00  VIB.     0.2560D+05                  8199.0084    42.9911    40.6687
         ROT.     0.1217D+07                  1192.3226     2.9808    30.8261
         INT.     0.3117D+11                  9391.3309    45.9719    71.4948
         TRA.     0.2285D+28                  1987.2043     4.9680    42.0104
         TOT.                       28.881   11378.5352    50.9399   113.5052

   *: NOTE: HEATS OF FORMATION ARE RELATIVE TO THE
            ELEMENTS IN THEIR STANDARD STATE AT 298K
              (=  Standard Enthalpy of Formation).

            Hvib:  Zero-point energy is not included.
                   frequencies of less than zero cm-1 are not included.
            Hrot = (3/2)RT
            Htra = (3/2)RT + pV = (5/2)RT

            Heat capacity is Cp, not Cv

          For more information, see: HTTP://OpenMOPAC.net/Manual/thermochemistry.html


           FORCE CONSTANT IN CARTESIAN COORDINATES (Millidynes/A)

    ATOM   CHEMICAL       X               Y               Z
   NUMBER   SYMBOL  FORCE CONSTANT  FORCE CONSTANT  FORCE CONSTANT

      1       C        8.811120        8.567889        8.493467
      2       C        9.045153        8.127630        8.279589
      3       C        5.676544        9.450628       12.176263
      4       C       13.069394        5.770501        8.220334
      5       C       13.205298        5.646298        8.305484
      6       C        5.192533        9.457296       11.962540
      7       C        5.212775        9.502112       11.908017
      8       C        5.116987        9.288586       12.128986
      9       C        5.127938        9.307988       12.109740
     10       C        5.136172        9.337667       12.026565
     11       H        1.213082        2.306676        2.696234
     12       H        0.769046        1.547218        4.064462
     13       H        1.585490        4.226734        0.847368
     14       H        0.788178        2.350519        3.628752
     15       H        1.645048        1.504893        3.513799
     16       H        0.884262        2.022692        3.294228
     17       H        0.893677        1.987670        3.335583
     18       H        0.822473        1.366474        4.070662
     19       H        0.737004        1.479177        4.038752
     20       H        0.740403        1.479689        4.052810
     21       H        0.827639        1.374024        4.072111
     22       H        1.730596        3.791803        0.758364

 **********************
 *                    *
 * JOB ENDED NORMALLY *
 *                    *
 **********************



 TOTAL JOB TIME:             3.88 SECONDS

 == MOPAC DONE ==
