 *******************************************************************************
 **                                                                           **
 **                              MOPAC v23.1.2                                **
 **                                                                           **
 *******************************************************************************
 **          Digital Object Identifier (DOI): 10.5281/zenodo.6511958          **
 **    Visit the DOI location for information on how to cite this program.    **
 *******************************************************************************

                              PM3 CALCULATION RESULTS

 *******************************************************************************
 *  CALCULATION DONE: (MAX THREADS = 1)              Tue Jun  3 16:39:12 2025  *
 *  PM3        - The PM3 Hamiltonian to be used
 *  PRECISE    - TIGHTER CRITERIA TO BE USED
 *  NOSYM      - POINT-GROUP SYMMETRY SET TO C1
 *  THREADS=1  - MULTI-THREADING NOT USED
 *  T=         - A TIME OF 172800.0 SECONDS REQUESTED
 *  DUMP=N     - RESTART FILE WRITTEN EVERY 7200.0 SECONDS REQUESTED
 *******************************************************************************
pm3  precise nosym THREADS=1
 InChI=1S/C12H20/c1-4-7-11(6-3)12-8-10(5-2)9-12/h4,6-7,10-12H,3,5,8-9H2,1-2H3

   ATOM   CHEMICAL          X               Y               Z
  NUMBER   SYMBOL      (ANGSTROMS)     (ANGSTROMS)     (ANGSTROMS)

     1       C         -0.16880000  *  -0.48850000  *  -1.44330000  *
     2       C         -2.19970000  *   0.14700000  *  -1.04140000  *
     3       C          0.88200000  *  -0.85100000  *  -0.37030000  *
     4       C         -1.51280000  *  -1.20020000  *  -1.26350000  *
     5       C         -0.85660000  *   0.85950000  *  -1.20950000  *
     6       C         -2.81870000  *   0.28900000  *   0.36020000  *
     7       C         -3.43190000  *   1.67240000  *   0.55910000  *
     8       C          3.62440000  *   1.80260000  *   0.31570000  *
     9       C          2.07540000  *   0.06390000  *  -0.50650000  *
    10       C          1.33500000  *  -2.28150000  *  -0.53620000  *
    11       C          2.44250000  *   0.89820000  *   0.47650000  *
    12       C          2.04750000  *  -2.90020000  *   0.41040000  *
    13       H         -2.91560000  *   0.38680000  *  -1.85950000  *
    14       H          0.21830000  *  -0.58390000  *  -2.48360000  *
    15       H          0.41850000  *  -0.74530000  *   0.63810000  *
    16       H         -2.05450000  *   0.10880000  *   1.14820000  *
    17       H         -3.61910000  *  -0.47300000  *   0.47820000  *
    18       H         -1.85190000  *  -1.69340000  *  -2.20060000  *
    19       H         -1.55180000  *  -1.87700000  *  -0.38050000  *
    20       H         -0.83570000  *   1.50210000  *  -2.11650000  *
    21       H         -0.50940000  *   1.39040000  *  -0.29520000  *
    22       H         -4.22110000  *   1.85680000  *  -0.20060000  *
    23       H         -2.65300000  *   2.45940000  *   0.47620000  *
    24       H         -3.89000000  *   1.73350000  *   1.56870000  *
    25       H          4.54170000  *   1.20050000  *   0.14500000  *
    26       H          3.46430000  *   2.48530000  *  -0.54550000  *
    27       H          3.75940000  *   2.41000000  *   1.23500000  *
    28       H          1.88250000  *   0.93060000  *   1.40700000  *
    29       H          2.64170000  *   0.04590000  *  -1.43490000  *
    30       H          1.07520000  *  -2.83200000  *  -1.43670000  *
    31       H          2.32400000  *  -2.38620000  *   1.32610000  *
    32       H          2.35860000  *  -3.93030000  *   0.27020000  *



          CARTESIAN COORDINATES 

    NO.       ATOM           X           Y           Z

     1         C         -0.1688     -0.4885     -1.4433
     2         C         -2.1997      0.1470     -1.0414
     3         C          0.8820     -0.8510     -0.3703
     4         C         -1.5128     -1.2002     -1.2635
     5         C         -0.8566      0.8595     -1.2095
     6         C         -2.8187      0.2890      0.3602
     7         C         -3.4319      1.6724      0.5591
     8         C          3.6244      1.8026      0.3157
     9         C          2.0754      0.0639     -0.5065
    10         C          1.3350     -2.2815     -0.5362
    11         C          2.4425      0.8982      0.4765
    12         C          2.0475     -2.9002      0.4104
    13         H         -2.9156      0.3868     -1.8595
    14         H          0.2183     -0.5839     -2.4836
    15         H          0.4185     -0.7453      0.6381
    16         H         -2.0545      0.1088      1.1482
    17         H         -3.6191     -0.4730      0.4782
    18         H         -1.8519     -1.6934     -2.2006
    19         H         -1.5518     -1.8770     -0.3805
    20         H         -0.8357      1.5021     -2.1165
    21         H         -0.5094      1.3904     -0.2952
    22         H         -4.2211      1.8568     -0.2006
    23         H         -2.6530      2.4594      0.4762
    24         H         -3.8900      1.7335      1.5687
    25         H          4.5417      1.2005      0.1450
    26         H          3.4643      2.4853     -0.5455
    27         H          3.7594      2.4100      1.2350
    28         H          1.8825      0.9306      1.4070
    29         H          2.6417      0.0459     -1.4349
    30         H          1.0752     -2.8320     -1.4367
    31         H          2.3240     -2.3862      1.3261
    32         H          2.3586     -3.9303      0.2702

  H: (PM3): J. J. P. STEWART, J. COMP. CHEM. 10, 209 (1989).
  C: (PM3): J. J. P. STEWART, J. COMP. CHEM. 10, 209 (1989).

           Empirical Formula: C12 H20  =    32 atoms



      MOLECULAR POINT GROUP   :   C1  


      RHF CALCULATION, NO. OF DOUBLY OCCUPIED LEVELS = 34


          Geometry optimization using EF

          DIAGONAL MATRIX USED AS START HESSIAN

 CYCLE:     1 TIME:   0.016 TIME LEFT:  2.00D  GRAD.:    86.221 HEAT:  14.27478
 CYCLE:     2 TIME:   0.023 TIME LEFT:  2.00D  GRAD.:    56.789 HEAT:  12.33594
 CYCLE:     3 TIME:   0.020 TIME LEFT:  2.00D  GRAD.:    47.978 HEAT:  11.53959
 CYCLE:     4 TIME:   0.012 TIME LEFT:  2.00D  GRAD.:    35.880 HEAT:  10.76623
 CYCLE:     5 TIME:   0.020 TIME LEFT:  2.00D  GRAD.:    35.510 HEAT:  10.33480
 CYCLE:     6 TIME:   0.020 TIME LEFT:  2.00D  GRAD.:    28.221 HEAT:  10.04067
 CYCLE:     7 TIME:   0.012 TIME LEFT:  2.00D  GRAD.:    33.073 HEAT:  9.948187
 CYCLE:     8 TIME:   0.012 TIME LEFT:  2.00D  GRAD.:    17.902 HEAT:  9.694516
 CYCLE:     9 TIME:   0.008 TIME LEFT:  2.00D  GRAD.:    24.949 HEAT:  9.667244
 CYCLE:    10 TIME:   0.020 TIME LEFT:  2.00D  GRAD.:    12.211 HEAT:  9.520401
 CYCLE:    11 TIME:   0.020 TIME LEFT:  2.00D  GRAD.:    12.366 HEAT:  9.509153
 CYCLE:    12 TIME:   0.012 TIME LEFT:  2.00D  GRAD.:    10.167 HEAT:  9.484215
 CYCLE:    13 TIME:   0.016 TIME LEFT:  2.00D  GRAD.:     4.636 HEAT:  9.457793
 CYCLE:    14 TIME:   0.020 TIME LEFT:  2.00D  GRAD.:     4.192 HEAT:  9.452312
 CYCLE:    15 TIME:   0.008 TIME LEFT:  2.00D  GRAD.:     3.017 HEAT:  9.444533
 CYCLE:    16 TIME:   0.012 TIME LEFT:  2.00D  GRAD.:     5.904 HEAT:  9.439888
 CYCLE:    17 TIME:   0.012 TIME LEFT:  2.00D  GRAD.:     7.013 HEAT:  9.439204
 CYCLE:    18 TIME:   0.012 TIME LEFT:  2.00D  GRAD.:     7.453 HEAT:  9.437999
 CYCLE:    19 TIME:   0.016 TIME LEFT:  2.00D  GRAD.:     4.712 HEAT:  9.426128
 CYCLE:    20 TIME:   0.020 TIME LEFT:  2.00D  GRAD.:     3.768 HEAT:  9.422338
 CYCLE:    21 TIME:   0.008 TIME LEFT:  2.00D  GRAD.:     3.767 HEAT:  9.421421
 CYCLE:    22 TIME:   0.012 TIME LEFT:  2.00D  GRAD.:     4.552 HEAT:  9.421414
 CYCLE:    23 TIME:   0.012 TIME LEFT:  2.00D  GRAD.:     4.369 HEAT:  9.420647
 CYCLE:    24 TIME:   0.012 TIME LEFT:  2.00D  GRAD.:     6.782 HEAT:  9.427689
 CYCLE:    25 TIME:   0.012 TIME LEFT:  2.00D  GRAD.:     5.894 HEAT:  9.423476
 CYCLE:    26 TIME:   0.008 TIME LEFT:  2.00D  GRAD.:     5.662 HEAT:  9.422690
 CYCLE:    27 TIME:   0.020 TIME LEFT:  2.00D  GRAD.:     2.106 HEAT:  9.413972
 CYCLE:    28 TIME:   0.008 TIME LEFT:  2.00D  GRAD.:     5.401 HEAT:  9.419874
 CYCLE:    29 TIME:   0.012 TIME LEFT:  2.00D  GRAD.:     1.377 HEAT:  9.411929
 CYCLE:    30 TIME:   0.012 TIME LEFT:  2.00D  GRAD.:     3.023 HEAT:  9.413311
 CYCLE:    31 TIME:   0.012 TIME LEFT:  2.00D  GRAD.:     1.291 HEAT:  9.410471
 CYCLE:    32 TIME:   0.012 TIME LEFT:  2.00D  GRAD.:     2.771 HEAT:  9.411054
 CYCLE:    33 TIME:   0.012 TIME LEFT:  2.00D  GRAD.:     1.291 HEAT:  9.408423
 CYCLE:    34 TIME:   0.008 TIME LEFT:  2.00D  GRAD.:     3.326 HEAT:  9.409268
 CYCLE:    35 TIME:   0.012 TIME LEFT:  2.00D  GRAD.:     1.491 HEAT:  9.405371
 CYCLE:    36 TIME:   0.012 TIME LEFT:  2.00D  GRAD.:     3.111 HEAT:  9.405177
 CYCLE:    37 TIME:   0.012 TIME LEFT:  2.00D  GRAD.:     1.346 HEAT:  9.401275
 CYCLE:    38 TIME:   0.012 TIME LEFT:  2.00D  GRAD.:     1.498 HEAT:  9.399005
 CYCLE:    39 TIME:   0.012 TIME LEFT:  2.00D  GRAD.:     2.566 HEAT:  9.396621
 CYCLE:    40 TIME:   0.012 TIME LEFT:  2.00D  GRAD.:     2.607 HEAT:  9.393935
 CYCLE:    41 TIME:   0.012 TIME LEFT:  2.00D  GRAD.:     2.251 HEAT:  9.387603
 CYCLE:    42 TIME:   0.012 TIME LEFT:  2.00D  GRAD.:     3.592 HEAT:  9.378145
 CYCLE:    43 TIME:   0.012 TIME LEFT:  2.00D  GRAD.:     3.279 HEAT:  9.367369
 CYCLE:    44 TIME:   0.012 TIME LEFT:  2.00D  GRAD.:     4.904 HEAT:  9.364421
 CYCLE:    45 TIME:   0.012 TIME LEFT:  2.00D  GRAD.:     3.211 HEAT:  9.354392
 CYCLE:    46 TIME:   0.008 TIME LEFT:  2.00D  GRAD.:     2.714 HEAT:  9.347685
 CYCLE:    47 TIME:   0.016 TIME LEFT:  2.00D  GRAD.:     2.061 HEAT:  9.337230
 CYCLE:    48 TIME:   0.012 TIME LEFT:  2.00D  GRAD.:     3.550 HEAT:  9.314372
 CYCLE:    49 TIME:   0.012 TIME LEFT:  2.00D  GRAD.:     5.497 HEAT:  9.308421
 CYCLE:    50 TIME:   0.008 TIME LEFT:  2.00D  GRAD.:     3.494 HEAT:  9.288720
 CYCLE:    51 TIME:   0.016 TIME LEFT:  2.00D  GRAD.:     3.120 HEAT:  9.265575
 CYCLE:    52 TIME:   0.012 TIME LEFT:  2.00D  GRAD.:     5.514 HEAT:  9.234092
 CYCLE:    53 TIME:   0.012 TIME LEFT:  2.00D  GRAD.:     3.718 HEAT:  9.213780
 CYCLE:    54 TIME:   0.012 TIME LEFT:  2.00D  GRAD.:     2.759 HEAT:  9.197712
 CYCLE:    55 TIME:   0.012 TIME LEFT:  2.00D  GRAD.:     2.748 HEAT:  9.185331
 CYCLE:    56 TIME:   0.008 TIME LEFT:  2.00D  GRAD.:     3.359 HEAT:  9.169146
 CYCLE:    57 TIME:   0.016 TIME LEFT:  2.00D  GRAD.:     5.552 HEAT:  9.166130
 CYCLE:    58 TIME:   0.012 TIME LEFT:  2.00D  GRAD.:     2.349 HEAT:  9.150151
 CYCLE:    59 TIME:   0.008 TIME LEFT:  2.00D  GRAD.:     1.759 HEAT:  9.142171
 CYCLE:    60 TIME:   0.012 TIME LEFT:  2.00D  GRAD.:     2.197 HEAT:  9.128023
 CYCLE:    61 TIME:   0.016 TIME LEFT:  2.00D  GRAD.:     2.131 HEAT:  9.118903
 CYCLE:    62 TIME:   0.012 TIME LEFT:  2.00D  GRAD.:     2.558 HEAT:  9.109399
 CYCLE:    63 TIME:   0.008 TIME LEFT:  2.00D  GRAD.:     2.084 HEAT:  9.099593
 CYCLE:    64 TIME:   0.012 TIME LEFT:  2.00D  GRAD.:     2.099 HEAT:  9.089424
 CYCLE:    65 TIME:   0.012 TIME LEFT:  2.00D  GRAD.:     2.271 HEAT:  9.079832
 CYCLE:    66 TIME:   0.012 TIME LEFT:  2.00D  GRAD.:     2.572 HEAT:  9.066462
 CYCLE:    67 TIME:   0.012 TIME LEFT:  2.00D  GRAD.:     2.870 HEAT:  9.051146
 CYCLE:    68 TIME:   0.012 TIME LEFT:  2.00D  GRAD.:     2.762 HEAT:  9.034549
 CYCLE:    69 TIME:   0.012 TIME LEFT:  2.00D  GRAD.:     4.091 HEAT:  9.019496
 CYCLE:    70 TIME:   0.012 TIME LEFT:  2.00D  GRAD.:     5.017 HEAT:  9.015381
 CYCLE:    71 TIME:   0.012 TIME LEFT:  2.00D  GRAD.:     2.981 HEAT:  8.992337
 CYCLE:    72 TIME:   0.016 TIME LEFT:  2.00D  GRAD.:     3.206 HEAT:  8.977336
 CYCLE:    73 TIME:   0.008 TIME LEFT:  2.00D  GRAD.:     3.407 HEAT:  8.957133
 CYCLE:    74 TIME:   0.012 TIME LEFT:  2.00D  GRAD.:     2.773 HEAT:  8.941142
 CYCLE:    75 TIME:   0.012 TIME LEFT:  2.00D  GRAD.:     3.272 HEAT:  8.928266
 CYCLE:    76 TIME:   0.016 TIME LEFT:  2.00D  GRAD.:     3.902 HEAT:  8.919631
 CYCLE:    77 TIME:   0.008 TIME LEFT:  2.00D  GRAD.:     1.894 HEAT:  8.911228
 CYCLE:    78 TIME:   0.012 TIME LEFT:  2.00D  GRAD.:     2.265 HEAT:  8.903871
 CYCLE:    79 TIME:   0.012 TIME LEFT:  2.00D  GRAD.:     2.357 HEAT:  8.895999
 CYCLE:    80 TIME:   0.012 TIME LEFT:  2.00D  GRAD.:     2.123 HEAT:  8.889766
 CYCLE:    81 TIME:   0.012 TIME LEFT:  2.00D  GRAD.:     1.668 HEAT:  8.882383
 CYCLE:    82 TIME:   0.012 TIME LEFT:  2.00D  GRAD.:     1.462 HEAT:  8.876573
 CYCLE:    83 TIME:   0.012 TIME LEFT:  2.00D  GRAD.:     1.199 HEAT:  8.873046
 CYCLE:    84 TIME:   0.012 TIME LEFT:  2.00D  GRAD.:     1.460 HEAT:  8.870164
 CYCLE:    85 TIME:   0.012 TIME LEFT:  2.00D  GRAD.:     1.272 HEAT:  8.867090
 CYCLE:    86 TIME:   0.012 TIME LEFT:  2.00D  GRAD.:     1.897 HEAT:  8.862228
 CYCLE:    87 TIME:   0.012 TIME LEFT:  2.00D  GRAD.:     1.471 HEAT:  8.858054
 CYCLE:    88 TIME:   0.012 TIME LEFT:  2.00D  GRAD.:     1.714 HEAT:  8.852945
 CYCLE:    89 TIME:   0.012 TIME LEFT:  2.00D  GRAD.:     1.708 HEAT:  8.847887
 CYCLE:    90 TIME:   0.012 TIME LEFT:  2.00D  GRAD.:     1.512 HEAT:  8.843279
 CYCLE:    91 TIME:   0.012 TIME LEFT:  2.00D  GRAD.:     1.673 HEAT:  8.835360
 CYCLE:    92 TIME:   0.012 TIME LEFT:  2.00D  GRAD.:     1.751 HEAT:  8.828406
 CYCLE:    93 TIME:   0.012 TIME LEFT:  2.00D  GRAD.:     1.709 HEAT:  8.821577
 CYCLE:    94 TIME:   0.012 TIME LEFT:  2.00D  GRAD.:     2.031 HEAT:  8.814411
 CYCLE:    95 TIME:   0.012 TIME LEFT:  2.00D  GRAD.:     2.916 HEAT:  8.810165
 CYCLE:    96 TIME:   0.012 TIME LEFT:  2.00D  GRAD.:     3.898 HEAT:  8.804711
 CYCLE:    97 TIME:   0.012 TIME LEFT:  2.00D  GRAD.:     1.759 HEAT:  8.795086
 CYCLE:    98 TIME:   0.012 TIME LEFT:  2.00D  GRAD.:     1.209 HEAT:  8.787474
 CYCLE:    99 TIME:   0.012 TIME LEFT:  2.00D  GRAD.:     1.956 HEAT:  8.777716
 CYCLE:   100 TIME:   0.012 TIME LEFT:  2.00D  GRAD.:     1.926 HEAT:  8.772071
 CYCLE:   101 TIME:   0.012 TIME LEFT:  2.00D  GRAD.:     1.562 HEAT:  8.760812
 CYCLE:   102 TIME:   0.016 TIME LEFT:  2.00D  GRAD.:     1.504 HEAT:  8.754209
 CYCLE:   103 TIME:   0.008 TIME LEFT:  2.00D  GRAD.:     1.604 HEAT:  8.749313
 CYCLE:   104 TIME:   0.016 TIME LEFT:  2.00D  GRAD.:     3.006 HEAT:  8.747058
 CYCLE:   105 TIME:   0.008 TIME LEFT:  2.00D  GRAD.:     1.717 HEAT:  8.741638
 CYCLE:   106 TIME:   0.012 TIME LEFT:  2.00D  GRAD.:     1.193 HEAT:  8.738674
 CYCLE:   107 TIME:   0.012 TIME LEFT:  2.00D  GRAD.:     1.379 HEAT:  8.733089
 CYCLE:   108 TIME:   0.012 TIME LEFT:  2.00D  GRAD.:     1.705 HEAT:  8.728291
 CYCLE:   109 TIME:   0.012 TIME LEFT:  2.00D  GRAD.:     2.040 HEAT:  8.719718
 CYCLE:   110 TIME:   0.012 TIME LEFT:  2.00D  GRAD.:     1.363 HEAT:  8.714121
 CYCLE:   111 TIME:   0.012 TIME LEFT:  2.00D  GRAD.:     1.399 HEAT:  8.707958
 CYCLE:   112 TIME:   0.012 TIME LEFT:  2.00D  GRAD.:     1.830 HEAT:  8.705142
 CYCLE:   113 TIME:   0.008 TIME LEFT:  2.00D  GRAD.:     1.691 HEAT:  8.700514
 CYCLE:   114 TIME:   0.012 TIME LEFT:  2.00D  GRAD.:     1.542 HEAT:  8.694562
 CYCLE:   115 TIME:   0.012 TIME LEFT:  2.00D  GRAD.:     1.047 HEAT:  8.692217
 CYCLE:   116 TIME:   0.012 TIME LEFT:  2.00D  GRAD.:     1.035 HEAT:  8.689197
 CYCLE:   117 TIME:   0.008 TIME LEFT:  2.00D  GRAD.:     1.137 HEAT:  8.687368
 CYCLE:   118 TIME:   0.012 TIME LEFT:  2.00D  GRAD.:     0.922 HEAT:  8.684564
 CYCLE:   119 TIME:   0.012 TIME LEFT:  2.00D  GRAD.:     0.650 HEAT:  8.683519
 CYCLE:   120 TIME:   0.012 TIME LEFT:  2.00D  GRAD.:     0.671 HEAT:  8.682416
 CYCLE:   121 TIME:   0.012 TIME LEFT:  2.00D  GRAD.:     0.615 HEAT:  8.681897
 CYCLE:   122 TIME:   0.012 TIME LEFT:  2.00D  GRAD.:     0.624 HEAT:  8.680602
 CYCLE:   123 TIME:   0.012 TIME LEFT:  2.00D  GRAD.:     0.557 HEAT:  8.679924
 CYCLE:   124 TIME:   0.012 TIME LEFT:  2.00D  GRAD.:     0.492 HEAT:  8.679381
 CYCLE:   125 TIME:   0.008 TIME LEFT:  2.00D  GRAD.:     0.518 HEAT:  8.678809
 CYCLE:   126 TIME:   0.012 TIME LEFT:  2.00D  GRAD.:     0.719 HEAT:  8.677832
 CYCLE:   127 TIME:   0.012 TIME LEFT:  2.00D  GRAD.:     0.983 HEAT:  8.676263
 CYCLE:   128 TIME:   0.012 TIME LEFT:  2.00D  GRAD.:     1.657 HEAT:  8.672277
 CYCLE:   129 TIME:   0.012 TIME LEFT:  2.00D  GRAD.:     1.829 HEAT:  8.668118
 CYCLE:   130 TIME:   0.012 TIME LEFT:  2.00D  GRAD.:     3.589 HEAT:  8.646423
 CYCLE:   131 TIME:   0.012 TIME LEFT:  2.00D  GRAD.:     4.523 HEAT:  8.627136
 CYCLE:   132 TIME:   0.012 TIME LEFT:  2.00D  GRAD.:     3.944 HEAT:  8.602175
 CYCLE:   133 TIME:   0.023 TIME LEFT:  2.00D  GRAD.:    11.484 HEAT:  8.585579
 CYCLE:   134 TIME:   0.023 TIME LEFT:  2.00D  GRAD.:    11.235 HEAT:  8.578838
 CYCLE:   135 TIME:   0.012 TIME LEFT:  2.00D  GRAD.:     3.219 HEAT:  8.488517
 CYCLE:   136 TIME:   0.012 TIME LEFT:  2.00D  GRAD.:     7.389 HEAT:  8.473634
 CYCLE:   137 TIME:   0.012 TIME LEFT:  2.00D  GRAD.:     4.830 HEAT:  8.430316
 CYCLE:   138 TIME:   0.012 TIME LEFT:  2.00D  GRAD.:     5.217 HEAT:  8.373246
 CYCLE:   139 TIME:   0.012 TIME LEFT:  2.00D  GRAD.:     4.342 HEAT:  8.320023
 CYCLE:   140 TIME:   0.012 TIME LEFT:  2.00D  GRAD.:    10.072 HEAT:  8.300097
 CYCLE:   141 TIME:   0.012 TIME LEFT:  2.00D  GRAD.:     5.525 HEAT:  8.247567
 CYCLE:   142 TIME:   0.012 TIME LEFT:  2.00D  GRAD.:     3.902 HEAT:  8.221171
 CYCLE:   143 TIME:   0.008 TIME LEFT:  2.00D  GRAD.:     5.049 HEAT:  8.206744
 CYCLE:   144 TIME:   0.012 TIME LEFT:  2.00D  GRAD.:     2.561 HEAT:  8.189413
 CYCLE:   145 TIME:   0.012 TIME LEFT:  2.00D  GRAD.:     2.265 HEAT:  8.175734
 CYCLE:   146 TIME:   0.012 TIME LEFT:  2.00D  GRAD.:     2.045 HEAT:  8.169733
 CYCLE:   147 TIME:   0.012 TIME LEFT:  2.00D  GRAD.:     1.920 HEAT:  8.162289
 CYCLE:   148 TIME:   0.008 TIME LEFT:  2.00D  GRAD.:     2.360 HEAT:  8.156157
 CYCLE:   149 TIME:   0.012 TIME LEFT:  2.00D  GRAD.:     2.608 HEAT:  8.149428
 CYCLE:   150 TIME:   0.012 TIME LEFT:  2.00D  GRAD.:     2.283 HEAT:  8.142315
 CYCLE:   151 TIME:   0.012 TIME LEFT:  2.00D  GRAD.:     2.401 HEAT:  8.129070
 CYCLE:   152 TIME:   0.012 TIME LEFT:  2.00D  GRAD.:     1.747 HEAT:  8.120265
 CYCLE:   153 TIME:   0.012 TIME LEFT:  2.00D  GRAD.:     1.669 HEAT:  8.115327
 CYCLE:   154 TIME:   0.012 TIME LEFT:  2.00D  GRAD.:     1.245 HEAT:  8.111364
 CYCLE:   155 TIME:   0.012 TIME LEFT:  2.00D  GRAD.:     1.151 HEAT:  8.108131
 CYCLE:   156 TIME:   0.012 TIME LEFT:  2.00D  GRAD.:     1.317 HEAT:  8.104906
 CYCLE:   157 TIME:   0.012 TIME LEFT:  2.00D  GRAD.:     1.183 HEAT:  8.102525
 CYCLE:   158 TIME:   0.012 TIME LEFT:  2.00D  GRAD.:     1.084 HEAT:  8.100786
 CYCLE:   159 TIME:   0.008 TIME LEFT:  2.00D  GRAD.:     1.061 HEAT:  8.099590
 CYCLE:   160 TIME:   0.012 TIME LEFT:  2.00D  GRAD.:     0.999 HEAT:  8.097814
 CYCLE:   161 TIME:   0.012 TIME LEFT:  2.00D  GRAD.:     1.459 HEAT:  8.095860
 CYCLE:   162 TIME:   0.012 TIME LEFT:  2.00D  GRAD.:     1.333 HEAT:  8.093433
 CYCLE:   163 TIME:   0.012 TIME LEFT:  2.00D  GRAD.:     1.158 HEAT:  8.090909
 CYCLE:   164 TIME:   0.012 TIME LEFT:  2.00D  GRAD.:     1.082 HEAT:  8.088629
 CYCLE:   165 TIME:   0.012 TIME LEFT:  2.00D  GRAD.:     0.964 HEAT:  8.086720
 CYCLE:   166 TIME:   0.008 TIME LEFT:  2.00D  GRAD.:     0.904 HEAT:  8.084208
 CYCLE:   167 TIME:   0.012 TIME LEFT:  2.00D  GRAD.:     0.883 HEAT:  8.082722
 CYCLE:   168 TIME:   0.012 TIME LEFT:  2.00D  GRAD.:     0.859 HEAT:  8.081357
 CYCLE:   169 TIME:   0.012 TIME LEFT:  2.00D  GRAD.:     0.783 HEAT:  8.080316
 CYCLE:   170 TIME:   0.012 TIME LEFT:  2.00D  GRAD.:     0.698 HEAT:  8.079438
 CYCLE:   171 TIME:   0.012 TIME LEFT:  2.00D  GRAD.:     0.645 HEAT:  8.078739
 CYCLE:   172 TIME:   0.012 TIME LEFT:  2.00D  GRAD.:     0.654 HEAT:  8.077826
 CYCLE:   173 TIME:   0.012 TIME LEFT:  2.00D  GRAD.:     0.727 HEAT:  8.076827
 CYCLE:   174 TIME:   0.012 TIME LEFT:  2.00D  GRAD.:     0.766 HEAT:  8.075705
 CYCLE:   175 TIME:   0.012 TIME LEFT:  2.00D  GRAD.:     0.613 HEAT:  8.074984
 CYCLE:   176 TIME:   0.012 TIME LEFT:  2.00D  GRAD.:     0.526 HEAT:  8.074355
 CYCLE:   177 TIME:   0.012 TIME LEFT:  2.00D  GRAD.:     0.486 HEAT:  8.074061
 CYCLE:   178 TIME:   0.012 TIME LEFT:  2.00D  GRAD.:     0.747 HEAT:  8.072568
 CYCLE:   179 TIME:   0.012 TIME LEFT:  2.00D  GRAD.:     0.706 HEAT:  8.072006
 CYCLE:   180 TIME:   0.012 TIME LEFT:  2.00D  GRAD.:     0.756 HEAT:  8.070644
 CYCLE:   181 TIME:   0.012 TIME LEFT:  2.00D  GRAD.:     0.734 HEAT:  8.069818
 CYCLE:   182 TIME:   0.012 TIME LEFT:  2.00D  GRAD.:     1.074 HEAT:  8.068214
 CYCLE:   183 TIME:   0.012 TIME LEFT:  2.00D  GRAD.:     0.620 HEAT:  8.066564
 CYCLE:   184 TIME:   0.008 TIME LEFT:  2.00D  GRAD.:     0.789 HEAT:  8.063920
 CYCLE:   185 TIME:   0.012 TIME LEFT:  2.00D  GRAD.:     0.911 HEAT:  8.062078
 CYCLE:   186 TIME:   0.016 TIME LEFT:  2.00D  GRAD.:     1.251 HEAT:  8.059956
 CYCLE:   187 TIME:   0.008 TIME LEFT:  2.00D  GRAD.:     0.943 HEAT:  8.058435
 CYCLE:   188 TIME:   0.012 TIME LEFT:  2.00D  GRAD.:     0.923 HEAT:  8.056324
 CYCLE:   189 TIME:   0.012 TIME LEFT:  2.00D  GRAD.:     1.334 HEAT:  8.054097
 CYCLE:   190 TIME:   0.016 TIME LEFT:  2.00D  GRAD.:     1.288 HEAT:  8.052510
 CYCLE:   191 TIME:   0.012 TIME LEFT:  2.00D  GRAD.:     0.810 HEAT:  8.050619
 CYCLE:   192 TIME:   0.008 TIME LEFT:  2.00D  GRAD.:     0.513 HEAT:  8.050136
 CYCLE:   193 TIME:   0.012 TIME LEFT:  2.00D  GRAD.:     0.423 HEAT:  8.049599
 CYCLE:   194 TIME:   0.012 TIME LEFT:  2.00D  GRAD.:     0.383 HEAT:  8.049263
 CYCLE:   195 TIME:   0.012 TIME LEFT:  2.00D  GRAD.:     0.289 HEAT:  8.049031
 CYCLE:   196 TIME:   0.012 TIME LEFT:  2.00D  GRAD.:     0.223 HEAT:  8.048875
 CYCLE:   197 TIME:   0.012 TIME LEFT:  2.00D  GRAD.:     0.339 HEAT:  8.048772
 CYCLE:   198 TIME:   0.012 TIME LEFT:  2.00D  GRAD.:     0.258 HEAT:  8.048694
 CYCLE:   199 TIME:   0.008 TIME LEFT:  2.00D  GRAD.:     0.333 HEAT:  8.048594
 CYCLE:   200 TIME:   0.012 TIME LEFT:  2.00D  GRAD.:     0.183 HEAT:  8.048485
 CYCLE:   201 TIME:   0.012 TIME LEFT:  2.00D  GRAD.:     0.173 HEAT:  8.048358
 CYCLE:   202 TIME:   0.012 TIME LEFT:  2.00D  GRAD.:     0.245 HEAT:  8.048177
 CYCLE:   203 TIME:   0.012 TIME LEFT:  2.00D  GRAD.:     0.267 HEAT:  8.048001
 CYCLE:   204 TIME:   0.012 TIME LEFT:  2.00D  GRAD.:     0.463 HEAT:  8.047788
 CYCLE:   205 TIME:   0.016 TIME LEFT:  2.00D  GRAD.:     0.537 HEAT:  8.047484
 CYCLE:   206 TIME:   0.012 TIME LEFT:  2.00D  GRAD.:     0.436 HEAT:  8.047164
 CYCLE:   207 TIME:   0.008 TIME LEFT:  2.00D  GRAD.:     0.623 HEAT:  8.046342
 CYCLE:   208 TIME:   0.012 TIME LEFT:  2.00D  GRAD.:     0.653 HEAT:  8.045688
 CYCLE:   209 TIME:   0.023 TIME LEFT:  2.00D  GRAD.:     3.715 HEAT:  8.051882
 CYCLE:   210 TIME:   0.012 TIME LEFT:  2.00D  GRAD.:     0.733 HEAT:  8.042781
 CYCLE:   211 TIME:   0.012 TIME LEFT:  2.00D  GRAD.:     0.565 HEAT:  8.042099
 CYCLE:   212 TIME:   0.012 TIME LEFT:  2.00D  GRAD.:     0.567 HEAT:  8.041136
 CYCLE:   213 TIME:   0.012 TIME LEFT:  2.00D  GRAD.:     0.610 HEAT:  8.040389
 CYCLE:   214 TIME:   0.012 TIME LEFT:  2.00D  GRAD.:     0.523 HEAT:  8.039896
 CYCLE:   215 TIME:   0.012 TIME LEFT:  2.00D  GRAD.:     0.258 HEAT:  8.039550
 CYCLE:   216 TIME:   0.012 TIME LEFT:  2.00D  GRAD.:     0.170 HEAT:  8.039482
 CYCLE:   217 TIME:   0.012 TIME LEFT:  2.00D  GRAD.:     0.123 HEAT:  8.039436
 CYCLE:   218 TIME:   0.012 TIME LEFT:  2.00D  GRAD.:     0.083 HEAT:  8.039419
 CYCLE:   219 TIME:   0.012 TIME LEFT:  2.00D  GRAD.:     0.091 HEAT:  8.039419
 CYCLE:   220 TIME:   0.008 TIME LEFT:  2.00D  GRAD.:     0.066 HEAT:  8.039409
 CYCLE:   221 TIME:   0.012 TIME LEFT:  2.00D  GRAD.:     0.052 HEAT:  8.039405
 CYCLE:   222 TIME:   0.012 TIME LEFT:  2.00D  GRAD.:     0.055 HEAT:  8.039401
 CYCLE:   223 TIME:   0.008 TIME LEFT:  2.00D  GRAD.:     0.067 HEAT:  8.039397
 CYCLE:   224 TIME:   0.012 TIME LEFT:  2.00D  GRAD.:     0.061 HEAT:  8.039391
 CYCLE:   225 TIME:   0.008 TIME LEFT:  2.00D  GRAD.:     0.053 HEAT:  8.039392
 CYCLE:   226 TIME:   0.012 TIME LEFT:  2.00D  GRAD.:     0.053 HEAT:  8.039386
 CYCLE:   227 TIME:   0.012 TIME LEFT:  2.00D  GRAD.:     0.053 HEAT:  8.039384
 CYCLE:   228 TIME:   0.008 TIME LEFT:  2.00D  GRAD.:     0.091 HEAT:  8.039375
 CYCLE:   229 TIME:   0.012 TIME LEFT:  2.00D  GRAD.:     0.069 HEAT:  8.039367
 CYCLE:   230 TIME:   0.008 TIME LEFT:  2.00D  GRAD.:     0.101 HEAT:  8.039353
 CYCLE:   231 TIME:   0.012 TIME LEFT:  2.00D  GRAD.:     0.080 HEAT:  8.039341
 CYCLE:   232 TIME:   0.012 TIME LEFT:  2.00D  GRAD.:     0.182 HEAT:  8.039290
 CYCLE:   233 TIME:   0.008 TIME LEFT:  2.00D  GRAD.:     0.131 HEAT:  8.039256
 CYCLE:   234 TIME:   0.012 TIME LEFT:  2.00D  GRAD.:     0.124 HEAT:  8.039219
 CYCLE:   235 TIME:   0.012 TIME LEFT:  2.00D  GRAD.:     0.136 HEAT:  8.039170
 CYCLE:   236 TIME:   0.012 TIME LEFT:  2.00D  GRAD.:     0.124 HEAT:  8.039073
 CYCLE:   237 TIME:   0.012 TIME LEFT:  2.00D  GRAD.:     0.322 HEAT:  8.039255
 CYCLE:   238 TIME:   0.012 TIME LEFT:  2.00D  GRAD.:     0.158 HEAT:  8.038996
 CYCLE:   239 TIME:   0.008 TIME LEFT:  2.00D  GRAD.:     0.058 HEAT:  8.039052
 CYCLE:   240 TIME:   0.012 TIME LEFT:  2.00D  GRAD.:     0.086 HEAT:  8.038962
 CYCLE:   241 TIME:   0.094 TIME LEFT:  2.00D  GRAD.:     0.855 HEAT:  8.039159
 CYCLE:   242 TIME:   0.012 TIME LEFT:  2.00D  GRAD.:     0.067 HEAT:  8.038942
 CYCLE:   243 TIME:   0.008 TIME LEFT:  2.00D  GRAD.:     0.056 HEAT:  8.038930
 CYCLE:   244 TIME:   0.012 TIME LEFT:  2.00D  GRAD.:     0.048 HEAT:  8.038911

     GRADIENT =  0.04821 IS LESS THAN CUTOFF =  0.05000



 -------------------------------------------------------------------------------
 pm3  precise nosym THREADS=1
 InChI=1S/C12H20/c1-4-7-11(6-3)12-8-10(5-2)9-12/h4,6-7,10-12H,3,5,8-9H2,1-2H3



     GEOMETRY OPTIMISED USING EIGENVECTOR FOLLOWING (EF).     
     SCF FIELD WAS ACHIEVED                                   


                              PM3 CALCULATION
                                                       MOPAC v23.1.2 MacOS
                                                       Tue Jun  3 16:39:15 2025




          FINAL HEAT OF FORMATION =          8.03891 KCAL/MOL =      33.63480 KJ/MOL


          COSMO AREA              =        237.91 SQUARE ANGSTROMS
          COSMO VOLUME            =        253.82 CUBIC ANGSTROMS

          GRADIENT NORM           =          0.04821          =       0.00852 PER ATOM
          IONIZATION POTENTIAL    =          9.786477 EV
          HOMO LUMO ENERGIES (EV) =         -9.786  0.972
          NO. OF FILLED LEVELS    =         34
          MOLECULAR WEIGHT        =        164.2900         POINT GROUP:  C1  

          MOLECULAR DIMENSIONS (Angstroms)

            Atom       Atom       Distance
            H    27    H    22     8.60267
            H    32    H    26     7.20015
            H    24    H    14     4.62741


          SCF CALCULATIONS        =        266

          WALL-CLOCK TIME         =      2.988 SECONDS
          COMPUTATION TIME        =      2.207 SECONDS




   ATOM   CHEMICAL          X               Y               Z
  NUMBER   SYMBOL      (ANGSTROMS)     (ANGSTROMS)     (ANGSTROMS)

     1       C         -0.05912993  *  -0.50776849  *  -1.39886770  *
     2       C         -2.13313408  *   0.08256936  *  -0.98240593  *
     3       C          1.01390764  *  -0.81036086  *  -0.35423413  *
     4       C         -1.39504831  *  -1.26164642  *  -1.18908638  *
     5       C         -0.79810955  *   0.83676357  *  -1.19289375  *
     6       C         -2.75997006  *   0.24474202  *   0.38687707  *
     7       C         -3.41552290  *   1.59744383  *   0.55045991  *
     8       C          3.59794044  *   2.00976321  *   0.21327652  *
     9       C          2.16733276  *   0.13105929  *  -0.52410162  *
    10       C          1.50539294  *  -2.21685113  *  -0.52309508  *
    11       C          2.46341200  *   1.07341950  *   0.37202164  *
    12       C          1.32719393  *  -3.15835691  *   0.39549602  *
    13       H         -2.88485287  *   0.29740333  *  -1.77076150  *
    14       H          0.36167856  *  -0.62919370  *  -2.41887726  *
    15       H          0.56349258  *  -0.68433374  *   0.66432603  *
    16       H         -1.99230086  *   0.09626219  *   1.17383964  *
    17       H         -3.50482929  *  -0.56097646  *   0.54070456  *
    18       H         -1.73402764  *  -1.84243834  *  -2.05919948  *
    19       H         -1.40984213  *  -1.93777080  *  -0.31868321  *
    20       H         -0.78146960  *   1.50583052  *  -2.06549446  *
    21       H         -0.45398359  *   1.42345575  *  -0.32496872  *
    22       H         -4.21346223  *   1.75425102  *  -0.18748751  *
    23       H         -2.69012056  *   2.41272137  *   0.42479451  *
    24       H         -3.86312229  *   1.70534718  *   1.54654108  *
    25       H          4.16599651  *   1.84236219  *  -0.71154659  *
    26       H          3.24055774  *   3.04826223  *   0.19949111  *
    27       H          4.29764663  *   1.91226479  *   1.05426858  *
    28       H          1.86227930  *   1.19626530  *   1.28218295  *
    29       H          2.76092927  *   0.00570719  *  -1.43877832  *
    30       H          2.02795659  *  -2.43037497  *  -1.46364416  *
    31       H          0.81302258  *  -2.98383362  *   1.33704315  *
    32       H          1.68527291  *  -4.17527185  *   0.26759430  *

                             CARTESIAN COORDINATES

   1    C       -0.059129926    -0.507768487    -1.398867696
   2    C       -2.133134085     0.082569358    -0.982405935
   3    C        1.013907640    -0.810360862    -0.354234129
   4    C       -1.395048313    -1.261646417    -1.189086375
   5    C       -0.798109552     0.836763565    -1.192893748
   6    C       -2.759970064     0.244742019     0.386877066
   7    C       -3.415522899     1.597443831     0.550459907
   8    C        3.597940441     2.009763211     0.213276519
   9    C        2.167332755     0.131059288    -0.524101622
  10    C        1.505392937    -2.216851128    -0.523095084
  11    C        2.463412000     1.073419497     0.372021638
  12    C        1.327193931    -3.158356914     0.395496023
  13    H       -2.884852872     0.297403331    -1.770761496
  14    H        0.361678558    -0.629193703    -2.418877259
  15    H        0.563492579    -0.684333736     0.664326029
  16    H       -1.992300865     0.096262185     1.173839644
  17    H       -3.504829292    -0.560976463     0.540704561
  18    H       -1.734027643    -1.842438339    -2.059199481
  19    H       -1.409842125    -1.937770803    -0.318683215
  20    H       -0.781469599     1.505830523    -2.065494464
  21    H       -0.453983594     1.423455751    -0.324968721
  22    H       -4.213462229     1.754251022    -0.187487509
  23    H       -2.690120559     2.412721373     0.424794506
  24    H       -3.863122288     1.705347176     1.546541082
  25    H        4.165996509     1.842362191    -0.711546594
  26    H        3.240557736     3.048262225     0.199491109
  27    H        4.297646631     1.912264786     1.054268577
  28    H        1.862279300     1.196265303     1.282182946
  29    H        2.760929271     0.005707190    -1.438778321
  30    H        2.027956593    -2.430374974    -1.463644160
  31    H        0.813022578    -2.983833618     1.337043145
  32    H        1.685272905    -4.175271854     0.267594295


           Empirical Formula: C12 H20  =    32 atoms



      MOLECULAR POINT GROUP   :   C1  


                  EIGENVALUES  
 -42.04490 -37.05865 -33.89871 -32.28386 -28.50179 -25.50289 -24.95661 -22.94242
 -20.82940 -19.99323 -19.15266 -18.37052 -17.13233 -16.41138 -16.22585 -15.73281
 -15.19355 -14.74185 -14.36733 -14.21739 -14.15192 -13.51690 -13.14681 -12.92881
 -12.79723 -12.47775 -12.25525 -12.12267 -11.93390 -11.42795 -11.31102 -11.16783
 -10.22088  -9.78648   0.97218   1.28823   3.16833   3.27930   3.44411   3.53881
   3.60475   3.74106   3.80026   3.83931   3.93081   3.98862   4.02493   4.05092
   4.09847   4.16672   4.24667   4.33259   4.38932   4.45167   4.50771   4.55785
   4.56479   4.58360   4.64273   4.88882   4.98861   5.00606   5.43187   5.59758
   5.63193   5.73630   5.77013   6.06854


              NET ATOMIC CHARGES AND DIPOLE CONTRIBUTIONS

  ATOM NO.   TYPE          CHARGE      No. of ELECS.   s-Pop       p-Pop       
    1          C          -0.084098        4.0841     1.19165     2.89244
    2          C          -0.093597        4.0936     1.19040     2.90320
    3          C          -0.007773        4.0078     1.15718     2.85059
    4          C          -0.112455        4.1125     1.17811     2.93434
    5          C          -0.112259        4.1123     1.17789     2.93436
    6          C          -0.089399        4.0894     1.15745     2.93195
    7          C          -0.109729        4.1097     1.13799     2.97174
    8          C          -0.074221        4.0742     1.12514     2.94908
    9          C          -0.146547        4.1465     1.19809     2.94846
   10          C          -0.129098        4.1291     1.19710     2.93199
   11          C          -0.144921        4.1449     1.19380     2.95112
   12          C          -0.164114        4.1641     1.18273     2.98138
   13          H           0.071586        0.9284     0.92841
   14          H           0.072733        0.9273     0.92727
   15          H           0.073401        0.9266     0.92660
   16          H           0.050850        0.9491     0.94915
   17          H           0.049465        0.9505     0.95053
   18          H           0.056293        0.9437     0.94371
   19          H           0.065250        0.9348     0.93475
   20          H           0.056351        0.9436     0.94365
   21          H           0.066879        0.9331     0.93312
   22          H           0.037981        0.9620     0.96202
   23          H           0.039332        0.9607     0.96067
   24          H           0.036732        0.9633     0.96327
   25          H           0.041118        0.9589     0.95888
   26          H           0.043662        0.9563     0.95634
   27          H           0.044299        0.9557     0.95570
   28          H           0.099154        0.9008     0.90085
   29          H           0.103655        0.8963     0.89634
   30          H           0.098446        0.9016     0.90155
   31          H           0.081746        0.9183     0.91825
   32          H           0.079277        0.9207     0.92072
 DIPOLE           X         Y         Z       TOTAL
 POINT-CHG.    -0.003     0.229     0.045     0.234
 HYBRID         0.043    -0.003    -0.006     0.044
 SUM            0.040     0.226     0.038     0.233


          ATOMIC ORBITAL ELECTRON POPULATIONS

     Atom    s        px        py        pz   
    1  C   1.19165   0.93864   0.96596   0.98784
    2  C   1.19040   0.96089   0.96547   0.97683
    3  C   1.15718   0.93673   0.92322   0.99064
    4  C   1.17811   0.95726   0.95637   1.02072
    5  C   1.17789   0.95764   0.95536   1.02136
    6  C   1.15745   0.99735   0.97179   0.96280
    7  C   1.13799   0.99795   0.96751   1.00628
    8  C   1.12514   0.96297   0.97811   1.00800
    9  C   1.19809   0.98408   0.97247   0.99191
   10  C   1.19710   0.99196   0.95173   0.98830
   11  C   1.19380   0.98665   0.97450   0.98998
   12  C   1.18273   1.01183   0.98268   0.98688
   13  H   0.92841
   14  H   0.92727
   15  H   0.92660
   16  H   0.94915
   17  H   0.95053
   18  H   0.94371
   19  H   0.93475
   20  H   0.94365
   21  H   0.93312
   22  H   0.96202
   23  H   0.96067
   24  H   0.96327
   25  H   0.95888
   26  H   0.95634
   27  H   0.95570
   28  H   0.90085
   29  H   0.89634
   30  H   0.90155
   31  H   0.91825
   32  H   0.92072
 *******************************************************************************
 **                                                                           **
 **                              MOPAC v23.1.2                                **
 **                                                                           **
 *******************************************************************************
 **          Digital Object Identifier (DOI): 10.5281/zenodo.6511958          **
 **    Visit the DOI location for information on how to cite this program.    **
 *******************************************************************************

                              PM3 CALCULATION RESULTS

 *******************************************************************************
 *  CALCULATION DONE: (MAX THREADS = 1)              Tue Jun  3 16:39:15 2025  *
 *  PM3        - The PM3 Hamiltonian to be used
 *  OLDGEO     - PREVIOUS GEOMETRY TO BE USED
 *  PRECISE    - TIGHTER CRITERIA TO BE USED
 *  NOSYM      - POINT-GROUP SYMMETRY SET TO C1
 *  THREADS=1  - MULTI-THREADING NOT USED
 *  T=         - A TIME OF 172800.0 SECONDS REQUESTED
 *  DUMP=N     - RESTART FILE WRITTEN EVERY 7200.0 SECONDS REQUESTED
 *  THERMO     - THERMODYNAMIC QUANTITIES TO BE CALCULATED
 *******************************************************************************
oldgeo thermo nosym precise THREADS=1  pm3
 InChI=1S/C12H20/c1-4-7-11(6-3)12-8-10(5-2)9-12/h4,6-7,10-12H,3,5,8-9H2,1-2H3

   ATOM   CHEMICAL          X               Y               Z
  NUMBER   SYMBOL      (ANGSTROMS)     (ANGSTROMS)     (ANGSTROMS)

     1       C         -0.05912993  *  -0.50776849  *  -1.39886770  *
     2       C         -2.13313408  *   0.08256936  *  -0.98240593  *
     3       C          1.01390764  *  -0.81036086  *  -0.35423413  *
     4       C         -1.39504831  *  -1.26164642  *  -1.18908638  *
     5       C         -0.79810955  *   0.83676357  *  -1.19289375  *
     6       C         -2.75997006  *   0.24474202  *   0.38687707  *
     7       C         -3.41552290  *   1.59744383  *   0.55045991  *
     8       C          3.59794044  *   2.00976321  *   0.21327652  *
     9       C          2.16733276  *   0.13105929  *  -0.52410162  *
    10       C          1.50539294  *  -2.21685113  *  -0.52309508  *
    11       C          2.46341200  *   1.07341950  *   0.37202164  *
    12       C          1.32719393  *  -3.15835691  *   0.39549602  *
    13       H         -2.88485287  *   0.29740333  *  -1.77076150  *
    14       H          0.36167856  *  -0.62919370  *  -2.41887726  *
    15       H          0.56349258  *  -0.68433374  *   0.66432603  *
    16       H         -1.99230086  *   0.09626219  *   1.17383964  *
    17       H         -3.50482929  *  -0.56097646  *   0.54070456  *
    18       H         -1.73402764  *  -1.84243834  *  -2.05919948  *
    19       H         -1.40984213  *  -1.93777080  *  -0.31868321  *
    20       H         -0.78146960  *   1.50583052  *  -2.06549446  *
    21       H         -0.45398359  *   1.42345575  *  -0.32496872  *
    22       H         -4.21346223  *   1.75425102  *  -0.18748751  *
    23       H         -2.69012056  *   2.41272137  *   0.42479451  *
    24       H         -3.86312229  *   1.70534718  *   1.54654108  *
    25       H          4.16599651  *   1.84236219  *  -0.71154659  *
    26       H          3.24055774  *   3.04826223  *   0.19949111  *
    27       H          4.29764663  *   1.91226479  *   1.05426858  *
    28       H          1.86227930  *   1.19626530  *   1.28218295  *
    29       H          2.76092927  *   0.00570719  *  -1.43877832  *
    30       H          2.02795659  *  -2.43037497  *  -1.46364416  *
    31       H          0.81302258  *  -2.98383362  *   1.33704315  *
    32       H          1.68527291  *  -4.17527185  *   0.26759430  *



          CARTESIAN COORDINATES 

    NO.       ATOM           X           Y           Z

     1         C         -0.0591     -0.5078     -1.3989
     2         C         -2.1331      0.0826     -0.9824
     3         C          1.0139     -0.8104     -0.3542
     4         C         -1.3950     -1.2616     -1.1891
     5         C         -0.7981      0.8368     -1.1929
     6         C         -2.7600      0.2447      0.3869
     7         C         -3.4155      1.5974      0.5505
     8         C          3.5979      2.0098      0.2133
     9         C          2.1673      0.1311     -0.5241
    10         C          1.5054     -2.2169     -0.5231
    11         C          2.4634      1.0734      0.3720
    12         C          1.3272     -3.1584      0.3955
    13         H         -2.8849      0.2974     -1.7708
    14         H          0.3617     -0.6292     -2.4189
    15         H          0.5635     -0.6843      0.6643
    16         H         -1.9923      0.0963      1.1738
    17         H         -3.5048     -0.5610      0.5407
    18         H         -1.7340     -1.8424     -2.0592
    19         H         -1.4098     -1.9378     -0.3187
    20         H         -0.7815      1.5058     -2.0655
    21         H         -0.4540      1.4235     -0.3250
    22         H         -4.2135      1.7543     -0.1875
    23         H         -2.6901      2.4127      0.4248
    24         H         -3.8631      1.7053      1.5465
    25         H          4.1660      1.8424     -0.7115
    26         H          3.2406      3.0483      0.1995
    27         H          4.2976      1.9123      1.0543
    28         H          1.8623      1.1963      1.2822
    29         H          2.7609      0.0057     -1.4388
    30         H          2.0280     -2.4304     -1.4636
    31         H          0.8130     -2.9838      1.3370
    32         H          1.6853     -4.1753      0.2676

  H: (PM3): J. J. P. STEWART, J. COMP. CHEM. 10, 209 (1989).
  C: (PM3): J. J. P. STEWART, J. COMP. CHEM. 10, 209 (1989).

           Empirical Formula: C12 H20  =    32 atoms



      MOLECULAR POINT GROUP   :   C1  


      RHF CALCULATION, NO. OF DOUBLY OCCUPIED LEVELS = 34



          HEAT OF FORMATION =       8.038911 KCALS/MOLE


          CARTESIAN COORDINATE DERIVATIVES

   NUMBER  ATOM         X            Y            Z

     1       C      0.000275    -0.001276    -0.002511
     2       C     -0.000453     0.001475     0.000105
     3       C     -0.001133    -0.001083    -0.000614
     4       C      0.001823     0.000624    -0.000922
     5       C     -0.000690     0.001159    -0.001494
     6       C      0.004621     0.002462    -0.000342
     7       C      0.000137     0.001918     0.001531
     8       C      0.003437     0.000013     0.000572
     9       C     -0.007343     0.005241     0.003556
    10       C     -0.002643     0.008777    -0.017207
    11       C      0.006111    -0.008920    -0.006398
    12       C      0.003640    -0.019017     0.012959
    13       H     -0.003082     0.001721     0.003939
    14       H     -0.000352     0.000075    -0.005323
    15       H     -0.003974    -0.000612     0.003691
    16       H      0.007361    -0.001084     0.004797
    17       H     -0.004209     0.002873     0.000501
    18       H     -0.002574     0.000576     0.001401
    19       H      0.000530    -0.000231     0.001037
    20       H     -0.000179    -0.000920    -0.000925
    21       H     -0.003118     0.001330    -0.002942
    22       H      0.001826     0.004495     0.008678
    23       H     -0.004865     0.000575    -0.004940
    24       H     -0.001722    -0.004311     0.003053
    25       H     -0.005935     0.002201     0.000290
    26       H      0.006841    -0.000800    -0.009561
    27       H      0.005704    -0.000871     0.003549
    28       H      0.010840    -0.004387     0.000017
    29       H     -0.003602     0.001477     0.002128
    30       H      0.004827     0.011587     0.001683
    31       H     -0.010286    -0.001759    -0.003533
    32       H     -0.001815    -0.003308     0.003224



          GRADIENT NORM =   0.04828

          MOLECULAR WEIGHT =  164.29



          ROTATIONAL CONSTANTS IN CM(-1)

          A =    0.03518437   B =    0.01878716   C =    0.01419796



           PRINCIPAL MOMENTS OF INERTIA IN UNITS OF 10**(-40)*GRAM-CM**2

          A =      795.6019   B =     1489.9935   C =     1971.6035


          ORIENTATION OF MOLECULE IN FORCE CALCULATION

    NO.       ATOM         X         Y         Z

     1          C      -0.1520   -1.0534   -0.4020
     2          C       2.0442   -1.0534   -0.4020
     3          C      -1.0486    0.1837   -0.4020
     4          C       0.9467   -1.0543   -1.4928
     5          C       0.9463   -1.0533    0.6889
     6          C       2.9394    0.1683   -0.4203
     7          C       3.9531    0.1416    0.7013
     8          C      -2.6231    1.0733    3.0159
     9          C      -1.9170    0.1811    0.8193
    10          C      -1.9228    0.1779   -1.6202
    11          C      -1.7733    1.0682    1.8047
    12          C      -1.8334    1.0941   -2.5765
    13          H       2.6624   -1.9757   -0.3991
    14          H      -0.7754   -1.9718   -0.4015
    15          H      -0.3962    1.0951   -0.4061
    16          H       2.3238    1.0888   -0.3550
    17          H       3.4554    0.2231   -1.3993
    18          H       0.9457   -1.9418   -2.1422
    19          H       0.9440   -0.1688   -2.1491
    20          H       0.9450   -1.9404    1.3389
    21          H       0.9436   -0.1674    1.3454
    22          H       4.6089   -0.7368    0.6356
    23          H       3.4634    0.1103    1.6841
    24          H       4.5937    1.0323    0.6806
    25          H      -3.3799    0.2776    3.0121
    26          H      -2.0091    0.9427    3.9171
    27          H      -3.1506    2.0320    3.1115
    28          H      -1.0000    1.8458    1.7566
    29          H      -2.6847   -0.6021    0.8629
    30          H      -2.6520   -0.6393   -1.6807
    31          H      -1.1224    1.9158   -2.5512
    32          H      -2.4691    1.0847   -3.4565


    FIRST DERIVATIVES WILL BE USED IN THE CALCULATION OF SECOND DERIVATIVES

          ESTIMATED TIME TO COMPLETE CALCULATION =        4.50 SECONDS

    FOR POINT-GROUP C1   THERE ARE   1 UNIQUE SYMMETRY FUNCTIONS.

 STEP:   1 TIME =     0.04 SECS, INTEGRAL =      0.04 TIME LEFT: 172799.95
 STEP:   2 TIME =     0.04 SECS, INTEGRAL =      0.07 TIME LEFT: 172799.91
 STEP:   3 TIME =     0.04 SECS, INTEGRAL =      0.11 TIME LEFT: 172799.88
 STEP:   4 TIME =     0.04 SECS, INTEGRAL =      0.14 TIME LEFT: 172799.84
 STEP:   5 TIME =     0.04 SECS, INTEGRAL =      0.18 TIME LEFT: 172799.81
 STEP:   6 TIME =     0.04 SECS, INTEGRAL =      0.21 TIME LEFT: 172799.77
 STEP:   7 TIME =     0.04 SECS, INTEGRAL =      0.25 TIME LEFT: 172799.73
 STEP:   8 TIME =     0.04 SECS, INTEGRAL =      0.29 TIME LEFT: 172799.70
 STEP:   9 TIME =     0.04 SECS, INTEGRAL =      0.33 TIME LEFT: 172799.66
 STEP:  10 TIME =     0.04 SECS, INTEGRAL =      0.36 TIME LEFT: 172799.62
 STEP:  11 TIME =     0.04 SECS, INTEGRAL =      0.40 TIME LEFT: 172799.59
 STEP:  12 TIME =     0.04 SECS, INTEGRAL =      0.44 TIME LEFT: 172799.55
 STEP:  13 TIME =     0.04 SECS, INTEGRAL =      0.48 TIME LEFT: 172799.51
 STEP:  14 TIME =     0.04 SECS, INTEGRAL =      0.52 TIME LEFT: 172799.47
 STEP:  15 TIME =     0.04 SECS, INTEGRAL =      0.55 TIME LEFT: 172799.44
 STEP:  16 TIME =     0.04 SECS, INTEGRAL =      0.59 TIME LEFT: 172799.40
 STEP:  17 TIME =     0.04 SECS, INTEGRAL =      0.62 TIME LEFT: 172799.37
 STEP:  18 TIME =     0.04 SECS, INTEGRAL =      0.66 TIME LEFT: 172799.33
 STEP:  19 TIME =     0.04 SECS, INTEGRAL =      0.69 TIME LEFT: 172799.30
 STEP:  20 TIME =     0.04 SECS, INTEGRAL =      0.73 TIME LEFT: 172799.26
 STEP:  21 TIME =     0.04 SECS, INTEGRAL =      0.77 TIME LEFT: 172799.22
 STEP:  22 TIME =     0.04 SECS, INTEGRAL =      0.80 TIME LEFT: 172799.19
 STEP:  23 TIME =     0.04 SECS, INTEGRAL =      0.84 TIME LEFT: 172799.15
 STEP:  24 TIME =     0.04 SECS, INTEGRAL =      0.88 TIME LEFT: 172799.11
 STEP:  25 TIME =     0.04 SECS, INTEGRAL =      0.91 TIME LEFT: 172799.07
 STEP:  26 TIME =     0.04 SECS, INTEGRAL =      0.95 TIME LEFT: 172799.04
 STEP:  27 TIME =     0.04 SECS, INTEGRAL =      0.99 TIME LEFT: 172799.00
 STEP:  28 TIME =     0.04 SECS, INTEGRAL =      1.03 TIME LEFT: 172798.96
 STEP:  29 TIME =     0.04 SECS, INTEGRAL =      1.06 TIME LEFT: 172798.93
 STEP:  30 TIME =     0.04 SECS, INTEGRAL =      1.10 TIME LEFT: 172798.89
 STEP:  31 TIME =     0.04 SECS, INTEGRAL =      1.13 TIME LEFT: 172798.86
 STEP:  32 TIME =     0.04 SECS, INTEGRAL =      1.17 TIME LEFT: 172798.82
 STEP:  33 TIME =     0.04 SECS, INTEGRAL =      1.21 TIME LEFT: 172798.78
 STEP:  34 TIME =     0.04 SECS, INTEGRAL =      1.25 TIME LEFT: 172798.74
 STEP:  35 TIME =     0.04 SECS, INTEGRAL =      1.29 TIME LEFT: 172798.70
 STEP:  36 TIME =     0.04 SECS, INTEGRAL =      1.32 TIME LEFT: 172798.67
 STEP:  37 TIME =     0.04 SECS, INTEGRAL =      1.36 TIME LEFT: 172798.63
 STEP:  38 TIME =     0.04 SECS, INTEGRAL =      1.39 TIME LEFT: 172798.59
 STEP:  39 TIME =     0.04 SECS, INTEGRAL =      1.43 TIME LEFT: 172798.55
 STEP:  40 TIME =     0.04 SECS, INTEGRAL =      1.47 TIME LEFT: 172798.52
 STEP:  41 TIME =     0.04 SECS, INTEGRAL =      1.51 TIME LEFT: 172798.48
 STEP:  42 TIME =     0.04 SECS, INTEGRAL =      1.55 TIME LEFT: 172798.44
 STEP:  43 TIME =     0.04 SECS, INTEGRAL =      1.59 TIME LEFT: 172798.40
 STEP:  44 TIME =     0.04 SECS, INTEGRAL =      1.62 TIME LEFT: 172798.36
 STEP:  45 TIME =     0.04 SECS, INTEGRAL =      1.66 TIME LEFT: 172798.32
 STEP:  46 TIME =     0.04 SECS, INTEGRAL =      1.70 TIME LEFT: 172798.29
 STEP:  47 TIME =     0.04 SECS, INTEGRAL =      1.73 TIME LEFT: 172798.25
 STEP:  48 TIME =     0.04 SECS, INTEGRAL =      1.77 TIME LEFT: 172798.21
 STEP:  49 TIME =     0.04 SECS, INTEGRAL =      1.81 TIME LEFT: 172798.18
 STEP:  50 TIME =     0.04 SECS, INTEGRAL =      1.86 TIME LEFT: 172798.13
 STEP:  51 TIME =     0.04 SECS, INTEGRAL =      1.89 TIME LEFT: 172798.09
 STEP:  52 TIME =     0.04 SECS, INTEGRAL =      1.93 TIME LEFT: 172798.05
 STEP:  53 TIME =     0.04 SECS, INTEGRAL =      1.97 TIME LEFT: 172798.02
 STEP:  54 TIME =     0.04 SECS, INTEGRAL =      2.00 TIME LEFT: 172797.98
 STEP:  55 TIME =     0.04 SECS, INTEGRAL =      2.05 TIME LEFT: 172797.94
 STEP:  56 TIME =     0.04 SECS, INTEGRAL =      2.09 TIME LEFT: 172797.90
 STEP:  57 TIME =     0.04 SECS, INTEGRAL =      2.12 TIME LEFT: 172797.87
 STEP:  58 TIME =     0.04 SECS, INTEGRAL =      2.16 TIME LEFT: 172797.83
 STEP:  59 TIME =     0.04 SECS, INTEGRAL =      2.20 TIME LEFT: 172797.79
 STEP:  60 TIME =     0.04 SECS, INTEGRAL =      2.23 TIME LEFT: 172797.75
 STEP:  61 TIME =     0.04 SECS, INTEGRAL =      2.27 TIME LEFT: 172797.71
 STEP:  62 TIME =     0.04 SECS, INTEGRAL =      2.31 TIME LEFT: 172797.68
 STEP:  63 TIME =     0.04 SECS, INTEGRAL =      2.34 TIME LEFT: 172797.64
 STEP:  64 TIME =     0.04 SECS, INTEGRAL =      2.38 TIME LEFT: 172797.61
 STEP:  65 TIME =     0.04 SECS, INTEGRAL =      2.42 TIME LEFT: 172797.57
 STEP:  66 TIME =     0.04 SECS, INTEGRAL =      2.46 TIME LEFT: 172797.53
 STEP:  67 TIME =     0.04 SECS, INTEGRAL =      2.49 TIME LEFT: 172797.50
 STEP:  68 TIME =     0.04 SECS, INTEGRAL =      2.53 TIME LEFT: 172797.46
 STEP:  69 TIME =     0.04 SECS, INTEGRAL =      2.57 TIME LEFT: 172797.42
 STEP:  70 TIME =     0.04 SECS, INTEGRAL =      2.61 TIME LEFT: 172797.38
 STEP:  71 TIME =     0.04 SECS, INTEGRAL =      2.64 TIME LEFT: 172797.35
 STEP:  72 TIME =     0.04 SECS, INTEGRAL =      2.68 TIME LEFT: 172797.31
 STEP:  73 TIME =     0.04 SECS, INTEGRAL =      2.71 TIME LEFT: 172797.27
 STEP:  74 TIME =     0.04 SECS, INTEGRAL =      2.75 TIME LEFT: 172797.23
 STEP:  75 TIME =     0.04 SECS, INTEGRAL =      2.80 TIME LEFT: 172797.19
 STEP:  76 TIME =     0.04 SECS, INTEGRAL =      2.84 TIME LEFT: 172797.15
 STEP:  77 TIME =     0.04 SECS, INTEGRAL =      2.88 TIME LEFT: 172797.11
 STEP:  78 TIME =     0.04 SECS, INTEGRAL =      2.92 TIME LEFT: 172797.07
 STEP:  79 TIME =     0.04 SECS, INTEGRAL =      2.95 TIME LEFT: 172797.04
 STEP:  80 TIME =     0.04 SECS, INTEGRAL =      2.99 TIME LEFT: 172797.00
 STEP:  81 TIME =     0.04 SECS, INTEGRAL =      3.03 TIME LEFT: 172796.96
 STEP:  82 TIME =     0.04 SECS, INTEGRAL =      3.07 TIME LEFT: 172796.92
 STEP:  83 TIME =     0.04 SECS, INTEGRAL =      3.11 TIME LEFT: 172796.88
 STEP:  84 TIME =     0.04 SECS, INTEGRAL =      3.15 TIME LEFT: 172796.84
 STEP:  85 TIME =     0.04 SECS, INTEGRAL =      3.19 TIME LEFT: 172796.80
 STEP:  86 TIME =     0.04 SECS, INTEGRAL =      3.23 TIME LEFT: 172796.76
 STEP:  87 TIME =     0.04 SECS, INTEGRAL =      3.27 TIME LEFT: 172796.72
 STEP:  88 TIME =     0.04 SECS, INTEGRAL =      3.31 TIME LEFT: 172796.68
 STEP:  89 TIME =     0.04 SECS, INTEGRAL =      3.35 TIME LEFT: 172796.64
 STEP:  90 TIME =     0.04 SECS, INTEGRAL =      3.39 TIME LEFT: 172796.60
 STEP:  91 TIME =     0.04 SECS, INTEGRAL =      3.43 TIME LEFT: 172796.56
 STEP:  92 TIME =     0.04 SECS, INTEGRAL =      3.46 TIME LEFT: 172796.52
 STEP:  93 TIME =     0.04 SECS, INTEGRAL =      3.50 TIME LEFT: 172796.48
 STEP:  94 TIME =     0.04 SECS, INTEGRAL =      3.55 TIME LEFT: 172796.44
 STEP:  95 TIME =     0.04 SECS, INTEGRAL =      3.59 TIME LEFT: 172796.40
 STEP:  96 TIME =     0.04 SECS, INTEGRAL =      3.62 TIME LEFT: 172796.36

(To convert to Hartree/Bohr^2, multiply by (10^(-21) x N x a0^2)/(4.184 x 627.51) =  0.0642)


           FORCE MATRIX IN MILLIDYNES/ANGSTROM


                  C  1       C  2       C  3       C  4       C  5       C  6
 ------------------------------------------------------------------------------
     C    1  14.389856
     C    2   1.801794  14.554603
     C    3   3.835495   0.039986  14.936529
     C    4   3.458135   3.487357   0.530114  14.343027
     C    5   3.463980   3.471815   0.531403   1.832963  14.330811
     C    6   0.040050   4.306296   0.005878   0.551975   0.542944  14.487351
     C    7   0.004927   0.658691   0.001079   0.050905   0.032507   4.471708
     C    8   0.022779   0.000260   0.143600   0.004020   0.001448   0.000335
     C    9   0.692419   0.005142   4.604939   0.049627   0.037449   0.001225
     C   10   0.693305   0.005316   4.587722   0.036938   0.050141   0.001153
     C   11   0.034477   0.001432   0.804410   0.004479   0.016252   0.000452
     C   12   0.039747   0.001368   0.807222   0.013444   0.006410   0.000481
     H   13   0.028683   4.428703   0.001598   0.427272   0.428640   0.431526
     H   14   4.435236   0.028694   0.438035   0.427682   0.427650   0.002181
     H   15   0.430917   0.002920   4.120039   0.024887   0.024594   0.005214
     H   16   0.002814   0.450680   0.005287   0.021349   0.023923   4.416337
     H   17   0.003329   0.434027   0.000653   0.019294   0.047607   4.457538
     H   18   0.442731   0.442298   0.033928   4.717505   0.031289   0.034351
     H   19   0.452747   0.451366   0.029121   4.631897   0.028564   0.031063
     H   20   0.443229   0.441343   0.034068   0.031266   4.716870   0.034664
     H   21   0.452770   0.451576   0.029219   0.028484   4.617998   0.025590
     H   22   0.000319   0.023686   0.000306   0.001625   0.002117   0.464057
     H   23   0.000464   0.020015   0.000346   0.001869   0.007330   0.464105
     H   24   0.000595   0.052593   0.000264   0.008767   0.002254   0.451328
     H   25   0.000628   0.000066   0.002361   0.000174   0.000110   0.000100
     H   26   0.003934   0.000091   0.019273   0.000857   0.000290   0.000126
     H   27   0.002795   0.000044   0.019421   0.000403   0.000151   0.000086
     H   28   0.011619   0.000532   0.084583   0.002258   0.002935   0.000649
     H   29   0.014242   0.000329   0.435017   0.002064   0.002372   0.000525
     H   30   0.016034   0.000408   0.437661   0.002502   0.002039   0.000434
     H   31   0.013627   0.000418   0.098323   0.001788   0.002637   0.000413
     H   32   0.020175   0.000278   0.137733   0.001474   0.003418   0.000233


                  C  7       C  8       C  9       C 10       C 11       C 12
 ------------------------------------------------------------------------------
     C    7  14.375329
     C    8   0.000310  14.720576
     C    9   0.001058   0.846464  18.136905
     C   10   0.000996   0.020350   0.755363  18.134812
     C   11   0.000262   5.267677  10.694208   0.038788  18.179635
     C   12   0.000274   0.003335   0.041899  11.101021   0.005577  18.039195
     H   13   0.030957   0.000111   0.000651   0.000547   0.000321   0.000382
     H   14   0.000581   0.000665   0.025095   0.026729   0.001914   0.001690
     H   15   0.000638   0.002440   0.440417   0.441224   0.057140   0.054763
     H   16   0.437615   0.000187   0.000573   0.000507   0.000429   0.000398
     H   17   0.440045   0.000119   0.000427   0.000399   0.000154   0.000333
     H   18   0.006466   0.000617   0.006751   0.002569   0.000725   0.000860
     H   19   0.003063   0.000306   0.002637   0.006996   0.000739   0.008540
     H   20   0.001766   0.000402   0.002671   0.006687   0.000837   0.001185
     H   21   0.009016   0.001025   0.007416   0.002741   0.008885   0.000867
     H   22   4.725448   0.000080   0.000234   0.000241   0.000095   0.000063
     H   23   4.713050   0.000123   0.000285   0.000266   0.000243   0.000190
     H   24   4.752612   0.000123   0.000314   0.000316   0.000088   0.000120
     H   25   0.000068   4.724599   0.041133   0.000871   0.480732   0.000247
     H   26   0.000096   4.705264   0.035313   0.002018   0.439581   0.000328
     H   27   0.000066   4.707210   0.036285   0.003760   0.439036   0.000979
     H   28   0.000384   0.424095   0.469925   0.008260   4.763850   0.002210
     H   29   0.000190   0.084596   4.765564   0.030061   0.467969   0.002027
     H   30   0.000322   0.000783   0.026945   4.785406   0.002065   0.453626
     H   31   0.000270   0.001094   0.010572   0.490499   0.001883   5.064369
     H   32   0.000180   0.001515   0.019554   0.462090   0.002235   5.104855


                  H 13       H 14       H 15       H 16       H 17       H 18
 ------------------------------------------------------------------------------
     H   13   4.929462
     H   14   0.002651   4.939767
     H   15   0.000555   0.040875   4.597353
     H   16   0.043889   0.000527   0.010315   5.029652
     H   17   0.024848   0.000663   0.000370   0.569068   5.066512
     H   18   0.026570   0.026443   0.001497   0.001302   0.001955   5.334820
     H   19   0.030522   0.030349   0.022018   0.016542   0.011872   0.551809
     H   20   0.026932   0.026488   0.001485   0.001755   0.006036   0.003425
     H   21   0.030329   0.030272   0.021573   0.022935   0.003548   0.000989
     H   22   0.021600   0.000116   0.000216   0.048266   0.024460   0.000350
     H   23   0.001927   0.000301   0.000175   0.024319   0.048960   0.000413
     H   24   0.001990   0.000133   0.000152   0.030110   0.028913   0.001286
     H   25   0.000038   0.000205   0.000525   0.000050   0.000037   0.000055
     H   26   0.000059   0.000195   0.000605   0.000049   0.000038   0.000171
     H   27   0.000046   0.000146   0.000337   0.000043   0.000029   0.000056
     H   28   0.000302   0.000738   0.029701   0.000333   0.000197   0.000423
     H   29   0.000291   0.010666   0.036025   0.000193   0.000180   0.000555
     H   30   0.000256   0.012951   0.036925   0.000189   0.000087   0.000682
     H   31   0.000255   0.000641   0.030088   0.000211   0.000166   0.000294
     H   32   0.000137   0.000557   0.002188   0.000138   0.000089   0.000373


                  H 19       H 20       H 21       H 22       H 23       H 24
 ------------------------------------------------------------------------------
     H   19   5.261637
     H   20   0.000952   5.334545
     H   21   0.002871   0.551875   5.248434
     H   22   0.000457   0.000353   0.000475   5.468037
     H   23   0.000418   0.000780   0.013719   0.576839   5.452466
     H   24   0.000735   0.000333   0.000625   0.573305   0.572125   5.489282
     H   25   0.000055   0.000138   0.000234   0.000018   0.000033   0.000025
     H   26   0.000097   0.000140   0.000245   0.000029   0.000047   0.000037
     H   27   0.000055   0.000085   0.000225   0.000017   0.000029   0.000029
     H   28   0.000304   0.000407   0.005692   0.000124   0.000222   0.000151
     H   29   0.000765   0.000715   0.001009   0.000066   0.000111   0.000061
     H   30   0.000998   0.000555   0.000740   0.000054   0.000065   0.000105
     H   31   0.004398   0.000431   0.000310   0.000078   0.000091   0.000097
     H   32   0.000625   0.000516   0.000218   0.000043   0.000058   0.000067


                  H 25       H 26       H 27       H 28       H 29       H 30
 ------------------------------------------------------------------------------
     H   25   5.450769
     H   26   0.565778   5.424663
     H   27   0.565624   0.576206   5.425883
     H   28   0.041847   0.023677   0.023774   5.141762
     H   29   0.029590   0.009496   0.009779   0.107001   5.151280
     H   30   0.000293   0.000193   0.000250   0.000855   0.021606   5.162583
     H   31   0.000121   0.000179   0.000320   0.001076   0.000849   0.121003
     H   32   0.000101   0.000132   0.000258   0.000562   0.000846   0.081419


                  H 31       H 32
 ------------------------------
     H   31   5.460580
     H   32   0.423742   5.493477


          HEAT OF FORMATION =       8.038911 KCALS/MOLE

          ZERO POINT ENERGY     179.886 KCAL/MOL


           NORMAL COORDINATE ANALYSIS (Total motion = 1 Angstrom)


   Root No.       1         2         3         4         5         6         7         8

                 1 A       2 A       3 A       4 A       5 A       6 A       7 A       8 A   

                  18.4      32.5      43.4      50.1      89.4     111.4     143.1     179.7
  
           1   -0.0081   -0.0080    0.0022    0.0000    0.0037   -0.0059    0.0030   -0.0036
           2    0.0011    0.0021    0.0015   -0.0220    0.0100    0.0022   -0.0015   -0.0099
           3   -0.0071    0.0147    0.0139   -0.0010    0.0011    0.0027    0.0007   -0.0039
           4   -0.0081   -0.0080    0.0022    0.0001    0.0036   -0.0061    0.0033   -0.0032
           5    0.0035    0.0001   -0.0046   -0.0118   -0.0097   -0.0008    0.0052    0.0088
           6    0.0101    0.0002    0.0116   -0.0048   -0.0124    0.0141   -0.0160    0.0050
           7   -0.0065   -0.0028    0.0018    0.0153   -0.0000   -0.0028   -0.0017   -0.0121
           8    0.0025    0.0061    0.0010   -0.0107    0.0072    0.0048   -0.0058   -0.0172
           9   -0.0167    0.0092   -0.0050    0.0034    0.0021   -0.0084    0.0083    0.0007
          10    0.0004   -0.0152    0.0010   -0.0019   -0.0032   -0.0008   -0.0042    0.0010
          11   -0.0019   -0.0115   -0.0179   -0.0282   -0.0006   -0.0115    0.0171    0.0110
          12    0.0014    0.0076    0.0128   -0.0029   -0.0058    0.0086   -0.0080    0.0006
          13   -0.0165   -0.0008    0.0034    0.0020    0.0103   -0.0113    0.0109   -0.0071
          14    0.0030    0.0090    0.0190   -0.0311    0.0182    0.0103   -0.0074   -0.0019
          15    0.0014    0.0076    0.0128   -0.0029   -0.0059    0.0087   -0.0080    0.0005
          16   -0.0117   -0.0104    0.0087   -0.0253    0.0272   -0.0069    0.0057   -0.0001
          17    0.0062    0.0016   -0.0098    0.0071   -0.0276   -0.0004    0.0035    0.0066
          18    0.0147   -0.0182   -0.0109   -0.0056   -0.0281    0.0042   -0.0040    0.0063
          19   -0.0222   -0.0009    0.0130   -0.0330   -0.0323    0.0065   -0.0053    0.0116
          20    0.0128    0.0139    0.0024    0.0370    0.0120    0.0005   -0.0055    0.0024
          21    0.0243   -0.0266   -0.0145    0.0019    0.0268   -0.0080    0.0061   -0.0044
          22    0.0483   -0.0109   -0.0111    0.0029   -0.0004    0.0176   -0.0243    0.0127
          23   -0.0083   -0.0156   -0.0084    0.0137   -0.0118   -0.0174    0.0293    0.0150
          24    0.0110    0.0110   -0.0083   -0.0089    0.0077    0.0064   -0.0112    0.0005
          25   -0.0042   -0.0138   -0.0122    0.0128    0.0032   -0.0021   -0.0121   -0.0125
          26    0.0136    0.0062    0.0070   -0.0045   -0.0002    0.0027    0.0047   -0.0201
          27   -0.0150    0.0013   -0.0148    0.0016    0.0047   -0.0079    0.0009    0.0006
          28   -0.0062    0.0116    0.0136    0.0162   -0.0030    0.0024    0.0029   -0.0042
          29   -0.0056    0.0136   -0.0056    0.0084    0.0042    0.0056   -0.0100   -0.0026
          30   -0.0167   -0.0011   -0.0133    0.0028    0.0043   -0.0117    0.0043   -0.0043
          31    0.0426   -0.0011    0.0025    0.0068   -0.0055    0.0046    0.0281   -0.0034
          32   -0.0185   -0.0144   -0.0131    0.0050    0.0020   -0.0042   -0.0292   -0.0099
          33    0.0072    0.0179    0.0012   -0.0061    0.0040   -0.0027    0.0258   -0.0097
          34   -0.0095    0.0592   -0.0242    0.0101   -0.0008    0.0022    0.0001    0.0129
          35   -0.0090   -0.0098    0.0279    0.0298   -0.0021    0.0101   -0.0082    0.0098
          36   -0.0203   -0.0192    0.0153    0.0227   -0.0015   -0.0075    0.0060    0.0088
          37   -0.0053   -0.0064   -0.0026    0.0182   -0.0134   -0.0060    0.0023   -0.0039
          38    0.0053    0.0012   -0.0078    0.0005   -0.0212   -0.0006    0.0044    0.0079
          39    0.0169    0.0049    0.0267   -0.0067   -0.0068    0.0264   -0.0314    0.0024
          40   -0.0092   -0.0119    0.0023   -0.0096    0.0052   -0.0084    0.0077    0.0062
          41    0.0019    0.0048    0.0013   -0.0152    0.0088    0.0040   -0.0045   -0.0162
          42   -0.0097    0.0271    0.0297   -0.0013    0.0119    0.0079   -0.0032   -0.0120
          43   -0.0050    0.0014    0.0013    0.0278   -0.0041   -0.0012   -0.0034   -0.0129
          44    0.0014    0.0032    0.0014   -0.0194    0.0099    0.0036   -0.0043   -0.0157
          45   -0.0239    0.0182   -0.0033    0.0088    0.0011   -0.0076    0.0097    0.0089
          46   -0.0152   -0.0117    0.0140   -0.0459    0.0409   -0.0066    0.0074    0.0053
          47    0.0045    0.0010   -0.0054   -0.0057   -0.0130   -0.0006    0.0046    0.0095
          48    0.0061   -0.0214   -0.0230   -0.0159   -0.1058    0.0108   -0.0049    0.0128
          49   -0.0026   -0.0188    0.0053   -0.0194    0.0784   -0.0181    0.0148   -0.0082
          50    0.0048   -0.0063   -0.0280    0.0121   -0.0869   -0.0004    0.0071    0.0049
          51    0.0194   -0.0231   -0.0137   -0.0023   -0.0042   -0.0018    0.0011    0.0017
          52    0.0065   -0.0203   -0.0022    0.0010   -0.0155    0.0012   -0.0062    0.0116
          53   -0.0046   -0.0192   -0.0275   -0.0363   -0.0003   -0.0191    0.0270    0.0189
          54    0.0051    0.0180    0.0260    0.0080   -0.0061    0.0190   -0.0213   -0.0102
          55    0.0048   -0.0197    0.0032   -0.0072    0.0003    0.0038   -0.0118   -0.0042
          56   -0.0047   -0.0191   -0.0276   -0.0363   -0.0003   -0.0191    0.0270    0.0189
          57   -0.0023   -0.0028   -0.0000   -0.0138   -0.0054   -0.0016    0.0051    0.0109
          58   -0.0206    0.0028    0.0017    0.0073    0.0066   -0.0160    0.0187   -0.0019
          59    0.0034    0.0134    0.0316   -0.0408    0.0304    0.0160   -0.0128   -0.0023
          60    0.0020    0.0137    0.0299   -0.0161    0.0106    0.0165   -0.0154   -0.0002
          61   -0.0235    0.0045    0.0065   -0.0010    0.0219   -0.0134    0.0124   -0.0163
          62    0.0036    0.0134    0.0317   -0.0409    0.0305    0.0159   -0.0126   -0.0022
          63    0.0009    0.0016   -0.0041    0.0102   -0.0222    0.0012   -0.0008    0.0009
          64   -0.0193    0.0001    0.0085   -0.0159   -0.0561    0.0077   -0.0064   -0.0838
          65    0.0143    0.0144   -0.0017    0.0488   -0.0124    0.0021   -0.0064   -0.0746
          66    0.0337   -0.0240   -0.0036    0.0148    0.1168   -0.0169    0.0070    0.0708
          67   -0.0313    0.0075    0.0166   -0.0392   -0.0842    0.0181   -0.0153    0.0215
          68    0.0152    0.0222    0.0198    0.0371    0.0893   -0.0017   -0.0112    0.1490
          69    0.0199   -0.0222   -0.0121   -0.0011    0.0035   -0.0023    0.0011    0.0049
          70   -0.0242   -0.0026    0.0172   -0.0498   -0.0040    0.0043   -0.0035    0.1080
          71    0.0144    0.0148   -0.0010    0.0490   -0.0089    0.0019   -0.0066   -0.0689
          72    0.0272   -0.0404   -0.0305   -0.0020    0.0040   -0.0147    0.0186   -0.0980
          73    0.0118   -0.0303   -0.0365    0.0073    0.0208    0.1389   -0.0028    0.0029
          74    0.0265    0.0029    0.0159    0.0094   -0.0320   -0.1331    0.0087    0.0244
          75   -0.0046   -0.0096   -0.0317   -0.0025    0.0169    0.0916    0.0097    0.0202
          76    0.0462   -0.0216   -0.0256    0.0006    0.0070    0.0451   -0.0666    0.0235
          77   -0.0578   -0.0468   -0.0447    0.0271    0.0112    0.1652    0.1136    0.0187
          78    0.0053    0.0138   -0.0037   -0.0054    0.0060    0.0139    0.0293   -0.0063
          79    0.0926    0.0116    0.0185   -0.0027   -0.0256   -0.1276   -0.0555    0.0264
          80    0.0136   -0.0045    0.0067    0.0118   -0.0251   -0.0880    0.0224    0.0230
          81    0.0361    0.0240    0.0035   -0.0213    0.0030   -0.0839   -0.1095   -0.0044
          82    0.0807    0.0180    0.0260    0.0040   -0.0173   -0.0012    0.0908   -0.0004
          83   -0.0552   -0.0320   -0.0351    0.0075    0.0134    0.0014   -0.0889   -0.0134
          84    0.0238    0.0379    0.0226   -0.0110    0.0010   -0.0064    0.0653   -0.0280
          85   -0.0415   -0.0326   -0.0353    0.0156    0.0137   -0.0001   -0.0670   -0.0110
          86    0.0493    0.0235    0.0285   -0.0069   -0.0103    0.0009    0.0566   -0.0204
          87   -0.0316   -0.0181   -0.0358    0.0058    0.0082   -0.0076   -0.0346    0.0076
          88   -0.0031   -0.0178    0.0534    0.0216   -0.0070    0.0061    0.0101   -0.0091
          89   -0.0085    0.0394   -0.0389    0.0049    0.0073    0.0028   -0.0162    0.0032
          90   -0.0140    0.0058   -0.0432   -0.0142    0.0108   -0.0178   -0.0009   -0.0191
          91   -0.0127    0.0901   -0.0648    0.0045    0.0031   -0.0015   -0.0066    0.0199
          92   -0.0061   -0.0363    0.0620    0.0342   -0.0053    0.0132   -0.0026    0.0033
          93   -0.0234   -0.0267    0.0451    0.0405   -0.0082   -0.0012    0.0106    0.0277
          94   -0.0094    0.0712   -0.0182    0.0100   -0.0028    0.0057    0.0044    0.0222
          95   -0.0148   -0.0045    0.0240    0.0448   -0.0046    0.0113   -0.0123    0.0281
          96   -0.0203   -0.0280    0.0110    0.0226   -0.0001   -0.0100    0.0029    0.0019


   Root No.       9        10        11        12        13        14        15        16

                 9 A      10 A      11 A      12 A      13 A      14 A      15 A      16 A   

                 187.5     212.5     258.2     333.5     337.3     369.1     416.6     440.6
  
           1    0.0015    0.0002    0.0023   -0.0095   -0.0061   -0.0033   -0.0191    0.0104
           2    0.0053    0.0049   -0.0070   -0.0024   -0.0204   -0.0102   -0.0266   -0.0042
           3   -0.0072    0.0142    0.0052   -0.0137    0.0163   -0.0299    0.0031   -0.0129
           4    0.0016   -0.0020   -0.0018   -0.0193   -0.0049    0.0062   -0.0107    0.0022
           5   -0.0085    0.0024    0.0217    0.0033    0.0101    0.0039    0.0391    0.0124
           6    0.0076   -0.0146   -0.0125    0.0123    0.0000   -0.0055    0.0021    0.0248
           7    0.0150    0.0064    0.0081    0.0012   -0.0017   -0.0119    0.0032    0.0152
           8    0.0162    0.0102   -0.0045   -0.0010   -0.0191   -0.0110   -0.0058   -0.0013
           9   -0.0037    0.0064   -0.0025   -0.0002   -0.0042   -0.0021    0.0005    0.0035
          10    0.0082   -0.0142   -0.0074   -0.0027   -0.0140    0.0167   -0.0174    0.0323
          11   -0.0076    0.0113   -0.0265    0.0200    0.0191   -0.0259   -0.0105    0.0089
          12    0.0002   -0.0007   -0.0045   -0.0036    0.0098   -0.0203    0.0063    0.0064
          13   -0.0056    0.0119    0.0091   -0.0295    0.0034   -0.0122   -0.0149   -0.0143
          14   -0.0159   -0.0165    0.0323    0.0157   -0.0079    0.0054   -0.0192   -0.0057
          15    0.0000    0.0001   -0.0028    0.0015    0.0097   -0.0252    0.0007    0.0105
          16   -0.0081   -0.0108   -0.0112   -0.0069    0.0095    0.0118    0.0310   -0.0044
          17   -0.0010    0.0087    0.0280   -0.0085   -0.0001    0.0030    0.0129    0.0122
          18    0.0077    0.0009    0.0005   -0.0047   -0.0047    0.0074   -0.0101   -0.0284
          19    0.0072   -0.0110   -0.0188   -0.0054    0.0041    0.0145    0.0172   -0.0250
          20    0.0078   -0.0112   -0.0314   -0.0000    0.0022    0.0062    0.0017   -0.0179
          21   -0.0066    0.0008    0.0082   -0.0083    0.0006    0.0082    0.0076   -0.0179
          22   -0.0198    0.0040   -0.0034   -0.0076    0.0042   -0.0100   -0.0038    0.0008
          23   -0.0148   -0.0092   -0.0056   -0.0037   -0.0236   -0.0002    0.0032    0.0026
          24   -0.0081    0.0117   -0.0108   -0.0093   -0.0256    0.0231    0.0077    0.0080
          25    0.0212   -0.0067    0.0174    0.0356   -0.0021   -0.0108    0.0086   -0.0100
          26    0.0178    0.0223   -0.0043   -0.0085    0.0263    0.0333   -0.0033    0.0078
          27    0.0005   -0.0039    0.0027    0.0202   -0.0141    0.0044    0.0073   -0.0111
          28   -0.0063    0.0319   -0.0021    0.0132   -0.0183   -0.0113    0.0131    0.0085
          29    0.0114   -0.0216    0.0017   -0.0189   -0.0102   -0.0213    0.0154   -0.0009
          30    0.0105   -0.0122    0.0058   -0.0066    0.0081   -0.0019   -0.0088    0.0123
          31    0.0119   -0.0104    0.0108    0.0217    0.0168   -0.0098   -0.0011   -0.0131
          32    0.0051    0.0180    0.0001    0.0053    0.0241    0.0217   -0.0012   -0.0015
          33    0.0128    0.0008   -0.0008    0.0103   -0.0162    0.0177    0.0078   -0.0023
          34   -0.0180    0.0011    0.0018    0.0127    0.0074    0.0132   -0.0099   -0.0006
          35   -0.0094   -0.0106    0.0011   -0.0038    0.0006   -0.0032    0.0050   -0.0055
          36   -0.0100   -0.0041    0.0055    0.0079    0.0211    0.0180   -0.0221    0.0087
          37    0.0070    0.0035    0.0092   -0.0332   -0.0097    0.0113   -0.0040    0.0095
          38   -0.0047    0.0060    0.0284   -0.0059    0.0064    0.0069    0.0413    0.0165
          39    0.0090   -0.0369   -0.0015    0.0245   -0.0153    0.0151    0.0007    0.0485
          40   -0.0116   -0.0058    0.0039   -0.0042    0.0039   -0.0008   -0.0280    0.0122
          41    0.0140    0.0087   -0.0076   -0.0059   -0.0262   -0.0117   -0.0198   -0.0050
          42   -0.0154    0.0156    0.0332   -0.0278    0.0168   -0.0350    0.0012   -0.0418
          43    0.0192    0.0058    0.0117   -0.0002    0.0125   -0.0062    0.0202    0.0198
          44    0.0121    0.0102   -0.0069    0.0006   -0.0281   -0.0148   -0.0187   -0.0047
          45   -0.0130    0.0048   -0.0082   -0.0076   -0.0196   -0.0144    0.0061    0.0087
          46   -0.0150   -0.0147   -0.0080    0.0034    0.0203    0.0129    0.0694    0.0109
          47   -0.0061    0.0048    0.0276   -0.0004    0.0078    0.0033    0.0395    0.0233
          48    0.0172    0.0185    0.0295   -0.0198   -0.0186    0.0087   -0.0486   -0.0541
          49   -0.0200   -0.0126   -0.0109   -0.0082    0.0160    0.0153    0.0527   -0.0019
          50    0.0059    0.0286    0.0572   -0.0320   -0.0179    0.0062   -0.0400   -0.0250
          51    0.0016    0.0012    0.0031   -0.0070   -0.0023    0.0094   -0.0020   -0.0295
          52    0.0067   -0.0238    0.0001    0.0076   -0.0049    0.0318    0.0144    0.0554
          53   -0.0124    0.0161   -0.0509    0.0370    0.0394   -0.0474   -0.0271    0.0150
          54    0.0066   -0.0072    0.0283   -0.0262   -0.0173    0.0083    0.0281   -0.0016
          55    0.0185   -0.0220   -0.0246    0.0024   -0.0336    0.0207   -0.0506    0.0420
          56   -0.0125    0.0158   -0.0503    0.0363    0.0386   -0.0462   -0.0266    0.0141
          57   -0.0063    0.0052   -0.0355    0.0172    0.0348   -0.0457   -0.0141    0.0125
          58   -0.0161    0.0193    0.0273   -0.0358    0.0230   -0.0136    0.0181   -0.0177
          59   -0.0262   -0.0304    0.0501    0.0294   -0.0101    0.0130   -0.0443   -0.0157
          60   -0.0138   -0.0187    0.0211    0.0196    0.0068   -0.0150   -0.0323   -0.0027
          61   -0.0039    0.0214    0.0015   -0.0423   -0.0043   -0.0272   -0.0456   -0.0376
          62   -0.0260   -0.0302    0.0491    0.0289   -0.0095    0.0126   -0.0428   -0.0152
          63    0.0133    0.0181   -0.0245   -0.0153    0.0115   -0.0345    0.0304    0.0226
          64   -0.0392   -0.0447   -0.0622    0.0024    0.0093    0.0171    0.0189   -0.0427
          65   -0.0298   -0.0376   -0.0639    0.0060    0.0061    0.0080    0.0027   -0.0313
          66    0.0325    0.0146    0.0022   -0.0103    0.0020    0.0099    0.0096   -0.0236
          67    0.0212   -0.0115   -0.0290   -0.0035   -0.0013    0.0167   -0.0003   -0.0504
          68    0.0885    0.0230   -0.0215   -0.0049   -0.0030    0.0084   -0.0098   -0.0331
          69    0.0028    0.0016    0.0038   -0.0075   -0.0022    0.0092   -0.0016   -0.0305
          70    0.0533    0.0233    0.0262   -0.0138   -0.0008    0.0125    0.0180   -0.0062
          71   -0.0266   -0.0363   -0.0640    0.0060    0.0059    0.0078    0.0016   -0.0318
          72   -0.0669   -0.0136    0.0267   -0.0097    0.0065    0.0042    0.0296    0.0184
          73   -0.0132    0.0176   -0.0038   -0.0097    0.0249    0.0009   -0.0068    0.0020
          74   -0.0213   -0.0223   -0.0054   -0.0020   -0.0441   -0.0107    0.0062    0.0018
          75   -0.0369    0.0125   -0.0248   -0.0380   -0.0565    0.0177    0.0085    0.0240
          76   -0.0445    0.0200   -0.0160   -0.0362   -0.0021   -0.0041   -0.0068    0.0179
          77   -0.0187   -0.0117   -0.0102   -0.0116   -0.0363   -0.0041    0.0043    0.0059
          78    0.0080    0.0006   -0.0030    0.0087   -0.0234    0.0188    0.0099   -0.0028
          79   -0.0314   -0.0108   -0.0049   -0.0097   -0.0232   -0.0232   -0.0006    0.0025
          80   -0.0207   -0.0197   -0.0062   -0.0038   -0.0415   -0.0092    0.0056    0.0028
          81   -0.0135    0.0335   -0.0137   -0.0189   -0.0025    0.0402    0.0036    0.0157
          82    0.0136   -0.0178    0.0051    0.0013    0.0231   -0.0013   -0.0087    0.0000
          83    0.0043    0.0253    0.0056    0.0248    0.0174    0.0141    0.0063   -0.0135
          84    0.0386    0.0038    0.0019    0.0089    0.0018    0.0384    0.0055    0.0059
          85    0.0166   -0.0075    0.0234    0.0589   -0.0262   -0.0354    0.0174   -0.0271
          86    0.0209    0.0228   -0.0102   -0.0305    0.0492    0.0565   -0.0118    0.0234
          87   -0.0081   -0.0081    0.0088    0.0433   -0.0093    0.0003    0.0128   -0.0323
          88   -0.0194    0.0826   -0.0138    0.0515   -0.0504   -0.0012    0.0182   -0.0007
          89    0.0204   -0.0653    0.0117   -0.0503    0.0185   -0.0280    0.0100    0.0058
          90    0.0397   -0.0372    0.0139   -0.0352    0.0187   -0.0215   -0.0112    0.0273
          91   -0.0076   -0.0513    0.0145   -0.0236    0.0498    0.0120   -0.0282    0.0101
          92   -0.0176    0.0338   -0.0097    0.0266   -0.0356   -0.0029    0.0209   -0.0145
          93   -0.0449    0.0198   -0.0010    0.0495    0.0263    0.0623   -0.0470   -0.0101
          94   -0.0398    0.0241   -0.0071    0.0500   -0.0056    0.0438   -0.0217   -0.0215
          95   -0.0211   -0.0451    0.0115   -0.0182    0.0499    0.0184   -0.0256   -0.0021
          96    0.0057   -0.0204    0.0119   -0.0186    0.0305   -0.0037   -0.0140    0.0239


   Root No.      17        18        19        20        21        22        23        24

[...]
 TRANSITION DIPOLE   0.0866         C  2 -- H 13          +9.7% ( 31.8%)    100.0%
 TRAVEL (Ang.)       0.1814         C  6 -- H 16          +1.4% ( 12.1%)     97.3%
 REDUCED MASS        0.6933         C  6 -- H 17          +1.1% ( 10.8%)     95.9%
 EFFECTIVE MASS      1.4596
 FORCE CONSTANT      3.5706

 VIBRATION         75   75A           ATOM PAIR      ENERGY CONTRIBUTION    RADIAL
 FREQUENCY          3026.87         C  5 -- H 21         +39.9% ( 64.6%)     98.5%
 TRANSITION DIPOLE   0.0631         C  6 -- H 17         +18.0% ( 43.4%)     98.4%
 TRAVEL (Ang.)       0.2951         C  5 -- H 20         +17.8% ( 43.2%)     93.6%
 REDUCED MASS        0.2558         C  6 -- H 16         +13.3% ( 37.3%)     96.7%
 EFFECTIVE MASS      1.4393
 FORCE CONSTANT      1.3806

 VIBRATION         76   76A           ATOM PAIR      ENERGY CONTRIBUTION    RADIAL
 FREQUENCY          3028.16         C  6 -- H 17         +36.1% ( 60.4%)     98.5%
 TRANSITION DIPOLE   0.0413         C  6 -- H 16         +25.5% ( 50.8%)     96.5%
 TRAVEL (Ang.)       0.2946         C  5 -- H 21         +19.5% ( 44.4%)     98.4%
 REDUCED MASS        0.2566         C  5 -- H 20          +9.2% ( 30.5%)     93.9%
 EFFECTIVE MASS      1.3693
 FORCE CONSTANT      1.3865

 VIBRATION         77   77A           ATOM PAIR      ENERGY CONTRIBUTION    RADIAL
 FREQUENCY          3031.55         C  4 -- H 19         +54.6% ( 76.8%)     98.3%
 TRANSITION DIPOLE   0.1224         C  4 -- H 18         +27.6% ( 54.6%)     94.2%
 TRAVEL (Ang.)       0.2300         C  5 -- H 21          +8.7% ( 30.7%)     98.6%
 REDUCED MASS        0.4204         C  5 -- H 20          +3.9% ( 20.4%)     93.4%
 EFFECTIVE MASS      1.5357
 FORCE CONSTANT      2.2764

 VIBRATION         78   78A           ATOM PAIR      ENERGY CONTRIBUTION    RADIAL
 FREQUENCY          3035.84         C 11 -- H 28         +91.2% ( 96.8%)    100.0%
 TRANSITION DIPOLE   0.2673         C  9 -- H 29          +3.7% ( 19.5%)     99.7%
 TRAVEL (Ang.)       0.1648         C  8 -- C 11          +1.3% ( 11.6%)     12.4%
 REDUCED MASS        0.8181         C  9 -- C 11          +1.2% ( 11.0%)     38.6%
 EFFECTIVE MASS      1.4853
 FORCE CONSTANT      4.4424

 VIBRATION         79   79A           ATOM PAIR      ENERGY CONTRIBUTION    RADIAL
 FREQUENCY          3038.78         C  9 -- H 29         +92.7% ( 97.8%)    100.0%
 TRANSITION DIPOLE   0.2130         C 11 -- H 28          +3.4% ( 18.8%)     99.3%
 TRAVEL (Ang.)       0.1612         C  9 -- C 11          +1.8% ( 13.5%)     40.2%
 REDUCED MASS        0.8545         C  3 -- C  9          +1.3% ( 11.7%)     12.9%
 EFFECTIVE MASS      1.5429
 FORCE CONSTANT      4.6488

 VIBRATION         80   80A           ATOM PAIR      ENERGY CONTRIBUTION    RADIAL
 FREQUENCY          3042.36         C 10 -- H 30         +96.0% ( 99.4%)    100.0%
 TRANSITION DIPOLE   0.2183         C 10 -- C 12          +1.4% ( 12.0%)     31.2%
 TRAVEL (Ang.)       0.1563         C  3 -- C 10          +1.3% ( 11.7%)     13.9%
 REDUCED MASS        0.9070         C 12 -- H 32          +0.9% (  9.8%)     95.5%
 EFFECTIVE MASS      1.5004
 FORCE CONSTANT      4.9463

 VIBRATION         81   81A           ATOM PAIR      ENERGY CONTRIBUTION    RADIAL
 FREQUENCY          3070.04         C  8 -- H 26         +50.0% ( 73.0%)     97.2%
 TRANSITION DIPOLE   0.0207         C  8 -- H 27         +48.1% ( 71.5%)     96.9%
 TRAVEL (Ang.)       0.2076         C  8 -- C 11          +1.0% ( 10.2%)      0.0%
 REDUCED MASS        0.5094         C  8 -- H 25          +0.9% (  9.9%)      0.4%
 EFFECTIVE MASS      1.5012
 FORCE CONSTANT      2.8288

 VIBRATION         82   82A           ATOM PAIR      ENERGY CONTRIBUTION    RADIAL
 FREQUENCY          3075.73         C  8 -- H 25         +62.6% ( 81.6%)     98.9%
 TRANSITION DIPOLE   0.0547         C  8 -- H 27         +18.1% ( 43.9%)     85.8%
 TRAVEL (Ang.)       0.2138         C  8 -- H 26         +16.4% ( 41.7%)     84.1%
 REDUCED MASS        0.4797         C 11 -- H 28          +1.8% ( 13.7%)    100.0%
 EFFECTIVE MASS      1.5087
 FORCE CONSTANT      2.6737

 VIBRATION         83   83A           ATOM PAIR      ENERGY CONTRIBUTION    RADIAL
 FREQUENCY          3076.72         C  7 -- H 23         +58.1% ( 78.6%)     98.1%
 TRANSITION DIPOLE   0.0075         C  7 -- H 22         +38.5% ( 64.0%)     95.3%
 TRAVEL (Ang.)       0.2066         C  7 -- H 24          +2.0% ( 14.7%)     24.3%
 REDUCED MASS        0.5134         C  6 -- C  7          +1.0% ( 10.2%)      0.0%
 EFFECTIVE MASS      1.5010
 FORCE CONSTANT      2.8636

 VIBRATION         84   84A           ATOM PAIR      ENERGY CONTRIBUTION    RADIAL
 FREQUENCY          3084.29         C  7 -- H 24         +60.0% ( 79.9%)     98.6%
 TRANSITION DIPOLE   0.0030         C  7 -- H 22         +27.9% ( 54.5%)     91.6%
 TRAVEL (Ang.)       0.2139         C  7 -- H 23         +10.7% ( 33.7%)     74.9%
 REDUCED MASS        0.4778         C  6 -- C  7          +1.0% ( 10.3%)      0.0%
 EFFECTIVE MASS      1.5038
 FORCE CONSTANT      2.6779

 VIBRATION         85   85A           ATOM PAIR      ENERGY CONTRIBUTION    RADIAL
 FREQUENCY          3097.96         C  5 -- H 20         +47.7% ( 68.5%)     99.0%
 TRANSITION DIPOLE   0.1047         C  4 -- H 18         +20.3% ( 44.7%)     98.9%
 TRAVEL (Ang.)       0.2629         C  5 -- H 21         +20.3% ( 44.7%)     93.0%
 REDUCED MASS        0.3149         C  4 -- H 19          +9.7% ( 31.0%)     94.0%
 EFFECTIVE MASS      1.2731
 FORCE CONSTANT      1.7807

 VIBRATION         86   86A           ATOM PAIR      ENERGY CONTRIBUTION    RADIAL
 FREQUENCY          3101.00         C  4 -- H 18         +45.8% ( 67.3%)     98.7%
 TRANSITION DIPOLE   0.0328         C  4 -- H 19         +21.9% ( 46.5%)     93.4%
 TRAVEL (Ang.)       0.2650         C  5 -- H 20         +20.9% ( 45.5%)     98.8%
 REDUCED MASS        0.3095         C  5 -- H 21          +9.0% ( 29.7%)     92.4%
 EFFECTIVE MASS      1.3106
 FORCE CONSTANT      1.7538

 VIBRATION         87   87A           ATOM PAIR      ENERGY CONTRIBUTION    RADIAL
 FREQUENCY          3133.67         C 12 -- H 31         +92.3% ( 97.8%)     99.9%
 TRANSITION DIPOLE   0.1830         C 12 -- H 32          +6.3% ( 25.6%)     69.7%
 TRAVEL (Ang.)       0.1581         C 10 -- C 12          +1.3% ( 11.7%)     23.1%
 REDUCED MASS        0.8606
 EFFECTIVE MASS      1.5365
 FORCE CONSTANT      4.9793

 VIBRATION         88   88A           ATOM PAIR      ENERGY CONTRIBUTION    RADIAL
 FREQUENCY          3146.71         C 12 -- H 32         +92.2% ( 96.7%)     99.7%
 TRANSITION DIPOLE   0.2600         C 12 -- H 31          +5.3% ( 23.3%)     37.8%
 TRAVEL (Ang.)       0.1611         C 10 -- C 12          +1.6% ( 12.7%)     72.4%
 REDUCED MASS        0.8259         C 10 -- H 30          +0.8% (  9.1%)     95.0%
 EFFECTIVE MASS      1.4684
 FORCE CONSTANT      4.8185

 VIBRATION         89   89A           ATOM PAIR      ENERGY CONTRIBUTION    RADIAL
 FREQUENCY          3169.58         C  8 -- H 25         +34.6% ( 56.7%)     97.3%
 TRANSITION DIPOLE   0.0683         C  8 -- H 27         +32.7% ( 55.0%)     97.1%
 TRAVEL (Ang.)       0.2550         C  8 -- H 26         +32.4% ( 54.8%)     97.0%
 REDUCED MASS        0.3272         C  8 -- C 11          +0.3% (  5.4%)    100.0%
 EFFECTIVE MASS      1.1393
 FORCE CONSTANT      1.9369

 VIBRATION         90   90A           ATOM PAIR      ENERGY CONTRIBUTION    RADIAL
 FREQUENCY          3179.62         C  7 -- H 24         +37.3% ( 58.8%)     97.7%
 TRANSITION DIPOLE   0.0093         C  7 -- H 22         +32.6% ( 55.0%)     97.0%
 TRAVEL (Ang.)       0.2538         C  7 -- H 23         +29.7% ( 52.5%)     96.5%
 REDUCED MASS        0.3294         C  6 -- C  7          +0.3% (  5.1%)     99.3%
 EFFECTIVE MASS      1.1368
 FORCE CONSTANT      1.9619

      SYMMETRY NUMBER FOR POINT-GROUP C1  =  1


          SYSTEM IS A GROUND STATE



 InChI=1S/C12H20/c1-4-7-11(6-3)12-8-10(5-2)9-12/h4,6-7,10-12H,3,5,8-9H2,1-2H3


          MOLECULE IS NOT LINEAR

          THERE ARE 90 GENUINE VIBRATIONS IN THIS SYSTEM
          THIS THERMODYNAMICS CALCULATION IS LIMITED TO
          MOLECULES WHICH HAVE NO INTERNAL ROTATIONS




                    CALCULATED THERMODYNAMIC PROPERTIES
                                          *
   TEMP. (K)   PARTITION FUNCTION   H.O.F.    ENTHALPY  HEAT CAPACITY ENTROPY
                                   KCAL/MOL   CAL/MOLE    CAL/K/MOL  CAL/K/MOL


 298.00  VIB.     0.7665D+06                  7185.2744    46.1403    51.0375
         ROT.     0.1725D+07                   888.2803     2.9808    31.5181
         INT.     0.1322D+13                  8073.5547    49.1211    82.5556
         TRA.     0.2036D+28                  1480.4672     4.9680    41.1956
         TOT.                        8.039    9554.0219    54.0891   123.7512

 200.00  VIB.     0.1281D+05                  3445.7729    30.7856    36.0239
         ROT.     0.9482D+06                   596.1613     2.9808    30.3294
         INT.     0.1215D+11                  4041.9342    33.7664    66.3533
         TRA.     0.1119D+28                   993.6021     4.9680    39.2145
         TOT.                        3.520    5035.5364    38.7345   105.5678

 210.00  VIB.     0.1972D+05                  3760.5104    32.1693    37.5593
         ROT.     0.1020D+07                   625.9693     2.9808    30.4748
         INT.     0.2012D+11                  4386.4797    35.1502    68.0341
         TRA.     0.1204D+28                  1043.2822     4.9680    39.4569
         TOT.                        3.915    5429.7620    40.1182   107.4910

 220.00  VIB.     0.3022D+05                  4089.3129    33.5989    39.0886
         ROT.     0.1094D+07                   655.7774     2.9808    30.6135
         INT.     0.3306D+11                  4745.0903    36.5797    69.7021
         TRA.     0.1291D+28                  1092.9623     4.9680    39.6880
         TOT.                        4.323    5838.0526    41.5477   109.3901

 230.00  VIB.     0.4616D+05                  4432.6427    35.0748    40.6145
         ROT.     0.1169D+07                   685.5855     2.9808    30.7460
         INT.     0.5397D+11                  5118.2282    38.0556    71.3605
         TRA.     0.1380D+28                  1142.6424     4.9680    39.9088
         TOT.                        4.746    6260.8706    43.0236   111.2694

 240.00  VIB.     0.7025D+05                  4790.9595    36.5960    42.1393
         ROT.     0.1246D+07                   715.3935     2.9808    30.8729
         INT.     0.8757D+11                  5506.3531    39.5768    73.0121
         TRA.     0.1471D+28                  1192.3226     4.9680    40.1203
         TOT.                        5.184    6698.6756    44.5448   113.1324

 250.00  VIB.     0.1066D+06                  5164.7056    38.1601    43.6647
         ROT.     0.1325D+07                   745.2016     2.9808    30.9945
         INT.     0.1413D+12                  5909.9072    41.1410    74.6593
         TRA.     0.1564D+28                  1242.0027     4.9680    40.3231
         TOT.                        5.637    7151.9099    46.1090   114.9824

 260.00  VIB.     0.1614D+06                  5554.2945    39.7639    45.1925
         ROT.     0.1405D+07                   775.0097     2.9808    31.1115
         INT.     0.2268D+12                  6329.3041    42.7447    76.3040
         TRA.     0.1659D+28                  1291.6828     4.9680    40.5179
         TOT.                        6.106    7620.9869    47.7127   116.8219

 270.00  VIB.     0.2438D+06                  5960.1016    41.4031    46.7239
         ROT.     0.1487D+07                   804.8177     2.9808    31.2240
         INT.     0.3626D+12                  6764.9193    44.3839    77.9478
         TRA.     0.1756D+28                  1341.3629     4.9680    40.7054
         TOT.                        6.591    8106.2822    49.3519   118.6533

 280.00  VIB.     0.3675D+06                  6382.4581    43.0730    48.2597
         ROT.     0.1571D+07                   834.6258     2.9808    31.3324
         INT.     0.5773D+12                  7217.0839    46.0538    79.5921
         TRA.     0.1854D+28                  1391.0430     4.9680    40.8861
         TOT.                        7.093    8608.1268    51.0218   120.4782

 290.00  VIB.     0.5532D+06                  6821.6467    44.7686    49.8007
         ROT.     0.1656D+07                   864.4339     2.9808    31.4370
         INT.     0.9159D+12                  7686.0806    47.7494    81.2377
         TRA.     0.1954D+28                  1440.7231     4.9680    41.0604
         TOT.                        7.612    9126.8037    52.7174   122.2981

 300.00  VIB.     0.8315D+06                  7277.8995    46.4849    51.3473
         ROT.     0.1742D+07                   894.2419     2.9808    31.5380
         INT.     0.1449D+13                  8172.1414    49.4657    82.8853
         TRA.     0.2056D+28                  1490.4032     4.9680    41.2289
         TOT.                        8.147    9662.5446    54.4338   124.1142

 310.00  VIB.     0.1248D+07                  7751.3974    48.2168    52.8997
         ROT.     0.1830D+07                   924.0500     2.9808    31.6358
         INT.     0.2284D+13                  8675.4473    51.1976    84.5355
         TRA.     0.2160D+28                  1540.0833     4.9680    41.3918
         TOT.                        8.700   10215.5306    56.1656   125.9273

 320.00  VIB.     0.1873D+07                  8242.2707    49.9592    54.4580
         ROT.     0.1919D+07                   953.8580     2.9808    31.7304
         INT.     0.3594D+13                  9196.1287    52.9400    86.1884
         TRA.     0.2265D+28                  1589.7634     4.9680    41.5495
         TOT.                        9.271   10785.8921    57.9080   127.7379

 330.00  VIB.     0.2807D+07                  8750.6014    51.7075    56.0221
         ROT.     0.2010D+07                   983.6661     2.9808    31.8221
         INT.     0.5641D+13                  9734.2675    54.6883    87.8442
         TRA.     0.2372D+28                  1639.4435     4.9680    41.7024
         TOT.                        9.859   11373.7110    59.6563   129.5466

 340.00  VIB.     0.4204D+07                  9276.4254    53.4572    57.5917
         ROT.     0.2102D+07                  1013.4742     2.9808    31.9111
         INT.     0.8837D+13                 10289.8996    56.4380    89.5028
         TRA.     0.2481D+28                  1689.1236     4.9680    41.8507
         TOT.                       10.464   11979.0232    61.4060   131.3535

 350.00  VIB.     0.6295D+07                  9819.7358    55.2041    59.1665
         ROT.     0.2195D+07                  1043.2822     2.9808    31.9975
         INT.     0.1382D+14                 10863.0180    58.1849    91.1640
         TRA.     0.2591D+28                  1738.8037     4.9680    41.9947
         TOT.                       11.087   12601.8217    63.1529   133.1587

 360.00  VIB.     0.9421D+07                 10380.4862    56.9446    60.7461
         ROT.     0.2290D+07                  1073.0903     2.9808    32.0815
         INT.     0.2157D+14                 11453.5765    59.9254    92.8276
         TRA.     0.2703D+28                  1788.4838     4.9680    42.1347
         TOT.                       11.727   13242.0603    64.8934   134.9622

 370.00  VIB.     0.1410D+08                 10958.5947    58.6752    62.3300
         ROT.     0.2386D+07                  1102.8984     2.9808    32.1631
         INT.     0.3363D+14                 12061.4931    61.6560    94.4931
         TRA.     0.2817D+28                  1838.1639     4.9680    42.2708
         TOT.                       12.385   13899.6570    66.6240   136.7639

 380.00  VIB.     0.2109D+08                 11553.9474    60.3930    63.9176
         ROT.     0.2483D+07                  1132.7064     2.9808    32.2426
         INT.     0.5236D+14                 12686.6539    63.3738    96.1602
         TRA.     0.2932D+28                  1887.8440     4.9680    42.4033
         TOT.                       13.059   14574.4979    68.3418   138.5635

 390.00  VIB.     0.3154D+08                 12166.4023    62.0952    65.5083
         ROT.     0.2582D+07                  1162.5145     2.9808    32.3201
         INT.     0.8143D+14                 13328.9168    65.0760    97.8284
         TRA.     0.3048D+28                  1937.5242     4.9680    42.5323
         TOT.                       13.751   15266.4409    70.0440   140.3607

 400.00  VIB.     0.4717D+08                 12795.7925    63.7797    67.1017
         ROT.     0.2682D+07                  1192.3226     2.9808    32.3955
         INT.     0.1265D+15                 13988.1151    66.7605    99.4973
         TRA.     0.3166D+28                  1987.2043     4.9680    42.6581
         TOT.                       14.460   15975.3193    71.7285   142.1554

   *: NOTE: HEATS OF FORMATION ARE RELATIVE TO THE
            ELEMENTS IN THEIR STANDARD STATE AT 298K
              (=  Standard Enthalpy of Formation).

            Hvib:  Zero-point energy is not included.
                   frequencies of less than zero cm-1 are not included.
            Hrot = (3/2)RT
            Htra = (3/2)RT + pV = (5/2)RT

            Heat capacity is Cp, not Cv

          For more information, see: HTTP://OpenMOPAC.net/Manual/thermochemistry.html


           FORCE CONSTANT IN CARTESIAN COORDINATES (Millidynes/A)

    ATOM   CHEMICAL       X               Y               Z
   NUMBER   SYMBOL  FORCE CONSTANT  FORCE CONSTANT  FORCE CONSTANT

      1       C        9.779498        8.403067        6.382151
      2       C        9.847390        8.640170        6.339195
      3       C        8.574838        8.164044        9.085286
      4       C        5.997768        8.653189        9.739742
      5       C        5.992422        8.646523        9.731019
      6       C        8.401686        8.261426        8.427347
      7       C        8.343733        8.346177        8.205995
      8       C        8.457708        8.226401        8.771749
      9       C        6.446164        9.349459       11.354044
     10       C        6.110429       10.049568       10.936140
     11       C        6.501871        9.224030       11.432242
     12       C        5.851477        9.745559       10.884896
     13       H        2.050096        3.545034        0.665809
     14       H        2.069276        3.534583        0.664650
     15       H        1.987577        3.215164        0.793742
     16       H        2.049262        3.583220        0.738296
     17       H        1.681631        0.695405        4.000006
     18       H        0.667043        3.720227        2.248634
     19       H        0.675491        3.633620        2.279488
     20       H        0.666646        3.717316        2.251257
     21       H        0.678522        3.627102        2.274068
     22       H        2.314175        3.729311        0.735146
     23       H        1.720394        0.672078        4.362331
     24       H        2.237182        3.845757        0.708618
     25       H        2.856283        3.175845        0.734147
     26       H        2.234937        0.717684        3.708803
     27       H        1.703887        4.289776        0.669737
     28       H        2.727745        2.769217        0.701651
     29       H        2.709028        2.798001        0.715772
     30       H        2.505324        3.016618        0.701238
     31       H        2.553470        3.266963        0.629614
     32       H        2.176903        0.581232        3.714198

 **********************
 *                    *
 * JOB ENDED NORMALLY *
 *                    *
 **********************



 TOTAL JOB TIME:             9.83 SECONDS

 == MOPAC DONE ==
