 *******************************************************************************
 **                                                                           **
 **                              MOPAC v23.1.2                                **
 **                                                                           **
 *******************************************************************************
 **          Digital Object Identifier (DOI): 10.5281/zenodo.6511958          **
 **    Visit the DOI location for information on how to cite this program.    **
 *******************************************************************************

                              PM3 CALCULATION RESULTS

 *******************************************************************************
 *  CALCULATION DONE: (MAX THREADS = 1)              Tue Jun  3 16:27:18 2025  *
 *  PM3        - The PM3 Hamiltonian to be used
 *  PRECISE    - TIGHTER CRITERIA TO BE USED
 *  NOSYM      - POINT-GROUP SYMMETRY SET TO C1
 *  THREADS=1  - MULTI-THREADING NOT USED
 *  T=         - A TIME OF 172800.0 SECONDS REQUESTED
 *  DUMP=N     - RESTART FILE WRITTEN EVERY 7200.0 SECONDS REQUESTED
 *******************************************************************************
pm3  precise nosym THREADS=1
 InChI=1S/C10H12/c1-8-6-7-9-4-2-3-5-10(8)9/h2-5,9-10H,1,6-7H2

   ATOM   CHEMICAL          X               Y               Z
  NUMBER   SYMBOL      (ANGSTROMS)     (ANGSTROMS)     (ANGSTROMS)

     1       C          0.34600000  *   0.94580000  *  -0.57020000  *
     2       C          0.16450000  *  -0.58670000  *  -0.62190000  *
     3       C         -0.79980000  *   1.48080000  *   0.29910000  *
     4       C         -1.94590000  *   0.48540000  *   0.14970000  *
     5       C         -1.29080000  *  -0.76230000  *  -0.33400000  *
     6       C          1.69190000  *   1.39740000  *  -0.05930000  *
     7       C          0.99110000  *  -1.32980000  *   0.40350000  *
     8       C          2.07180000  *  -0.78600000  *   0.96660000  *
     9       C          2.46500000  *   0.60040000  *   0.67970000  *
    10       C         -1.95590000  *  -1.90680000  *  -0.53200000  *
    11       H          0.21610000  *   1.34680000  *  -1.60070000  *
    12       H          0.41010000  *  -0.96510000  *  -1.63860000  *
    13       H         -1.10760000  *   2.49950000  *  -0.02280000  *
    14       H         -0.49050000  *   1.51770000  *   1.36820000  *
    15       H         -2.67790000  *   0.84250000  *  -0.60690000  *
    16       H         -2.45370000  *   0.31660000  *   1.12410000  *
    17       H          0.75570000  *  -2.36490000  *   0.62010000  *
    18       H          1.99920000  *   2.42160000  *  -0.23050000  *
    19       H          2.67540000  *  -1.37500000  *   1.64520000  *
    20       H          3.39600000  *   0.97930000  *   1.08130000  *
    21       H         -3.01900000  *  -1.97040000  *  -0.32200000  *
    22       H         -1.44170000  *  -2.78670000  *  -0.90610000  *



          CARTESIAN COORDINATES 

    NO.       ATOM           X           Y           Z

     1         C          0.3460      0.9458     -0.5702
     2         C          0.1645     -0.5867     -0.6219
     3         C         -0.7998      1.4808      0.2991
     4         C         -1.9459      0.4854      0.1497
     5         C         -1.2908     -0.7623     -0.3340
     6         C          1.6919      1.3974     -0.0593
     7         C          0.9911     -1.3298      0.4035
     8         C          2.0718     -0.7860      0.9666
     9         C          2.4650      0.6004      0.6797
    10         C         -1.9559     -1.9068     -0.5320
    11         H          0.2161      1.3468     -1.6007
    12         H          0.4101     -0.9651     -1.6386
    13         H         -1.1076      2.4995     -0.0228
    14         H         -0.4905      1.5177      1.3682
    15         H         -2.6779      0.8425     -0.6069
    16         H         -2.4537      0.3166      1.1241
    17         H          0.7557     -2.3649      0.6201
    18         H          1.9992      2.4216     -0.2305
    19         H          2.6754     -1.3750      1.6452
    20         H          3.3960      0.9793      1.0813
    21         H         -3.0190     -1.9704     -0.3220
    22         H         -1.4417     -2.7867     -0.9061

  H: (PM3): J. J. P. STEWART, J. COMP. CHEM. 10, 209 (1989).
  C: (PM3): J. J. P. STEWART, J. COMP. CHEM. 10, 209 (1989).

           Empirical Formula: C10 H12  =    22 atoms



      MOLECULAR POINT GROUP   :   C1  


      RHF CALCULATION, NO. OF DOUBLY OCCUPIED LEVELS = 26


          Geometry optimization using EF

          DIAGONAL MATRIX USED AS START HESSIAN

 CYCLE:     1 TIME:   0.012 TIME LEFT:  2.00D  GRAD.:    74.641 HEAT:  37.28660
 CYCLE:     2 TIME:   0.016 TIME LEFT:  2.00D  GRAD.:    64.596 HEAT:  36.29986
 CYCLE:     3 TIME:   0.008 TIME LEFT:  2.00D  GRAD.:    67.721 HEAT:  36.03065
 CYCLE:     4 TIME:   0.004 TIME LEFT:  2.00D  GRAD.:    44.198 HEAT:  35.37312
 CYCLE:     5 TIME:   0.012 TIME LEFT:  2.00D  GRAD.:    30.696 HEAT:  35.01116
 CYCLE:     6 TIME:   0.012 TIME LEFT:  2.00D  GRAD.:    17.582 HEAT:  34.81897
 CYCLE:     7 TIME:   0.008 TIME LEFT:  2.00D  GRAD.:    25.439 HEAT:  34.74501
 CYCLE:     8 TIME:   0.004 TIME LEFT:  2.00D  GRAD.:    22.684 HEAT:  34.60116
 CYCLE:     9 TIME:   0.012 TIME LEFT:  2.00D  GRAD.:    16.858 HEAT:  34.53490
 CYCLE:    10 TIME:   0.008 TIME LEFT:  2.00D  GRAD.:    13.082 HEAT:  34.47328
 CYCLE:    11 TIME:   0.012 TIME LEFT:  2.00D  GRAD.:     9.373 HEAT:  34.43623
 CYCLE:    12 TIME:   0.004 TIME LEFT:  2.00D  GRAD.:    11.791 HEAT:  34.42969
 CYCLE:    13 TIME:   0.008 TIME LEFT:  2.00D  GRAD.:    10.000 HEAT:  34.41088
 CYCLE:    14 TIME:   0.008 TIME LEFT:  2.00D  GRAD.:    11.495 HEAT:  34.40902
 CYCLE:    15 TIME:   0.012 TIME LEFT:  2.00D  GRAD.:     5.011 HEAT:  34.37995
 CYCLE:    16 TIME:   0.012 TIME LEFT:  2.00D  GRAD.:     3.735 HEAT:  34.37344
 CYCLE:    17 TIME:   0.004 TIME LEFT:  2.00D  GRAD.:     2.038 HEAT:  34.36595
 CYCLE:    18 TIME:   0.008 TIME LEFT:  2.00D  GRAD.:     5.903 HEAT:  34.35243
 CYCLE:    19 TIME:   0.012 TIME LEFT:  2.00D  GRAD.:    10.044 HEAT:  34.34941
 CYCLE:    20 TIME:   0.008 TIME LEFT:  2.00D  GRAD.:     6.201 HEAT:  34.32945
 CYCLE:    21 TIME:   0.008 TIME LEFT:  2.00D  GRAD.:     4.582 HEAT:  34.31835
 CYCLE:    22 TIME:   0.008 TIME LEFT:  2.00D  GRAD.:     3.876 HEAT:  34.31047
 CYCLE:    23 TIME:   0.008 TIME LEFT:  2.00D  GRAD.:     6.886 HEAT:  34.30756
 CYCLE:    24 TIME:   0.012 TIME LEFT:  2.00D  GRAD.:     7.790 HEAT:  34.30610
 CYCLE:    25 TIME:   0.004 TIME LEFT:  2.00D  GRAD.:     4.769 HEAT:  34.28353
 CYCLE:    26 TIME:   0.008 TIME LEFT:  2.00D  GRAD.:     4.198 HEAT:  34.27564
 CYCLE:    27 TIME:   0.008 TIME LEFT:  2.00D  GRAD.:     3.129 HEAT:  34.26358
 CYCLE:    28 TIME:   0.008 TIME LEFT:  2.00D  GRAD.:     4.409 HEAT:  34.25233
 CYCLE:    29 TIME:   0.004 TIME LEFT:  2.00D  GRAD.:     4.500 HEAT:  34.24080
 CYCLE:    30 TIME:   0.008 TIME LEFT:  2.00D  GRAD.:     3.030 HEAT:  34.22637
 CYCLE:    31 TIME:   0.008 TIME LEFT:  2.00D  GRAD.:     3.960 HEAT:  34.21017
 CYCLE:    32 TIME:   0.008 TIME LEFT:  2.00D  GRAD.:     5.705 HEAT:  34.19439
 CYCLE:    33 TIME:   0.008 TIME LEFT:  2.00D  GRAD.:     3.888 HEAT:  34.17767
 CYCLE:    34 TIME:   0.012 TIME LEFT:  2.00D  GRAD.:     2.698 HEAT:  34.16151
 CYCLE:    35 TIME:   0.004 TIME LEFT:  2.00D  GRAD.:     2.558 HEAT:  34.14962
 CYCLE:    36 TIME:   0.008 TIME LEFT:  2.00D  GRAD.:     2.831 HEAT:  34.14377
 CYCLE:    37 TIME:   0.008 TIME LEFT:  2.00D  GRAD.:     2.092 HEAT:  34.13723
 CYCLE:    38 TIME:   0.008 TIME LEFT:  2.00D  GRAD.:     1.844 HEAT:  34.13255
 CYCLE:    39 TIME:   0.008 TIME LEFT:  2.00D  GRAD.:     1.736 HEAT:  34.12663
 CYCLE:    40 TIME:   0.008 TIME LEFT:  2.00D  GRAD.:     1.891 HEAT:  34.12229
 CYCLE:    41 TIME:   0.008 TIME LEFT:  2.00D  GRAD.:     1.837 HEAT:  34.11471
 CYCLE:    42 TIME:   0.008 TIME LEFT:  2.00D  GRAD.:     1.641 HEAT:  34.10878
 CYCLE:    43 TIME:   0.008 TIME LEFT:  2.00D  GRAD.:     1.357 HEAT:  34.10385
 CYCLE:    44 TIME:   0.008 TIME LEFT:  2.00D  GRAD.:     1.251 HEAT:  34.09955
 CYCLE:    45 TIME:   0.008 TIME LEFT:  2.00D  GRAD.:     1.296 HEAT:  34.09577
 CYCLE:    46 TIME:   0.004 TIME LEFT:  2.00D  GRAD.:     1.123 HEAT:  34.09274
 CYCLE:    47 TIME:   0.008 TIME LEFT:  2.00D  GRAD.:     0.876 HEAT:  34.09021
 CYCLE:    48 TIME:   0.008 TIME LEFT:  2.00D  GRAD.:     0.749 HEAT:  34.08818
 CYCLE:    49 TIME:   0.008 TIME LEFT:  2.00D  GRAD.:     0.603 HEAT:  34.08698
 CYCLE:    50 TIME:   0.008 TIME LEFT:  2.00D  GRAD.:     0.535 HEAT:  34.08624
 CYCLE:    51 TIME:   0.008 TIME LEFT:  2.00D  GRAD.:     0.479 HEAT:  34.08576
 CYCLE:    52 TIME:   0.008 TIME LEFT:  2.00D  GRAD.:     0.435 HEAT:  34.08529
 CYCLE:    53 TIME:   0.008 TIME LEFT:  2.00D  GRAD.:     0.327 HEAT:  34.08497
 CYCLE:    54 TIME:   0.008 TIME LEFT:  2.00D  GRAD.:     0.216 HEAT:  34.08479
 CYCLE:    55 TIME:   0.008 TIME LEFT:  2.00D  GRAD.:     0.193 HEAT:  34.08470
 CYCLE:    56 TIME:   0.008 TIME LEFT:  2.00D  GRAD.:     0.183 HEAT:  34.08462
 CYCLE:    57 TIME:   0.004 TIME LEFT:  2.00D  GRAD.:     0.204 HEAT:  34.08455
 CYCLE:    58 TIME:   0.008 TIME LEFT:  2.00D  GRAD.:     0.197 HEAT:  34.08447
 CYCLE:    59 TIME:   0.008 TIME LEFT:  2.00D  GRAD.:     0.210 HEAT:  34.08437
 CYCLE:    60 TIME:   0.012 TIME LEFT:  2.00D  GRAD.:     0.263 HEAT:  34.08423
 CYCLE:    61 TIME:   0.008 TIME LEFT:  2.00D  GRAD.:     0.326 HEAT:  34.08404
 CYCLE:    62 TIME:   0.008 TIME LEFT:  2.00D  GRAD.:     0.395 HEAT:  34.08374
 CYCLE:    63 TIME:   0.008 TIME LEFT:  2.00D  GRAD.:     0.377 HEAT:  34.08349
 CYCLE:    64 TIME:   0.008 TIME LEFT:  2.00D  GRAD.:     0.421 HEAT:  34.08298
 CYCLE:    65 TIME:   0.008 TIME LEFT:  2.00D  GRAD.:     0.371 HEAT:  34.08275
 CYCLE:    66 TIME:   0.008 TIME LEFT:  2.00D  GRAD.:     0.365 HEAT:  34.08248
 CYCLE:    67 TIME:   0.012 TIME LEFT:  2.00D  GRAD.:     0.201 HEAT:  34.08221
 CYCLE:    68 TIME:   0.004 TIME LEFT:  2.00D  GRAD.:     0.167 HEAT:  34.08208
 CYCLE:    69 TIME:   0.012 TIME LEFT:  2.00D  GRAD.:     0.160 HEAT:  34.08201
 CYCLE:    70 TIME:   0.008 TIME LEFT:  2.00D  GRAD.:     0.141 HEAT:  34.08195
 CYCLE:    71 TIME:   0.008 TIME LEFT:  2.00D  GRAD.:     0.136 HEAT:  34.08188
 CYCLE:    72 TIME:   0.008 TIME LEFT:  2.00D  GRAD.:     0.104 HEAT:  34.08182
 CYCLE:    73 TIME:   0.008 TIME LEFT:  2.00D  GRAD.:     0.105 HEAT:  34.08177
 CYCLE:    74 TIME:   0.016 TIME LEFT:  2.00D  GRAD.:     0.091 HEAT:  34.08176
 CYCLE:    75 TIME:   0.004 TIME LEFT:  2.00D  GRAD.:     0.083 HEAT:  34.08173
 CYCLE:    76 TIME:   0.008 TIME LEFT:  2.00D  GRAD.:     0.071 HEAT:  34.08171
 CYCLE:    77 TIME:   0.008 TIME LEFT:  2.00D  GRAD.:     0.084 HEAT:  34.08169
 CYCLE:    78 TIME:   0.008 TIME LEFT:  2.00D  GRAD.:     0.071 HEAT:  34.08168
 CYCLE:    79 TIME:   0.008 TIME LEFT:  2.00D  GRAD.:     0.054 HEAT:  34.08167
 CYCLE:    80 TIME:   0.008 TIME LEFT:  2.00D  GRAD.:     0.069 HEAT:  34.08166
 CYCLE:    81 TIME:   0.008 TIME LEFT:  2.00D  GRAD.:     0.045 HEAT:  34.08165

     GRADIENT =  0.04463 IS LESS THAN CUTOFF =  0.05000



 -------------------------------------------------------------------------------
 pm3  precise nosym THREADS=1
 InChI=1S/C10H12/c1-8-6-7-9-4-2-3-5-10(8)9/h2-5,9-10H,1,6-7H2



     GEOMETRY OPTIMISED USING EIGENVECTOR FOLLOWING (EF).     
     SCF FIELD WAS ACHIEVED                                   


                              PM3 CALCULATION
                                                       MOPAC v23.1.2 MacOS
                                                       Tue Jun  3 16:27:18 2025




          FINAL HEAT OF FORMATION =         34.08165 KCAL/MOL =     142.59762 KJ/MOL


          COSMO AREA              =        175.56 SQUARE ANGSTROMS
          COSMO VOLUME            =        181.33 CUBIC ANGSTROMS

          GRADIENT NORM           =          0.04463          =       0.00951 PER ATOM
          IONIZATION POTENTIAL    =          9.025145 EV
          HOMO LUMO ENERGIES (EV) =         -9.025  0.258
          NO. OF FILLED LEVELS    =         26
          MOLECULAR WEIGHT        =        132.2048         POINT GROUP:  C1  

          MOLECULAR DIMENSIONS (Angstroms)

            Atom       Atom       Distance
            H    21    H    20     7.14457
            H    19    H    13     5.42520
            H    12    H    16     3.55946


          SCF CALCULATIONS        =         90

          WALL-CLOCK TIME         =      0.672 SECONDS
          COMPUTATION TIME        =      0.411 SECONDS




   ATOM   CHEMICAL          X               Y               Z
  NUMBER   SYMBOL      (ANGSTROMS)     (ANGSTROMS)     (ANGSTROMS)

     1       C          0.37265767  *   0.97189471  *  -0.55808990  *
     2       C          0.15524334  *  -0.55554348  *  -0.62873767  *
     3       C         -0.83301706  *   1.54888469  *   0.20098665  *
     4       C         -1.94730732  *   0.51178270  *   0.10197210  *
     5       C         -1.29900879  *  -0.77093146  *  -0.30520255  *
     6       C          1.64788364  *   1.40048271  *   0.08127686  *
     7       C          1.03512098  *  -1.35797330  *   0.26940944  *
     8       C          2.10604402  *  -0.84363473  *   0.88456077  *
     9       C          2.44978269  *   0.55764466  *   0.74213160  *
    10       C         -1.92932185  *  -1.93849599  *  -0.38756047  *
    11       H          0.37633080  *   1.36921636  *  -1.60167817  *
    12       H          0.35740340  *  -0.91539194  *  -1.66752246  *
    13       H         -1.14165534  *   2.52489898  *  -0.21456634  *
    14       H         -0.57207386  *   1.74276807  *   1.25886997  *
    15       H         -2.70797925  *   0.80378971  *  -0.64733071  *
    16       H         -2.49067820  *   0.39918477  *   1.05849945  *
    17       H          0.76040687  *  -2.41301401  *   0.38829796  *
    18       H          1.89144238  *   2.46534823  *  -0.00406154  *
    19       H          2.75109064  *  -1.46193453  *   1.51721600  *
    20       H          3.38234889  *   0.90007089  *   1.20229847  *
    21       H         -2.98221977  *  -2.05153449  *  -0.14870301  *
    22       H         -1.43197028  *  -2.85286398  *  -0.69749688  *

                             CARTESIAN COORDINATES

   1    C        0.372657671     0.971894710    -0.558089902
   2    C        0.155243341    -0.555543479    -0.628737667
   3    C       -0.833017065     1.548884693     0.200986654
   4    C       -1.947307323     0.511782703     0.101972101
   5    C       -1.299008792    -0.770931463    -0.305202546
   6    C        1.647883641     1.400482707     0.081276865
   7    C        1.035120982    -1.357973299     0.269409442
   8    C        2.106044021    -0.843634733     0.884560771
   9    C        2.449782692     0.557644665     0.742131597
  10    C       -1.929321852    -1.938495994    -0.387560473
  11    H        0.376330796     1.369216360    -1.601678167
  12    H        0.357403396    -0.915391941    -1.667522461
  13    H       -1.141655340     2.524898979    -0.214566345
  14    H       -0.572073862     1.742768071     1.258869966
  15    H       -2.707979254     0.803789706    -0.647330706
  16    H       -2.490678197     0.399184767     1.058499446
  17    H        0.760406874    -2.413014011     0.388297964
  18    H        1.891442385     2.465348231    -0.004061540
  19    H        2.751090643    -1.461934535     1.517215998
  20    H        3.382348885     0.900070888     1.202298467
  21    H       -2.982219766    -2.051534491    -0.148703007
  22    H       -1.431970277    -2.852863977    -0.697496877


           Empirical Formula: C10 H12  =    22 atoms



      MOLECULAR POINT GROUP   :   C1  


                  EIGENVALUES  
 -41.95343 -35.14697 -32.25873 -28.46416 -27.77339 -23.48040 -21.14915 -20.74604
 -18.63808 -17.84040 -16.74415 -16.11276 -15.83001 -15.14855 -14.74830 -14.25100
 -13.68935 -13.29051 -13.19091 -12.78017 -12.24136 -11.83138 -11.42713 -11.36448
  -9.84274  -9.02514   0.25757   1.08438   2.07865   3.23628   3.32544   3.42124
   3.44453   3.57800   3.62511   3.75634   3.86805   3.99897   4.02891   4.12820
   4.23451   4.49368   4.61844   4.75575   4.86632   5.01942   5.08538   5.36355
   5.62651   5.92419   6.02288   6.23861


              NET ATOMIC CHARGES AND DIPOLE CONTRIBUTIONS

  ATOM NO.   TYPE          CHARGE      No. of ELECS.   s-Pop       p-Pop       
    1          C          -0.037281        4.0373     1.16912     2.86817
    2          C           0.001098        3.9989     1.15499     2.84391
    3          C          -0.094483        4.0945     1.16628     2.92820
    4          C          -0.056758        4.0568     1.14910     2.90766
    5          C          -0.103283        4.1033     1.20440     2.89888
    6          C          -0.133833        4.1338     1.19587     2.93796
    7          C          -0.123309        4.1233     1.19697     2.92634
    8          C          -0.114860        4.1149     1.17787     2.93699
    9          C          -0.105330        4.1053     1.17775     2.92758
   10          C          -0.177277        4.1773     1.17745     2.99983
   11          H           0.066986        0.9330     0.93301
   12          H           0.075358        0.9246     0.92464
   13          H           0.050494        0.9495     0.94951
   14          H           0.057939        0.9421     0.94206
   15          H           0.057270        0.9427     0.94273
   16          H           0.060199        0.9398     0.93980
   17          H           0.103289        0.8967     0.89671
   18          H           0.099526        0.9005     0.90047
   19          H           0.101906        0.8981     0.89809
   20          H           0.100856        0.8991     0.89914
   21          H           0.085786        0.9142     0.91421
   22          H           0.085708        0.9143     0.91429
 DIPOLE           X         Y         Z       TOTAL
 POINT-CHG.    -0.146     0.326    -0.142     0.384
 HYBRID        -0.033    -0.031     0.030     0.054
 SUM           -0.179     0.295    -0.111     0.362


          ATOMIC ORBITAL ELECTRON POPULATIONS

     Atom    s        px        py        pz   
    1  C   1.16912   0.93574   0.94522   0.98721
    2  C   1.15499   0.91902   0.94140   0.98349
    3  C   1.16628   0.94599   0.97363   1.00858
    4  C   1.14910   0.96613   0.93303   1.00849
    5  C   1.20440   0.95276   0.95985   0.98627
    6  C   1.19587   0.96320   0.98546   0.98930
    7  C   1.19697   0.96087   0.98547   0.97999
    8  C   1.17787   0.98042   0.95387   1.00270
    9  C   1.17775   0.98751   0.94573   0.99434
   10  C   1.17745   0.99994   0.96328   1.03661
   11  H   0.93301
   12  H   0.92464
   13  H   0.94951
   14  H   0.94206
   15  H   0.94273
   16  H   0.93980
   17  H   0.89671
   18  H   0.90047
   19  H   0.89809
   20  H   0.89914
   21  H   0.91421
   22  H   0.91429
 *******************************************************************************
 **                                                                           **
 **                              MOPAC v23.1.2                                **
 **                                                                           **
 *******************************************************************************
 **          Digital Object Identifier (DOI): 10.5281/zenodo.6511958          **
 **    Visit the DOI location for information on how to cite this program.    **
 *******************************************************************************

                              PM3 CALCULATION RESULTS

 *******************************************************************************
 *  CALCULATION DONE: (MAX THREADS = 1)              Tue Jun  3 16:27:18 2025  *
 *  PM3        - The PM3 Hamiltonian to be used
 *  OLDGEO     - PREVIOUS GEOMETRY TO BE USED
 *  PRECISE    - TIGHTER CRITERIA TO BE USED
 *  NOSYM      - POINT-GROUP SYMMETRY SET TO C1
 *  THREADS=1  - MULTI-THREADING NOT USED
 *  T=         - A TIME OF 172800.0 SECONDS REQUESTED
 *  DUMP=N     - RESTART FILE WRITTEN EVERY 7200.0 SECONDS REQUESTED
 *  THERMO     - THERMODYNAMIC QUANTITIES TO BE CALCULATED
 *******************************************************************************
oldgeo thermo nosym precise THREADS=1  pm3
 InChI=1S/C10H12/c1-8-6-7-9-4-2-3-5-10(8)9/h2-5,9-10H,1,6-7H2

   ATOM   CHEMICAL          X               Y               Z
  NUMBER   SYMBOL      (ANGSTROMS)     (ANGSTROMS)     (ANGSTROMS)

     1       C          0.37265767  *   0.97189471  *  -0.55808990  *
     2       C          0.15524334  *  -0.55554348  *  -0.62873767  *
     3       C         -0.83301706  *   1.54888469  *   0.20098665  *
     4       C         -1.94730732  *   0.51178270  *   0.10197210  *
     5       C         -1.29900879  *  -0.77093146  *  -0.30520255  *
     6       C          1.64788364  *   1.40048271  *   0.08127686  *
     7       C          1.03512098  *  -1.35797330  *   0.26940944  *
     8       C          2.10604402  *  -0.84363473  *   0.88456077  *
     9       C          2.44978269  *   0.55764466  *   0.74213160  *
    10       C         -1.92932185  *  -1.93849599  *  -0.38756047  *
    11       H          0.37633080  *   1.36921636  *  -1.60167817  *
    12       H          0.35740340  *  -0.91539194  *  -1.66752246  *
    13       H         -1.14165534  *   2.52489898  *  -0.21456634  *
    14       H         -0.57207386  *   1.74276807  *   1.25886997  *
    15       H         -2.70797925  *   0.80378971  *  -0.64733071  *
    16       H         -2.49067820  *   0.39918477  *   1.05849945  *
    17       H          0.76040687  *  -2.41301401  *   0.38829796  *
    18       H          1.89144238  *   2.46534823  *  -0.00406154  *
    19       H          2.75109064  *  -1.46193453  *   1.51721600  *
    20       H          3.38234889  *   0.90007089  *   1.20229847  *
    21       H         -2.98221977  *  -2.05153449  *  -0.14870301  *
    22       H         -1.43197028  *  -2.85286398  *  -0.69749688  *



          CARTESIAN COORDINATES 

    NO.       ATOM           X           Y           Z

     1         C          0.3727      0.9719     -0.5581
     2         C          0.1552     -0.5555     -0.6287
     3         C         -0.8330      1.5489      0.2010
     4         C         -1.9473      0.5118      0.1020
     5         C         -1.2990     -0.7709     -0.3052
     6         C          1.6479      1.4005      0.0813
     7         C          1.0351     -1.3580      0.2694
     8         C          2.1060     -0.8436      0.8846
     9         C          2.4498      0.5576      0.7421
    10         C         -1.9293     -1.9385     -0.3876
    11         H          0.3763      1.3692     -1.6017
    12         H          0.3574     -0.9154     -1.6675
    13         H         -1.1417      2.5249     -0.2146
    14         H         -0.5721      1.7428      1.2589
    15         H         -2.7080      0.8038     -0.6473
    16         H         -2.4907      0.3992      1.0585
    17         H          0.7604     -2.4130      0.3883
    18         H          1.8914      2.4653     -0.0041
    19         H          2.7511     -1.4619      1.5172
    20         H          3.3823      0.9001      1.2023
    21         H         -2.9822     -2.0515     -0.1487
    22         H         -1.4320     -2.8529     -0.6975

  H: (PM3): J. J. P. STEWART, J. COMP. CHEM. 10, 209 (1989).
  C: (PM3): J. J. P. STEWART, J. COMP. CHEM. 10, 209 (1989).

           Empirical Formula: C10 H12  =    22 atoms



      MOLECULAR POINT GROUP   :   C1  


      RHF CALCULATION, NO. OF DOUBLY OCCUPIED LEVELS = 26



          HEAT OF FORMATION =      34.081650 KCALS/MOLE


          CARTESIAN COORDINATE DERIVATIVES

   NUMBER  ATOM         X            Y            Z

     1       C      0.003447    -0.003452     0.003132
     2       C     -0.005261    -0.003367     0.000052
     3       C      0.002356    -0.002567     0.003095
     4       C     -0.001959    -0.007256    -0.002420
     5       C     -0.006644     0.000326     0.000891
     6       C      0.004214    -0.001579     0.002468
     7       C     -0.000924    -0.000643    -0.004371
     8       C      0.005767     0.005942    -0.004654
     9       C     -0.000921     0.013050     0.002677
    10       C      0.001500     0.002481    -0.001331
    11       H     -0.002790     0.002097     0.006891
    12       H      0.001692    -0.002597     0.001910
    13       H     -0.000846    -0.001100     0.003996
    14       H      0.002578    -0.012414    -0.009285
    15       H     -0.009643     0.008934     0.004005
    16       H     -0.001449     0.004622    -0.004891
    17       H     -0.000361     0.004919     0.009747
    18       H      0.001054     0.003485     0.000069
    19       H      0.007556    -0.001283    -0.006363
    20       H     -0.002946     0.002340     0.004545
    21       H      0.012527     0.002527    -0.000779
    22       H     -0.008947    -0.014465    -0.009383



          GRADIENT NORM =   0.04369

          MOLECULAR WEIGHT =  132.20



          ROTATIONAL CONSTANTS IN CM(-1)

          A =    0.07854332   B =    0.04289317   C =    0.03073140



           PRINCIPAL MOMENTS OF INERTIA IN UNITS OF 10**(-40)*GRAM-CM**2

          A =      356.3989   B =      652.6156   C =      910.8842


          ORIENTATION OF MOLECULE IN FORCE CALCULATION

    NO.       ATOM         X         Y         Z

     1          C      -1.0047   -0.3944    0.5163
     2          C       0.5398   -0.3944    0.5163
     3          C      -1.4403    1.0797    0.5163
     4          C      -0.2532    1.8850    1.0354
     5          C       0.9427    0.9964    0.9277
     6          C      -1.6373   -1.1274   -0.6156
     7          C       1.1684   -0.7799   -0.7802
     8          C       0.4809   -1.3409   -1.7814
     9          C      -0.9469   -1.5688   -1.6732
    10          C       2.1899    1.3811    1.1802
    11          H      -1.3504   -0.8814    1.4598
    12          H       0.9147   -1.1247    1.2749
    13          H      -2.3431    1.2334    1.1343
    14          H      -1.7172    1.4051   -0.5046
    15          H      -0.4007    2.1920    2.0886
    16          H      -0.1091    2.8205    0.4636
    17          H       2.2451   -0.5887   -0.8639
    18          H      -2.7208   -1.2739   -0.5445
    19          H       0.9726   -1.6394   -2.7129
    20          H      -1.4378   -2.1057   -2.4914
    21          H       2.4390    2.3946    1.4788
    22          H       3.0384    0.7076    1.1031


    FIRST DERIVATIVES WILL BE USED IN THE CALCULATION OF SECOND DERIVATIVES

          ESTIMATED TIME TO COMPLETE CALCULATION =        2.06 SECONDS

    FOR POINT-GROUP C1   THERE ARE   1 UNIQUE SYMMETRY FUNCTIONS.

 STEP:   1 TIME =     0.02 SECS, INTEGRAL =      0.02 TIME LEFT: 172799.97
 STEP:   2 TIME =     0.02 SECS, INTEGRAL =      0.04 TIME LEFT: 172799.95
 STEP:   3 TIME =     0.02 SECS, INTEGRAL =      0.06 TIME LEFT: 172799.93
 STEP:   4 TIME =     0.02 SECS, INTEGRAL =      0.08 TIME LEFT: 172799.91
 STEP:   5 TIME =     0.02 SECS, INTEGRAL =      0.10 TIME LEFT: 172799.89
 STEP:   6 TIME =     0.02 SECS, INTEGRAL =      0.12 TIME LEFT: 172799.88
 STEP:   7 TIME =     0.02 SECS, INTEGRAL =      0.14 TIME LEFT: 172799.85
 STEP:   8 TIME =     0.02 SECS, INTEGRAL =      0.16 TIME LEFT: 172799.83
 STEP:   9 TIME =     0.02 SECS, INTEGRAL =      0.18 TIME LEFT: 172799.81
 STEP:  10 TIME =     0.02 SECS, INTEGRAL =      0.20 TIME LEFT: 172799.79
 STEP:  11 TIME =     0.02 SECS, INTEGRAL =      0.22 TIME LEFT: 172799.77
 STEP:  12 TIME =     0.02 SECS, INTEGRAL =      0.24 TIME LEFT: 172799.75
 STEP:  13 TIME =     0.02 SECS, INTEGRAL =      0.26 TIME LEFT: 172799.73
 STEP:  14 TIME =     0.02 SECS, INTEGRAL =      0.28 TIME LEFT: 172799.71
 STEP:  15 TIME =     0.02 SECS, INTEGRAL =      0.30 TIME LEFT: 172799.69
 STEP:  16 TIME =     0.02 SECS, INTEGRAL =      0.33 TIME LEFT: 172799.66
 STEP:  17 TIME =     0.02 SECS, INTEGRAL =      0.35 TIME LEFT: 172799.64
 STEP:  18 TIME =     0.02 SECS, INTEGRAL =      0.38 TIME LEFT: 172799.62
 STEP:  19 TIME =     0.02 SECS, INTEGRAL =      0.39 TIME LEFT: 172799.60
 STEP:  20 TIME =     0.02 SECS, INTEGRAL =      0.42 TIME LEFT: 172799.57
 STEP:  21 TIME =     0.02 SECS, INTEGRAL =      0.44 TIME LEFT: 172799.55
 STEP:  22 TIME =     0.02 SECS, INTEGRAL =      0.46 TIME LEFT: 172799.53
 STEP:  23 TIME =     0.02 SECS, INTEGRAL =      0.49 TIME LEFT: 172799.50
 STEP:  24 TIME =     0.02 SECS, INTEGRAL =      0.51 TIME LEFT: 172799.48
 STEP:  25 TIME =     0.02 SECS, INTEGRAL =      0.54 TIME LEFT: 172799.46
 STEP:  26 TIME =     0.02 SECS, INTEGRAL =      0.56 TIME LEFT: 172799.43
 STEP:  27 TIME =     0.02 SECS, INTEGRAL =      0.58 TIME LEFT: 172799.41
 STEP:  28 TIME =     0.02 SECS, INTEGRAL =      0.60 TIME LEFT: 172799.39
 STEP:  29 TIME =     0.02 SECS, INTEGRAL =      0.62 TIME LEFT: 172799.37
 STEP:  30 TIME =     0.02 SECS, INTEGRAL =      0.64 TIME LEFT: 172799.35
 STEP:  31 TIME =     0.02 SECS, INTEGRAL =      0.67 TIME LEFT: 172799.32
 STEP:  32 TIME =     0.02 SECS, INTEGRAL =      0.69 TIME LEFT: 172799.30
 STEP:  33 TIME =     0.02 SECS, INTEGRAL =      0.71 TIME LEFT: 172799.28
 STEP:  34 TIME =     0.02 SECS, INTEGRAL =      0.74 TIME LEFT: 172799.25
 STEP:  35 TIME =     0.02 SECS, INTEGRAL =      0.76 TIME LEFT: 172799.23
 STEP:  36 TIME =     0.02 SECS, INTEGRAL =      0.78 TIME LEFT: 172799.21
 STEP:  37 TIME =     0.02 SECS, INTEGRAL =      0.80 TIME LEFT: 172799.20
 STEP:  38 TIME =     0.02 SECS, INTEGRAL =      0.82 TIME LEFT: 172799.17
 STEP:  39 TIME =     0.02 SECS, INTEGRAL =      0.84 TIME LEFT: 172799.15
 STEP:  40 TIME =     0.02 SECS, INTEGRAL =      0.87 TIME LEFT: 172799.12
 STEP:  41 TIME =     0.02 SECS, INTEGRAL =      0.89 TIME LEFT: 172799.11
 STEP:  42 TIME =     0.02 SECS, INTEGRAL =      0.91 TIME LEFT: 172799.09
 STEP:  43 TIME =     0.02 SECS, INTEGRAL =      0.93 TIME LEFT: 172799.06
 STEP:  44 TIME =     0.02 SECS, INTEGRAL =      0.95 TIME LEFT: 172799.04
 STEP:  45 TIME =     0.02 SECS, INTEGRAL =      0.97 TIME LEFT: 172799.02
 STEP:  46 TIME =     0.02 SECS, INTEGRAL =      0.99 TIME LEFT: 172799.00
 STEP:  47 TIME =     0.02 SECS, INTEGRAL =      1.01 TIME LEFT: 172798.98
 STEP:  48 TIME =     0.02 SECS, INTEGRAL =      1.03 TIME LEFT: 172798.96
 STEP:  49 TIME =     0.02 SECS, INTEGRAL =      1.05 TIME LEFT: 172798.94
 STEP:  50 TIME =     0.02 SECS, INTEGRAL =      1.07 TIME LEFT: 172798.92
 STEP:  51 TIME =     0.02 SECS, INTEGRAL =      1.10 TIME LEFT: 172798.89
 STEP:  52 TIME =     0.02 SECS, INTEGRAL =      1.12 TIME LEFT: 172798.87
 STEP:  53 TIME =     0.02 SECS, INTEGRAL =      1.14 TIME LEFT: 172798.85
 STEP:  54 TIME =     0.02 SECS, INTEGRAL =      1.17 TIME LEFT: 172798.82
 STEP:  55 TIME =     0.02 SECS, INTEGRAL =      1.19 TIME LEFT: 172798.80
 STEP:  56 TIME =     0.02 SECS, INTEGRAL =      1.21 TIME LEFT: 172798.78
 STEP:  57 TIME =     0.02 SECS, INTEGRAL =      1.24 TIME LEFT: 172798.75
 STEP:  58 TIME =     0.02 SECS, INTEGRAL =      1.26 TIME LEFT: 172798.73
 STEP:  59 TIME =     0.02 SECS, INTEGRAL =      1.29 TIME LEFT: 172798.71
 STEP:  60 TIME =     0.02 SECS, INTEGRAL =      1.31 TIME LEFT: 172798.68
 STEP:  61 TIME =     0.02 SECS, INTEGRAL =      1.33 TIME LEFT: 172798.66
 STEP:  62 TIME =     0.02 SECS, INTEGRAL =      1.35 TIME LEFT: 172798.64
 STEP:  63 TIME =     0.02 SECS, INTEGRAL =      1.38 TIME LEFT: 172798.62
 STEP:  64 TIME =     0.02 SECS, INTEGRAL =      1.40 TIME LEFT: 172798.59
 STEP:  65 TIME =     0.02 SECS, INTEGRAL =      1.42 TIME LEFT: 172798.57
 STEP:  66 TIME =     0.02 SECS, INTEGRAL =      1.45 TIME LEFT: 172798.55

(To convert to Hartree/Bohr^2, multiply by (10^(-21) x N x a0^2)/(4.184 x 627.51) =  0.0642)


           FORCE MATRIX IN MILLIDYNES/ANGSTROM


                  C  1       C  2       C  3       C  4       C  5       C  6
 ------------------------------------------------------------------------------
     C    1  14.686652
     C    2   3.454667  14.897558
     C    3   3.638105   0.709224  14.324447
     C    4   0.755789   0.723291   4.047201  14.738090
     C    5   0.800323   4.311788   0.840229   4.707822  18.893817
     C    6   4.870070   0.582816   0.673484   0.041218   0.044566  18.093058
     C    7   0.592991   4.759383   0.021941   0.028731   0.714949   0.167170
     C    8   0.117075   0.834453   0.020298   0.008316   0.047920   1.141768
     C    9   0.828687   0.121035   0.042014   0.007796   0.016156  10.334866
     C   10   0.051122   0.715638   0.054205   0.756845  10.849993   0.008438
     H   11   4.241887   0.418666   0.433141   0.012771   0.020919   0.403646
     H   12   0.422204   4.191412   0.036907   0.026952   0.421855   0.018949
     H   13   0.440256   0.039677   4.564449   0.436858   0.039364   0.016142
     H   14   0.455083   0.010342   4.516870   0.441385   0.016604   0.062009
     H   15   0.015208   0.024476   0.442339   4.481552   0.428480   0.003042
     H   16   0.037285   0.028969   0.437020   4.521733   0.438751   0.004984
     H   17   0.043501   0.432790   0.004910   0.002204   0.031139   0.012357
     H   18   0.429578   0.042999   0.011902   0.001821   0.007653   4.826791
     H   19   0.004557   0.120363   0.000627   0.001683   0.016325   0.047574
     H   20   0.121469   0.003082   0.017979   0.002692   0.000992   0.443295
     H   21   0.006449   0.124353   0.002908   0.089047   0.479203   0.001265
     H   22   0.002832   0.088787   0.007158   0.126458   0.479248   0.001024


                  C  7       C  8       C  9       C 10       H 11       H 12
 ------------------------------------------------------------------------------
     C    7  18.072419
     C    8  10.328234  18.430391
     C    9   1.143055   5.682228  18.436425
     C   10   0.059114   0.006996   0.002492  18.071457
     H   11   0.037776   0.010738   0.041934   0.002546   4.673869
     H   12   0.391291   0.034956   0.015345   0.024201   0.024929   4.626982
     H   13   0.001617   0.000901   0.001722   0.006587   0.032179   0.004228
     H   14   0.001427   0.001422   0.005546   0.002220   0.038200   0.001032
     H   15   0.001979   0.001284   0.001277   0.025022   0.001096   0.002947
     H   16   0.003564   0.001470   0.001697   0.025427   0.001183   0.000877
     H   17   4.795029   0.442155   0.128271   0.010113   0.006377   0.023485
     H   18   0.013207   0.127934   0.445075   0.002360   0.035838   0.004524
     H   19   0.443516   4.855231   0.435438   0.001126   0.000727   0.016530
     H   20   0.047856   0.434963   4.854586   0.000702   0.014600   0.000761
     H   21   0.015942   0.001998   0.000772   5.108655   0.000520   0.011415
     H   22   0.020729   0.003851   0.001117   5.089410   0.000363   0.010743


                  H 13       H 14       H 15       H 16       H 17       H 18
 ------------------------------------------------------------------------------
     H   13   5.176255
     H   14   0.579040   5.125545
     H   15   0.030923   0.036062   5.079591
     H   16   0.018395   0.030953   0.572837   5.123696
     H   17   0.000931   0.000557   0.000362   0.000560   5.173971
     H   18   0.002006   0.004494   0.000532   0.000289   0.010259   5.200762
     H   19   0.000199   0.000359   0.000083   0.000225   0.066630   0.007436
     H   20   0.000782   0.000943   0.000295   0.000352   0.007504   0.066862
     H   21   0.000538   0.000348   0.011536   0.010946   0.001807   0.000381
     H   22   0.001020   0.000461   0.014305   0.011467   0.020342   0.000323


                  H 19       H 20       H 21       H 22
 ------------------------------------------------------
     H   19   5.220401
     H   20   0.031900   5.219295
     H   21   0.000994   0.000171   5.489758
     H   22   0.000895   0.000244   0.410085   5.474744


          HEAT OF FORMATION =      34.081650 KCALS/MOLE

          ZERO POINT ENERGY     118.642 KCAL/MOL


           NORMAL COORDINATE ANALYSIS (Total motion = 1 Angstrom)


   Root No.       1         2         3         4         5         6         7         8

                 1 A       2 A       3 A       4 A       5 A       6 A       7 A       8 A   

                  56.4      87.2     166.7     250.2     362.1     397.0     476.1     487.1
  
           1    0.0070   -0.0020   -0.0042    0.0226   -0.0068    0.0101    0.0052    0.0131
           2    0.0001    0.0124   -0.0146   -0.0101   -0.0047   -0.0207   -0.0226   -0.0066
           3    0.0055   -0.0092    0.0198    0.0059   -0.0099    0.0182   -0.0252   -0.0034
           4    0.0064   -0.0013   -0.0036    0.0243   -0.0017    0.0084    0.0026    0.0173
           5    0.0023    0.0039   -0.0210    0.0005   -0.0258    0.0007    0.0356   -0.0052
           6   -0.0095   -0.0049    0.0324   -0.0101    0.0196    0.0084    0.0275    0.0062
           7    0.0090    0.0176    0.0075    0.0116    0.0159    0.0041    0.0157   -0.0037
           8    0.0007    0.0176   -0.0101   -0.0137   -0.0001   -0.0245   -0.0237   -0.0186
           9   -0.0257   -0.0460   -0.0328   -0.0163    0.0015   -0.0172    0.0008   -0.0083
          10    0.0083   -0.0054   -0.0005   -0.0051    0.0255   -0.0122    0.0017   -0.0132
          11    0.0085   -0.0127   -0.0079   -0.0075   -0.0144   -0.0067    0.0136   -0.0127
          12   -0.0344    0.0535   -0.0200    0.0006   -0.0078   -0.0100    0.0057   -0.0087
          13    0.0041    0.0009   -0.0014    0.0073    0.0147   -0.0049    0.0253    0.0034
          14   -0.0025   -0.0006   -0.0113    0.0079   -0.0312   -0.0001    0.0470    0.0120
          15    0.0084    0.0113    0.0015   -0.0086    0.0289    0.0192    0.0114   -0.0365
          16    0.0007   -0.0021    0.0016   -0.0042   -0.0129   -0.0051   -0.0097   -0.0180
          17   -0.0276   -0.0125   -0.0207    0.0090    0.0138    0.0262   -0.0316    0.0418
          18    0.0269    0.0076    0.0202    0.0098   -0.0223   -0.0023   -0.0311   -0.0117
          19   -0.0094   -0.0053    0.0015    0.0046   -0.0145   -0.0041   -0.0366    0.0177
          20    0.0315    0.0118   -0.0120   -0.0397    0.0126    0.0429    0.0037   -0.0103
          21   -0.0262   -0.0092    0.0315   -0.0076    0.0018   -0.0096    0.0270    0.0118
          22   -0.0175   -0.0059   -0.0030   -0.0176   -0.0103    0.0030   -0.0269   -0.0108
          23    0.0223   -0.0031    0.0530   -0.0232    0.0072   -0.0253    0.0056    0.0330
          24   -0.0156   -0.0007   -0.0012   -0.0035    0.0015    0.0241    0.0162    0.0084
          25   -0.0093   -0.0022   -0.0017   -0.0271   -0.0053   -0.0050   -0.0253   -0.0015
          26   -0.0164   -0.0224    0.0424    0.0309   -0.0253    0.0170   -0.0241   -0.0229
          27    0.0155    0.0116   -0.0081   -0.0133   -0.0007    0.0027   -0.0442    0.0293
          28   -0.0009    0.0036    0.0019   -0.0130   -0.0032    0.0054    0.0428    0.0012
          29   -0.0186    0.0056   -0.0006    0.0434    0.0483   -0.0133    0.0065   -0.0091
          30    0.0570   -0.0127   -0.0315    0.0369   -0.0003   -0.0124    0.0097    0.0060
          31    0.0163   -0.0082   -0.0184    0.0353   -0.0302    0.0120   -0.0068    0.0138
          32    0.0235    0.0413    0.0136   -0.0040   -0.0141   -0.0257   -0.0508   -0.0294
          33    0.0209    0.0035    0.0283    0.0131   -0.0233    0.0150   -0.0439   -0.0151
          34    0.0183   -0.0051   -0.0071    0.0357   -0.0170    0.0337    0.0100    0.0180
          35   -0.0119   -0.0051   -0.0120    0.0151   -0.0481   -0.0136    0.0672    0.0245
          36   -0.0292   -0.0118    0.0416   -0.0010    0.0039   -0.0183    0.0544    0.0337
          37    0.0059   -0.0319   -0.0108   -0.0053    0.0247   -0.0163    0.0175   -0.0101
          38    0.0142    0.0355    0.0155   -0.0138    0.0091   -0.0148   -0.0386   -0.0284
          39   -0.0336   -0.1235   -0.0663   -0.0412    0.0124   -0.0503    0.0069   -0.0151
          40    0.0152    0.1138    0.0439    0.0362    0.0080    0.0349    0.0090   -0.0023
          41   -0.0189    0.0215   -0.0355   -0.0242    0.0086   -0.0485   -0.0166   -0.0235
          42   -0.0336   -0.0708   -0.0512   -0.0269    0.0063   -0.0345    0.0051   -0.0113
          43   -0.0041   -0.0360   -0.0154   -0.0135    0.0199   -0.0347   -0.0139   -0.0037
          44    0.0440   -0.1090   -0.0035   -0.0306    0.0288    0.0132    0.0109   -0.0683
          45   -0.0466    0.0775   -0.0234    0.0064   -0.0215   -0.0194    0.0043    0.0096
          46    0.0233    0.0005    0.0085   -0.0157    0.0548   -0.0102   -0.0332   -0.0493
          47   -0.0112    0.0391   -0.0107    0.0059   -0.0381   -0.0176    0.0180    0.0171
          48   -0.0630    0.1404   -0.0222    0.0200   -0.0406   -0.0276    0.0044    0.0330
          49   -0.0160   -0.0089    0.0084    0.0134   -0.0236   -0.0168   -0.0337    0.0155
          50    0.0595    0.0272   -0.0415   -0.0901    0.0564    0.1014   -0.0156   -0.0055
          51   -0.0458   -0.0193    0.0507   -0.0072   -0.0164   -0.0412    0.0137   -0.0031
          52    0.0064   -0.0000    0.0082   -0.0059   -0.0184   -0.0171   -0.0068   -0.0297
          53   -0.0566   -0.0233   -0.0615    0.0286    0.0468    0.1000   -0.0415    0.1173
          54    0.0513    0.0163    0.0354    0.0236   -0.0385   -0.0332   -0.0073   -0.0366
          55   -0.0308   -0.0095   -0.0028   -0.0240   -0.0099    0.0105    0.0101   -0.0389
          56    0.0423   -0.0004    0.0935   -0.0579    0.0449   -0.0727    0.0171    0.1149
          57   -0.0290   -0.0035   -0.0140    0.0039   -0.0104    0.0432    0.0316   -0.0326
          58   -0.0113    0.0007    0.0009   -0.0500    0.0071   -0.0176   -0.0035    0.0177
          59   -0.0359   -0.0431    0.0674    0.0791   -0.0532    0.0723   -0.0220   -0.0847
          60    0.0295    0.0235   -0.0261   -0.0311    0.0103   -0.0258   -0.0582    0.0587
          61    0.0010    0.0022    0.0045   -0.0613   -0.0802    0.0352    0.1036    0.0169
          62   -0.0230    0.0031    0.0102    0.0477    0.0812   -0.0133   -0.0087   -0.0166
          63    0.0702   -0.0030   -0.0704    0.0644   -0.0430   -0.0390    0.0091    0.0166
          64   -0.0072    0.0076    0.0026    0.0137    0.0484   -0.0107    0.0082   -0.0145
          65   -0.0298    0.0141   -0.0010    0.0764    0.1137   -0.0336   -0.0387   -0.0340
          66    0.0857   -0.0436   -0.0218    0.0502    0.0149   -0.0193    0.0049    0.0440


   Root No.       9        10        11        12        13        14        15        16

                 9 A      10 A      11 A      12 A      13 A      14 A      15 A      16 A   

                 525.6     562.9     612.9     628.8     680.2     756.1     814.1     824.5
  
           1    0.0332    0.0042   -0.0159    0.0098    0.0274   -0.0137    0.0032   -0.0060
           2    0.0091   -0.0090   -0.0208   -0.0230    0.0154   -0.0020   -0.0091   -0.0094
           3   -0.0105    0.0418    0.0182   -0.0210   -0.0187   -0.0009    0.0024   -0.0024
           4    0.0238   -0.0098   -0.0150    0.0053    0.0169    0.0002   -0.0101   -0.0012
           5   -0.0027   -0.0134    0.0040   -0.0128   -0.0194    0.0007    0.0069   -0.0138
           6    0.0045    0.0250   -0.0088   -0.0095    0.0232   -0.0075   -0.0057    0.0123
           7    0.0031    0.0191    0.0223    0.0514   -0.0033   -0.0094    0.0139    0.0181
           8    0.0014    0.0055   -0.0089    0.0013    0.0150    0.0094   -0.0012   -0.0078
           9   -0.0035    0.0112    0.0072    0.0154   -0.0089    0.0001   -0.0152   -0.0132
          10   -0.0219    0.0035    0.0105    0.0156    0.0004   -0.0029    0.0083   -0.0003
          11    0.0250    0.0250    0.0129    0.0444   -0.0008    0.0083    0.0082    0.0162
          12    0.0105    0.0050    0.0045    0.0168   -0.0073    0.0058   -0.0137   -0.0135
          13   -0.0272   -0.0138   -0.0037   -0.0343   -0.0094    0.0053   -0.0056   -0.0014
          14    0.0011    0.0088    0.0050   -0.0008   -0.0099    0.0090   -0.0022    0.0108
          15    0.0612   -0.0250   -0.0157   -0.0145   -0.0196    0.0106    0.0128    0.0149
          16    0.0169    0.0488   -0.0101   -0.0347    0.0199   -0.0110    0.0037   -0.0249
          17    0.0170    0.0151   -0.0001   -0.0201   -0.0055   -0.0285   -0.0145    0.0109
          18   -0.0018   -0.0039   -0.0051   -0.0074    0.0038    0.0087    0.0095   -0.0020
          19    0.0049   -0.0466   -0.0023    0.0309   -0.0060    0.0174   -0.0097   -0.0078
          20   -0.0292   -0.0097   -0.0004    0.0085    0.0087   -0.0261    0.0136   -0.0144
          21   -0.0061   -0.0027    0.0042   -0.0002    0.0130   -0.0028   -0.0021   -0.0054
          22   -0.0129    0.0026    0.0061   -0.0029   -0.0105    0.0079   -0.0017    0.0166
          23    0.0066   -0.0137    0.0044    0.0062   -0.0053   -0.0179    0.0167   -0.0182
          24   -0.0188   -0.0366   -0.0016    0.0257    0.0240   -0.0029   -0.0082   -0.0220
          25   -0.0078    0.0103    0.0078   -0.0095   -0.0123    0.0057    0.0055    0.0107
          26   -0.0165   -0.0179   -0.0028    0.0024   -0.0036   -0.0135   -0.0155    0.0265
          27   -0.0024   -0.0189    0.0062    0.0003   -0.0164    0.0111    0.0107    0.0152
          28   -0.0116   -0.0186   -0.0061   -0.0413   -0.0170    0.0116   -0.0056    0.0035
          29   -0.0084   -0.0026   -0.0002   -0.0086   -0.0096    0.0074   -0.0011    0.0097
          30   -0.0129    0.0021   -0.0011   -0.0071   -0.0044    0.0036    0.0006    0.0046
          31    0.0347   -0.0296   -0.0190    0.0158    0.0150   -0.0071    0.0040   -0.0264
          32    0.0038   -0.0117   -0.0322   -0.0336    0.0359    0.0213    0.0095   -0.0084
          33   -0.0120    0.0270    0.0102   -0.0245   -0.0119    0.0132    0.0127   -0.0091
          34    0.0243    0.0262    0.0001    0.0182    0.0132   -0.0187   -0.0011   -0.0008
          35   -0.0090    0.0081    0.0268   -0.0028   -0.0067    0.0089   -0.0114   -0.0076
          36   -0.0012    0.0270    0.0060   -0.0062    0.0373    0.0089   -0.0270    0.0170
          37   -0.0103   -0.0003   -0.0002    0.0450    0.0282   -0.0074    0.0673    0.0647
          38   -0.0352    0.0338    0.0274   -0.0117   -0.0294    0.0160   -0.0219   -0.0321
          39   -0.0142   -0.0263   -0.0379    0.0066    0.0510    0.0020    0.0713    0.0646
          40    0.0050    0.0620    0.0794    0.0730   -0.0748   -0.0108   -0.0845   -0.0738
          41    0.0034   -0.0269   -0.0325    0.0100    0.0420    0.0155    0.0017   -0.0078
          42   -0.0037   -0.0114   -0.0171    0.0129    0.0211    0.0029    0.0153    0.0139
          43   -0.0653    0.0264    0.0160    0.0395    0.0079   -0.0123   -0.0224   -0.0428
          44    0.1188   -0.0075    0.0651    0.0517   -0.0464    0.0235   -0.0750   -0.0629
          45   -0.0245    0.0186   -0.0111    0.0187    0.0080    0.0001    0.0085    0.0062
          46    0.0192   -0.0185    0.0124    0.0122    0.0110    0.0012    0.0189   -0.0152
          47   -0.0234    0.0449   -0.0127    0.0467    0.0216    0.0029    0.0518    0.0628
          48   -0.0616    0.0325   -0.0398    0.0174    0.0339   -0.0029    0.0640    0.0620
          49    0.0121   -0.0546   -0.0017    0.0284   -0.0255   -0.0100    0.0196   -0.0265
          50   -0.0745    0.0365    0.0020    0.0164    0.0953    0.1034   -0.1221    0.0786
          51   -0.0130   -0.0059    0.0156   -0.0118   -0.0415   -0.0593    0.0667   -0.0305
          52    0.0158    0.0408   -0.0151   -0.0318    0.0214   -0.0345   -0.0202   -0.0102
          53    0.0349    0.0575    0.0216   -0.0319    0.0008    0.1008    0.1271   -0.0874
          54    0.0206   -0.0299   -0.0382    0.0051    0.0376   -0.0800   -0.0626    0.0234
          55   -0.0279    0.0194    0.0056   -0.0122    0.0004   -0.0462    0.0158   -0.0070
          56    0.0391    0.0329    0.0209   -0.0056    0.0346    0.1686   -0.0504    0.0027
          57   -0.0374   -0.0422   -0.0070    0.0242    0.0173   -0.0916    0.0227   -0.0417
          58   -0.0170   -0.0251    0.0157    0.0205   -0.0224   -0.0271   -0.0097    0.0176
          59   -0.0544   -0.0063   -0.0028    0.0126    0.0454    0.1737    0.0585   -0.0467
          60    0.0283   -0.0049    0.0012   -0.0247   -0.0417   -0.0927   -0.0284    0.0591
          61    0.0338   -0.0108   -0.0394   -0.0379   -0.0462    0.0402   -0.0081    0.0501
          62   -0.0207    0.0109   -0.0572    0.0143   -0.0336    0.0074    0.0012   -0.0049
          63   -0.0123   -0.0509    0.2207   -0.0896    0.1002   -0.0194   -0.0054    0.0144
          64   -0.0304   -0.0332    0.0216   -0.0570   -0.0016   -0.0002   -0.0024   -0.0168
          65   -0.0223   -0.0305    0.0574   -0.0376    0.0190   -0.0094    0.0072   -0.0119
          66   -0.1090    0.0908   -0.1969    0.0891   -0.0786    0.0100   -0.0321   -0.0434


   Root No.      17        18        19        20        21        22        23        24

                17 A      18 A      19 A      20 A      21 A      22 A      23 A      24 A   

                 869.4     899.9     928.1     956.3     969.0     982.6     990.3    1011.0
  
           1   -0.0235   -0.0034    0.0020   -0.0027    0.0031   -0.0045    0.0167    0.0097
           2   -0.0108   -0.0072   -0.0033   -0.0113    0.0023   -0.0059    0.0015   -0.0039
           3    0.0317    0.0212    0.0019    0.0047   -0.0069    0.0139   -0.0055    0.0023
           4    0.0313   -0.0182    0.0075    0.0196    0.0152    0.0053    0.0095   -0.0007
           5   -0.0198    0.0307   -0.0141    0.0309    0.0018   -0.0045   -0.0032    0.0043
           6    0.0161   -0.0313    0.0124    0.0071    0.0134   -0.0001   -0.0035   -0.0107
           7   -0.0207    0.0043   -0.0161   -0.0075   -0.0055    0.0034   -0.0151   -0.0120
           8    0.0255   -0.0056    0.0031    0.0124    0.0037    0.0034    0.0100    0.0072
           9    0.0078   -0.0020    0.0015   -0.0115    0.0076   -0.0152    0.0103    0.0043
          10   -0.0000    0.0086   -0.0217    0.0105    0.0008   -0.0052    0.0023    0.0040
          11    0.0086    0.0045    0.0482   -0.0192   -0.0018   -0.0000    0.0041    0.0047
          12   -0.0142   -0.0167    0.0029    0.0081   -0.0099    0.0177   -0.0092   -0.0063
          13   -0.0007   -0.0048    0.0127   -0.0096   -0.0026    0.0020    0.0002   -0.0012
          14    0.0038   -0.0080   -0.0030   -0.0035   -0.0022    0.0020   -0.0030   -0.0043
          15    0.0077    0.0182    0.0001    0.0023    0.0019   -0.0059   -0.0004    0.0117
          16   -0.0037    0.0194   -0.0107   -0.0138   -0.0147   -0.0056   -0.0213   -0.0107
          17   -0.0077    0.0156   -0.0076   -0.0110    0.0223    0.0020   -0.0191    0.0084
          18   -0.0156   -0.0067   -0.0021    0.0003   -0.0135   -0.0055    0.0026   -0.0070
          19    0.0322    0.0141    0.0054   -0.0085   -0.0171   -0.0064   -0.0267   -0.0080
          20    0.0035   -0.0065   -0.0026   -0.0086    0.0208    0.0139    0.0014   -0.0213
          21   -0.0163    0.0086   -0.0049    0.0007   -0.0084   -0.0037    0.0111    0.0153
          22   -0.0109   -0.0071    0.0011    0.0037    0.0062    0.0031    0.0110   -0.0003
          23    0.0078   -0.0121    0.0053    0.0008   -0.0148   -0.0178   -0.0129    0.0201
          24    0.0072    0.0279   -0.0084   -0.0134   -0.0026    0.0111    0.0015   -0.0092
          25   -0.0104   -0.0123   -0.0001    0.0063    0.0127   -0.0006    0.0030    0.0039
          26   -0.0115   -0.0015    0.0005    0.0118   -0.0192    0.0051    0.0187   -0.0156
          27   -0.0223   -0.0202   -0.0003    0.0021    0.0235   -0.0067   -0.0064    0.0083
          28    0.0005   -0.0025    0.0345   -0.0113   -0.0037    0.0063   -0.0035    0.0021
          29    0.0109   -0.0140   -0.0386   -0.0199   -0.0086    0.0046    0.0002    0.0085
          30    0.0049    0.0024   -0.0050   -0.0016    0.0047   -0.0225    0.0115   -0.0224
          31   -0.0561    0.0342   -0.0026    0.0130   -0.0002   -0.0114    0.1064    0.0913
          32   -0.0009   -0.0370   -0.0045   -0.0184   -0.0488    0.0520    0.0170   -0.0584
          33    0.0224    0.0196   -0.0006    0.0047   -0.0359    0.0412    0.0339    0.0029
          34    0.0735   -0.0112    0.0060    0.1205    0.0625    0.0642    0.0633    0.0277
          35   -0.0235    0.0182   -0.0257    0.1883    0.0244   -0.0303   -0.0577   -0.0269
          36   -0.0101   -0.0459    0.0020    0.1096    0.0122   -0.0539   -0.0805   -0.0533
          37   -0.0112    0.0278   -0.0414    0.0192   -0.0189    0.0266   -0.0434   -0.0166
          38    0.1144    0.0374   -0.0343    0.0362    0.0273   -0.0313    0.0166    0.0402
          39    0.0005    0.0213   -0.0250    0.0220   -0.0194    0.0304   -0.0345   -0.0121
          40   -0.0128   -0.0227   -0.0136   -0.0354    0.0272   -0.0546    0.0315   -0.0001
          41   -0.0178   -0.0567   -0.0215    0.0288   -0.0072    0.0270    0.0020   -0.0350
          42   -0.0082   -0.0104   -0.0076    0.0027   -0.0059    0.0097   -0.0058   -0.0127
          43    0.0094   -0.0178   -0.0515   -0.0072    0.0289   -0.0651    0.0650   -0.0277
          44   -0.0501   -0.0700    0.0314    0.0063   -0.0286    0.0523   -0.0242   -0.0229
          45    0.0062    0.0029    0.0048   -0.0026    0.0021   -0.0063    0.0078   -0.0022
          46    0.0036    0.0215   -0.0807    0.1146   -0.0124    0.0493   -0.0188    0.0672
          47    0.0413    0.0408    0.0764   -0.0454    0.0102   -0.0258    0.0176    0.0154
          48    0.0417    0.0496    0.0336   -0.0085    0.0071   -0.0124    0.0080    0.0284
          49    0.0371    0.0083    0.0026   -0.0186    0.0111    0.0123   -0.0214   -0.0264
          50   -0.0406    0.0237    0.0120    0.0273   -0.1207   -0.0730   -0.0143    0.0790
          51   -0.0591   -0.0009   -0.0098   -0.0463    0.0339    0.0334    0.0382    0.0019
          52   -0.0043    0.0312   -0.0149   -0.0219    0.0106   -0.0028   -0.0334   -0.0025
          53   -0.0217   -0.0453    0.0127    0.0237   -0.1348   -0.0217    0.0576   -0.0324
          54   -0.0480    0.0417   -0.0217   -0.0484    0.0501   -0.0159   -0.0285    0.0312
          55   -0.0172   -0.0218    0.0012    0.0093   -0.0123   -0.0022    0.0558    0.0511
          56   -0.0480    0.1265   -0.0503   -0.0276    0.0672    0.0913    0.0724   -0.0576
          57    0.0206   -0.0234    0.0089   -0.0021   -0.0389   -0.0264   -0.0019    0.0432
          58    0.0195   -0.0044    0.0118    0.0281   -0.0152    0.0255    0.0658    0.0102
          59   -0.0418   -0.0467   -0.0106   -0.0393    0.1370   -0.0318   -0.0732    0.0524
          60   -0.0223    0.0045   -0.0007    0.0223   -0.0619    0.0014    0.0163   -0.0399
          61    0.0628   -0.0592   -0.1702   -0.0814   -0.0262   -0.0157    0.0204   -0.0006
          62   -0.0085    0.0164    0.0173    0.0102    0.0057   -0.0224    0.0087   -0.0234
          63    0.0157   -0.0512   -0.0085   -0.0460   -0.0257    0.0889   -0.0387    0.0880
          64   -0.0312    0.0365    0.1786    0.0191    0.0122   -0.0013   -0.0063   -0.0172
          65   -0.0256    0.0406    0.1404    0.0208    0.0166   -0.0201    0.0041   -0.0284
          66   -0.0437   -0.0253    0.0483    0.0048   -0.0331    0.1104   -0.0589    0.0872


   Root No.      25        26        27        28        29        30        31        32

                25 A      26 A      27 A      28 A      29 A      30 A      31 A      32 A   

                1021.3    1046.7    1062.2    1080.0    1088.2    1111.9    1136.4    1147.1
  
           1   -0.0048    0.0005    0.0081    0.0017   -0.0083    0.0087    0.0040   -0.0040
           2    0.0037   -0.0214   -0.0057   -0.0003   -0.0146   -0.0114   -0.0227   -0.0069
           3    0.0175    0.0006    0.0114   -0.0083    0.0039    0.0035    0.0116    0.0108
           4    0.0013   -0.0080   -0.0082    0.0043   -0.0037   -0.0040   -0.0145   -0.0022
           5   -0.0026   -0.0132   -0.0116   -0.0050    0.0045   -0.0044   -0.0099    0.0013
           6   -0.0109   -0.0048    0.0067   -0.0017   -0.0026    0.0033   -0.0047   -0.0052
           7    0.0125   -0.0218   -0.0114    0.0155   -0.0079   -0.0119    0.0103    0.0015
           8   -0.0043    0.0123   -0.0001    0.0135    0.0030    0.0067    0.0292    0.0057
           9   -0.0097   -0.0143    0.0020    0.0029   -0.0180   -0.0361   -0.0027   -0.0062
          10   -0.0063    0.0049    0.0047   -0.0177    0.0067    0.0028   -0.0145   -0.0019
          11   -0.0051    0.0156    0.0076   -0.0162    0.0033    0.0054   -0.0115    0.0002
          12    0.0129    0.0154    0.0028    0.0060    0.0009    0.0327   -0.0127   -0.0014
          13    0.0026    0.0071    0.0023    0.0010   -0.0035    0.0004    0.0020    0.0015
          14    0.0040    0.0024   -0.0016    0.0062   -0.0003    0.0010   -0.0034   -0.0033
          15   -0.0150   -0.0254   -0.0055   -0.0089    0.0142   -0.0024    0.0047    0.0033
          16   -0.0086    0.0123   -0.0212   -0.0047   -0.0001    0.0010    0.0055   -0.0046
          17    0.0148    0.0031    0.0043   -0.0048    0.0049    0.0043    0.0029    0.0038
          18   -0.0140    0.0055   -0.0074    0.0068    0.0011   -0.0043   -0.0032    0.0083
          19   -0.0037   -0.0018    0.0182    0.0019    0.0116   -0.0030    0.0010   -0.0045
          20   -0.0137    0.0011    0.0161    0.0008   -0.0045    0.0025    0.0031   -0.0037
          21    0.0096    0.0032   -0.0115    0.0041    0.0043   -0.0023   -0.0021   -0.0090
          22   -0.0048   -0.0038    0.0222    0.0130    0.0104   -0.0046   -0.0061    0.0005
          23    0.0162    0.0019   -0.0075   -0.0010    0.0027   -0.0007   -0.0002   -0.0007
          24    0.0005    0.0076   -0.0170   -0.0071   -0.0074    0.0021    0.0037   -0.0002
          25    0.0034    0.0014   -0.0210   -0.0116   -0.0122    0.0065    0.0034    0.0009
          26   -0.0182    0.0040   -0.0163   -0.0028   -0.0078    0.0018   -0.0005   -0.0011
          27    0.0008    0.0062   -0.0167   -0.0036   -0.0037    0.0032   -0.0014    0.0009
          28   -0.0011    0.0042    0.0013    0.0025    0.0016    0.0007    0.0057    0.0014
          29   -0.0053    0.0045    0.0041   -0.0050    0.0011    0.0015    0.0028    0.0016
          30    0.0209    0.0219    0.0054    0.0048   -0.0052    0.0021   -0.0002   -0.0012
          31    0.0176   -0.0215    0.0884   -0.0384   -0.0636    0.0950    0.1307   -0.0590
          32    0.1190   -0.1447    0.0614   -0.0550   -0.0074   -0.0605   -0.0703   -0.0482
          33    0.0859   -0.0715    0.0772   -0.0528   -0.0120    0.0085    0.0336   -0.0289
          34    0.0568    0.0233   -0.0899    0.0439    0.1063   -0.0752   -0.0141   -0.0528
          35   -0.0173   -0.0394    0.0559   -0.0196    0.0191   -0.0195    0.0363    0.0095
          36   -0.0526   -0.0452    0.1136   -0.0355   -0.0432    0.0252    0.0412    0.0264
          37    0.0290   -0.0390   -0.0266    0.0720   -0.0144    0.0576    0.0165   -0.0001
          38   -0.0389   -0.0653   -0.0202    0.1637   -0.0736    0.0988    0.0024   -0.0309
          39    0.0260   -0.0206   -0.0146    0.0488   -0.0090    0.0412    0.0120    0.0007
          40   -0.0313   -0.0334   -0.0128   -0.0078   -0.0164   -0.1202    0.0501    0.0005
          41    0.0194    0.0406   -0.0255   -0.0245    0.0805   -0.1021    0.2010    0.0556
          42    0.0108   -0.0011   -0.0053   -0.0034    0.0092   -0.0424    0.0425    0.0102
          43   -0.0267   -0.0610   -0.0249   -0.0974    0.1604    0.1543   -0.0479    0.0082
          44    0.0390    0.0479    0.0042    0.0232    0.0000    0.0702   -0.0077    0.0027
          45   -0.0033   -0.0038   -0.0004   -0.0157    0.0226    0.0350   -0.0183   -0.0008
          46   -0.0198    0.1559    0.0790   -0.0610   -0.0694   -0.0679   -0.0994   -0.0299
          47   -0.0255   -0.0003    0.0069   -0.0306    0.0051   -0.0244   -0.0011    0.0033
          48   -0.0252    0.0254    0.0211   -0.0298   -0.0161   -0.0346   -0.0203   -0.0043
          49   -0.0153   -0.0012    0.0300    0.0036    0.0096   -0.0020    0.0026   -0.0062
          50    0.0423    0.0034    0.0090    0.0296    0.0446   -0.0159    0.0143   -0.0627
          51   -0.0165    0.0173    0.1007    0.0699    0.0646   -0.0172    0.0500   -0.1473
          52    0.0032    0.0132   -0.0185   -0.0091    0.0004    0.0043    0.0090   -0.0054
          53   -0.0621   -0.0015    0.0287    0.0478    0.0176   -0.0134   -0.0172    0.0733
          54   -0.0037    0.0140    0.1065    0.0735    0.0597   -0.0020   -0.0125    0.1567
          55    0.0431   -0.0133    0.0538    0.0682    0.0382   -0.0495   -0.0939    0.1341
          56   -0.0319    0.0000    0.0148    0.0212    0.0045   -0.0171   -0.0332    0.0489
          57    0.0415    0.0042   -0.0089    0.0150    0.0069   -0.0166   -0.0320    0.0534
          58    0.0325   -0.0231   -0.0437   -0.0586   -0.0887    0.0399    0.0506    0.1504
          59    0.0387    0.0050   -0.0096   -0.0002    0.0059   -0.0003   -0.0085   -0.0109
          60   -0.0549    0.0214   -0.0092    0.0233    0.0333   -0.0154   -0.0252   -0.0813
          61    0.0139    0.0535    0.0277   -0.0034   -0.0011    0.0072    0.0214   -0.0014
          62    0.0226    0.0192    0.0025    0.0048   -0.0053    0.0020   -0.0028    0.0005
          63   -0.0861   -0.0668   -0.0104   -0.0226    0.0197   -0.0043    0.0076    0.0048
          64    0.0113    0.0056   -0.0026    0.0162    0.0034    0.0002    0.0108   -0.0026
          65    0.0204    0.0138    0.0005    0.0136    0.0011    0.0010    0.0071   -0.0042
          66   -0.0711   -0.0616   -0.0153   -0.0108    0.0131    0.0009    0.0056    0.0077


   Root No.      33        34        35        36        37        38        39        40

                33 A      34 A      35 A      36 A      37 A      38 A      39 A      40 A   

                1152.0    1178.8    1209.9    1227.7    1279.5    1288.2    1330.4    1343.8
  
           1   -0.0106    0.0026    0.0042   -0.0337    0.0133    0.0396   -0.0196    0.0290
           2   -0.0050    0.0104    0.0266    0.0404   -0.0203   -0.0186    0.0043   -0.0001
           3    0.0045   -0.0071    0.0258    0.0075    0.0045    0.0163    0.0136    0.0002
           4    0.0122   -0.0134    0.0227   -0.0067    0.0187   -0.0195    0.0543   -0.0274
           5    0.0011   -0.0312    0.0115    0.0048    0.0187    0.0106    0.0215    0.0166
           6   -0.0006   -0.0318    0.0032    0.0213   -0.0057   -0.0046   -0.0193    0.0236
           7    0.0032   -0.0011    0.0105    0.0107   -0.0187    0.0214    0.0045   -0.0119
           8    0.0043    0.0050    0.0073   -0.0013    0.0019    0.0659    0.0006   -0.0120
           9   -0.0062    0.0026   -0.0061   -0.0043   -0.0026    0.0145   -0.0024   -0.0027
          10   -0.0019    0.0023   -0.0035    0.0176    0.0410   -0.0203   -0.0061    0.0384
          11    0.0001    0.0140   -0.0081   -0.0013    0.0047   -0.0135    0.0040   -0.0033
          12   -0.0002    0.0038   -0.0003    0.0054    0.0075   -0.0038   -0.0012    0.0059
          13    0.0007    0.0087   -0.0014    0.0065    0.0161    0.0034   -0.0064   -0.0152
          14   -0.0008   -0.0318    0.0044   -0.0112   -0.0170   -0.0076   -0.0359   -0.0015
          15   -0.0006    0.0052    0.0004   -0.0061   -0.0022   -0.0010   -0.0070   -0.0056
          16   -0.0002    0.0100   -0.0082   -0.0036   -0.0048   -0.0183   -0.0053   -0.0054
          17    0.0020    0.0026   -0.0001   -0.0092    0.0004   -0.0082   -0.0084    0.0056
          18    0.0013    0.0086    0.0129   -0.0020   -0.0053   -0.0115   -0.0131    0.0098
          19   -0.0007   -0.0063    0.0064    0.0091   -0.0076   -0.0009   -0.0211    0.0141
          20    0.0026    0.0031   -0.0042    0.0030   -0.0007    0.0030    0.0012   -0.0000
          21    0.0008   -0.0073   -0.0118    0.0049    0.0059    0.0126    0.0146   -0.0015
          22    0.0016   -0.0140   -0.0042    0.0140    0.0017    0.0148    0.0030    0.0103
          23    0.0012    0.0005   -0.0060    0.0005    0.0010    0.0040    0.0034   -0.0022
          24    0.0010    0.0126   -0.0108   -0.0044   -0.0005    0.0006    0.0055   -0.0107
          25   -0.0024   -0.0007   -0.0214   -0.0024    0.0035    0.0044    0.0164   -0.0192
          26   -0.0003    0.0045   -0.0048   -0.0049    0.0005   -0.0030    0.0007   -0.0042
          27    0.0016    0.0054   -0.0026   -0.0118    0.0016   -0.0056   -0.0048    0.0004
          28   -0.0008    0.0044   -0.0051   -0.0055   -0.0057    0.0021   -0.0206   -0.0208
          29   -0.0009    0.0145   -0.0047    0.0023    0.0044    0.0019   -0.0020   -0.0050
          30   -0.0007    0.0011   -0.0014    0.0010    0.0003    0.0005   -0.0038   -0.0031
          31    0.0924   -0.0124   -0.0382    0.1211   -0.0638   -0.0759   -0.0274   -0.0186
          32   -0.0443   -0.0051   -0.0990   -0.0989    0.0297    0.0115   -0.0116    0.0065
          33    0.0213   -0.0219   -0.0550   -0.0075    0.0021   -0.0110    0.0023   -0.0137
          34   -0.0822    0.0983   -0.0719    0.0859   -0.0575   -0.0229   -0.0796    0.0221
          35   -0.0207    0.1470   -0.0342    0.0006   -0.0153    0.0019   -0.0074   -0.0170
          36    0.0252    0.0860    0.0058   -0.0288    0.0005   -0.0109    0.0199   -0.0336
          37    0.0110   -0.0181    0.0016   -0.0052   -0.0462   -0.0416    0.0087   -0.0250
          38   -0.0094   -0.0204   -0.0777   -0.0973    0.0201   -0.1186   -0.0279    0.0445
          39    0.0079   -0.0147    0.0013   -0.0043   -0.0420   -0.0312    0.0104   -0.0321
          40    0.0069   -0.0311   -0.0122   -0.0166   -0.0470   -0.0503    0.0048   -0.0294
          41    0.0578   -0.0864   -0.0114   -0.0582    0.0287   -0.1274    0.0013    0.0379
          42    0.0103   -0.0199   -0.0060   -0.0158    0.0111   -0.0284   -0.0014    0.0155
          43   -0.0050   -0.0390    0.0203   -0.0637   -0.1064   -0.0014   -0.0002   -0.0635
          44    0.0079    0.0251   -0.0165    0.0082    0.0478   -0.0641    0.0432   -0.0060
          45   -0.0027   -0.0040    0.0040   -0.0091   -0.0232    0.0092   -0.0089   -0.0085
          46   -0.0246   -0.0863   -0.0002   -0.0706   -0.1223   -0.0184   -0.0209   -0.0591
          47    0.0026    0.0319   -0.0218    0.0003    0.0375   -0.0548    0.0319   -0.0037
          48   -0.0032    0.0098   -0.0197   -0.0131    0.0152   -0.0627    0.0353   -0.0171
          49   -0.0000   -0.0028    0.0085    0.0092   -0.0086   -0.0036   -0.0219    0.0136
          50   -0.0504    0.0072    0.0617   -0.0234    0.0161   -0.0296    0.0126   -0.0155
          51   -0.1095    0.0478    0.1356   -0.0595    0.0295   -0.0808    0.0331   -0.0496
          52    0.0007    0.0100   -0.0094   -0.0085   -0.0034   -0.0181   -0.0070   -0.0045
          53   -0.0638   -0.0256   -0.0534    0.0433   -0.0056   -0.0153    0.0326   -0.0366
          54   -0.1198   -0.0668   -0.1114    0.0510    0.0078   -0.0105    0.0649   -0.0652
          55    0.1651    0.0735    0.0541   -0.0468   -0.0202   -0.0392   -0.0522    0.0176
          56    0.0606    0.0355    0.0160   -0.0212   -0.0073   -0.0159   -0.0162    0.0010
          57    0.0692    0.0497    0.0121   -0.0312   -0.0092   -0.0222   -0.0163   -0.0102
          58   -0.1633    0.0248    0.0876   -0.0225   -0.0128   -0.0596   -0.0393    0.0248
          59    0.0133    0.0009   -0.0142   -0.0026    0.0012    0.0014    0.0061   -0.0083
          60    0.0903   -0.0065   -0.0644   -0.0029    0.0111    0.0289    0.0255   -0.0251
          61   -0.0103    0.0795   -0.0283   -0.0190   -0.1006    0.0125    0.1693    0.1356
          62    0.0008   -0.0057    0.0009    0.0042    0.0247   -0.0008   -0.0474   -0.0421
          63    0.0003    0.0097   -0.0049   -0.0002   -0.0077    0.0016    0.0051    0.0075
          64   -0.0040   -0.0057   -0.0115   -0.0332   -0.0976    0.0024    0.0766    0.0811
          65   -0.0045   -0.0035   -0.0107   -0.0291   -0.1007    0.0013    0.1066    0.1130
          66    0.0016    0.0121   -0.0085   -0.0152   -0.0380    0.0027    0.0427    0.0379


   Root No.      41        42        43        44        45        46        47        48

                41 A      42 A      43 A      44 A      45 A      46 A      47 A      48 A   

                1361.4    1396.9    1418.0    1427.6    1455.5    1850.2    1865.9    1901.6
  
           1    0.0284   -0.0139    0.0082    0.0231    0.0408    0.0032   -0.0054   -0.0057
           2    0.0169   -0.0260   -0.0055    0.0325    0.0348    0.0087   -0.0129   -0.0083
           3    0.0153   -0.0215    0.0015    0.0328    0.0380    0.0150   -0.0214   -0.0045
           4   -0.0180   -0.0028    0.0022    0.0017   -0.0349   -0.0032   -0.0036   -0.0173
           5    0.0122    0.0135    0.0046   -0.0549    0.0185    0.0058    0.0107   -0.0243
           6    0.0021    0.0223    0.0010   -0.0449    0.0347    0.0161    0.0223   -0.0082
           7   -0.0066   -0.0064   -0.0479   -0.0201   -0.0009    0.0007   -0.0001   -0.0065
           8   -0.0140    0.0326    0.0050   -0.0019   -0.0135    0.0022   -0.0012    0.0029
           9   -0.0066    0.0047   -0.0163   -0.0079   -0.0049    0.0005    0.0002   -0.0006
          10   -0.0311    0.0111    0.0137    0.0428   -0.0043   -0.0006    0.0009   -0.0330
          11   -0.0048   -0.0348    0.0298   -0.0347    0.0002   -0.0012    0.0000    0.0124
          12   -0.0079   -0.0097    0.0135   -0.0047    0.0005   -0.0004    0.0001   -0.0006
          13    0.0159   -0.0064    0.0048   -0.0258    0.0050    0.0047   -0.0038    0.2517
          14   -0.0326    0.0113   -0.0138    0.0691   -0.0120    0.0037   -0.0009    0.0739
          15   -0.0067   -0.0001   -0.0035    0.0198   -0.0046    0.0033    0.0003    0.0496
          16   -0.0131    0.0122   -0.0020   -0.0173   -0.0239    0.0577   -0.0503   -0.0013
          17   -0.0013    0.0062    0.0009   -0.0124   -0.0344   -0.0539    0.0553    0.0039
          18    0.0035    0.0030   -0.0015   -0.0121   -0.0523   -0.1174    0.1182    0.0072
          19    0.0028    0.0096   -0.0005   -0.0156    0.0180   -0.0593   -0.0494    0.0025
          20    0.0050   -0.0061   -0.0002    0.0056   -0.0203   -0.0616   -0.0581    0.0008
          21    0.0128   -0.0164    0.0001    0.0145   -0.0538   -0.1175   -0.1133   -0.0004
          22    0.0223   -0.0185    0.0003    0.0117   -0.0686    0.1196    0.0668   -0.0016
          23    0.0024   -0.0049    0.0001    0.0068   -0.0065    0.0608    0.0536   -0.0001
          24   -0.0052   -0.0037   -0.0003    0.0125    0.0152    0.0888    0.0939    0.0009
          25   -0.0147    0.0019    0.0002    0.0129    0.0724   -0.1179    0.0695    0.0041
          26   -0.0068    0.0048    0.0001   -0.0031    0.0152    0.0314   -0.0414   -0.0017
          27   -0.0070    0.0093    0.0007   -0.0121    0.0012    0.0992   -0.1021   -0.0048
          28    0.0063   -0.0046   -0.0012   -0.0004   -0.0032   -0.0050    0.0027   -0.1941
          29    0.0082   -0.0040    0.0028   -0.0109    0.0015   -0.0017    0.0010   -0.0597
          30    0.0028   -0.0011    0.0007   -0.0039    0.0008   -0.0010    0.0007   -0.0393
          31   -0.0400    0.0295   -0.0221   -0.0432   -0.0166    0.0175   -0.0015    0.0001
          32   -0.0141    0.0351    0.0157   -0.0419   -0.0305    0.0078   -0.0027   -0.0010
          33   -0.0256    0.0256    0.0012   -0.0301   -0.0159    0.0173   -0.0124    0.0032
          34    0.0192    0.0040   -0.0034   -0.0193    0.0175   -0.0106   -0.0037    0.0227
          35    0.0176   -0.0246   -0.0002    0.0211   -0.0050    0.0004   -0.0042    0.0129
          36   -0.0101   -0.0189    0.0002    0.0381   -0.0143    0.0084    0.0028    0.0053
          37    0.0533    0.0226    0.1293    0.0158    0.0067   -0.0004   -0.0001   -0.0048
          38    0.0275   -0.0860   -0.0654   -0.0356    0.0255   -0.0023    0.0019    0.0012
          39    0.0629    0.0625    0.2241    0.0447   -0.0017    0.0009   -0.0016    0.0072
          40    0.0685    0.0716    0.2460    0.0512   -0.0040    0.0006   -0.0006    0.0027
          41    0.0356   -0.0961   -0.0344    0.0015    0.0494    0.0032   -0.0056    0.0009
          42   -0.0063   -0.0497   -0.0858   -0.0213    0.0154    0.0022   -0.0023   -0.0045
          43    0.0530   -0.0016   -0.0546   -0.0095    0.0031    0.0009    0.0002    0.0218
          44    0.1323    0.1379   -0.1259    0.0690    0.0054   -0.0006   -0.0002    0.0058
          45   -0.0261   -0.0492    0.0372   -0.0346   -0.0003   -0.0005    0.0001    0.0058
          46    0.0274   -0.0315   -0.0243   -0.0296    0.0021    0.0002    0.0002    0.0308
          47    0.0776    0.0669   -0.0635    0.0275    0.0005   -0.0011    0.0002    0.0039
          48    0.1236    0.1231   -0.1275    0.0648    0.0037    0.0003    0.0002    0.0038
          49    0.0019    0.0101   -0.0006   -0.0163    0.0173   -0.0819   -0.0711    0.0029
          50   -0.0208    0.0176    0.0015   -0.0225    0.0384   -0.0052    0.0032    0.0004
          51   -0.0579    0.0345    0.0021   -0.0307    0.0784    0.0252    0.0431   -0.0015
          52   -0.0140    0.0140   -0.0015   -0.0194   -0.0250    0.0780   -0.0714   -0.0020
          53   -0.0247    0.0034   -0.0035    0.0064    0.0399    0.0238   -0.0315   -0.0017
          54   -0.0443    0.0059   -0.0025    0.0140    0.0776    0.0108   -0.0302   -0.0001
          55   -0.0266    0.0400   -0.0001   -0.0414    0.0618   -0.0298   -0.0893   -0.0005
          56   -0.0156    0.0174    0.0001   -0.0146    0.0457    0.0138    0.0030   -0.0006
          57   -0.0272    0.0202   -0.0005   -0.0069    0.0726    0.0512    0.0512    0.0022
          58   -0.0072    0.0256   -0.0014   -0.0473   -0.0755    0.0274   -0.0901   -0.0022
          59   -0.0075    0.0028   -0.0002    0.0016    0.0300    0.0285   -0.0372   -0.0020
          60   -0.0139   -0.0016    0.0019    0.0195    0.0858    0.0430   -0.0367   -0.0021
          61   -0.0078    0.0107    0.0070   -0.0306    0.0116    0.0003   -0.0003    0.0223
          62    0.0103   -0.0079    0.0005   -0.0006   -0.0031   -0.0038    0.0021   -0.1493
          63    0.0024    0.0012    0.0006   -0.0070    0.0034   -0.0007    0.0013   -0.0386
          64   -0.0343    0.0164   -0.0091    0.0352   -0.0046   -0.0010    0.0011   -0.0793
          65   -0.0411    0.0216   -0.0070    0.0341    0.0002    0.0046   -0.0014    0.1318
          66   -0.0148    0.0041   -0.0028    0.0191   -0.0056    0.0016   -0.0006    0.0269


   Root No.      49        50        51        52        53        54        55        56

                49 A      50 A      51 A      52 A      53 A      54 A      55 A      56 A   

                2863.7    2879.0    2964.1    2982.2    3043.0    3048.2    3049.6    3061.9
  
           1   -0.0066    0.0160   -0.0004    0.0006    0.0003    0.0001   -0.0004   -0.0004
           2   -0.0081    0.0226   -0.0006    0.0009   -0.0001    0.0005   -0.0004    0.0004
           3    0.0160   -0.0441    0.0009   -0.0018   -0.0003    0.0001    0.0005    0.0002
           4   -0.0189   -0.0053    0.0001   -0.0001   -0.0004   -0.0002    0.0003    0.0003
           5    0.0359    0.0116   -0.0000    0.0003    0.0003    0.0003    0.0001   -0.0004
           6   -0.0367   -0.0120   -0.0001   -0.0003   -0.0001    0.0000    0.0003    0.0000
           7    0.0007   -0.0014   -0.0058    0.0116   -0.0001   -0.0061    0.0002   -0.0331
           8   -0.0003    0.0002   -0.0024    0.0050    0.0000    0.0018   -0.0001    0.0121
           9   -0.0008    0.0032    0.0189   -0.0381   -0.0000   -0.0013    0.0000   -0.0056
          10    0.0000    0.0000    0.0067    0.0032    0.0000   -0.0007   -0.0000   -0.0003
          11   -0.0003   -0.0001    0.0124    0.0059   -0.0002   -0.0354   -0.0009    0.0057
          12    0.0000   -0.0002   -0.0384   -0.0183   -0.0000   -0.0091   -0.0002    0.0014
          13    0.0002   -0.0002    0.0002   -0.0001   -0.0001    0.0005    0.0000    0.0004
          14    0.0006    0.0001    0.0000   -0.0000    0.0001   -0.0003   -0.0000    0.0001
          15    0.0001   -0.0001   -0.0000   -0.0001    0.0002    0.0000   -0.0000    0.0001
          16    0.0005   -0.0013    0.0000   -0.0001   -0.0030    0.0008   -0.0366    0.0005
          17    0.0002   -0.0003   -0.0002    0.0003   -0.0004    0.0002   -0.0047    0.0002
          18    0.0001   -0.0002   -0.0000    0.0001    0.0003   -0.0001    0.0029   -0.0001
          19    0.0009    0.0001   -0.0000    0.0000   -0.0455    0.0000    0.0069    0.0006
          20   -0.0002    0.0000   -0.0000    0.0000   -0.0087    0.0000    0.0014    0.0001
          21   -0.0009   -0.0002    0.0000    0.0000    0.0020   -0.0000   -0.0001    0.0001
          22    0.0002    0.0001    0.0000   -0.0000    0.0114   -0.0000    0.0011    0.0003
          23    0.0004    0.0001    0.0000    0.0000   -0.0052    0.0000   -0.0012   -0.0003
          24    0.0002    0.0001    0.0000    0.0000   -0.0176    0.0001   -0.0033   -0.0008
          25   -0.0000   -0.0002   -0.0000    0.0000    0.0024   -0.0003    0.0131    0.0006
          26   -0.0002    0.0002   -0.0000    0.0000    0.0025   -0.0003    0.0133    0.0007
          27   -0.0000    0.0002    0.0000   -0.0000    0.0039   -0.0005    0.0199    0.0011
          28   -0.0001    0.0000   -0.0000   -0.0000   -0.0006   -0.0001    0.0001   -0.0000
          29    0.0000    0.0000    0.0000    0.0000    0.0004   -0.0000   -0.0001   -0.0000
          30   -0.0001   -0.0000   -0.0001   -0.0000    0.0001   -0.0000   -0.0000   -0.0000
          31    0.0668   -0.1953    0.0034   -0.0064   -0.0003   -0.0001    0.0008    0.0006
          32    0.1006   -0.2765    0.0070   -0.0135   -0.0005    0.0002    0.0026    0.0023
          33   -0.1928    0.5304   -0.0106    0.0196    0.0006    0.0000   -0.0088   -0.0032
          34    0.2208    0.0760    0.0000    0.0011    0.0001    0.0005   -0.0003   -0.0003
          35   -0.4338   -0.1414    0.0000   -0.0019   -0.0035   -0.0005    0.0011    0.0010
          36    0.4490    0.1466    0.0001    0.0020    0.0050    0.0008   -0.0013   -0.0010
          37   -0.0044    0.0220    0.1096   -0.2260    0.0005    0.0572   -0.0028    0.3365
          38   -0.0010   -0.0001   -0.0212    0.0398   -0.0001   -0.0099    0.0002   -0.0506
          39    0.0031   -0.0155   -0.0736    0.1457   -0.0004   -0.0451    0.0020   -0.2592
          40    0.0016   -0.0059   -0.0403    0.0876    0.0002    0.0107   -0.0007    0.0624
          41   -0.0013    0.0048    0.0523   -0.1008   -0.0003   -0.0182    0.0007   -0.0974
          42    0.0071   -0.0246   -0.1533    0.3108    0.0010    0.0580   -0.0027    0.3275
          43    0.0007   -0.0001   -0.0457   -0.0184   -0.0002   -0.0508   -0.0012    0.0075
          44   -0.0009   -0.0001    0.0956    0.0473    0.0003    0.0753    0.0019   -0.0127
          45   -0.0028   -0.0005    0.3208    0.1523    0.0015    0.3542    0.0087   -0.0589
          46    0.0002   -0.0001   -0.0355   -0.0193    0.0002    0.0585    0.0014   -0.0111
          47    0.0002   -0.0010   -0.2433   -0.1183    0.0014    0.3488    0.0086   -0.0582
          48   -0.0000    0.0008    0.1420    0.0668   -0.0010   -0.2442   -0.0060    0.0403
          49   -0.0071   -0.0049    0.0002   -0.0004    0.5301   -0.0003   -0.0808   -0.0067
          50   -0.0004   -0.0003    0.0000   -0.0000    0.0915   -0.0001   -0.0142   -0.0012
          51   -0.0018   -0.0001   -0.0000    0.0000   -0.0464    0.0000    0.0066    0.0005
          52   -0.0034    0.0137   -0.0003    0.0007    0.0347   -0.0104    0.4316   -0.0063
[...]
 EFFECTIVE MASS      5.8523
 FORCE CONSTANT      0.5854

 VIBRATION         43   43A           ATOM PAIR      ENERGY CONTRIBUTION    RADIAL
 FREQUENCY          1417.99         C  3 -- H 13         +26.4% ( 54.8%)      5.3%
 TRANSITION DIPOLE   0.0502         C  3 -- H 14         +26.1% ( 54.4%)      4.8%
 TRAVEL (Ang.)       0.3209         C  3 -- C  4         +13.5% ( 39.2%)     95.6%
 REDUCED MASS        0.4619         C  4 -- H 16          +9.2% ( 32.3%)      5.7%
 EFFECTIVE MASS      3.1645
 FORCE CONSTANT      0.5472

 VIBRATION         44   44A           ATOM PAIR      ENERGY CONTRIBUTION    RADIAL
 FREQUENCY          1427.63         C  2 -- C  5         +17.2% ( 64.4%)     76.8%
 TRANSITION DIPOLE   0.1891         C  4 -- C  5         +14.4% ( 58.8%)     87.2%
 TRAVEL (Ang.)       0.1570         C  1 -- C  2         +10.4% ( 50.1%)      3.2%
 REDUCED MASS        1.9170         C  2 -- C  7          +8.0% ( 43.9%)     74.2%
 EFFECTIVE MASS     10.3996
 FORCE CONSTANT      2.3020

 VIBRATION         45   45A           ATOM PAIR      ENERGY CONTRIBUTION    RADIAL
 FREQUENCY          1455.52         C  8 -- C  9         +16.3% ( 61.9%)     99.9%
 TRANSITION DIPOLE   0.1192         C  1 -- C  6         +12.4% ( 53.9%)     98.9%
 TRAVEL (Ang.)       0.1741         C  6 -- C  9          +9.3% ( 46.7%)      0.5%
 REDUCED MASS        1.5284         C  2 -- C  7          +8.9% ( 45.7%)     98.3%
 EFFECTIVE MASS     10.5467
 FORCE CONSTANT      1.9077

 VIBRATION         46   46A           ATOM PAIR      ENERGY CONTRIBUTION    RADIAL
 FREQUENCY          1850.18         C  7 -- C  8         +22.4% ( 70.6%)     98.9%
 TRANSITION DIPOLE   0.2958         C  6 -- C  9         +21.3% ( 68.8%)     98.9%
 TRAVEL (Ang.)       0.1126         C  8 -- C  9         +16.7% ( 60.8%)     99.8%
 REDUCED MASS        2.8748         C  8 -- H 19          +7.4% ( 40.4%)      1.7%
 EFFECTIVE MASS     11.9570
 FORCE CONSTANT      5.7981

 VIBRATION         47   47A           ATOM PAIR      ENERGY CONTRIBUTION    RADIAL
 FREQUENCY          1865.90         C  6 -- C  9         +22.8% ( 69.9%)     99.3%
 TRANSITION DIPOLE   0.3564         C  7 -- C  8         +21.8% ( 68.3%)     99.3%
 TRAVEL (Ang.)       0.1159         C  8 -- C  9         +12.2% ( 51.1%)      0.0%
 REDUCED MASS        2.6883         C  1 -- C  6          +8.0% ( 41.5%)     55.6%
 EFFECTIVE MASS     11.7839
 FORCE CONSTANT      5.5145

 VIBRATION         48   48A           ATOM PAIR      ENERGY CONTRIBUTION    RADIAL
 FREQUENCY          1901.56         C  5 -- C 10         +44.4% ( 98.8%)    100.0%
 TRANSITION DIPOLE   0.3037         C  4 -- C  5         +18.2% ( 63.2%)     40.4%
 TRAVEL (Ang.)       0.0790         C  2 -- C  5         +18.0% ( 62.9%)     37.3%
 REDUCED MASS        5.6872         C 10 -- H 21          +9.2% ( 45.1%)     11.6%
 EFFECTIVE MASS     11.8969
 FORCE CONSTANT     12.1162

 VIBRATION         49   49A           ATOM PAIR      ENERGY CONTRIBUTION    RADIAL
 FREQUENCY          2863.66         C  2 -- H 12         +86.5% ( 94.6%)    100.0%
 TRANSITION DIPOLE   0.0804         C  1 -- H 11         +10.3% ( 32.7%)    100.0%
 TRAVEL (Ang.)       0.1768         C  1 -- C  2          +1.1% ( 10.6%)      3.1%
 REDUCED MASS        0.7533         C  2 -- C  5          +0.9% (  9.8%)     10.2%
 EFFECTIVE MASS      1.4494
 FORCE CONSTANT      3.6397

 VIBRATION         50   50A           ATOM PAIR      ENERGY CONTRIBUTION    RADIAL
 FREQUENCY          2878.96         C  1 -- H 11         +86.3% ( 94.3%)    100.0%
 TRANSITION DIPOLE   0.0900         C  2 -- H 12         +10.2% ( 32.4%)    100.0%
 TRAVEL (Ang.)       0.1770         C  1 -- C  2          +1.0% ( 10.1%)     28.3%
 REDUCED MASS        0.7476         C  1 -- C  3          +1.0% (  9.9%)      9.0%
 EFFECTIVE MASS      1.4423
 FORCE CONSTANT      3.6507

 VIBRATION         51   51A           ATOM PAIR      ENERGY CONTRIBUTION    RADIAL
 FREQUENCY          2964.15         C  4 -- H 15         +45.7% ( 70.3%)     97.2%
 TRANSITION DIPOLE   0.0271         C  4 -- H 16         +33.2% ( 60.0%)     95.5%
 TRAVEL (Ang.)       0.2491         C  3 -- H 14         +11.2% ( 34.8%)     97.2%
 REDUCED MASS        0.3667         C  3 -- H 13          +7.5% ( 28.5%)     94.9%
 EFFECTIVE MASS      1.5482
 FORCE CONSTANT      1.8985

 VIBRATION         52   52A           ATOM PAIR      ENERGY CONTRIBUTION    RADIAL
 FREQUENCY          2982.21         C  3 -- H 14         +47.4% ( 71.2%)     97.6%
 TRANSITION DIPOLE   0.0696         C  3 -- H 13         +31.7% ( 58.3%)     95.2%
 TRAVEL (Ang.)       0.2477         C  4 -- H 15         +10.6% ( 33.7%)     97.5%
 REDUCED MASS        0.3687         C  4 -- H 16          +7.9% ( 29.2%)     95.9%
 EFFECTIVE MASS      1.5296
 FORCE CONSTANT      1.9318

 VIBRATION         53   53A           ATOM PAIR      ENERGY CONTRIBUTION    RADIAL
 FREQUENCY          3043.01         C  7 -- H 17         +77.3% ( 89.2%)    100.0%
 TRANSITION DIPOLE   0.2924         C  8 -- H 19         +18.9% ( 44.1%)     99.9%
 TRAVEL (Ang.)       0.1888         C  7 -- C  8          +1.2% ( 11.0%)      7.1%
 REDUCED MASS        0.6214         C  2 -- C  7          +1.1% ( 10.6%)     16.1%
 EFFECTIVE MASS      1.4752
 FORCE CONSTANT      3.3903

 VIBRATION         54   54A           ATOM PAIR      ENERGY CONTRIBUTION    RADIAL
 FREQUENCY          3048.19         C  4 -- H 16         +56.0% ( 73.8%)     98.5%
 TRANSITION DIPOLE   0.0911         C  4 -- H 15         +39.8% ( 62.2%)     96.4%
 TRAVEL (Ang.)       0.2173         C  3 -- H 13          +1.7% ( 12.7%)     98.4%
 REDUCED MASS        0.4683         C  3 -- H 14          +1.1% ( 10.6%)     96.2%
 EFFECTIVE MASS      1.2841
 FORCE CONSTANT      2.5639

 VIBRATION         55   55A           ATOM PAIR      ENERGY CONTRIBUTION    RADIAL
 FREQUENCY          3049.56         C  6 -- H 18         +60.6% ( 79.0%)    100.0%
 TRANSITION DIPOLE   0.2432         C  9 -- H 20         +34.3% ( 59.4%)    100.0%
 TRAVEL (Ang.)       0.2159         C  7 -- H 17          +2.1% ( 14.9%)    100.0%
 REDUCED MASS        0.4742         C  6 -- C  9          +1.1% ( 10.6%)      1.3%
 EFFECTIVE MASS      1.4650
 FORCE CONSTANT      2.5985

 VIBRATION         56   56A           ATOM PAIR      ENERGY CONTRIBUTION    RADIAL
 FREQUENCY          3061.91         C  3 -- H 13         +58.3% ( 75.3%)     98.7%
 TRANSITION DIPOLE   0.0652         C  3 -- H 14         +37.5% ( 60.3%)     96.0%
 TRAVEL (Ang.)       0.2154         C  4 -- H 16          +1.6% ( 12.5%)     98.6%
 REDUCED MASS        0.4745         C  4 -- H 15          +1.1% ( 10.5%)     96.6%
 EFFECTIVE MASS      1.2830
 FORCE CONSTANT      2.6211

 VIBRATION         57   57A           ATOM PAIR      ENERGY CONTRIBUTION    RADIAL
 FREQUENCY          3064.16         C  8 -- H 19         +43.6% ( 67.2%)     99.9%
 TRANSITION DIPOLE   0.3514         C  6 -- H 18         +20.9% ( 46.5%)     99.9%
 TRAVEL (Ang.)       0.2765         C  9 -- H 20         +20.1% ( 45.5%)     99.8%
 REDUCED MASS        0.2879         C  7 -- H 17         +11.7% ( 34.7%)     99.8%
 EFFECTIVE MASS      1.5698
 FORCE CONSTANT      1.5926

 VIBRATION         58   58A           ATOM PAIR      ENERGY CONTRIBUTION    RADIAL
 FREQUENCY          3074.81         C  9 -- H 20         +41.6% ( 65.4%)    100.0%
 TRANSITION DIPOLE   0.3682         C  8 -- H 19         +33.9% ( 59.0%)    100.0%
 TRAVEL (Ang.)       0.2640         C  6 -- H 18         +15.0% ( 39.3%)     99.8%
 REDUCED MASS        0.3147         C  7 -- H 17          +5.8% ( 24.4%)     99.7%
 EFFECTIVE MASS      1.6013
 FORCE CONSTANT      1.7531

 VIBRATION         59   59A           ATOM PAIR      ENERGY CONTRIBUTION    RADIAL
 FREQUENCY          3139.62         C 10 -- H 22         +92.8% ( 97.0%)     99.7%
 TRANSITION DIPOLE   0.2819         C 10 -- H 21          +5.7% ( 24.0%)     39.8%
 TRAVEL (Ang.)       0.1604         C  5 -- C 10          +1.5% ( 12.2%)     65.4%
 REDUCED MASS        0.8344
 EFFECTIVE MASS      1.4487
 FORCE CONSTANT      4.8458

 VIBRATION         60   60A           ATOM PAIR      ENERGY CONTRIBUTION    RADIAL
 FREQUENCY          3145.09         C 10 -- H 21         +91.9% ( 97.6%)     99.9%
 TRANSITION DIPOLE   0.2449         C 10 -- H 22          +6.7% ( 26.3%)     71.2%
 TRAVEL (Ang.)       0.1582         C  5 -- C 10          +1.4% ( 11.9%)     21.7%
 REDUCED MASS        0.8565
 EFFECTIVE MASS      1.5452
 FORCE CONSTANT      4.9913

      SYMMETRY NUMBER FOR POINT-GROUP C1  =  1


          SYSTEM IS A GROUND STATE



 InChI=1S/C10H12/c1-8-6-7-9-4-2-3-5-10(8)9/h2-5,9-10H,1,6-7H2


          MOLECULE IS NOT LINEAR

          THERE ARE 60 GENUINE VIBRATIONS IN THIS SYSTEM
          THIS THERMODYNAMICS CALCULATION IS LIMITED TO
          MOLECULES WHICH HAVE NO INTERNAL ROTATIONS




                    CALCULATED THERMODYNAMIC PROPERTIES
                                          *
   TEMP. (K)   PARTITION FUNCTION   H.O.F.    ENTHALPY  HEAT CAPACITY ENTROPY
                                   KCAL/MOL   CAL/MOLE    CAL/K/MOL  CAL/K/MOL


 298.00  VIB.     0.9137D+02                  3502.4605    28.1127    20.7252
         ROT.     0.5192D+06                   888.2803     2.9808    29.1327
         INT.     0.4744D+08                  4390.7408    31.0936    49.8579
         TRA.     0.1470D+28                  1480.4672     4.9680    40.5480
         TOT.                       34.082    5871.2080    36.0616    90.4058

 200.00  VIB.     0.1482D+02                  1377.3479    15.6090    12.2436
         ROT.     0.2855D+06                   596.1613     2.9808    27.9440
         INT.     0.4230D+07                  1973.5092    18.5898    40.1876
         TRA.     0.8080D+27                   993.6021     4.9680    38.5668
         TOT.                       31.178    2967.1114    23.5578    78.7544

 210.00  VIB.     0.1764D+02                  1539.1829    16.7646    13.0329
         ROT.     0.3072D+06                   625.9693     2.9808    28.0894
         INT.     0.5418D+07                  2165.1523    19.7454    41.1224
         TRA.     0.8694D+27                  1043.2822     4.9680    38.8092
         TOT.                       31.419    3208.4345    24.7134    79.9316

 220.00  VIB.     0.2105D+02                  1712.7646    17.9578    13.8402
         ROT.     0.3294D+06                   655.7774     2.9808    28.2281
         INT.     0.6934D+07                  2368.5420    20.9386    42.0683
         TRA.     0.9322D+27                  1092.9623     4.9680    39.0403
         TOT.                       31.672    3461.5044    25.9066    81.1086

 230.00  VIB.     0.2519D+02                  1898.4517    19.1850    14.6654
         ROT.     0.3521D+06                   685.5855     2.9808    28.3606
         INT.     0.8867D+07                  2584.0372    22.1658    43.0260
         TRA.     0.9965D+27                  1142.6424     4.9680    39.2612
         TOT.                       31.937    3726.6796    27.1338    82.2872

 240.00  VIB.     0.3021D+02                  2096.5658    20.4425    15.5084
         ROT.     0.3753D+06                   715.3935     2.9808    28.4875
         INT.     0.1134D+08                  2811.9593    23.4233    43.9959
         TRA.     0.1062D+28                  1192.3226     4.9680    39.4726
         TOT.                       32.215    4004.2819    28.3913    83.4685

 250.00  VIB.     0.3633D+02                  2307.3878    21.7259    16.3688
         ROT.     0.3990D+06                   745.2016     2.9808    28.6091
         INT.     0.1449D+08                  3052.5894    24.7067    44.9780
         TRA.     0.1129D+28                  1242.0027     4.9680    39.6754
         TOT.                       32.505    4294.5921    29.6747    84.6534

 260.00  VIB.     0.4380D+02                  2531.1564    23.0311    17.2463
         ROT.     0.4232D+06                   775.0097     2.9808    28.7260
         INT.     0.1854D+08                  3306.1661    26.0119    45.9724
         TRA.     0.1198D+28                  1291.6828     4.9680    39.8703
         TOT.                       32.808    4597.8489    30.9799    85.8426

 270.00  VIB.     0.5296D+02                  2768.0666    24.3535    18.1403
         ROT.     0.4478D+06                   804.8177     2.9808    28.8385
         INT.     0.2371D+08                  3572.8844    27.3343    46.9788
         TRA.     0.1267D+28                  1341.3629     4.9680    40.0578
         TOT.                       33.125    4914.2472    32.3023    87.0366

 280.00  VIB.     0.6419D+02                  3018.2703    25.6890    19.0501
         ROT.     0.4729D+06                   834.6258     2.9808    28.9469
         INT.     0.3036D+08                  3852.8961    28.6698    47.9970
         TRA.     0.1338D+28                  1391.0430     4.9680    40.2384
         TOT.                       33.454    5243.9391    33.6379    88.2354

 290.00  VIB.     0.7802D+02                  3281.8771    27.0335    19.9749
         ROT.     0.4985D+06                   864.4339     2.9808    29.0515
         INT.     0.3889D+08                  4146.3110    30.0143    49.0265
         TRA.     0.1411D+28                  1440.7231     4.9680    40.4128
         TOT.                       33.797    5587.0340    34.9823    89.4393

 300.00  VIB.     0.9507D+02                  3558.9561    28.3828    20.9142
         ROT.     0.5245D+06                   894.2419     2.9808    29.1526
         INT.     0.4986D+08                  4453.1980    31.3636    50.0668
         TRA.     0.1484D+28                  1490.4032     4.9680    40.5812
         TOT.                       34.154    5943.6012    36.3317    90.6479

 310.00  VIB.     0.1162D+03                  3849.5380    29.7335    21.8668
         ROT.     0.5509D+06                   924.0500     2.9808    29.2503
         INT.     0.6399D+08                  4773.5880    32.7143    51.1172
         TRA.     0.1559D+28                  1540.0833     4.9680    40.7441
         TOT.                       34.524    6313.6713    37.6823    91.8613

 320.00  VIB.     0.1423D+03                  4153.6183    31.0819    22.8322
         ROT.     0.5778D+06                   953.8580     2.9808    29.3450
         INT.     0.8221D+08                  5107.4763    34.0627    52.1771
         TRA.     0.1635D+28                  1589.7634     4.9680    40.9018
         TOT.                       34.908    6697.2397    39.0308    93.0790

 330.00  VIB.     0.1747D+03                  4471.1592    32.4251    23.8092
         ROT.     0.6051D+06                   983.6661     2.9808    29.4367
         INT.     0.1057D+09                  5454.8254    35.4059    53.2459
         TRA.     0.1713D+28                  1639.4435     4.9680    41.0547
         TOT.                       35.305    7094.2689    40.3740    94.3006

 340.00  VIB.     0.2151D+03                  4802.0939    33.7602    24.7970
         ROT.     0.6328D+06                  1013.4742     2.9808    29.5257
         INT.     0.1361D+09                  5815.5681    36.7410    54.3227
         TRA.     0.1791D+28                  1689.1236     4.9680    41.2030
         TOT.                       35.715    7504.6917    41.7091    95.5257

 350.00  VIB.     0.2654D+03                  5146.3286    35.0847    25.7948
         ROT.     0.6609D+06                  1043.2822     2.9808    29.6121
         INT.     0.1754D+09                  6189.6109    38.0656    55.4069
         TRA.     0.1871D+28                  1738.8037     4.9680    41.3470
         TOT.                       36.139    7928.4146    43.0336    96.7539

 360.00  VIB.     0.3282D+03                  5503.7462    36.3965    26.8016
         ROT.     0.6894D+06                  1073.0903     2.9808    29.6961
         INT.     0.2263D+09                  6576.8365    39.3773    56.4976
         TRA.     0.1951D+28                  1788.4838     4.9680    41.4870
         TOT.                       36.576    8365.3204    44.3453    97.9846

 370.00  VIB.     0.4069D+03                  5874.2091    37.6935    27.8165
         ROT.     0.7184D+06                  1102.8984     2.9808    29.7777
         INT.     0.2923D+09                  6977.1075    40.6743    57.5942
         TRA.     0.2033D+28                  1838.1639     4.9680    41.6231
         TOT.                       37.026    8815.2714    45.6423    99.2173

 380.00  VIB.     0.5055D+03                  6257.5621    38.9742    28.8388
         ROT.     0.7477D+06                  1132.7064     2.9808    29.8572
         INT.     0.3780D+09                  7390.2685    41.9550    58.6960
         TRA.     0.2116D+28                  1887.8440     4.9680    41.7556
         TOT.                       37.489    9278.1125    46.9231   100.4516

 390.00  VIB.     0.6294D+03                  6653.6348    40.2373    29.8675
         ROT.     0.7774D+06                  1162.5145     2.9808    29.9347
         INT.     0.4893D+09                  7816.1493    43.2181    59.8022
         TRA.     0.2200D+28                  1937.5242     4.9680    41.8846
         TOT.                       37.964    9753.6735    48.1861   101.6868

 400.00  VIB.     0.7851D+03                  7062.2447    41.4815    30.9020
         ROT.     0.8075D+06                  1192.3226     2.9808    30.0101
         INT.     0.6340D+09                  8254.5672    44.4623    60.9121
         TRA.     0.2285D+28                  1987.2043     4.9680    42.0104
         TOT.                       38.452   10241.7715    49.4303   102.9225

   *: NOTE: HEATS OF FORMATION ARE RELATIVE TO THE
            ELEMENTS IN THEIR STANDARD STATE AT 298K
              (=  Standard Enthalpy of Formation).

            Hvib:  Zero-point energy is not included.
                   frequencies of less than zero cm-1 are not included.
            Hrot = (3/2)RT
            Htra = (3/2)RT + pV = (5/2)RT

            Heat capacity is Cp, not Cv

          For more information, see: HTTP://OpenMOPAC.net/Manual/thermochemistry.html


           FORCE CONSTANT IN CARTESIAN COORDINATES (Millidynes/A)

    ATOM   CHEMICAL       X               Y               Z
   NUMBER   SYMBOL  FORCE CONSTANT  FORCE CONSTANT  FORCE CONSTANT

      1       C        8.085245        8.249083        8.942310
      2       C        8.256302        8.818251        8.649374
      3       C        9.009378        7.430527        8.280956
      4       C        8.155536        9.255141        8.052519
      5       C       15.601934        8.878384        3.597070
      6       C       11.055406        4.889503       11.218493
      7       C       10.923475        4.742196       11.356256
      8       C       11.336588        4.481471       11.848472
      9       C       11.360711        4.742543       11.579601
     10       C       14.593328        9.235860        2.747277
     11       H        1.080319        1.420161        3.440705
     12       H        1.116024        2.297609        2.413128
     13       H        3.542046        0.779591        2.170970
     14       H        0.918281        1.124444        4.427507
     15       H        0.769519        0.935445        4.630880
     16       H        0.758999        3.694900        1.938271
     17       H        4.932237        0.550244        0.742627
     18       H        5.026721        0.517377        0.690538
     19       H        1.640041        0.744400        3.875184
     20       H        1.638534        1.503246        3.117088
     21       H        0.913460        4.813870        0.717977
     22       H        3.556028        2.497852        0.389720

 **********************
 *                    *
 * JOB ENDED NORMALLY *
 *                    *
 **********************



 TOTAL JOB TIME:             2.95 SECONDS

 == MOPAC DONE ==
