 *******************************************************************************
 **                                                                           **
 **                              MOPAC v23.1.2                                **
 **                                                                           **
 *******************************************************************************
 **          Digital Object Identifier (DOI): 10.5281/zenodo.6511958          **
 **    Visit the DOI location for information on how to cite this program.    **
 *******************************************************************************

                              PM3 CALCULATION RESULTS

 *******************************************************************************
 *  CALCULATION DONE: (MAX THREADS = 1)              Tue Jun  3 16:29:54 2025  *
 *  PM3        - The PM3 Hamiltonian to be used
 *  PRECISE    - TIGHTER CRITERIA TO BE USED
 *  NOSYM      - POINT-GROUP SYMMETRY SET TO C1
 *  THREADS=1  - MULTI-THREADING NOT USED
 *  T=         - A TIME OF 172800.0 SECONDS REQUESTED
 *  DUMP=N     - RESTART FILE WRITTEN EVERY 7200.0 SECONDS REQUESTED
 *******************************************************************************
pm3  precise nosym THREADS=1
 InChI=1S/C10H10/c1-2-6-10-8-4-3-7-9(10)5-1/h1-10H

   ATOM   CHEMICAL          X               Y               Z
  NUMBER   SYMBOL      (ANGSTROMS)     (ANGSTROMS)     (ANGSTROMS)

     1       C         -0.02010000  *  -0.79110000  *  -0.69690000  *
     2       C         -0.01910000  *   0.76840000  *  -0.72180000  *
     3       C          1.37660000  *  -1.34060000  *  -0.53550000  *
     4       C         -0.91120000  *  -1.33290000  *   0.39780000  *
     5       C         -1.40530000  *   1.32400000  *  -0.50130000  *
     6       C          0.93060000  *   1.34410000  *   0.30410000  *
     7       C         -1.99960000  *  -0.66390000  *   0.78950000  *
     8       C          2.31130000  *  -0.66560000  *   0.14060000  *
     9       C         -2.30060000  *   0.67180000  *   0.24660000  *
    10       C          2.03950000  *   0.68700000  *   0.65620000  *
    11       H         -0.42460000  *  -1.15520000  *  -1.66650000  *
    12       H          0.33100000  *   1.10090000  *  -1.72350000  *
    13       H         -0.73050000  *  -2.32350000  *   0.79850000  *
    14       H          1.59740000  *  -2.33750000  *  -0.89680000  *
    15       H         -1.64650000  *   2.30900000  *  -0.88150000  *
    16       H          0.77140000  *   2.34720000  *   0.68230000  *
    17       H         -2.67350000  *  -1.10790000  *   1.51080000  *
    18       H         -3.25900000  *   1.12790000  *   0.45880000  *
    19       H          3.28030000  *  -1.11550000  *   0.31400000  *
    20       H          2.75190000  *   1.15320000  *   1.32470000  *



          CARTESIAN COORDINATES 

    NO.       ATOM           X           Y           Z

     1         C         -0.0201     -0.7911     -0.6969
     2         C         -0.0191      0.7684     -0.7218
     3         C          1.3766     -1.3406     -0.5355
     4         C         -0.9112     -1.3329      0.3978
     5         C         -1.4053      1.3240     -0.5013
     6         C          0.9306      1.3441      0.3041
     7         C         -1.9996     -0.6639      0.7895
     8         C          2.3113     -0.6656      0.1406
     9         C         -2.3006      0.6718      0.2466
    10         C          2.0395      0.6870      0.6562
    11         H         -0.4246     -1.1552     -1.6665
    12         H          0.3310      1.1009     -1.7235
    13         H         -0.7305     -2.3235      0.7985
    14         H          1.5974     -2.3375     -0.8968
    15         H         -1.6465      2.3090     -0.8815
    16         H          0.7714      2.3472      0.6823
    17         H         -2.6735     -1.1079      1.5108
    18         H         -3.2590      1.1279      0.4588
    19         H          3.2803     -1.1155      0.3140
    20         H          2.7519      1.1532      1.3247

  H: (PM3): J. J. P. STEWART, J. COMP. CHEM. 10, 209 (1989).
  C: (PM3): J. J. P. STEWART, J. COMP. CHEM. 10, 209 (1989).

           Empirical Formula: C10 H10  =    20 atoms



      MOLECULAR POINT GROUP   :   C1  


      RHF CALCULATION, NO. OF DOUBLY OCCUPIED LEVELS = 25


          Geometry optimization using EF

          DIAGONAL MATRIX USED AS START HESSIAN

 CYCLE:     1 TIME:   0.008 TIME LEFT:  2.00D  GRAD.:    73.856 HEAT:  63.75144
 CYCLE:     2 TIME:   0.012 TIME LEFT:  2.00D  GRAD.:    37.159 HEAT:  62.31897
 CYCLE:     3 TIME:   0.008 TIME LEFT:  2.00D  GRAD.:    50.540 HEAT:  62.00309
 CYCLE:     4 TIME:   0.012 TIME LEFT:  2.00D  GRAD.:    34.137 HEAT:  61.57205
 CYCLE:     5 TIME:   0.004 TIME LEFT:  2.00D  GRAD.:    32.572 HEAT:  61.35793
 CYCLE:     6 TIME:   0.008 TIME LEFT:  2.00D  GRAD.:    28.971 HEAT:  61.04276
 CYCLE:     7 TIME:   0.008 TIME LEFT:  2.00D  GRAD.:    29.843 HEAT:  60.94532
 CYCLE:     8 TIME:   0.008 TIME LEFT:  2.00D  GRAD.:    31.420 HEAT:  60.90386
 CYCLE:     9 TIME:   0.008 TIME LEFT:  2.00D  GRAD.:    19.059 HEAT:  60.73638
 CYCLE:    10 TIME:   0.012 TIME LEFT:  2.00D  GRAD.:    12.723 HEAT:  60.65775
 CYCLE:    11 TIME:   0.004 TIME LEFT:  2.00D  GRAD.:    17.347 HEAT:  60.65008
 CYCLE:    12 TIME:   0.008 TIME LEFT:  2.00D  GRAD.:    19.195 HEAT:  60.62829
 CYCLE:    13 TIME:   0.008 TIME LEFT:  2.00D  GRAD.:     8.318 HEAT:  60.55398
 CYCLE:    14 TIME:   0.008 TIME LEFT:  2.00D  GRAD.:     8.098 HEAT:  60.53500
 CYCLE:    15 TIME:   0.008 TIME LEFT:  2.00D  GRAD.:     7.462 HEAT:  60.50163
 CYCLE:    16 TIME:   0.008 TIME LEFT:  2.00D  GRAD.:    11.779 HEAT:  60.49501
 CYCLE:    17 TIME:   0.008 TIME LEFT:  2.00D  GRAD.:     9.439 HEAT:  60.47263
 CYCLE:    18 TIME:   0.008 TIME LEFT:  2.00D  GRAD.:    12.269 HEAT:  60.46650
 CYCLE:    19 TIME:   0.004 TIME LEFT:  2.00D  GRAD.:    10.999 HEAT:  60.46177
 CYCLE:    20 TIME:   0.008 TIME LEFT:  2.00D  GRAD.:    10.697 HEAT:  60.43977
 CYCLE:    21 TIME:   0.012 TIME LEFT:  2.00D  GRAD.:     7.225 HEAT:  60.42494
 CYCLE:    22 TIME:   0.004 TIME LEFT:  2.00D  GRAD.:     3.631 HEAT:  60.40978
 CYCLE:    23 TIME:   0.008 TIME LEFT:  2.00D  GRAD.:     4.085 HEAT:  60.40057
 CYCLE:    24 TIME:   0.008 TIME LEFT:  2.00D  GRAD.:     3.221 HEAT:  60.38608
 CYCLE:    25 TIME:   0.008 TIME LEFT:  2.00D  GRAD.:     2.767 HEAT:  60.36577
 CYCLE:    26 TIME:   0.008 TIME LEFT:  2.00D  GRAD.:     5.731 HEAT:  60.34487
 CYCLE:    27 TIME:   0.004 TIME LEFT:  2.00D  GRAD.:     4.490 HEAT:  60.31068
 CYCLE:    28 TIME:   0.008 TIME LEFT:  2.00D  GRAD.:     5.207 HEAT:  60.27009
 CYCLE:    29 TIME:   0.008 TIME LEFT:  2.00D  GRAD.:     6.808 HEAT:  60.23111
 CYCLE:    30 TIME:   0.004 TIME LEFT:  2.00D  GRAD.:     5.462 HEAT:  60.17473
 CYCLE:    31 TIME:   0.008 TIME LEFT:  2.00D  GRAD.:     4.959 HEAT:  60.08938
 CYCLE:    32 TIME:   0.008 TIME LEFT:  2.00D  GRAD.:     4.049 HEAT:  60.06119
 CYCLE:    33 TIME:   0.008 TIME LEFT:  2.00D  GRAD.:     4.877 HEAT:  60.04617
 CYCLE:    34 TIME:   0.004 TIME LEFT:  2.00D  GRAD.:     3.590 HEAT:  60.03416
 CYCLE:    35 TIME:   0.008 TIME LEFT:  2.00D  GRAD.:     1.760 HEAT:  60.02621
 CYCLE:    36 TIME:   0.004 TIME LEFT:  2.00D  GRAD.:     1.385 HEAT:  60.02296
 CYCLE:    37 TIME:   0.008 TIME LEFT:  2.00D  GRAD.:     1.484 HEAT:  60.01971
 CYCLE:    38 TIME:   0.008 TIME LEFT:  2.00D  GRAD.:     1.399 HEAT:  60.01490
 CYCLE:    39 TIME:   0.008 TIME LEFT:  2.00D  GRAD.:     0.945 HEAT:  60.01223
 CYCLE:    40 TIME:   0.004 TIME LEFT:  2.00D  GRAD.:     0.738 HEAT:  60.01092
 CYCLE:    41 TIME:   0.008 TIME LEFT:  2.00D  GRAD.:     0.640 HEAT:  60.01012
 CYCLE:    42 TIME:   0.008 TIME LEFT:  2.00D  GRAD.:     0.691 HEAT:  60.00907
 CYCLE:    43 TIME:   0.008 TIME LEFT:  2.00D  GRAD.:     0.699 HEAT:  60.00833
 CYCLE:    44 TIME:   0.012 TIME LEFT:  2.00D  GRAD.:     0.710 HEAT:  60.00713
 CYCLE:    45 TIME:   0.008 TIME LEFT:  2.00D  GRAD.:     0.905 HEAT:  60.00501
 CYCLE:    46 TIME:   0.008 TIME LEFT:  2.00D  GRAD.:     0.786 HEAT:  60.00360
 CYCLE:    47 TIME:   0.004 TIME LEFT:  2.00D  GRAD.:     0.441 HEAT:  60.00272
 CYCLE:    48 TIME:   0.008 TIME LEFT:  2.00D  GRAD.:     0.278 HEAT:  60.00230
 CYCLE:    49 TIME:   0.008 TIME LEFT:  2.00D  GRAD.:     0.246 HEAT:  60.00215
 CYCLE:    50 TIME:   0.008 TIME LEFT:  2.00D  GRAD.:     0.144 HEAT:  60.00206
 CYCLE:    51 TIME:   0.008 TIME LEFT:  2.00D  GRAD.:     0.102 HEAT:  60.00203
 CYCLE:    52 TIME:   0.008 TIME LEFT:  2.00D  GRAD.:     0.078 HEAT:  60.00202
 CYCLE:    53 TIME:   0.004 TIME LEFT:  2.00D  GRAD.:     0.065 HEAT:  60.00200
 CYCLE:    54 TIME:   0.008 TIME LEFT:  2.00D  GRAD.:     0.075 HEAT:  60.00200
 CYCLE:    55 TIME:   0.008 TIME LEFT:  2.00D  GRAD.:     0.052 HEAT:  60.00199
 CYCLE:    56 TIME:   0.004 TIME LEFT:  2.00D  GRAD.:     0.036 HEAT:  60.00199

     GRADIENT =  0.03601 IS LESS THAN CUTOFF =  0.05000



 -------------------------------------------------------------------------------
 pm3  precise nosym THREADS=1
 InChI=1S/C10H10/c1-2-6-10-8-4-3-7-9(10)5-1/h1-10H



     GEOMETRY OPTIMISED USING EIGENVECTOR FOLLOWING (EF).     
     SCF FIELD WAS ACHIEVED                                   


                              PM3 CALCULATION
                                                       MOPAC v23.1.2 MacOS
                                                       Tue Jun  3 16:29:54 2025




          FINAL HEAT OF FORMATION =         60.00199 KCAL/MOL =     251.04831 KJ/MOL


          COSMO AREA              =        168.11 SQUARE ANGSTROMS
          COSMO VOLUME            =        171.91 CUBIC ANGSTROMS

          GRADIENT NORM           =          0.03601          =       0.00805 PER ATOM
          IONIZATION POTENTIAL    =          9.027255 EV
          HOMO LUMO ENERGIES (EV) =         -9.027  0.148
          NO. OF FILLED LEVELS    =         25
          MOLECULAR WEIGHT        =        130.1890         POINT GROUP:  C1  

          MOLECULAR DIMENSIONS (Angstroms)

            Atom       Atom       Distance
            H    19    H    18     6.93361
            H    16    H    13     5.16104
            H    12    H    17     2.96512


          SCF CALCULATIONS        =         65

          WALL-CLOCK TIME         =      0.430 SECONDS
          COMPUTATION TIME        =      0.272 SECONDS




   ATOM   CHEMICAL          X               Y               Z
  NUMBER   SYMBOL      (ANGSTROMS)     (ANGSTROMS)     (ANGSTROMS)

     1       C         -0.00833398  *  -0.78182271  *  -0.66499575  *
     2       C         -0.02905337  *   0.76003471  *  -0.68907922  *
     3       C          1.34467803  *  -1.34950501  *  -0.36809473  *
     4       C         -1.00591409  *  -1.39635727  *   0.26529848  *
     5       C         -1.36412468  *   1.33819574  *  -0.33642431  *
     6       C          1.01758181  *   1.40312084  *   0.16487499  *
     7       C         -2.08756092  *  -0.73478919  *   0.69207584  *
     8       C          2.32670973  *  -0.63521837  *   0.19287746  *
     9       C         -2.31294271  *   0.64324719  *   0.30080755  *
    10       C          2.12198017  *   0.75479233  *   0.55184440  *
    11       H         -0.29766763  *  -1.13118727  *  -1.68950865  *
    12       H          0.20335863  *   1.07624672  *  -1.73855078  *
    13       H         -0.81900417  *  -2.43407712  *   0.56396370  *
    14       H          1.48377145  *  -2.40883928  *  -0.61205295  *
    15       H         -1.51751788  *   2.38920774  *  -0.60638704  *
    16       H          0.84592246  *   2.44978857  *   0.44058271  *
    17       H         -2.82667907  *  -1.20561108  *   1.34796038  *
    18       H         -3.27847040  *   1.09269258  *   0.55436204  *
    19       H          3.30523853  *  -1.07709651  *   0.40679212  *
    20       H          2.89577225  *   1.24575562  *   1.15047407  *

                             CARTESIAN COORDINATES

   1    C       -0.008333983    -0.781822710    -0.664995750
   2    C       -0.029053373     0.760034710    -0.689079222
   3    C        1.344678030    -1.349505009    -0.368094733
   4    C       -1.005914092    -1.396357273     0.265298485
   5    C       -1.364124676     1.338195736    -0.336424314
   6    C        1.017581809     1.403120844     0.164874990
   7    C       -2.087560923    -0.734789190     0.692075837
   8    C        2.326709729    -0.635218370     0.192877459
   9    C       -2.312942715     0.643247191     0.300807552
  10    C        2.121980168     0.754792329     0.551844399
  11    H       -0.297667628    -1.131187272    -1.689508646
  12    H        0.203358629     1.076246721    -1.738550778
  13    H       -0.819004174    -2.434077117     0.563963703
  14    H        1.483771451    -2.408839276    -0.612052950
  15    H       -1.517517876     2.389207736    -0.606387038
  16    H        0.845922462     2.449788567     0.440582710
  17    H       -2.826679067    -1.205611080     1.347960385
  18    H       -3.278470400     1.092692576     0.554362044
  19    H        3.305238526    -1.077096507     0.406792116
  20    H        2.895772249     1.245755624     1.150474067


           Empirical Formula: C10 H10  =    20 atoms



      MOLECULAR POINT GROUP   :   C1  


                  EIGENVALUES  
 -41.38971 -35.11120 -31.83432 -28.94370 -27.48702 -22.21282 -21.48945 -20.96687
 -18.00576 -17.63548 -16.96770 -16.10519 -15.32995 -15.07827 -14.64532 -14.39565
 -14.10519 -13.08845 -12.43573 -12.23929 -11.67747 -11.61413 -11.34759  -9.09938
  -9.02725   0.14841   0.34089   1.95389   2.13419   3.20367   3.32117   3.35754
   3.41835   3.43094   3.72282   3.73009   3.86887   3.91794   4.09581   4.48359
   4.55104   4.64578   4.90690   4.98049   5.37010   5.41373   5.85900   6.01717
   6.05041   6.28263


              NET ATOMIC CHARGES AND DIPOLE CONTRIBUTIONS

  ATOM NO.   TYPE          CHARGE      No. of ELECS.   s-Pop       p-Pop       
    1          C           0.001537        3.9985     1.15215     2.84632
    2          C           0.001508        3.9985     1.15215     2.84634
    3          C          -0.135469        4.1355     1.19770     2.93777
    4          C          -0.125769        4.1258     1.19815     2.92761
    5          C          -0.135471        4.1355     1.19770     2.93777
    6          C          -0.125783        4.1258     1.19816     2.92762
    7          C          -0.116331        4.1163     1.17819     2.93814
    8          C          -0.102844        4.1028     1.17798     2.92486
    9          C          -0.102849        4.1028     1.17798     2.92486
   10          C          -0.116330        4.1163     1.17819     2.93814
   11          H           0.071660        0.9283     0.92834
   12          H           0.071664        0.9283     0.92834
   13          H           0.102795        0.8972     0.89721
   14          H           0.099836        0.9002     0.90016
   15          H           0.099839        0.9002     0.90016
   16          H           0.102808        0.8972     0.89719
   17          H           0.103007        0.8970     0.89699
   18          H           0.101591        0.8984     0.89841
   19          H           0.101588        0.8984     0.89841
   20          H           0.103013        0.8970     0.89699
 DIPOLE           X         Y         Z       TOTAL
 POINT-CHG.    -0.009    -0.005    -0.313     0.314
 HYBRID         0.001     0.001     0.056     0.056
 SUM           -0.007    -0.004    -0.257     0.257


          ATOMIC ORBITAL ELECTRON POPULATIONS

     Atom    s        px        py        pz   
    1  C   1.15215   0.92826   0.93613   0.98193
    2  C   1.15215   0.92704   0.93508   0.98423
    3  C   1.19770   0.95257   0.98662   0.99858
    4  C   1.19815   0.95548   0.98863   0.98351
    5  C   1.19770   0.95451   0.98710   0.99616
    6  C   1.19816   0.95339   0.98837   0.98586
    7  C   1.17819   0.97915   0.95282   1.00616
    8  C   1.17798   0.98086   0.95201   0.99199
    9  C   1.17798   0.98255   0.95355   0.98877
   10  C   1.17819   0.97749   0.95220   1.00845
   11  H   0.92834
   12  H   0.92834
   13  H   0.89721
   14  H   0.90016
   15  H   0.90016
   16  H   0.89719
   17  H   0.89699
   18  H   0.89841
   19  H   0.89841
   20  H   0.89699
 *******************************************************************************
 **                                                                           **
 **                              MOPAC v23.1.2                                **
 **                                                                           **
 *******************************************************************************
 **          Digital Object Identifier (DOI): 10.5281/zenodo.6511958          **
 **    Visit the DOI location for information on how to cite this program.    **
 *******************************************************************************

                              PM3 CALCULATION RESULTS

 *******************************************************************************
 *  CALCULATION DONE: (MAX THREADS = 1)              Tue Jun  3 16:29:54 2025  *
 *  PM3        - The PM3 Hamiltonian to be used
 *  OLDGEO     - PREVIOUS GEOMETRY TO BE USED
 *  PRECISE    - TIGHTER CRITERIA TO BE USED
 *  NOSYM      - POINT-GROUP SYMMETRY SET TO C1
 *  THREADS=1  - MULTI-THREADING NOT USED
 *  T=         - A TIME OF 172800.0 SECONDS REQUESTED
 *  DUMP=N     - RESTART FILE WRITTEN EVERY 7200.0 SECONDS REQUESTED
 *  THERMO     - THERMODYNAMIC QUANTITIES TO BE CALCULATED
 *******************************************************************************
oldgeo thermo nosym precise THREADS=1  pm3
 InChI=1S/C10H10/c1-2-6-10-8-4-3-7-9(10)5-1/h1-10H

   ATOM   CHEMICAL          X               Y               Z
  NUMBER   SYMBOL      (ANGSTROMS)     (ANGSTROMS)     (ANGSTROMS)

     1       C         -0.00833398  *  -0.78182271  *  -0.66499575  *
     2       C         -0.02905337  *   0.76003471  *  -0.68907922  *
     3       C          1.34467803  *  -1.34950501  *  -0.36809473  *
     4       C         -1.00591409  *  -1.39635727  *   0.26529848  *
     5       C         -1.36412468  *   1.33819574  *  -0.33642431  *
     6       C          1.01758181  *   1.40312084  *   0.16487499  *
     7       C         -2.08756092  *  -0.73478919  *   0.69207584  *
     8       C          2.32670973  *  -0.63521837  *   0.19287746  *
     9       C         -2.31294271  *   0.64324719  *   0.30080755  *
    10       C          2.12198017  *   0.75479233  *   0.55184440  *
    11       H         -0.29766763  *  -1.13118727  *  -1.68950865  *
    12       H          0.20335863  *   1.07624672  *  -1.73855078  *
    13       H         -0.81900417  *  -2.43407712  *   0.56396370  *
    14       H          1.48377145  *  -2.40883928  *  -0.61205295  *
    15       H         -1.51751788  *   2.38920774  *  -0.60638704  *
    16       H          0.84592246  *   2.44978857  *   0.44058271  *
    17       H         -2.82667907  *  -1.20561108  *   1.34796038  *
    18       H         -3.27847040  *   1.09269258  *   0.55436204  *
    19       H          3.30523853  *  -1.07709651  *   0.40679212  *
    20       H          2.89577225  *   1.24575562  *   1.15047407  *



          CARTESIAN COORDINATES 

    NO.       ATOM           X           Y           Z

     1         C         -0.0083     -0.7818     -0.6650
     2         C         -0.0291      0.7600     -0.6891
     3         C          1.3447     -1.3495     -0.3681
     4         C         -1.0059     -1.3964      0.2653
     5         C         -1.3641      1.3382     -0.3364
     6         C          1.0176      1.4031      0.1649
     7         C         -2.0876     -0.7348      0.6921
     8         C          2.3267     -0.6352      0.1929
     9         C         -2.3129      0.6432      0.3008
    10         C          2.1220      0.7548      0.5518
    11         H         -0.2977     -1.1312     -1.6895
    12         H          0.2034      1.0762     -1.7386
    13         H         -0.8190     -2.4341      0.5640
    14         H          1.4838     -2.4088     -0.6121
    15         H         -1.5175      2.3892     -0.6064
    16         H          0.8459      2.4498      0.4406
    17         H         -2.8267     -1.2056      1.3480
    18         H         -3.2785      1.0927      0.5544
    19         H          3.3052     -1.0771      0.4068
    20         H          2.8958      1.2458      1.1505

  H: (PM3): J. J. P. STEWART, J. COMP. CHEM. 10, 209 (1989).
  C: (PM3): J. J. P. STEWART, J. COMP. CHEM. 10, 209 (1989).

           Empirical Formula: C10 H10  =    20 atoms



      MOLECULAR POINT GROUP   :   C1  


      RHF CALCULATION, NO. OF DOUBLY OCCUPIED LEVELS = 25



          HEAT OF FORMATION =      60.001985 KCALS/MOLE


          CARTESIAN COORDINATE DERIVATIVES

   NUMBER  ATOM         X            Y            Z

     1       C     -0.004345     0.002400     0.000820
     2       C      0.000333     0.003875    -0.001843
     3       C      0.006430     0.000064     0.001989
     4       C      0.000013     0.004491    -0.000202
     5       C      0.001468     0.006926     0.005840
     6       C      0.000270    -0.006892    -0.004584
     7       C      0.007104     0.003892    -0.003694
     8       C      0.001431    -0.002224     0.001578
     9       C     -0.003081     0.002384    -0.003924
    10       C     -0.001977     0.006720     0.000294
    11       H     -0.001861     0.007663     0.000972
    12       H      0.002251     0.004899    -0.001737
    13       H      0.000502    -0.011489    -0.002278
    14       H     -0.002462    -0.007987    -0.000007
    15       H     -0.002811     0.000283     0.002598
    16       H     -0.008072    -0.016831    -0.004538
    17       H     -0.000545    -0.001356     0.001252
    18       H     -0.000306     0.001594     0.000672
    19       H      0.000711    -0.001669     0.002477
    20       H      0.004946     0.003257     0.004316



          GRADIENT NORM =   0.03445

          MOLECULAR WEIGHT =  130.19



          ROTATIONAL CONSTANTS IN CM(-1)

          A =    0.08623722   B =    0.04364094   C =    0.03315787



           PRINCIPAL MOMENTS OF INERTIA IN UNITS OF 10**(-40)*GRAM-CM**2

          A =      324.6017   B =      641.4332   C =      844.2265


          ORIENTATION OF MOLECULE IN FORCE CALCULATION

    NO.       ATOM         X         Y         Z

     1          C      -0.7712   -0.1621    0.6666
     2          C       0.7710   -0.1621    0.6666
     3          C      -1.3615    1.2136    0.6666
     4          C      -1.3867   -0.9530   -0.4441
     5          C       1.3615   -1.3842    0.0351
     6          C       1.3866    1.0504    0.0427
     7          C      -0.7174   -1.9105   -1.0961
     8          C      -0.6693    2.3028    0.3148
     9          C       0.6695   -2.1901   -0.7779
    10          C       0.7175    2.2005   -0.0964
    11          H      -1.1006   -0.6650    1.6121
    12          H       1.1004   -0.1491    1.7375
    13          H      -2.4314   -0.7248   -0.6841
    14          H      -2.4187    1.2812    0.9475
    15          H       2.4186   -1.5734    0.2539
    16          H       2.4310    0.9574   -0.2758
    17          H      -1.1884   -2.5037   -1.8863
    18          H       1.1279   -3.0737   -1.2335
    19          H      -1.1276    3.2971    0.3160
    20          H       1.1886    3.0903   -0.5258


    FIRST DERIVATIVES WILL BE USED IN THE CALCULATION OF SECOND DERIVATIVES

          ESTIMATED TIME TO COMPLETE CALCULATION =        0.94 SECONDS

    FOR POINT-GROUP C1   THERE ARE   1 UNIQUE SYMMETRY FUNCTIONS.

 STEP:   1 TIME =     0.02 SECS, INTEGRAL =      0.02 TIME LEFT: 172799.98
 STEP:   2 TIME =     0.02 SECS, INTEGRAL =      0.04 TIME LEFT: 172799.96
 STEP:   3 TIME =     0.02 SECS, INTEGRAL =      0.06 TIME LEFT: 172799.94
 STEP:   4 TIME =     0.02 SECS, INTEGRAL =      0.08 TIME LEFT: 172799.92
 STEP:   5 TIME =     0.02 SECS, INTEGRAL =      0.10 TIME LEFT: 172799.89
 STEP:   6 TIME =     0.02 SECS, INTEGRAL =      0.12 TIME LEFT: 172799.88
 STEP:   7 TIME =     0.02 SECS, INTEGRAL =      0.14 TIME LEFT: 172799.86
 STEP:   8 TIME =     0.02 SECS, INTEGRAL =      0.16 TIME LEFT: 172799.84
 STEP:   9 TIME =     0.02 SECS, INTEGRAL =      0.18 TIME LEFT: 172799.81
 STEP:  10 TIME =     0.02 SECS, INTEGRAL =      0.20 TIME LEFT: 172799.79
 STEP:  11 TIME =     0.02 SECS, INTEGRAL =      0.22 TIME LEFT: 172799.77
 STEP:  12 TIME =     0.02 SECS, INTEGRAL =      0.25 TIME LEFT: 172799.75
 STEP:  13 TIME =     0.02 SECS, INTEGRAL =      0.27 TIME LEFT: 172799.73
 STEP:  14 TIME =     0.02 SECS, INTEGRAL =      0.29 TIME LEFT: 172799.71
 STEP:  15 TIME =     0.02 SECS, INTEGRAL =      0.31 TIME LEFT: 172799.69
 STEP:  16 TIME =     0.02 SECS, INTEGRAL =      0.33 TIME LEFT: 172799.67
 STEP:  17 TIME =     0.02 SECS, INTEGRAL =      0.35 TIME LEFT: 172799.65
 STEP:  18 TIME =     0.02 SECS, INTEGRAL =      0.37 TIME LEFT: 172799.62
 STEP:  19 TIME =     0.02 SECS, INTEGRAL =      0.39 TIME LEFT: 172799.61
 STEP:  20 TIME =     0.02 SECS, INTEGRAL =      0.41 TIME LEFT: 172799.59
 STEP:  21 TIME =     0.02 SECS, INTEGRAL =      0.43 TIME LEFT: 172799.57
 STEP:  22 TIME =     0.02 SECS, INTEGRAL =      0.45 TIME LEFT: 172799.54
 STEP:  23 TIME =     0.02 SECS, INTEGRAL =      0.47 TIME LEFT: 172799.52
 STEP:  24 TIME =     0.02 SECS, INTEGRAL =      0.50 TIME LEFT: 172799.50
 STEP:  25 TIME =     0.02 SECS, INTEGRAL =      0.52 TIME LEFT: 172799.48
 STEP:  26 TIME =     0.02 SECS, INTEGRAL =      0.54 TIME LEFT: 172799.46
 STEP:  27 TIME =     0.02 SECS, INTEGRAL =      0.55 TIME LEFT: 172799.44
 STEP:  28 TIME =     0.02 SECS, INTEGRAL =      0.57 TIME LEFT: 172799.42
 STEP:  29 TIME =     0.02 SECS, INTEGRAL =      0.59 TIME LEFT: 172799.40
 STEP:  30 TIME =     0.02 SECS, INTEGRAL =      0.61 TIME LEFT: 172799.38
 STEP:  31 TIME =     0.02 SECS, INTEGRAL =      0.63 TIME LEFT: 172799.36
 STEP:  32 TIME =     0.02 SECS, INTEGRAL =      0.66 TIME LEFT: 172799.34
 STEP:  33 TIME =     0.02 SECS, INTEGRAL =      0.68 TIME LEFT: 172799.32
 STEP:  34 TIME =     0.02 SECS, INTEGRAL =      0.70 TIME LEFT: 172799.30
 STEP:  35 TIME =     0.02 SECS, INTEGRAL =      0.72 TIME LEFT: 172799.28
 STEP:  36 TIME =     0.02 SECS, INTEGRAL =      0.73 TIME LEFT: 172799.26
 STEP:  37 TIME =     0.02 SECS, INTEGRAL =      0.75 TIME LEFT: 172799.24
 STEP:  38 TIME =     0.02 SECS, INTEGRAL =      0.78 TIME LEFT: 172799.22
 STEP:  39 TIME =     0.02 SECS, INTEGRAL =      0.80 TIME LEFT: 172799.20
 STEP:  40 TIME =     0.02 SECS, INTEGRAL =      0.82 TIME LEFT: 172799.18
 STEP:  41 TIME =     0.02 SECS, INTEGRAL =      0.84 TIME LEFT: 172799.16
 STEP:  42 TIME =     0.02 SECS, INTEGRAL =      0.86 TIME LEFT: 172799.14
 STEP:  43 TIME =     0.02 SECS, INTEGRAL =      0.88 TIME LEFT: 172799.11
 STEP:  44 TIME =     0.02 SECS, INTEGRAL =      0.90 TIME LEFT: 172799.09
 STEP:  45 TIME =     0.02 SECS, INTEGRAL =      0.92 TIME LEFT: 172799.07
 STEP:  46 TIME =     0.02 SECS, INTEGRAL =      0.94 TIME LEFT: 172799.05
 STEP:  47 TIME =     0.02 SECS, INTEGRAL =      0.96 TIME LEFT: 172799.03
 STEP:  48 TIME =     0.02 SECS, INTEGRAL =      0.99 TIME LEFT: 172799.01
 STEP:  49 TIME =     0.02 SECS, INTEGRAL =      1.01 TIME LEFT: 172798.99
 STEP:  50 TIME =     0.02 SECS, INTEGRAL =      1.03 TIME LEFT: 172798.97
 STEP:  51 TIME =     0.02 SECS, INTEGRAL =      1.05 TIME LEFT: 172798.95
 STEP:  52 TIME =     0.02 SECS, INTEGRAL =      1.07 TIME LEFT: 172798.93
 STEP:  53 TIME =     0.02 SECS, INTEGRAL =      1.09 TIME LEFT: 172798.91
 STEP:  54 TIME =     0.02 SECS, INTEGRAL =      1.11 TIME LEFT: 172798.89
 STEP:  55 TIME =     0.02 SECS, INTEGRAL =      1.13 TIME LEFT: 172798.86
 STEP:  56 TIME =     0.02 SECS, INTEGRAL =      1.15 TIME LEFT: 172798.84
 STEP:  57 TIME =     0.02 SECS, INTEGRAL =      1.17 TIME LEFT: 172798.82
 STEP:  58 TIME =     0.02 SECS, INTEGRAL =      1.19 TIME LEFT: 172798.80
 STEP:  59 TIME =     0.02 SECS, INTEGRAL =      1.21 TIME LEFT: 172798.79
 STEP:  60 TIME =     0.02 SECS, INTEGRAL =      1.23 TIME LEFT: 172798.77

(To convert to Hartree/Bohr^2, multiply by (10^(-21) x N x a0^2)/(4.184 x 627.51) =  0.0642)


           FORCE MATRIX IN MILLIDYNES/ANGSTROM


                  C  1       C  2       C  3       C  4       C  5       C  6
 ------------------------------------------------------------------------------
     C    1  14.782417
     C    2   3.503003  14.783602
     C    3   4.635461   0.605142  18.031309
     C    4   4.603881   0.595284   0.789074  18.048711
     C    5   0.605090   4.635679   0.048143   0.164118  18.033177
     C    6   0.595263   4.601496   0.162731   0.023095   0.789657  18.045299
     C    7   0.840194   0.115692   0.049796  10.339918   1.138786   0.024382
     C    8   0.805444   0.126766  10.362200   0.040811   0.013003   1.147590
     C    9   0.127063   0.805237   0.012901   1.149141  10.363412   0.040876
     C   10   0.116220   0.840679   1.137311   0.024633   0.049830  10.338507
     H   11   4.111823   0.418229   0.411184   0.385577   0.015236   0.044233
     H   12   0.418330   4.111975   0.015203   0.044346   0.411377   0.385291
     H   13   0.437402   0.040099   0.052479   4.823617   0.012496   0.004856
     H   14   0.429663   0.044067   4.820721   0.022021   0.007817   0.015848
     H   15   0.044350   0.429617   0.007791   0.016038   4.820938   0.022090
     H   16   0.040187   0.437380   0.012527   0.004907   0.052625   4.823594
     H   17   0.120435   0.006917   0.014465   0.445065   0.047539   0.001084
     H   18   0.003533   0.119017   0.000739   0.048146   0.443676   0.019599
     H   19   0.120149   0.003537   0.443263   0.020031   0.000761   0.048018
     H   20   0.006962   0.120097   0.047417   0.001118   0.014490   0.445037


                  C  7       C  8       C  9       C 10       H 11       H 12
 ------------------------------------------------------------------------------
     C    7  18.440107
     C    8   0.010368  18.445467
     C    9   5.684245   0.006077  18.448999
     C   10   0.009177   5.684054   0.010484  18.437629
     H   11   0.033707   0.042546   0.017772   0.010839   4.526257
     H   12   0.010761   0.017841   0.042617   0.033728   0.023892   4.526357
     H   13   0.442620   0.003705   0.127620   0.001550   0.016625   0.007000
     H   14   0.002737   0.444839   0.001008   0.127447   0.036872   0.004381
     H   15   0.127151   0.000994   0.444889   0.002744   0.004388   0.036833
     H   16   0.001544   0.127793   0.003708   0.442588   0.007002   0.016625
     H   17   4.862296   0.002037   0.435818   0.001184   0.016817   0.001014
     H   18   0.434908   0.000840   4.857816   0.003303   0.000843   0.014170
     H   19   0.003354   4.857322   0.000850   0.435176   0.014241   0.000844
     H   20   0.001181   0.435875   0.002045   4.862116   0.001000   0.016806


                  H 13       H 14       H 15       H 16       H 17       H 18
 ------------------------------------------------------------------------------
     H   13   5.205318
     H   14   0.017995   5.198432
     H   15   0.009403   0.001811   5.198631
     H   16   0.001074   0.009407   0.018018   5.205407
     H   17   0.066910   0.000538   0.007642   0.000397   5.228562
     H   18   0.007774   0.000352   0.066588   0.000753   0.031178   5.222219
     H   19   0.000764   0.067109   0.000354   0.007833   0.001037   0.000209
     H   20   0.000400   0.007627   0.000537   0.066833   0.000280   0.001009


                  H 19       H 20
 ------------------------------
     H   19   5.222169
     H   20   0.031158   5.228626


          HEAT OF FORMATION =      60.001985 KCALS/MOLE

          ZERO POINT ENERGY     104.726 KCAL/MOL


           NORMAL COORDINATE ANALYSIS (Total motion = 1 Angstrom)


   Root No.       1         2         3         4         5         6         7         8

                 1 A       2 A       3 A       4 A       5 A       6 A       7 A       8 A   

                  68.8     138.0     259.6     318.6     421.5     465.8     470.2     475.2
  
           1    0.0003    0.0001    0.0189    0.0200   -0.0001    0.0036   -0.0033    0.0360
           2   -0.0048    0.0066   -0.0038   -0.0048    0.0250    0.0184    0.0021    0.0120
           3    0.0031   -0.0377    0.0024    0.0170    0.0237   -0.0080    0.0042   -0.0189
           4   -0.0004   -0.0002    0.0189    0.0200   -0.0001   -0.0029    0.0040    0.0360
           5    0.0028    0.0114   -0.0023    0.0035   -0.0331   -0.0127   -0.0038    0.0022
           6    0.0050   -0.0364   -0.0040   -0.0172    0.0096   -0.0152    0.0030    0.0224
           7    0.0037   -0.0010    0.0044   -0.0041   -0.0209    0.0161   -0.0123   -0.0091
           8   -0.0031    0.0052   -0.0116   -0.0159    0.0253    0.0352    0.0002   -0.0113
           9    0.0422   -0.0076    0.0258   -0.0241   -0.0135    0.0229   -0.0295   -0.0318
          10    0.0155    0.0043    0.0138    0.0009    0.0336    0.0185   -0.0050    0.0127
          11    0.0302   -0.0021    0.0379   -0.0007    0.0350   -0.0309   -0.0113    0.0173
          12   -0.0306   -0.0326   -0.0255    0.0244    0.0045    0.0158    0.0177   -0.0071
          13   -0.0037    0.0010    0.0044   -0.0041    0.0208   -0.0162    0.0122   -0.0091
          14   -0.0166   -0.0011    0.0015   -0.0253   -0.0162   -0.0422    0.0129   -0.0243
          15    0.0389   -0.0090   -0.0282    0.0142   -0.0236    0.0045   -0.0258    0.0235
          16   -0.0155   -0.0044    0.0137    0.0007   -0.0336   -0.0183    0.0052    0.0129
          17   -0.0128    0.0167    0.0218    0.0104   -0.0333    0.0204    0.0021    0.0118
          18   -0.0410   -0.0282    0.0398   -0.0223   -0.0120    0.0285    0.0211    0.0135
          19    0.0193   -0.0038   -0.0141    0.0003    0.0155    0.0159    0.0101   -0.0237
          20    0.0282   -0.0438   -0.0019    0.0317    0.0063   -0.0117    0.0243   -0.0145
          21   -0.0243    0.0193    0.0057   -0.0209    0.0274   -0.0226   -0.0167    0.0071
          22   -0.0028    0.0075   -0.0238   -0.0153   -0.0181   -0.0112    0.0080   -0.0123
          23   -0.0053    0.0197   -0.0140   -0.0062    0.0259    0.0453    0.0058    0.0057
          24    0.0216    0.0533   -0.0340   -0.0141   -0.0026   -0.0061    0.0310    0.0254
          25    0.0028   -0.0074   -0.0237   -0.0153    0.0183    0.0109   -0.0083   -0.0122
          26   -0.0051   -0.0418   -0.0282   -0.0121   -0.0216   -0.0373   -0.0192    0.0176
          27    0.0216    0.0382    0.0239    0.0097   -0.0144   -0.0264    0.0247   -0.0200
          28   -0.0193    0.0038   -0.0142    0.0003   -0.0155   -0.0163   -0.0105   -0.0234
          29   -0.0139    0.0301    0.0010    0.0186   -0.0183    0.0208   -0.0140   -0.0097
          30   -0.0346    0.0372   -0.0058    0.0333    0.0212   -0.0148   -0.0262   -0.0123
          31   -0.0023    0.0050    0.0232    0.0419   -0.0251   -0.0001   -0.0020    0.0275
          32   -0.0379   -0.0023   -0.0380    0.0132    0.0471    0.0372    0.0398    0.0135
          33   -0.0157   -0.0399   -0.0147    0.0335    0.0258    0.0017    0.0242   -0.0203
          34    0.0021   -0.0052    0.0233    0.0420    0.0248    0.0008    0.0026    0.0274
          35    0.0408    0.0204   -0.0403    0.0272   -0.0538   -0.0338   -0.0462    0.0038
          36    0.0035   -0.0343   -0.0044   -0.0236    0.0014   -0.0153    0.0035    0.0243
          37    0.0282    0.0156    0.0355   -0.0049    0.0502   -0.0007   -0.0080    0.0087
          38    0.0565    0.0163    0.0954   -0.0026    0.0638   -0.0770   -0.0193    0.0269
          39   -0.0598   -0.0630   -0.0651    0.0459   -0.0431    0.0561    0.0219    0.0172
          40    0.0155   -0.0057    0.0140   -0.0196   -0.0352    0.0362   -0.0223   -0.0227
          41   -0.0005   -0.0047   -0.0214   -0.0365    0.0112    0.0369   -0.0026   -0.0495
          42    0.0850   -0.0228    0.0640   -0.0762   -0.0641    0.0978   -0.0660   -0.0735
          43   -0.0155    0.0058    0.0142   -0.0195    0.0352   -0.0366    0.0221   -0.0227
          44   -0.0384    0.0148    0.0106   -0.0672    0.0197   -0.0792    0.0315   -0.0774
          45    0.0756   -0.0180   -0.0670    0.0506   -0.0619    0.0707   -0.0570    0.0429
          46   -0.0282   -0.0158    0.0353   -0.0053   -0.0503    0.0009    0.0082    0.0087
          47   -0.0228    0.0142    0.0547    0.0185   -0.0372    0.0433    0.0077    0.0311
          48   -0.0790   -0.0638    0.1010   -0.0429   -0.0677    0.0852    0.0284   -0.0042
          49    0.0361   -0.0024   -0.0184    0.0073   -0.0105   -0.0009    0.0368   -0.0593
          50    0.0511   -0.0700    0.0062    0.0775    0.0147    0.0017    0.0827   -0.0606
          51   -0.0514    0.0381    0.0024   -0.0592    0.0362   -0.0231   -0.0765    0.0634
          52   -0.0048   -0.0123   -0.0443   -0.0431    0.0093    0.0046   -0.0384   -0.0011
          53   -0.0194   -0.0653   -0.0548   -0.0426   -0.0073   -0.0489   -0.0643    0.0453
          54    0.0417    0.0789    0.0548    0.0410   -0.0505   -0.0102    0.0823   -0.0635
          55    0.0051    0.0125   -0.0443   -0.0434   -0.0090   -0.0049    0.0383   -0.0016
          56   -0.0018    0.0219   -0.0235   -0.0190    0.0298    0.0482    0.0195    0.0101
          57    0.0465    0.1008   -0.0737   -0.0567   -0.0415    0.0146    0.1041    0.0754
          58   -0.0360    0.0025   -0.0184    0.0073    0.0105    0.0001   -0.0376   -0.0587
          59   -0.0218    0.0445    0.0066    0.0415   -0.0299    0.0089   -0.0383   -0.0241
          60   -0.0691    0.0657    0.0010    0.0881    0.0248   -0.0222   -0.1063   -0.0816


   Root No.       9        10        11        12        13        14        15        16

                 9 A      10 A      11 A      12 A      13 A      14 A      15 A      16 A   

                 561.7     595.3     667.0     744.1     762.6     812.2     815.9     841.5
  
           1    0.0087    0.0119   -0.0213    0.0080    0.0107    0.0008   -0.0120   -0.0275
           2   -0.0297   -0.0315   -0.0195    0.0023   -0.0007   -0.0082   -0.0034   -0.0028
           3    0.0395   -0.0291    0.0272   -0.0054    0.0044    0.0154    0.0100    0.0252
           4   -0.0086    0.0120   -0.0213    0.0077   -0.0110   -0.0007    0.0120    0.0275
           5    0.0082   -0.0414   -0.0048   -0.0005   -0.0014   -0.0000   -0.0016   -0.0091
           6    0.0489    0.0114   -0.0331    0.0060    0.0040   -0.0186    0.0085    0.0236
           7    0.0428    0.0624    0.0035   -0.0029    0.0040    0.0150   -0.0169   -0.0349
           8   -0.0139   -0.0099   -0.0181    0.0022   -0.0109    0.0109    0.0033    0.0188
           9   -0.0164   -0.0159   -0.0165   -0.0141   -0.0170    0.0118   -0.0134    0.0161
          10    0.0374   -0.0572   -0.0083    0.0008    0.0238    0.0006   -0.0052    0.0030
          11   -0.0106    0.0023    0.0206   -0.0117    0.0175   -0.0155   -0.0121   -0.0062
          12   -0.0036   -0.0136    0.0061    0.0082   -0.0006    0.0011    0.0045   -0.0182
          13   -0.0428    0.0625    0.0034   -0.0030   -0.0040    0.0129    0.0184    0.0349
          14    0.0198   -0.0161   -0.0236   -0.0039    0.0176    0.0148    0.0050   -0.0242
          15   -0.0082    0.0095    0.0063    0.0131   -0.0106   -0.0039   -0.0141    0.0058
          16   -0.0374   -0.0572   -0.0083    0.0000   -0.0238   -0.0002    0.0053   -0.0030
          17    0.0111   -0.0043    0.0211   -0.0072   -0.0149   -0.0143    0.0072    0.0138
          18    0.0018    0.0131    0.0040   -0.0129   -0.0080   -0.0093    0.0087   -0.0134
          19   -0.0100   -0.0110    0.0076   -0.0076    0.0030   -0.0143   -0.0091   -0.0091
          20   -0.0303    0.0214    0.0119   -0.0107    0.0113   -0.0228   -0.0148   -0.0099
          21   -0.0251    0.0128    0.0379   -0.0012   -0.0079   -0.0080    0.0039   -0.0295
          22    0.0156   -0.0040    0.0172   -0.0089    0.0008   -0.0031   -0.0028    0.0130
          23    0.0126    0.0358   -0.0182    0.0063   -0.0078    0.0263   -0.0064   -0.0107
          24    0.0011   -0.0093    0.0097   -0.0106   -0.0079    0.0164   -0.0178    0.0041
          25   -0.0156   -0.0039    0.0172   -0.0088   -0.0006   -0.0035    0.0025   -0.0130
          26   -0.0116    0.0276   -0.0116    0.0013    0.0103    0.0290    0.0170    0.0076
          27   -0.0049    0.0246   -0.0171    0.0119   -0.0037   -0.0009   -0.0130    0.0087
          28    0.0099   -0.0110    0.0076   -0.0076   -0.0025   -0.0153    0.0075    0.0091
          29    0.0384    0.0248    0.0280   -0.0102   -0.0058   -0.0252    0.0087    0.0224
          30   -0.0085   -0.0014   -0.0281   -0.0039   -0.0118   -0.0047    0.0099   -0.0216
          31   -0.0290   -0.0127   -0.0133    0.0147   -0.0082    0.0173   -0.0170   -0.0670
          32   -0.0224   -0.0332   -0.0097    0.0303   -0.0021    0.0070    0.0290   -0.0077
          33    0.0295   -0.0380    0.0348    0.0117   -0.0020    0.0284    0.0245    0.0069
          34    0.0289   -0.0127   -0.0133    0.0150    0.0076    0.0153    0.0187    0.0671
          35    0.0061   -0.0469    0.0074    0.0323    0.0015    0.0236   -0.0349    0.0040
          36    0.0366    0.0186   -0.0353    0.0036   -0.0010   -0.0229    0.0060    0.0095
          37    0.0611   -0.0657    0.0256    0.0264   -0.0086    0.0378    0.0358   -0.0162
          38    0.0568   -0.0090    0.0828    0.0526   -0.0416    0.0716    0.0764   -0.0578
          39   -0.0439    0.0156   -0.0837   -0.0419    0.0841   -0.0770   -0.0902    0.0158
          40    0.0277    0.0679   -0.0064    0.0266    0.0213   -0.0197    0.0213   -0.0516
          41   -0.0132   -0.0271    0.0015    0.0061   -0.0113   -0.0100    0.0412    0.0702
          42   -0.0717    0.0110   -0.0565    0.0953    0.0474   -0.1138    0.1214   -0.0574
          43   -0.0276    0.0679   -0.0066    0.0257   -0.0223   -0.0172   -0.0236    0.0519
          44    0.0445   -0.0191   -0.0249    0.0484   -0.0133   -0.0499   -0.0989   -0.0357
          45   -0.0576   -0.0221    0.0514   -0.0798    0.0500    0.0858    0.0996   -0.0836
          46   -0.0612   -0.0658    0.0256    0.0264    0.0073    0.0420   -0.0318    0.0165
          47   -0.0303   -0.0010    0.0351    0.0270   -0.0031    0.0312   -0.0235    0.0443
          48   -0.0651   -0.0182    0.1123    0.0633    0.0902    0.1150   -0.1043    0.0412
          49   -0.0109    0.0244   -0.0009    0.0322   -0.0560    0.0178    0.0100   -0.0151
          50    0.0074   -0.0053    0.0366    0.0679   -0.0786   -0.0046    0.0108   -0.0786
          51   -0.0523    0.0114    0.0243   -0.0839    0.0955   -0.0413   -0.0272    0.0240
          52    0.0259   -0.0414    0.0114    0.0328   -0.0336   -0.0076   -0.0343   -0.0296
          53    0.0107    0.0185    0.0190    0.0692   -0.0621   -0.0094   -0.0463    0.0078
          54   -0.0062    0.0031   -0.0822   -0.0782    0.1050    0.0703    0.0721   -0.0108
          55   -0.0258   -0.0414    0.0115    0.0338    0.0322   -0.0115    0.0329    0.0299
          56   -0.0066    0.0178   -0.0208    0.0258    0.0058    0.0229    0.0103   -0.0018
          57   -0.0104    0.0056    0.0822    0.1057    0.1183   -0.0758    0.0769   -0.0123
          58    0.0106    0.0244   -0.0007    0.0342    0.0547    0.0194   -0.0083    0.0152
          59    0.0173    0.0005    0.0436    0.0224    0.0249   -0.0230    0.0002    0.0586
          60   -0.0506   -0.0123   -0.0047    0.1094    0.1163    0.0389   -0.0260    0.0572


   Root No.      17        18        19        20        21        22        23        24

                17 A      18 A      19 A      20 A      21 A      22 A      23 A      24 A   

                 905.0     906.6     964.4     971.0     980.5     995.6    1007.6    1022.1
  
           1   -0.0242    0.0126   -0.0019   -0.0039    0.0048    0.0148    0.0012    0.0003
           2   -0.0249    0.0202   -0.0059   -0.0102   -0.0040    0.0071   -0.0120   -0.0073
           3    0.0248   -0.0354    0.0109    0.0034   -0.0053   -0.0004   -0.0029    0.0157
           4    0.0230    0.0145   -0.0020    0.0038   -0.0048    0.0148   -0.0010    0.0003
           5    0.0105    0.0025   -0.0002    0.0074    0.0061    0.0060    0.0121    0.0004
           6    0.0296    0.0432   -0.0124    0.0076   -0.0026    0.0037    0.0025   -0.0174
           7    0.0267   -0.0079    0.0046   -0.0098   -0.0034   -0.0141   -0.0133   -0.0086
           8    0.0023   -0.0012    0.0054    0.0031    0.0079    0.0043    0.0039    0.0002
           9   -0.0111    0.0184    0.0164   -0.0127    0.0212    0.0129   -0.0155   -0.0174
          10   -0.0399   -0.0172    0.0082    0.0109   -0.0004   -0.0312    0.0002   -0.0027
          11    0.0019   -0.0022    0.0104    0.0137   -0.0068   -0.0062   -0.0109    0.0170
          12   -0.0187    0.0049   -0.0108   -0.0081    0.0115   -0.0119    0.0162   -0.0230
          13   -0.0259   -0.0098    0.0046    0.0099    0.0033   -0.0142    0.0129   -0.0089
          14    0.0024    0.0075    0.0120    0.0029   -0.0169    0.0098    0.0036   -0.0080
          15   -0.0094   -0.0177   -0.0118   -0.0125    0.0153   -0.0095   -0.0152    0.0160
          16    0.0413   -0.0143    0.0081   -0.0107    0.0002   -0.0313   -0.0006   -0.0027
          17    0.0068    0.0008    0.0042   -0.0084    0.0006   -0.0111    0.0023    0.0045
          18   -0.0169   -0.0068    0.0145   -0.0136    0.0129    0.0074    0.0201    0.0278
          19    0.0206    0.0027   -0.0047   -0.0078   -0.0036    0.0107    0.0044   -0.0070
          20    0.0182   -0.0048   -0.0094   -0.0136   -0.0014    0.0096    0.0153   -0.0164
          21    0.0125    0.0312    0.0037    0.0181    0.0009   -0.0055   -0.0128    0.0136
          22   -0.0187    0.0110   -0.0081    0.0004   -0.0086    0.0040    0.0048    0.0083
          23    0.0328   -0.0171    0.0049    0.0050    0.0040   -0.0096    0.0108    0.0040
          24   -0.0059    0.0118   -0.0205   -0.0005   -0.0237   -0.0114    0.0188    0.0180
          25    0.0176    0.0123   -0.0079   -0.0004    0.0087    0.0040   -0.0046    0.0084
          26   -0.0254   -0.0117   -0.0049   -0.0039    0.0074   -0.0137   -0.0180    0.0124
          27   -0.0185   -0.0198    0.0200   -0.0029   -0.0232    0.0056    0.0115   -0.0146
          28   -0.0207    0.0012   -0.0045    0.0078    0.0038    0.0108   -0.0044   -0.0069
          29   -0.0228    0.0085   -0.0066    0.0037    0.0010    0.0061   -0.0078   -0.0080
          30    0.0055   -0.0297   -0.0074    0.0224    0.0018    0.0097   -0.0188   -0.0191
          31   -0.0696   -0.0164    0.0017   -0.0349    0.0440    0.1333    0.0371    0.0817
          32   -0.0407   -0.0082   -0.0588   -0.1098   -0.1004    0.0368   -0.1041   -0.0008
          33   -0.0005   -0.0605   -0.0160   -0.0603   -0.0427    0.0541   -0.0393    0.0465
          34    0.0709   -0.0107    0.0013    0.0339   -0.0439    0.1341   -0.0338    0.0827
          35    0.0394   -0.0315   -0.0570    0.1244    0.1101    0.0574    0.1104    0.0184
          36    0.0136    0.0512   -0.0127   -0.0030    0.0085   -0.0314    0.0115   -0.0421
          37   -0.0433   -0.0128   -0.0236   -0.0253    0.0171   -0.0185    0.0237   -0.0355
          38   -0.0419   -0.0014   -0.0586   -0.0581    0.0410    0.0084    0.0550   -0.0520
          39   -0.0468   -0.0154    0.0629    0.0800   -0.0205   -0.0516   -0.0246    0.0548
          40    0.0280   -0.0318   -0.0263    0.0080   -0.0371   -0.0262    0.0057    0.0127
          41    0.0145   -0.0233   -0.0056    0.0255   -0.0167   -0.0110    0.0136    0.0203
          42   -0.0093   -0.0652   -0.0975    0.0472   -0.1003   -0.0291    0.0514    0.0559
          43   -0.0251   -0.0338   -0.0255   -0.0076    0.0374   -0.0263   -0.0057    0.0130
          44   -0.0041   -0.0515   -0.0484   -0.0436    0.0615   -0.0233   -0.0347    0.0447
          45   -0.0190    0.0459    0.0820    0.0293   -0.0826    0.0209    0.0386   -0.0416
          46    0.0442   -0.0093   -0.0238    0.0257   -0.0165   -0.0180   -0.0249   -0.0351
          47    0.0591   -0.0035   -0.0234    0.0151   -0.0264   -0.0158   -0.0382   -0.0199
          48   -0.0237    0.0121   -0.0827    0.0977   -0.0348    0.0512   -0.0487   -0.0715
          49    0.0194    0.0434    0.0258    0.0123   -0.0266    0.0486   -0.0553    0.0507
          50   -0.0438    0.1105    0.0295    0.0883    0.0165   -0.0689   -0.0307    0.0303
          51    0.0593   -0.0792   -0.0436   -0.0701    0.0011    0.0301    0.0577   -0.0563
          52    0.0052   -0.0166    0.0428   -0.0171   -0.0544    0.0522   -0.0082    0.0075
          53   -0.0512   -0.0529    0.0707   -0.0054   -0.0768    0.0264    0.0255   -0.0300
          54    0.0168    0.0297   -0.0747   -0.0178    0.0756   -0.0247   -0.0777    0.0669
          55   -0.0039   -0.0164    0.0436    0.0165    0.0533    0.0520    0.0091    0.0076
          56    0.0406   -0.0302    0.0290    0.0128    0.0328    0.0119    0.0134    0.0039
          57    0.0428   -0.0471    0.1006   -0.0143    0.1005    0.0342   -0.0816   -0.0704
          58   -0.0233    0.0423    0.0260   -0.0131    0.0259    0.0477    0.0573    0.0495
          59    0.0059    0.0624    0.0055   -0.0460   -0.0156   -0.0478    0.0004    0.0010
          60    0.0612    0.1264    0.0513   -0.1032   -0.0085   -0.0603    0.0665    0.0624


   Root No.      25        26        27        28        29        30        31        32

                25 A      26 A      27 A      28 A      29 A      30 A      31 A      32 A   

                1028.6    1071.8    1075.3    1097.9    1141.9    1148.6    1150.9    1159.2
  
           1   -0.0076    0.0059    0.0047    0.0022    0.0086   -0.0123   -0.0040    0.0034
           2    0.0119   -0.0094   -0.0035   -0.0051    0.0050    0.0010    0.0067    0.0044
           3   -0.0011    0.0178   -0.0045    0.0036    0.0014   -0.0030   -0.0036    0.0023
           4   -0.0076   -0.0058    0.0048   -0.0021   -0.0085    0.0125   -0.0032    0.0038
           5    0.0103    0.0001   -0.0051    0.0029   -0.0051   -0.0001    0.0043    0.0051
           6    0.0065    0.0201    0.0023    0.0055   -0.0012   -0.0037    0.0059   -0.0001
           7    0.0238   -0.0164    0.0054    0.0052    0.0021    0.0034    0.0071   -0.0015
           8   -0.0103    0.0046    0.0037    0.0022    0.0066   -0.0002    0.0046   -0.0012
           9    0.0106   -0.0020   -0.0011   -0.0039   -0.0038   -0.0015   -0.0027   -0.0006
          10    0.0014   -0.0169   -0.0118    0.0082   -0.0056    0.0027    0.0024   -0.0010
          11    0.0080    0.0098    0.0033    0.0012    0.0027    0.0038   -0.0056   -0.0008
          12   -0.0157   -0.0179    0.0008   -0.0055    0.0053    0.0026   -0.0035    0.0011
          13    0.0239    0.0164    0.0052   -0.0052   -0.0022   -0.0040    0.0068   -0.0016
          14   -0.0042   -0.0032    0.0028   -0.0002   -0.0042    0.0006    0.0029   -0.0012
          15   -0.0142   -0.0039    0.0027   -0.0044   -0.0065   -0.0017    0.0043   -0.0000
          16    0.0013    0.0168   -0.0119   -0.0082    0.0056   -0.0029    0.0023   -0.0011
          17   -0.0002   -0.0005    0.0033    0.0014   -0.0047   -0.0039   -0.0069   -0.0003
          18    0.0176   -0.0203    0.0010   -0.0054    0.0034    0.0005    0.0006   -0.0013
          19   -0.0081   -0.0175   -0.0176    0.0126    0.0007    0.0015   -0.0013   -0.0009
          20   -0.0086   -0.0100   -0.0031    0.0007    0.0005    0.0020   -0.0024   -0.0024
          21   -0.0040   -0.0120   -0.0137    0.0100   -0.0018    0.0017   -0.0021   -0.0024
          22   -0.0001   -0.0161    0.0188    0.0125    0.0002    0.0005    0.0015    0.0002
          23   -0.0124    0.0190   -0.0163   -0.0061    0.0001   -0.0021    0.0003   -0.0044
          24   -0.0036    0.0034   -0.0057   -0.0040   -0.0009    0.0003   -0.0019    0.0014
          25   -0.0001    0.0163    0.0187   -0.0125   -0.0002   -0.0007    0.0015    0.0002
          26   -0.0128   -0.0186   -0.0170    0.0073    0.0003    0.0019   -0.0004   -0.0032
          27   -0.0024   -0.0057   -0.0024   -0.0007   -0.0009    0.0012    0.0019   -0.0032
          28   -0.0081    0.0173   -0.0177   -0.0126   -0.0007   -0.0013   -0.0014   -0.0010
          29   -0.0095    0.0143   -0.0092   -0.0053    0.0004   -0.0021   -0.0033   -0.0033
          30   -0.0004   -0.0060    0.0108    0.0085   -0.0019    0.0005    0.0007    0.0011
          31   -0.0499    0.1420   -0.0024    0.1292   -0.0064    0.0629    0.0905   -0.0174
          32    0.2177    0.0104    0.0038   -0.0104   -0.0331   -0.0160   -0.0368   -0.0105
          33    0.0943    0.0764   -0.0039    0.0447   -0.0243    0.0132    0.0045   -0.0134
          34   -0.0501   -0.1419   -0.0013   -0.1291    0.0044   -0.0706    0.0854   -0.0194
          35    0.2377   -0.0445    0.0021   -0.0114    0.0413    0.0116   -0.0294   -0.0155
          36    0.0163    0.0631    0.0048    0.0445   -0.0059    0.0208   -0.0194    0.0077
          37   -0.0173   -0.0331   -0.0124    0.0036   -0.0033    0.0011    0.0042    0.0001
          38   -0.0396    0.0303    0.0880   -0.0603    0.0984   -0.0306   -0.0569    0.0713
          39    0.0188    0.0653    0.0731   -0.0347    0.0828   -0.0229   -0.0567    0.0636
          40    0.0128   -0.0151    0.0084    0.0112    0.0048    0.0070    0.0104    0.0014
          41   -0.0112   -0.0709    0.1132    0.0654    0.0720    0.1171    0.0984    0.0996
          42   -0.0282    0.0267   -0.0233   -0.0049   -0.0114   -0.0181   -0.0178   -0.0141
          43    0.0128    0.0151    0.0083   -0.0112   -0.0050   -0.0080    0.0098    0.0011
          44   -0.0231    0.0515    0.0894   -0.0557   -0.0601   -0.1052    0.0702    0.0790
          45    0.0202    0.0568    0.0722   -0.0342   -0.0442   -0.0769    0.0543    0.0560
          46   -0.0174    0.0329   -0.0125   -0.0036    0.0031   -0.0015    0.0042    0.0001
          47   -0.0266   -0.0561    0.1119    0.0695   -0.1237    0.0416   -0.0760    0.0939
          48   -0.0347    0.0436   -0.0247   -0.0032    0.0278   -0.0078    0.0243   -0.0240
          49   -0.0170   -0.0225   -0.0820    0.0710    0.1373   -0.0668   -0.0837    0.1153
          50    0.0170   -0.0009    0.0292   -0.0290   -0.0842    0.0431    0.0478   -0.0729
          51   -0.0196   -0.0176    0.0003   -0.0026   -0.0193    0.0130    0.0084   -0.0199
          52   -0.0409    0.0375    0.0965   -0.0875    0.0580    0.1377   -0.0838   -0.1009
          53   -0.0148   -0.0149    0.0045   -0.0128    0.0124    0.0351   -0.0187   -0.0282
          54   -0.0425    0.0055    0.0338   -0.0378    0.0324    0.0771   -0.0477   -0.0585
          55   -0.0407   -0.0367    0.0965    0.0875   -0.0565   -0.1261   -0.0953   -0.1049
          56   -0.0325    0.0109    0.0193    0.0287   -0.0252   -0.0610   -0.0440   -0.0538
          57    0.0302    0.0115   -0.0279   -0.0275    0.0224    0.0476    0.0380    0.0403
          58   -0.0165    0.0221   -0.0820   -0.0710   -0.1351    0.0709   -0.0804    0.1180
          59    0.0059    0.0091    0.0260    0.0270    0.0826   -0.0461    0.0441   -0.0757
          60    0.0251   -0.0150    0.0134    0.0112    0.0215   -0.0093    0.0142   -0.0164


   Root No.      33        34        35        36        37        38        39        40

                33 A      34 A      35 A      36 A      37 A      38 A      39 A      40 A   

                1192.9    1231.9    1251.9    1319.7    1354.6    1395.3    1437.7    1447.0
  
           1    0.0007   -0.0217   -0.0079    0.0386   -0.0753    0.0203    0.0362   -0.0001
           2    0.0224    0.0014    0.0583   -0.0099   -0.0156   -0.0645   -0.0154    0.0339
           3    0.0126   -0.0090    0.0321    0.0314   -0.0214   -0.0264    0.0110    0.0183
           4   -0.0007   -0.0217   -0.0079    0.0385    0.0754   -0.0203   -0.0362   -0.0006
           5   -0.0255   -0.0030    0.0666    0.0056    0.0237    0.0695    0.0079    0.0384
           6    0.0009    0.0086   -0.0018   -0.0325   -0.0119    0.0062    0.0169   -0.0005
           7   -0.0013    0.0014    0.0263   -0.0204    0.0096   -0.0190   -0.0108    0.0087
           8    0.0087    0.0101   -0.0077    0.0242    0.0123    0.0164    0.0398   -0.0362
           9   -0.0061    0.0007   -0.0142   -0.0009    0.0008    0.0086   -0.0019    0.0006
          10   -0.0001    0.0026   -0.0183   -0.0222    0.0224    0.0126   -0.0086   -0.0088
          11    0.0045   -0.0062    0.0024   -0.0108    0.0010    0.0163   -0.0233   -0.0242
          12    0.0086   -0.0058    0.0010   -0.0220    0.0073    0.0188   -0.0268   -0.0264
          13    0.0014    0.0014    0.0262   -0.0204   -0.0096    0.0190    0.0107    0.0088
          14   -0.0050    0.0092   -0.0134    0.0211   -0.0113   -0.0186   -0.0339   -0.0323
          15   -0.0095    0.0040    0.0091    0.0119   -0.0049    0.0001   -0.0197   -0.0174
          16    0.0000    0.0026   -0.0182   -0.0222   -0.0224   -0.0126    0.0088   -0.0086
          17   -0.0079   -0.0082    0.0026   -0.0197   -0.0043   -0.0232    0.0336   -0.0331
          18    0.0056    0.0024    0.0002    0.0146    0.0061    0.0092   -0.0133    0.0121
          19   -0.0096    0.0096   -0.0230    0.0129    0.0104   -0.0249    0.0435    0.0433
          20    0.0024   -0.0058   -0.0101   -0.0086    0.0040    0.0153   -0.0003   -0.0053
          21   -0.0038   -0.0012   -0.0205   -0.0013    0.0094    0.0051    0.0183    0.0132
          22    0.0112    0.0100    0.0203    0.0163    0.0216    0.0041    0.0473   -0.0420
          23   -0.0001    0.0044   -0.0184    0.0045   -0.0003    0.0171   -0.0109    0.0093
          24   -0.0020   -0.0046   -0.0027   -0.0047   -0.0083   -0.0049   -0.0128    0.0118
          25   -0.0112    0.0100    0.0204    0.0163   -0.0216   -0.0042   -0.0466   -0.0427
          26    0.0010    0.0018   -0.0175    0.0018    0.0041   -0.0129    0.0154    0.0139
          27   -0.0018    0.0061   -0.0060    0.0062   -0.0072   -0.0122   -0.0063   -0.0063
          28    0.0095    0.0097   -0.0231    0.0130   -0.0103    0.0250   -0.0442    0.0425
          29   -0.0004   -0.0057   -0.0184   -0.0082   -0.0079   -0.0159   -0.0082    0.0013
          30   -0.0045   -0.0016    0.0136   -0.0028    0.0065   -0.0025    0.0166   -0.0139
          31    0.0155    0.0749   -0.0142   -0.1142    0.0463   -0.0410   -0.0155   -0.0093
          32   -0.0640   -0.0123   -0.0896    0.0069    0.0052    0.0696    0.0064   -0.0139
          33   -0.0277    0.0179   -0.0490   -0.0139    0.0313    0.0243    0.0047   -0.0111
          34   -0.0156    0.0747   -0.0143   -0.1141   -0.0463    0.0411    0.0157   -0.0093
          35    0.0696   -0.0024   -0.1026   -0.0003   -0.0191   -0.0732   -0.0076   -0.0174
          36    0.0048   -0.0215    0.0024    0.0155    0.0255   -0.0103    0.0011    0.0036
          37    0.0036    0.0006   -0.0162   -0.0245    0.0193    0.0133   -0.0078   -0.0087
          38   -0.0818    0.0981   -0.0193    0.0067    0.0613   -0.0684    0.0341    0.0602
          39   -0.0836    0.0950   -0.0364    0.0005    0.0753   -0.0555    0.0307    0.0521
          40   -0.0007   -0.0059    0.0322   -0.0199    0.0009   -0.0235   -0.0127    0.0125
          41   -0.0964   -0.1094   -0.0903   -0.0314   -0.1230    0.0035   -0.0598    0.0630
          42    0.0234    0.0064    0.0203    0.0200    0.0062    0.0000    0.0118   -0.0078
          43    0.0008   -0.0059    0.0321   -0.0199   -0.0009    0.0236    0.0124    0.0126
          44    0.0755   -0.0941   -0.0713   -0.0188    0.1064   -0.0030    0.0467    0.0531
          45    0.0654   -0.0558   -0.0598   -0.0323    0.0619   -0.0014    0.0374    0.0364
          46   -0.0035    0.0007   -0.0162   -0.0245   -0.0194   -0.0132    0.0079   -0.0084
          47    0.1105    0.1312   -0.0341    0.0063   -0.0890    0.0866   -0.0458    0.0765
          48   -0.0364   -0.0394    0.0235    0.0026    0.0387   -0.0180    0.0119   -0.0184
          49    0.0567   -0.0415    0.0157   -0.0718    0.0322    0.0594   -0.0395   -0.0384
          50   -0.0388    0.0247   -0.0340    0.0422   -0.0087   -0.0362    0.0529    0.0478
          51   -0.0136    0.0071   -0.0305    0.0103    0.0088   -0.0057    0.0329    0.0257
          52    0.0612   -0.0520    0.0129   -0.0703    0.0207    0.0550    0.0506    0.0399
          53    0.0192   -0.0128   -0.0202   -0.0175    0.0159    0.0000    0.0400    0.0363
          54    0.0373   -0.0287   -0.0167   -0.0431    0.0153    0.0171    0.0516    0.0400
          55   -0.0613   -0.0525    0.0129   -0.0706   -0.0209   -0.0548   -0.0515    0.0394
          56   -0.0343   -0.0248   -0.0256   -0.0355   -0.0212   -0.0077   -0.0602    0.0498
          57    0.0245    0.0197    0.0058    0.0303    0.0063    0.0149    0.0278   -0.0184
          58   -0.0565   -0.0417    0.0161   -0.0719   -0.0323   -0.0596    0.0402   -0.0376
          59    0.0406    0.0253   -0.0445    0.0423    0.0038    0.0349   -0.0631    0.0532
          60    0.0059    0.0051    0.0113    0.0103    0.0118    0.0115    0.0049   -0.0008


   Root No.      41        42        43        44        45        46        47        48

                41 A      42 A      43 A      44 A      45 A      46 A      47 A      48 A   

                1844.3    1854.7    1862.3    1867.2    2829.0    2838.3    3048.5    3048.6
  
           1    0.0001    0.0011    0.0009    0.0033   -0.0115    0.0102   -0.0001    0.0001
           2   -0.0147    0.0011   -0.0213   -0.0029   -0.0169    0.0167   -0.0001   -0.0001
           3   -0.0064    0.0080   -0.0063    0.0089    0.0311   -0.0309    0.0001   -0.0002
           4    0.0001   -0.0011   -0.0008    0.0033   -0.0115   -0.0102   -0.0000   -0.0002
           5   -0.0160   -0.0047    0.0218    0.0003   -0.0008   -0.0006   -0.0001    0.0002
           6   -0.0011    0.0067    0.0037   -0.0094   -0.0353   -0.0352   -0.0001   -0.0002
           7    0.0303    0.0271    0.0322    0.0277    0.0008   -0.0008   -0.0184    0.0117
           8    0.0630    0.0543    0.0755    0.0656   -0.0004    0.0004    0.0007   -0.0005
           9   -0.0177   -0.0128   -0.0195   -0.0155   -0.0002    0.0001    0.0049   -0.0032
          10   -0.0319    0.0351   -0.0205    0.0257    0.0004   -0.0001   -0.0050   -0.0075
          11    0.0569   -0.0654    0.0426   -0.0536    0.0006   -0.0004    0.0012    0.0017
          12    0.0429   -0.0489    0.0331   -0.0413    0.0007   -0.0005   -0.0011   -0.0016
          13    0.0305   -0.0272   -0.0305    0.0292    0.0008    0.0008   -0.0116   -0.0183
          14    0.0482   -0.0427   -0.0551    0.0539   -0.0005   -0.0004    0.0018    0.0030
          15    0.0450   -0.0366   -0.0494    0.0464   -0.0000   -0.0001   -0.0026   -0.0041
          16   -0.0318   -0.0355    0.0218    0.0243    0.0004    0.0001   -0.0075    0.0045
          17    0.0702    0.0813   -0.0563   -0.0630    0.0009    0.0006    0.0008   -0.0005
          18   -0.0119   -0.0135    0.0104    0.0114   -0.0003   -0.0003    0.0022   -0.0013
          19    0.0631   -0.0663    0.0245   -0.0337    0.0002   -0.0002    0.0021    0.0032
          20   -0.0541    0.0603   -0.0387    0.0484   -0.0004    0.0003    0.0024    0.0038
          21   -0.0263    0.0311   -0.0267    0.0323   -0.0000    0.0001    0.0033    0.0052
          22   -0.0612   -0.0542   -0.0457   -0.0371    0.0000   -0.0002    0.0060   -0.0039
          23   -0.0485   -0.0398   -0.0624   -0.0546    0.0003   -0.0003   -0.0118    0.0076
          24    0.0245    0.0211    0.0224    0.0189    0.0001    0.0000   -0.0002    0.0001
          25   -0.0615    0.0543    0.0434   -0.0391    0.0000    0.0002    0.0038    0.0061
          26   -0.0321    0.0259    0.0428   -0.0420    0.0003    0.0002   -0.0067   -0.0107
          27   -0.0444    0.0373    0.0461   -0.0442    0.0000    0.0001   -0.0033   -0.0053
          28    0.0630    0.0668   -0.0260   -0.0319    0.0002    0.0002    0.0032   -0.0020
          29   -0.0601   -0.0685    0.0495    0.0548   -0.0003   -0.0003    0.0057   -0.0036
          30   -0.0014   -0.0000   -0.0062   -0.0061   -0.0001   -0.0001   -0.0028    0.0018
          31    0.0051    0.0150    0.0005    0.0041    0.1285   -0.1315    0.0000   -0.0003
          32   -0.0104   -0.0109   -0.0065   -0.0105    0.2015   -0.1996    0.0026   -0.0017
          33   -0.0008    0.0016    0.0015    0.0010   -0.3791    0.3760   -0.0029    0.0017
          34    0.0052   -0.0150   -0.0002    0.0040    0.1283    0.1318   -0.0001    0.0003
          35   -0.0096    0.0090    0.0046   -0.0091    0.0051    0.0048    0.0006    0.0011
          36   -0.0041    0.0065    0.0040   -0.0058    0.4284    0.4265    0.0024    0.0036
          37   -0.0429    0.0490   -0.0288    0.0370   -0.0008    0.0032    0.0585    0.0876
          38   -0.0015    0.0001   -0.0101    0.0051   -0.0003    0.0002   -0.0118   -0.0184
          39   -0.0194    0.0209   -0.0225    0.0230    0.0012   -0.0004    0.0144    0.0208
          40    0.0385    0.0339    0.0423    0.0364   -0.0075    0.0081    0.2151   -0.1379
          41   -0.0125   -0.0100   -0.0270   -0.0229   -0.0020    0.0017   -0.0162    0.0102
          42   -0.0127   -0.0106   -0.0113   -0.0087    0.0028   -0.0032   -0.0573    0.0366
          43    0.0388   -0.0341   -0.0402    0.0384   -0.0075   -0.0081    0.1360    0.2150
          44   -0.0171    0.0139    0.0277   -0.0257   -0.0005   -0.0001   -0.0258   -0.0405
          45    0.0055   -0.0048    0.0022   -0.0029   -0.0034   -0.0036    0.0275    0.0434
          46   -0.0429   -0.0495    0.0306    0.0350   -0.0008   -0.0032    0.0876   -0.0531
          47   -0.0102   -0.0098    0.0200    0.0140    0.0003   -0.0000   -0.0062    0.0044
          48    0.0166    0.0187   -0.0162   -0.0171   -0.0012   -0.0005   -0.0271    0.0163
          49   -0.0165    0.0229   -0.0419    0.0462   -0.0005    0.0007   -0.0234   -0.0365
          50   -0.0157    0.0175   -0.0053    0.0084   -0.0009    0.0011   -0.0297   -0.0463
          51   -0.0243    0.0290   -0.0237    0.0296   -0.0004    0.0007   -0.0394   -0.0615
          52    0.0129   -0.0056   -0.0457    0.0472   -0.0005   -0.0003   -0.0426   -0.0682
          53   -0.0242    0.0204    0.0323   -0.0318    0.0016    0.0015    0.0810    0.1294
          54   -0.0118    0.0115    0.0055   -0.0048    0.0006    0.0005    0.0415    0.0663
          55    0.0127    0.0052    0.0482    0.0447   -0.0005    0.0003   -0.0675    0.0438
          56   -0.0267   -0.0232   -0.0329   -0.0289    0.0017   -0.0016    0.1440   -0.0934
          57   -0.0005    0.0009   -0.0104   -0.0097    0.0002   -0.0002    0.0006   -0.0003
          58   -0.0167   -0.0234    0.0442    0.0438   -0.0005   -0.0007   -0.0360    0.0228
          59   -0.0250   -0.0291    0.0166    0.0200   -0.0010   -0.0013   -0.0684    0.0434
          60    0.0144    0.0179   -0.0198   -0.0213   -0.0001    0.0001    0.0329   -0.0208


   Root No.      49        50        51        52        53        54

                49 A      50 A      51 A      52 A      53 A      54 A   

                3050.7    3050.8    3066.4    3066.4    3076.7    3077.1
  
           1   -0.0003    0.0000    0.0001   -0.0000    0.0000    0.0003
           2   -0.0001    0.0001    0.0002   -0.0001    0.0003    0.0001
           3    0.0001   -0.0002   -0.0002    0.0000   -0.0000   -0.0003
           4    0.0003    0.0000    0.0001    0.0001    0.0000   -0.0003
           5    0.0001   -0.0000    0.0000    0.0001    0.0003    0.0000
           6    0.0002    0.0002    0.0002    0.0002    0.0002   -0.0003
           7   -0.0079    0.0082    0.0130   -0.0058    0.0069    0.0065
           8    0.0001   -0.0004    0.0012   -0.0004    0.0008    0.0009
           9    0.0021   -0.0023   -0.0037    0.0017   -0.0020   -0.0019
          10   -0.0166   -0.0160    0.0048    0.0111   -0.0076    0.0081
          11    0.0040    0.0038   -0.0016   -0.0036    0.0027   -0.0029
          12   -0.0035   -0.0034    0.0006    0.0014   -0.0007    0.0007
          13    0.0083    0.0081    0.0057    0.0130    0.0065   -0.0069
          14   -0.0011   -0.0014   -0.0002   -0.0008   -0.0002    0.0001
          15    0.0018    0.0019    0.0017    0.0039    0.0021   -0.0022
          16    0.0162   -0.0165    0.0111   -0.0049   -0.0081   -0.0076
          17   -0.0019    0.0019   -0.0026    0.0011    0.0022    0.0021
          18   -0.0048    0.0049   -0.0029    0.0013    0.0020    0.0019
          19    0.0048    0.0046    0.0021    0.0048   -0.0053    0.0056
          20    0.0050    0.0048    0.0039    0.0088   -0.0083    0.0088
          21    0.0070    0.0067    0.0048    0.0108   -0.0105    0.0110
          22    0.0015   -0.0016    0.0057   -0.0025    0.0047    0.0044
          23   -0.0025    0.0028   -0.0168    0.0073   -0.0120   -0.0113
          24   -0.0001    0.0001    0.0006   -0.0003    0.0003    0.0003
          25   -0.0017   -0.0017    0.0025    0.0057    0.0044   -0.0046
          26    0.0025    0.0026   -0.0065   -0.0146   -0.0100    0.0106
          27    0.0011    0.0012   -0.0037   -0.0082   -0.0054    0.0058
          28   -0.0047    0.0047    0.0048   -0.0021   -0.0056   -0.0053
          29   -0.0075    0.0076    0.0127   -0.0056   -0.0129   -0.0122
          30    0.0038   -0.0039   -0.0055    0.0024    0.0058    0.0055
          31   -0.0001   -0.0004   -0.0003    0.0002   -0.0002   -0.0003
          32    0.0016   -0.0011   -0.0021    0.0005   -0.0008   -0.0015
          33   -0.0023    0.0010    0.0026   -0.0004    0.0010    0.0021
          34    0.0001   -0.0004   -0.0001   -0.0003   -0.0002    0.0003
          35   -0.0003   -0.0006   -0.0003   -0.0006   -0.0002    0.0004
          36   -0.0029   -0.0014   -0.0021   -0.0026   -0.0011    0.0026
          37    0.1950    0.1883   -0.0534   -0.1227    0.0795   -0.0840
          38   -0.0406   -0.0396    0.0113    0.0268   -0.0176    0.0183
          39    0.0466    0.0447   -0.0125   -0.0281    0.0181   -0.0193
          40    0.0919   -0.0971   -0.1417    0.0637   -0.0709   -0.0667
          41   -0.0069    0.0068    0.0089   -0.0038    0.0042    0.0041
          42   -0.0246    0.0256    0.0379   -0.0169    0.0189    0.0180
          43   -0.0964   -0.0962   -0.0619   -0.1426   -0.0671    0.0710
          44    0.0183    0.0177    0.0112    0.0253    0.0117   -0.0127
          45   -0.0196   -0.0195   -0.0130   -0.0298   -0.0141    0.0150
          46   -0.1902    0.1943   -0.1221    0.0547    0.0845    0.0794
          47    0.0144   -0.0152    0.0106   -0.0052   -0.0078   -0.0070
          48    0.0587   -0.0599    0.0372   -0.0166   -0.0257   -0.0242
          49   -0.0531   -0.0510   -0.0304   -0.0685    0.0681   -0.0719
          50   -0.0644   -0.0617   -0.0393   -0.0887    0.0847   -0.0893
          51   -0.0867   -0.0831   -0.0520   -0.1172    0.1132   -0.1194
          52    0.0182    0.0185   -0.0358   -0.0802   -0.0562    0.0595
          53   -0.0327   -0.0333    0.0701    0.1572    0.1068   -0.1131
          54   -0.0163   -0.0167    0.0364    0.0815    0.0547   -0.0579
          55   -0.0170    0.0184   -0.0806    0.0352   -0.0594   -0.0560
          56    0.0340   -0.0369    0.1779   -0.0778    0.1271    0.1197
          57    0.0005   -0.0005   -0.0002    0.0001    0.0005    0.0005
          58    0.0521   -0.0529   -0.0683    0.0301    0.0723    0.0678
          59    0.0951   -0.0965   -0.1322    0.0582    0.1350    0.1267
          60   -0.0464    0.0471    0.0632   -0.0278   -0.0654   -0.0614


           MASS-WEIGHTED COORDINATE ANALYSIS (NORMAL COORDINATES)


   Root No.       1         2         3         4         5         6         7         8

                 1 A       2 A       3 A       4 A       5 A       6 A       7 A       8 A   

                  68.8     138.0     259.6     318.6     421.5     465.8     470.2     475.2
  
           1    0.0024    0.0010    0.1482    0.1765   -0.0010    0.0263   -0.0295    0.2941
           2   -0.0369    0.0462   -0.0297   -0.0425    0.1897    0.1351    0.0189    0.0980
           3    0.0242   -0.2637    0.0192    0.1505    0.1797   -0.0585    0.0366   -0.1546
           4   -0.0030   -0.0017    0.1482    0.1765   -0.0004   -0.0212    0.0348    0.2940
           5    0.0215    0.0799   -0.0177    0.0307   -0.2509   -0.0932   -0.0337    0.0177
           6    0.0389   -0.2548   -0.0314   -0.1523    0.0731   -0.1117    0.0262    0.1827
           7    0.0288   -0.0070    0.0343   -0.0365   -0.1583    0.1183   -0.1084   -0.0746
           8   -0.0237    0.0361   -0.0912   -0.1406    0.1922    0.2577    0.0015   -0.0923
           9    0.3274   -0.0533    0.2022   -0.2129   -0.1024    0.1676   -0.2597   -0.2599
          10    0.1199    0.0304    0.1083    0.0075    0.2551    0.1358   -0.0445    0.1039
          11    0.2338   -0.0146    0.2972   -0.0060    0.2656   -0.2262   -0.0996    0.1415
          12   -0.2371   -0.2282   -0.2002    0.2151    0.0344    0.1161    0.1561   -0.0579
          13   -0.0288    0.0071    0.0349   -0.0364    0.1582   -0.1190    0.1075   -0.0740
          14   -0.1288   -0.0075    0.0116   -0.2231   -0.1227   -0.3094    0.1136   -0.1987
          15    0.3018   -0.0630   -0.2216    0.1252   -0.1793    0.0333   -0.2275    0.1916
          16   -0.1201   -0.0310    0.1076    0.0060   -0.2553   -0.1344    0.0459    0.1057
          17   -0.0993    0.1171    0.1714    0.0922   -0.2524    0.1494    0.0187    0.0961
          18   -0.3180   -0.1972    0.3124   -0.1966   -0.0910    0.2086    0.1858    0.1106
          19    0.1499   -0.0264   -0.1109    0.0024    0.1180    0.1165    0.0889   -0.1937
          20    0.2185   -0.3066   -0.0151    0.2799    0.0477   -0.0861    0.2139   -0.1180
          21   -0.1883    0.1348    0.0451   -0.1847    0.2076   -0.1660   -0.1473    0.0579
          22   -0.0215    0.0528   -0.1864   -0.1355   -0.1373   -0.0821    0.0708   -0.1003
          23   -0.0413    0.1380   -0.1099   -0.0552    0.1962    0.3322    0.0509    0.0467
          24    0.1672    0.3730   -0.2664   -0.1249   -0.0201   -0.0444    0.2733    0.2072
          25    0.0220   -0.0520   -0.1863   -0.1352    0.1388    0.0798   -0.0732   -0.1000
          26   -0.0396   -0.2929   -0.2213   -0.1068   -0.1638   -0.2731   -0.1690    0.1439
          27    0.1673    0.2673    0.1874    0.0861   -0.1097   -0.1933    0.2176   -0.1633
          28   -0.1498    0.0268   -0.1111    0.0023   -0.1176   -0.1196   -0.0922   -0.1908
          29   -0.1080    0.2104    0.0075    0.1639   -0.1386    0.1521   -0.1230   -0.0795
          30   -0.2685    0.2606   -0.0454    0.2942    0.1610   -0.1087   -0.2305   -0.1007
          31   -0.0051    0.0101    0.0528    0.1072   -0.0552   -0.0003   -0.0052    0.0652
          32   -0.0851   -0.0046   -0.0863    0.0339    0.1036    0.0790    0.1015    0.0319
          33   -0.0353   -0.0809   -0.0335    0.0857    0.0567    0.0036    0.0618   -0.0481
          34    0.0048   -0.0105    0.0529    0.1075    0.0546    0.0017    0.0067    0.0649
          35    0.0916    0.0414   -0.0916    0.0696   -0.1183   -0.0717   -0.1179    0.0091
          36    0.0078   -0.0696   -0.0101   -0.0605    0.0030   -0.0324    0.0090    0.0575
          37    0.0633    0.0316    0.0806   -0.0124    0.1104   -0.0015   -0.0204    0.0205
          38    0.1269    0.0331    0.2169   -0.0066    0.1403   -0.1634   -0.0492    0.0636
          39   -0.1344   -0.1277   -0.1479    0.1174   -0.0948    0.1190    0.0560    0.0407
          40    0.0349   -0.0116    0.0318   -0.0502   -0.0775    0.0769   -0.0570   -0.0538
          41   -0.0011   -0.0095   -0.0486   -0.0934    0.0246    0.0784   -0.0067   -0.1170
          42    0.1910   -0.0463    0.1456   -0.1948   -0.1410    0.2077   -0.1686   -0.1738
          43   -0.0347    0.0117    0.0322   -0.0499    0.0774   -0.0777    0.0564   -0.0537
          44   -0.0862    0.0299    0.0242   -0.1720    0.0433   -0.1681    0.0804   -0.1831
          45    0.1699   -0.0365   -0.1522    0.1295   -0.1362    0.1500   -0.1455    0.1015
          46   -0.0634   -0.0320    0.0803   -0.0135   -0.1107    0.0020    0.0209    0.0206
          47   -0.0512    0.0288    0.1245    0.0473   -0.0817    0.0919    0.0196    0.0736
          48   -0.1774   -0.1294    0.2296   -0.1098   -0.1489    0.1809    0.0726   -0.0100
          49    0.0810   -0.0050   -0.0419    0.0186   -0.0232   -0.0020    0.0940   -0.1403
          50    0.1147   -0.1419    0.0140    0.1983    0.0323    0.0035    0.2110   -0.1432
          51   -0.1153    0.0773    0.0055   -0.1515    0.0796   -0.0489   -0.1952    0.1499
          52   -0.0108   -0.0249   -0.1008   -0.1104    0.0204    0.0098   -0.0980   -0.0026
          53   -0.0435   -0.1325   -0.1247   -0.1088   -0.0161   -0.1038   -0.1643    0.1071
          54    0.0936    0.1600    0.1245    0.1048   -0.1111   -0.0217    0.2101   -0.1501
          55    0.0114    0.0254   -0.1008   -0.1110   -0.0199   -0.0104    0.0977   -0.0038
          56   -0.0041    0.0445   -0.0533   -0.0487    0.0654    0.1024    0.0497    0.0239
          57    0.1044    0.2043   -0.1676   -0.1451   -0.0913    0.0311    0.2658    0.1785
          58   -0.0810    0.0051   -0.0418    0.0186    0.0230    0.0001   -0.0960   -0.1389
          59   -0.0489    0.0902    0.0151    0.1062   -0.0658    0.0188   -0.0977   -0.0569
          60   -0.1553    0.1331    0.0023    0.2254    0.0545   -0.0471   -0.2714   -0.1931


   Root No.       9        10        11        12        13        14        15        16

                 9 A      10 A      11 A      12 A      13 A      14 A      15 A      16 A   

                 561.7     595.3     667.0     744.1     762.6     812.2     815.9     841.5
  
           1    0.0612    0.0736   -0.1745    0.0850    0.1020    0.0076   -0.1175   -0.2280
           2   -0.2082   -0.1943   -0.1598    0.0242   -0.0063   -0.0767   -0.0335   -0.0234
           3    0.2775   -0.1798    0.2229   -0.0571    0.0421    0.1437    0.0985    0.2094
           4   -0.0606    0.0737   -0.1746    0.0815   -0.1051   -0.0064    0.1173    0.2279
           5    0.0573   -0.2553   -0.0393   -0.0048   -0.0133   -0.0002   -0.0154   -0.0753
           6    0.3430    0.0706   -0.2711    0.0641    0.0378   -0.1731    0.0835    0.1957
           7    0.3005    0.3852    0.0286   -0.0308    0.0385    0.1400   -0.1653   -0.2895
           8   -0.0974   -0.0612   -0.1483    0.0231   -0.1042    0.1021    0.0328    0.1563
           9   -0.1151   -0.0979   -0.1351   -0.1498   -0.1618    0.1102   -0.1314    0.1337
          10    0.2627   -0.3531   -0.0678    0.0084    0.2268    0.0052   -0.0512    0.0251
          11   -0.0743    0.0143    0.1684   -0.1245    0.1667   -0.1448   -0.1181   -0.0511
          12   -0.0256   -0.0839    0.0501    0.0867   -0.0055    0.0103    0.0437   -0.1511
          13   -0.3003    0.3858    0.0281   -0.0323   -0.0379    0.1203    0.1803    0.2896
          14    0.1392   -0.0991   -0.1931   -0.0417    0.1679    0.1383    0.0486   -0.2008
          15   -0.0572    0.0589    0.0515    0.1393   -0.1011   -0.0367   -0.1385    0.0480
          16   -0.2628   -0.3527   -0.0681    0.0003   -0.2265   -0.0020    0.0520   -0.0252
          17    0.0778   -0.0263    0.1725   -0.0764   -0.1422   -0.1334    0.0703    0.1147
          18    0.0124    0.0808    0.0327   -0.1367   -0.0763   -0.0865    0.0849   -0.1112
          19   -0.0699   -0.0678    0.0618   -0.0810    0.0282   -0.1335   -0.0887   -0.0755
          20   -0.2127    0.1321    0.0975   -0.1132    0.1074   -0.2129   -0.1451   -0.0825
          21   -0.1765    0.0788    0.3102   -0.0123   -0.0754   -0.0743    0.0381   -0.2451
[...]
 REDUCED MASS        0.9187         C  2 -- C  5          +9.5% ( 45.0%)     52.5%
 EFFECTIVE MASS      8.1982
 FORCE CONSTANT      0.9428

 VIBRATION         37   37A           ATOM PAIR      ENERGY CONTRIBUTION    RADIAL
 FREQUENCY          1354.56         C  1 -- C  2         +22.4% ( 72.4%)     93.3%
 TRANSITION DIPOLE   0.0207         C  2 -- C  6         +10.8% ( 50.3%)     46.5%
 TRAVEL (Ang.)       0.1477         C  1 -- C  4         +10.8% ( 50.3%)     46.4%
 REDUCED MASS        2.2822         C  2 -- H 12          +9.4% ( 46.8%)      0.7%
 EFFECTIVE MASS      9.1026
 FORCE CONSTANT      2.4672

 VIBRATION         38   38A           ATOM PAIR      ENERGY CONTRIBUTION    RADIAL
 FREQUENCY          1395.26         C  1 -- C  2         +16.3% ( 63.5%)      8.0%
 TRANSITION DIPOLE   0.0207         C  2 -- C  5         +10.2% ( 50.1%)     86.6%
 TRAVEL (Ang.)       0.1637         C  1 -- C  3         +10.1% ( 50.0%)     86.6%
 REDUCED MASS        1.8045         C  2 -- C  6         +10.0% ( 49.6%)     61.9%
 EFFECTIVE MASS      9.5185
 FORCE CONSTANT      2.0698

 VIBRATION         39   39A           ATOM PAIR      ENERGY CONTRIBUTION    RADIAL
 FREQUENCY          1437.70         C  8 -- C 10         +10.6% ( 49.2%)     99.8%
 TRANSITION DIPOLE   0.1220         C  7 -- C  9         +10.2% ( 48.4%)     99.8%
 TRAVEL (Ang.)       0.2248         C  1 -- C  3          +6.0% ( 37.0%)     88.4%
 REDUCED MASS        0.9282         C  2 -- C  5          +5.8% ( 36.5%)     87.7%
 EFFECTIVE MASS     10.5210
 FORCE CONSTANT      1.1303

 VIBRATION         40   40A           ATOM PAIR      ENERGY CONTRIBUTION    RADIAL
 FREQUENCY          1447.03         C  7 -- C  9         +10.2% ( 48.1%)    100.0%
 TRANSITION DIPOLE   0.2265         C  8 -- C 10          +9.8% ( 47.3%)    100.0%
 TRAVEL (Ang.)       0.2319         C  2 -- C  5          +6.0% ( 37.0%)     87.5%
 REDUCED MASS        0.8664         C  1 -- C  4          +5.9% ( 36.7%)     83.6%
 EFFECTIVE MASS     10.0908
 FORCE CONSTANT      1.0689

 VIBRATION         41   41A           ATOM PAIR      ENERGY CONTRIBUTION    RADIAL
 FREQUENCY          1844.34         C  4 -- C  7         +11.6% ( 51.0%)     98.8%
 TRANSITION DIPOLE   0.3506         C  6 -- C 10         +11.6% ( 51.0%)     98.8%
 TRAVEL (Ang.)       0.1593         C  5 -- C  9         +10.2% ( 47.8%)     98.6%
 REDUCED MASS        1.4410         C  3 -- C  8         +10.1% ( 47.5%)     98.6%
 EFFECTIVE MASS     11.9611
 FORCE CONSTANT      2.8881

 VIBRATION         42   42A           ATOM PAIR      ENERGY CONTRIBUTION    RADIAL
 FREQUENCY          1854.70         C  6 -- C 10         +14.8% ( 57.0%)     99.4%
 TRANSITION DIPOLE   0.1698         C  4 -- C  7         +14.5% ( 56.5%)     99.4%
 TRAVEL (Ang.)       0.1515         C  8 -- C 10          +8.2% ( 42.6%)     96.2%
 REDUCED MASS        1.5834         C  7 -- C  9          +8.2% ( 42.4%)     96.5%
 EFFECTIVE MASS     11.9446
 FORCE CONSTANT      3.2092

 VIBRATION         43   43A           ATOM PAIR      ENERGY CONTRIBUTION    RADIAL
 FREQUENCY          1862.33         C  3 -- C  8         +15.4% ( 57.7%)     99.7%
 TRANSITION DIPOLE   0.0818         C  5 -- C  9         +13.9% ( 54.8%)     99.7%
 TRAVEL (Ang.)       0.1569         C  6 -- C 10          +7.9% ( 41.1%)     98.8%
 REDUCED MASS        1.4716         C  4 -- C  7          +7.0% ( 38.8%)     98.8%
 EFFECTIVE MASS     11.7770
 FORCE CONSTANT      3.0071

 VIBRATION         44   44A           ATOM PAIR      ENERGY CONTRIBUTION    RADIAL
 FREQUENCY          1867.20         C  5 -- C  9         +12.8% ( 52.1%)     99.5%
 TRANSITION DIPOLE   0.5003         C  3 -- C  8         +11.5% ( 49.4%)     99.5%
 TRAVEL (Ang.)       0.1615         C  4 -- C  7         +11.2% ( 48.8%)     99.3%
 REDUCED MASS        1.3854         C  6 -- C 10         +10.0% ( 46.2%)     99.3%
 EFFECTIVE MASS     11.7856
 FORCE CONSTANT      2.8458

 VIBRATION         45   45A           ATOM PAIR      ENERGY CONTRIBUTION    RADIAL
 FREQUENCY          2829.00         C  1 -- H 11         +48.5% ( 70.9%)    100.0%
 TRANSITION DIPOLE   0.0541         C  2 -- H 12         +48.3% ( 70.7%)    100.0%
 TRAVEL (Ang.)       0.2265         C  1 -- C  2          +1.1% ( 10.7%)      0.0%
 REDUCED MASS        0.4645         C  1 -- C  3          +0.5% (  7.3%)      7.6%
 EFFECTIVE MASS      1.4522
 FORCE CONSTANT      2.1904

 VIBRATION         46   46A           ATOM PAIR      ENERGY CONTRIBUTION    RADIAL
 FREQUENCY          2838.26         C  2 -- H 12         +48.6% ( 70.6%)    100.0%
 TRANSITION DIPOLE   0.1105         C  1 -- H 11         +48.4% ( 70.5%)    100.0%
 TRAVEL (Ang.)       0.2262         C  1 -- C  2          +0.9% (  9.7%)     56.7%
 REDUCED MASS        0.4645         C  2 -- C  5          +0.5% (  7.2%)      8.5%
 EFFECTIVE MASS      1.4321
 FORCE CONSTANT      2.2048

 VIBRATION         47   47A           ATOM PAIR      ENERGY CONTRIBUTION    RADIAL
 FREQUENCY          3048.53         C  3 -- H 14         +38.1% ( 62.7%)    100.0%
 TRANSITION DIPOLE   0.3590         C  8 -- H 19         +19.4% ( 44.7%)    100.0%
 TRAVEL (Ang.)       0.3201         C  5 -- H 15         +15.2% ( 39.6%)    100.0%
 REDUCED MASS        0.2158         C  9 -- H 18          +7.7% ( 28.2%)    100.0%
 EFFECTIVE MASS      1.4712
 FORCE CONSTANT      1.1817

 VIBRATION         48   48A           ATOM PAIR      ENERGY CONTRIBUTION    RADIAL
 FREQUENCY          3048.62         C  5 -- H 15         +37.8% ( 62.4%)    100.0%
 TRANSITION DIPOLE   0.1425         C  9 -- H 18         +19.6% ( 45.0%)    100.0%
 TRAVEL (Ang.)       0.3203         C  3 -- H 14         +15.5% ( 40.0%)    100.0%
 REDUCED MASS        0.2156         C  8 -- H 19          +8.1% ( 28.9%)    100.0%
 EFFECTIVE MASS      1.4689
 FORCE CONSTANT      1.1806

 VIBRATION         49   49A           ATOM PAIR      ENERGY CONTRIBUTION    RADIAL
 FREQUENCY          3050.71         C  4 -- H 13         +30.9% ( 56.4%)    100.0%
 TRANSITION DIPOLE   0.1226         C  6 -- H 16         +29.4% ( 55.0%)    100.0%
 TRAVEL (Ang.)       0.3251         C  7 -- H 17         +10.7% ( 33.1%)     99.9%
 REDUCED MASS        0.2091         C 10 -- H 20         +10.2% ( 32.5%)     99.9%
 EFFECTIVE MASS      1.4648
 FORCE CONSTANT      1.1467

 VIBRATION         50   50A           ATOM PAIR      ENERGY CONTRIBUTION    RADIAL
 FREQUENCY          3050.84         C  6 -- H 16         +30.8% ( 56.3%)    100.0%
 TRANSITION DIPOLE   0.3516         C  4 -- H 13         +28.9% ( 54.6%)    100.0%
 TRAVEL (Ang.)       0.3274         C 10 -- H 20         +10.6% ( 33.0%)     99.9%
 REDUCED MASS        0.2062         C  7 -- H 17          +9.9% ( 31.9%)     99.9%
 EFFECTIVE MASS      1.4621
 FORCE CONSTANT      1.1308

 VIBRATION         51   51A           ATOM PAIR      ENERGY CONTRIBUTION    RADIAL
 FREQUENCY          3066.38         C  8 -- H 19         +30.1% ( 55.8%)     99.9%
 TRANSITION DIPOLE   0.4752         C 10 -- H 20         +20.6% ( 46.2%)     99.9%
 TRAVEL (Ang.)       0.3439         C  3 -- H 14         +17.0% ( 41.9%)     99.9%
 REDUCED MASS        0.1860         C  6 -- H 16         +12.9% ( 36.5%)     99.9%
 EFFECTIVE MASS      1.5755
 FORCE CONSTANT      1.0302

 VIBRATION         52   52A           ATOM PAIR      ENERGY CONTRIBUTION    RADIAL
 FREQUENCY          3066.44         C  9 -- H 18         +29.8% ( 55.5%)     99.9%
 TRANSITION DIPOLE   0.2221         C  7 -- H 17         +20.7% ( 46.3%)     99.9%
 TRAVEL (Ang.)       0.3449         C  5 -- H 15         +17.2% ( 42.1%)     99.9%
 REDUCED MASS        0.1849         C  4 -- H 13         +13.0% ( 36.6%)     99.9%
 EFFECTIVE MASS      1.5742
 FORCE CONSTANT      1.0244

 VIBRATION         53   53A           ATOM PAIR      ENERGY CONTRIBUTION    RADIAL
 FREQUENCY          3076.70         C 10 -- H 20         +23.3% ( 48.9%)    100.0%
 TRANSITION DIPOLE   0.4673         C  7 -- H 17         +20.7% ( 46.1%)    100.0%
 TRAVEL (Ang.)       0.3725         C  8 -- H 19         +16.5% ( 41.2%)    100.0%
 REDUCED MASS        0.1579         C  9 -- H 18         +14.7% ( 38.9%)    100.0%
 EFFECTIVE MASS      1.6035
 FORCE CONSTANT      0.8807

 VIBRATION         54   54A           ATOM PAIR      ENERGY CONTRIBUTION    RADIAL
 FREQUENCY          3077.06         C  7 -- H 17         +23.2% ( 48.8%)    100.0%
 TRANSITION DIPOLE   0.2248         C 10 -- H 20         +20.6% ( 46.1%)    100.0%
 TRAVEL (Ang.)       0.3729         C  9 -- H 18         +16.6% ( 41.3%)    100.0%
 REDUCED MASS        0.1576         C  8 -- H 19         +14.7% ( 38.9%)    100.0%
 EFFECTIVE MASS      1.6053
 FORCE CONSTANT      0.8793

      SYMMETRY NUMBER FOR POINT-GROUP C1  =  1


          SYSTEM IS A GROUND STATE



 InChI=1S/C10H10/c1-2-6-10-8-4-3-7-9(10)5-1/h1-10H


          MOLECULE IS NOT LINEAR

          THERE ARE 54 GENUINE VIBRATIONS IN THIS SYSTEM
          THIS THERMODYNAMICS CALCULATION IS LIMITED TO
          MOLECULES WHICH HAVE NO INTERNAL ROTATIONS




                    CALCULATED THERMODYNAMIC PROPERTIES
                                          *
   TEMP. (K)   PARTITION FUNCTION   H.O.F.    ENTHALPY  HEAT CAPACITY ENTROPY
                                   KCAL/MOL   CAL/MOLE    CAL/K/MOL  CAL/K/MOL


 298.00  VIB.     0.3109D+02                  3042.8434    25.6879    17.0405
         ROT.     0.4730D+06                   888.2803     2.9808    28.9471
         INT.     0.1470D+08                  3931.1237    28.6687    45.9876
         TRA.     0.1436D+28                  1480.4672     4.9680    40.5022
         TOT.                       60.002    5411.5909    33.6367    86.4897

 200.00  VIB.     0.6678D+01                  1119.9120    13.8301     9.3730
         ROT.     0.2600D+06                   596.1613     2.9808    27.7585
         INT.     0.1737D+07                  1716.0732    16.8109    37.1315
         TRA.     0.7896D+27                   993.6021     4.9680    38.5210
         TOT.                       57.300    2709.6754    21.7789    75.6525

 210.00  VIB.     0.7702D+01                  1263.7407    14.9414    10.0746
         ROT.     0.2798D+06                   625.9693     2.9808    27.9039
         INT.     0.2155D+07                  1889.7100    17.9222    37.9784
         TRA.     0.8496D+27                  1043.2822     4.9680    38.7634
         TOT.                       57.523    2932.9923    22.8902    76.7419

 220.00  VIB.     0.8911D+01                  1418.8491    16.0855    10.7959
         ROT.     0.3000D+06                   655.7774     2.9808    28.0426
         INT.     0.2673D+07                  2074.6265    19.0663    38.8385
         TRA.     0.9110D+27                  1092.9623     4.9680    38.9945
         TOT.                       57.758    3167.5889    24.0343    77.8330

 230.00  VIB.     0.1034D+02                  1585.5472    17.2587    11.5367
         ROT.     0.3207D+06                   685.5855     2.9808    28.1751
         INT.     0.3317D+07                  2271.1327    20.2395    39.7118
         TRA.     0.9738D+27                  1142.6424     4.9680    39.2154
         TOT.                       58.004    3413.7751    25.2075    78.9272

 240.00  VIB.     0.1205D+02                  1764.1058    18.4569    12.2965
         ROT.     0.3418D+06                   715.3935     2.9808    28.3019
         INT.     0.4119D+07                  2479.4993    21.4377    40.5984
         TRA.     0.1038D+28                  1192.3226     4.9680    39.4268
         TOT.                       58.262    3671.8219    26.4057    80.0252

 250.00  VIB.     0.1408D+02                  1954.7546    19.6760    13.0746
         ROT.     0.3634D+06                   745.2016     2.9808    28.4236
         INT.     0.5117D+07                  2699.9562    22.6568    41.4982
         TRA.     0.1103D+28                  1242.0027     4.9680    39.6296
         TOT.                       58.532    3941.9589    27.6248    81.1278

 260.00  VIB.     0.1651D+02                  2157.6812    20.9118    13.8703
         ROT.     0.3854D+06                   775.0097     2.9808    28.5405
         INT.     0.6362D+07                  2932.6909    23.8926    42.4108
         TRA.     0.1170D+28                  1291.6828     4.9680    39.8245
         TOT.                       58.815    4224.3737    28.8606    82.2353

 270.00  VIB.     0.1941D+02                  2373.0312    22.1600    14.6829
         ROT.     0.4079D+06                   804.8177     2.9808    28.6530
         INT.     0.7918D+07                  3177.8489    25.1408    43.3359
         TRA.     0.1239D+28                  1341.3629     4.9680    40.0120
         TOT.                       59.110    4519.2118    30.1088    83.3479

 280.00  VIB.     0.2290D+02                  2600.9090    23.4167    15.5115
         ROT.     0.4308D+06                   834.6258     2.9808    28.7614
         INT.     0.9866D+07                  3435.5348    26.3975    44.2729
         TRA.     0.1308D+28                  1391.0430     4.9680    40.1926
         TOT.                       59.417    4826.5777    31.3655    84.4656

 290.00  VIB.     0.2711D+02                  2841.3797    24.6780    16.3552
         ROT.     0.4540D+06                   864.4339     2.9808    28.8660
         INT.     0.1231D+08                  3705.8136    27.6588    45.2212
         TRA.     0.1379D+28                  1440.7231     4.9680    40.3670
         TOT.                       59.737    5146.5367    32.6268    85.5882

 300.00  VIB.     0.3218D+02                  3094.4717    25.9403    17.2131
         ROT.     0.4777D+06                   894.2419     2.9808    28.9671
         INT.     0.1537D+08                  3988.7136    28.9211    46.1802
         TRA.     0.1451D+28                  1490.4032     4.9680    40.5354
         TOT.                       60.070    5479.1168    33.8891    86.7156

 310.00  VIB.     0.3831D+02                  3360.1786    27.2004    18.0843
         ROT.     0.5018D+06                   924.0500     2.9808    29.0648
         INT.     0.1923D+08                  4284.2286    30.1812    47.1491
         TRA.     0.1524D+28                  1540.0833     4.9680    40.6983
         TOT.                       60.415    5824.3119    35.1493    87.8474

 320.00  VIB.     0.4575D+02                  3638.4630    28.4553    18.9677
         ROT.     0.5263D+06                   953.8580     2.9808    29.1594
         INT.     0.2408D+08                  4592.3210    31.4361    48.1271
         TRA.     0.1598D+28                  1589.7634     4.9680    40.8560
         TOT.                       60.772    6182.0844    36.4041    88.9831

 330.00  VIB.     0.5478D+02                  3929.2588    29.7023    19.8624
         ROT.     0.5511D+06                   983.6661     2.9808    29.2512
         INT.     0.3019D+08                  4912.9249    32.6831    49.1136
         TRA.     0.1674D+28                  1639.4435     4.9680    41.0089
         TOT.                       61.143    6552.3684    37.6511    90.1225

 340.00  VIB.     0.6578D+02                  4232.4748    30.9390    20.7675
         ROT.     0.5764D+06                  1013.4742     2.9808    29.3402
         INT.     0.3791D+08                  5245.9490    33.9198    50.1076
         TRA.     0.1750D+28                  1689.1236     4.9680    41.1572
         TOT.                       61.525    6935.0726    38.8878    91.2649

 350.00  VIB.     0.7919D+02                  4547.9974    32.1633    21.6820
         ROT.     0.6020D+06                  1043.2822     2.9808    29.4266
         INT.     0.4767D+08                  5591.2797    35.1441    51.1086
         TRA.     0.1828D+28                  1738.8037     4.9680    41.3012
         TOT.                       61.920    7330.0834    40.1121    92.4098

 360.00  VIB.     0.9558D+02                  4875.6938    33.3735    22.6051
         ROT.     0.6280D+06                  1073.0903     2.9808    29.5105
         INT.     0.6002D+08                  5948.7841    36.3543    52.1156
         TRA.     0.1907D+28                  1788.4838     4.9680    41.4412
         TOT.                       62.328    7737.2679    41.3223    93.5568

 370.00  VIB.     0.1156D+03                  5215.4143    34.5679    23.5358
         ROT.     0.6543D+06                  1102.8984     2.9808    29.5922
         INT.     0.7566D+08                  6318.3126    37.5487    53.1280
         TRA.     0.1987D+28                  1838.1639     4.9680    41.5773
         TOT.                       62.747    8156.4766    42.5167    94.7053

 380.00  VIB.     0.1402D+03                  5566.9953    35.7454    24.4734
         ROT.     0.6810D+06                  1132.7064     2.9808    29.6717
         INT.     0.9551D+08                  6699.7017    38.7262    54.1451
         TRA.     0.2068D+28                  1887.8440     4.9680    41.7098
         TOT.                       63.178    8587.5458    43.6942    95.8548

 390.00  VIB.     0.1704D+03                  5930.2617    36.9048    25.4169
         ROT.     0.7081D+06                  1162.5145     2.9808    29.7491
         INT.     0.1207D+09                  7092.7762    39.8856    55.1660
         TRA.     0.2150D+28                  1937.5242     4.9680    41.8388
         TOT.                       63.621    9030.3003    44.8536    97.0049

 400.00  VIB.     0.2076D+03                  6305.0288    38.0454    26.3657
         ROT.     0.7355D+06                  1192.3226     2.9808    29.8246
         INT.     0.1527D+09                  7497.3513    41.0262    56.1903
         TRA.     0.2233D+28                  1987.2043     4.9680    41.9646
         TOT.                       64.075    9484.5556    45.9942    98.1549

   *: NOTE: HEATS OF FORMATION ARE RELATIVE TO THE
            ELEMENTS IN THEIR STANDARD STATE AT 298K
              (=  Standard Enthalpy of Formation).

            Hvib:  Zero-point energy is not included.
                   frequencies of less than zero cm-1 are not included.
            Hrot = (3/2)RT
            Htra = (3/2)RT + pV = (5/2)RT

            Heat capacity is Cp, not Cv

          For more information, see: HTTP://OpenMOPAC.net/Manual/thermochemistry.html


           FORCE CONSTANT IN CARTESIAN COORDINATES (Millidynes/A)

    ATOM   CHEMICAL       X               Y               Z
   NUMBER   SYMBOL  FORCE CONSTANT  FORCE CONSTANT  FORCE CONSTANT

      1       C        8.270762        9.206040        8.063712
      2       C        8.270820        9.236774        8.035290
      3       C       10.717936       12.861173        3.444506
      4       C       10.475922        9.179306        7.295420
      5       C       10.715400        9.332315        6.981321
      6       C       10.473955       12.887694        3.582892
      7       C       10.822635        9.145965        7.726028
      8       C       10.945428       13.443684        3.319549
      9       C       10.943954        9.656877        7.114284
     10       C       10.822979       13.284251        3.581291
     11       H        0.999537        1.376679        3.335767
     12       H        0.999565        0.597642        4.115284
     13       H        4.696184        0.772611        0.798017
     14       H        4.791299        0.787901        0.669122
     15       H        4.790807        0.782875        0.674695
     16       H        4.694437        0.783516        0.789014
     17       H        1.542128        1.861793        2.857640
     18       H        1.499790        3.495438        1.265613
     19       H        1.499484        4.371039        0.389096
     20       H        1.542357        3.628395        1.091891

 **********************
 *                    *
 * JOB ENDED NORMALLY *
 *                    *
 **********************



 TOTAL JOB TIME:             2.22 SECONDS

 == MOPAC DONE ==
