 *******************************************************************************
 **                                                                           **
 **                              MOPAC v23.1.2                                **
 **                                                                           **
 *******************************************************************************
 **          Digital Object Identifier (DOI): 10.5281/zenodo.6511958          **
 **    Visit the DOI location for information on how to cite this program.    **
 *******************************************************************************

                              PM3 CALCULATION RESULTS

 *******************************************************************************
 *  CALCULATION DONE: (MAX THREADS = 1)              Tue Jun  3 16:38:37 2025  *
 *  PM3        - The PM3 Hamiltonian to be used
 *  PRECISE    - TIGHTER CRITERIA TO BE USED
 *  NOSYM      - POINT-GROUP SYMMETRY SET TO C1
 *  THREADS=1  - MULTI-THREADING NOT USED
 *  T=         - A TIME OF 172800.0 SECONDS REQUESTED
 *  DUMP=N     - RESTART FILE WRITTEN EVERY 7200.0 SECONDS REQUESTED
 *******************************************************************************
pm3  precise nosym THREADS=1
 InChI=1S/C12H22/c1-4-6-7-10(3)12-9-8-11(12)5-2/h6-7,10-12H,4-5,8-9H2,1-3H3

   ATOM   CHEMICAL          X               Y               Z
  NUMBER   SYMBOL      (ANGSTROMS)     (ANGSTROMS)     (ANGSTROMS)

     1       C         -1.00380000  *  -0.64090000  *  -0.79490000  *
     2       C         -1.91560000  *  -0.21690000  *   0.37100000  *
     3       C          0.13610000  *  -1.60720000  *  -0.38060000  *
     4       C         -3.08800000  *  -0.94610000  *  -0.28510000  *
     5       C         -2.19430000  *  -1.35090000  *  -1.44860000  *
     6       C         -2.15720000  *   1.30100000  *   0.47730000  *
     7       C          2.79250000  *   0.75550000  *   1.20480000  *
     8       C          0.87310000  *  -2.16210000  *  -1.60870000  *
     9       C         -0.94130000  *   2.03580000  *   1.03290000  *
    10       C          3.49420000  *   1.96730000  *   0.60070000  *
    11       C          1.10850000  *  -0.94020000  *   0.56760000  *
    12       C          1.86010000  *   0.11420000  *   0.21480000  *
    13       H         -1.64610000  *  -0.67560000  *   1.34940000  *
    14       H         -0.64540000  *   0.21300000  *  -1.41320000  *
    15       H         -0.30670000  *  -2.47400000  *   0.16030000  *
    16       H         -2.41970000  *   1.72920000  *  -0.51540000  *
    17       H         -3.01540000  *   1.47450000  *   1.16210000  *
    18       H         -3.42410000  *  -1.82280000  *   0.31090000  *
    19       H         -3.92320000  *  -0.28410000  *  -0.60500000  *
    20       H         -2.50050000  *  -0.86690000  *  -2.40170000  *
    21       H         -2.09280000  *  -2.45550000  *  -1.52750000  *
    22       H          3.55600000  *   0.01450000  *   1.52580000  *
    23       H          2.21510000  *   1.08130000  *   2.09730000  *
    24       H         -0.11830000  *   2.03190000  *   0.29010000  *
    25       H         -1.21090000  *   3.09220000  *   1.24270000  *
    26       H         -0.59520000  *   1.56320000  *   1.97670000  *
    27       H          4.09590000  *   1.66350000  *  -0.28250000  *
    28       H          4.17250000  *   2.41850000  *   1.35510000  *
    29       H          2.74720000  *   2.73010000  *   0.29260000  *
    30       H          1.71590000  *  -2.81110000  *  -1.28770000  *
    31       H          1.27290000  *  -1.34010000  *  -2.23950000  *
    32       H          0.18730000  *  -2.77660000  *  -2.22830000  *
    33       H          1.77910000  *   0.52380000  *  -0.78870000  *
    34       H          1.19200000  *  -1.33850000  *   1.57560000  *



          CARTESIAN COORDINATES 

    NO.       ATOM           X           Y           Z

     1         C         -1.0038     -0.6409     -0.7949
     2         C         -1.9156     -0.2169      0.3710
     3         C          0.1361     -1.6072     -0.3806
     4         C         -3.0880     -0.9461     -0.2851
     5         C         -2.1943     -1.3509     -1.4486
     6         C         -2.1572      1.3010      0.4773
     7         C          2.7925      0.7555      1.2048
     8         C          0.8731     -2.1621     -1.6087
     9         C         -0.9413      2.0358      1.0329
    10         C          3.4942      1.9673      0.6007
    11         C          1.1085     -0.9402      0.5676
    12         C          1.8601      0.1142      0.2148
    13         H         -1.6461     -0.6756      1.3494
    14         H         -0.6454      0.2130     -1.4132
    15         H         -0.3067     -2.4740      0.1603
    16         H         -2.4197      1.7292     -0.5154
    17         H         -3.0154      1.4745      1.1621
    18         H         -3.4241     -1.8228      0.3109
    19         H         -3.9232     -0.2841     -0.6050
    20         H         -2.5005     -0.8669     -2.4017
    21         H         -2.0928     -2.4555     -1.5275
    22         H          3.5560      0.0145      1.5258
    23         H          2.2151      1.0813      2.0973
    24         H         -0.1183      2.0319      0.2901
    25         H         -1.2109      3.0922      1.2427
    26         H         -0.5952      1.5632      1.9767
    27         H          4.0959      1.6635     -0.2825
    28         H          4.1725      2.4185      1.3551
    29         H          2.7472      2.7301      0.2926
    30         H          1.7159     -2.8111     -1.2877
    31         H          1.2729     -1.3401     -2.2395
    32         H          0.1873     -2.7766     -2.2283
    33         H          1.7791      0.5238     -0.7887
    34         H          1.1920     -1.3385      1.5756

  H: (PM3): J. J. P. STEWART, J. COMP. CHEM. 10, 209 (1989).
  C: (PM3): J. J. P. STEWART, J. COMP. CHEM. 10, 209 (1989).

           Empirical Formula: C12 H22  =    34 atoms



      MOLECULAR POINT GROUP   :   C1  


      RHF CALCULATION, NO. OF DOUBLY OCCUPIED LEVELS = 35


          Geometry optimization using L-BFGS
 CYCLE:     1 TIME:   0.012 TIME LEFT:  2.00D  GRAD.:    86.538 HEAT: -15.32708
 CYCLE:     2 TIME:   0.008 TIME LEFT:  2.00D  GRAD.:    85.151 HEAT: -15.40136
 CYCLE:     3 TIME:   0.012 TIME LEFT:  2.00D  GRAD.:    34.471 HEAT: -18.48096
 CYCLE:     4 TIME:   0.008 TIME LEFT:  2.00D  GRAD.:    85.153 HEAT: -15.40142
 CYCLE:     5 TIME:   0.012 TIME LEFT:  2.00D  GRAD.:    34.473 HEAT: -18.48096
 CYCLE:     6 TIME:   0.012 TIME LEFT:  2.00D  GRAD.:    34.408 HEAT: -19.04741
 CYCLE:     7 TIME:   0.008 TIME LEFT:  2.00D  GRAD.:    24.745 HEAT: -19.69456
 CYCLE:     8 TIME:   0.008 TIME LEFT:  2.00D  GRAD.:    21.159 HEAT: -20.26754
 CYCLE:     9 TIME:   0.012 TIME LEFT:  2.00D  GRAD.:    28.208 HEAT: -20.41782
 CYCLE:    10 TIME:   0.012 TIME LEFT:  2.00D  GRAD.:     6.390 HEAT: -20.61882
 CYCLE:    11 TIME:   0.008 TIME LEFT:  2.00D  GRAD.:     3.686 HEAT: -20.63617
 CYCLE:    12 TIME:   0.012 TIME LEFT:  2.00D  GRAD.:     3.114 HEAT: -20.65179
 CYCLE:    13 TIME:   0.008 TIME LEFT:  2.00D  GRAD.:     2.809 HEAT: -20.66516
 CYCLE:    14 TIME:   0.012 TIME LEFT:  2.00D  GRAD.:     5.391 HEAT: -20.67093
 CYCLE:    15 TIME:   0.012 TIME LEFT:  2.00D  GRAD.:     1.875 HEAT: -20.68007
 CYCLE:    16 TIME:   0.008 TIME LEFT:  2.00D  GRAD.:     1.744 HEAT: -20.68344
 CYCLE:    17 TIME:   0.012 TIME LEFT:  2.00D  GRAD.:     2.600 HEAT: -20.69259
 CYCLE:    18 TIME:   0.012 TIME LEFT:  2.00D  GRAD.:     5.335 HEAT: -20.69913
 CYCLE:    19 TIME:   0.012 TIME LEFT:  2.00D  GRAD.:     2.750 HEAT: -20.70910
 CYCLE:    20 TIME:   0.012 TIME LEFT:  2.00D  GRAD.:     2.300 HEAT: -20.71819
 CYCLE:    21 TIME:   0.008 TIME LEFT:  2.00D  GRAD.:     3.717 HEAT: -20.72713
 CYCLE:    22 TIME:   0.012 TIME LEFT:  2.00D  GRAD.:     3.945 HEAT: -20.73829
 CYCLE:    23 TIME:   0.012 TIME LEFT:  2.00D  GRAD.:     4.288 HEAT: -20.75177
 CYCLE:    24 TIME:   0.012 TIME LEFT:  2.00D  GRAD.:     4.392 HEAT: -20.76674
 CYCLE:    25 TIME:   0.008 TIME LEFT:  2.00D  GRAD.:     4.624 HEAT: -20.78146
 CYCLE:    26 TIME:   0.012 TIME LEFT:  2.00D  GRAD.:     4.097 HEAT: -20.79709
 CYCLE:    27 TIME:   0.012 TIME LEFT:  2.00D  GRAD.:     8.439 HEAT: -20.80059
 CYCLE:    28 TIME:   0.012 TIME LEFT:  2.00D  GRAD.:    25.505 HEAT: -20.67588
 CYCLE:    29 TIME:   0.008 TIME LEFT:  2.00D  GRAD.:     5.292 HEAT: -20.83041
 CYCLE:    30 TIME:   0.012 TIME LEFT:  2.00D  GRAD.:     4.870 HEAT: -20.82927
 CYCLE:    31 TIME:   0.012 TIME LEFT:  2.00D  GRAD.:     1.805 HEAT: -20.84160
 CYCLE:    32 TIME:   0.012 TIME LEFT:  2.00D  GRAD.:     5.191 HEAT: -20.84050
 CYCLE:    33 TIME:   0.008 TIME LEFT:  2.00D  GRAD.:     2.123 HEAT: -20.86094
 CYCLE:    34 TIME:   0.012 TIME LEFT:  2.00D  GRAD.:     3.635 HEAT: -20.86789
 CYCLE:    35 TIME:   0.012 TIME LEFT:  2.00D  GRAD.:     4.686 HEAT: -20.87202
 CYCLE:    36 TIME:   0.008 TIME LEFT:  2.00D  GRAD.:     3.425 HEAT: -20.88368
 CYCLE:    37 TIME:   0.012 TIME LEFT:  2.00D  GRAD.:     2.392 HEAT: -20.88808
 CYCLE:    38 TIME:   0.008 TIME LEFT:  2.00D  GRAD.:     1.340 HEAT: -20.89088
 CYCLE:    39 TIME:   0.012 TIME LEFT:  2.00D  GRAD.:     1.327 HEAT: -20.89334
 CYCLE:    40 TIME:   0.012 TIME LEFT:  2.00D  GRAD.:     3.403 HEAT: -20.89738
 CYCLE:    41 TIME:   0.008 TIME LEFT:  2.00D  GRAD.:     1.809 HEAT: -20.90184
 CYCLE:    42 TIME:   0.012 TIME LEFT:  2.00D  GRAD.:     1.440 HEAT: -20.90498
 CYCLE:    43 TIME:   0.012 TIME LEFT:  2.00D  GRAD.:     1.824 HEAT: -20.90835
 CYCLE:    44 TIME:   0.008 TIME LEFT:  2.00D  GRAD.:     3.221 HEAT: -20.91331
 CYCLE:    45 TIME:   0.012 TIME LEFT:  2.00D  GRAD.:     1.898 HEAT: -20.91805
 CYCLE:    46 TIME:   0.012 TIME LEFT:  2.00D  GRAD.:     1.348 HEAT: -20.92102
 CYCLE:    47 TIME:   0.012 TIME LEFT:  2.00D  GRAD.:     1.851 HEAT: -20.92459
 CYCLE:    48 TIME:   0.008 TIME LEFT:  2.00D  GRAD.:     2.102 HEAT: -20.92761
 CYCLE:    49 TIME:   0.012 TIME LEFT:  2.00D  GRAD.:     1.683 HEAT: -20.93152
 CYCLE:    50 TIME:   0.012 TIME LEFT:  2.00D  GRAD.:     2.443 HEAT: -20.93592
 CYCLE:    51 TIME:   0.012 TIME LEFT:  2.00D  GRAD.:     3.516 HEAT: -20.93798
 CYCLE:    52 TIME:   0.008 TIME LEFT:  2.00D  GRAD.:     1.511 HEAT: -20.94113
 CYCLE:    53 TIME:   0.012 TIME LEFT:  2.00D  GRAD.:     1.472 HEAT: -20.94320
 CYCLE:    54 TIME:   0.012 TIME LEFT:  2.00D  GRAD.:     1.837 HEAT: -20.94643
 CYCLE:    55 TIME:   0.012 TIME LEFT:  2.00D  GRAD.:     2.150 HEAT: -20.95140
 CYCLE:    56 TIME:   0.008 TIME LEFT:  2.00D  GRAD.:     3.598 HEAT: -20.95535
 CYCLE:    57 TIME:   0.012 TIME LEFT:  2.00D  GRAD.:     2.027 HEAT: -20.96172
 CYCLE:    58 TIME:   0.012 TIME LEFT:  2.00D  GRAD.:     1.266 HEAT: -20.96472
 CYCLE:    59 TIME:   0.008 TIME LEFT:  2.00D  GRAD.:     1.312 HEAT: -20.96724
 CYCLE:    60 TIME:   0.012 TIME LEFT:  2.00D  GRAD.:     2.499 HEAT: -20.96843
 CYCLE:    61 TIME:   0.012 TIME LEFT:  2.00D  GRAD.:     1.279 HEAT: -20.97055
 CYCLE:    62 TIME:   0.012 TIME LEFT:  2.00D  GRAD.:     1.083 HEAT: -20.97254
 CYCLE:    63 TIME:   0.008 TIME LEFT:  2.00D  GRAD.:     1.425 HEAT: -20.97444
 CYCLE:    64 TIME:   0.012 TIME LEFT:  2.00D  GRAD.:     2.568 HEAT: -20.97742
 CYCLE:    65 TIME:   0.012 TIME LEFT:  2.00D  GRAD.:     1.784 HEAT: -20.98078
 CYCLE:    66 TIME:   0.012 TIME LEFT:  2.00D  GRAD.:     1.634 HEAT: -20.98384
 CYCLE:    67 TIME:   0.008 TIME LEFT:  2.00D  GRAD.:     2.698 HEAT: -20.98799
 CYCLE:    68 TIME:   0.012 TIME LEFT:  2.00D  GRAD.:     2.059 HEAT: -20.99221
 CYCLE:    69 TIME:   0.012 TIME LEFT:  2.00D  GRAD.:     1.493 HEAT: -20.99564
 CYCLE:    70 TIME:   0.008 TIME LEFT:  2.00D  GRAD.:     1.499 HEAT: -20.99982
 CYCLE:    71 TIME:   0.012 TIME LEFT:  2.00D  GRAD.:     2.157 HEAT: -21.00143
 CYCLE:    72 TIME:   0.012 TIME LEFT:  2.00D  GRAD.:     1.434 HEAT: -21.00330
 CYCLE:    73 TIME:   0.012 TIME LEFT:  2.00D  GRAD.:     1.136 HEAT: -21.00615
 CYCLE:    74 TIME:   0.008 TIME LEFT:  2.00D  GRAD.:     1.407 HEAT: -21.00821
 CYCLE:    75 TIME:   0.012 TIME LEFT:  2.00D  GRAD.:     3.041 HEAT: -21.01071
 CYCLE:    76 TIME:   0.012 TIME LEFT:  2.00D  GRAD.:     1.289 HEAT: -21.01400
 CYCLE:    77 TIME:   0.012 TIME LEFT:  2.00D  GRAD.:     0.984 HEAT: -21.01543
 CYCLE:    78 TIME:   0.008 TIME LEFT:  2.00D  GRAD.:     1.245 HEAT: -21.01708
 CYCLE:    79 TIME:   0.012 TIME LEFT:  2.00D  GRAD.:     3.311 HEAT: -21.01729
 CYCLE:    80 TIME:   0.012 TIME LEFT:  2.00D  GRAD.:     1.239 HEAT: -21.01925
 CYCLE:    81 TIME:   0.012 TIME LEFT:  2.00D  GRAD.:     0.876 HEAT: -21.02031
 CYCLE:    82 TIME:   0.008 TIME LEFT:  2.00D  GRAD.:     1.190 HEAT: -21.02145
 CYCLE:    83 TIME:   0.012 TIME LEFT:  2.00D  GRAD.:     1.409 HEAT: -21.02318
 CYCLE:    84 TIME:   0.012 TIME LEFT:  2.00D  GRAD.:     6.059 HEAT: -21.01954
 CYCLE:    85 TIME:   0.008 TIME LEFT:  2.00D  GRAD.:     1.200 HEAT: -21.02651
 CYCLE:    86 TIME:   0.012 TIME LEFT:  2.00D  GRAD.:     0.902 HEAT: -21.02727
 CYCLE:    87 TIME:   0.012 TIME LEFT:  2.00D  GRAD.:     1.140 HEAT: -21.02932
 CYCLE:    88 TIME:   0.008 TIME LEFT:  2.00D  GRAD.:     1.426 HEAT: -21.03175
 CYCLE:    89 TIME:   0.012 TIME LEFT:  2.00D  GRAD.:     2.497 HEAT: -21.03386
 CYCLE:    90 TIME:   0.012 TIME LEFT:  2.00D  GRAD.:     1.274 HEAT: -21.03742
 CYCLE:    91 TIME:   0.012 TIME LEFT:  2.00D  GRAD.:     1.083 HEAT: -21.03939
 CYCLE:    92 TIME:   0.008 TIME LEFT:  2.00D  GRAD.:     1.944 HEAT: -21.04278
 CYCLE:    93 TIME:   0.012 TIME LEFT:  2.00D  GRAD.:     2.388 HEAT: -21.04503
 CYCLE:    94 TIME:   0.012 TIME LEFT:  2.00D  GRAD.:     1.752 HEAT: -21.04755
 CYCLE:    95 TIME:   0.012 TIME LEFT:  2.00D  GRAD.:     1.793 HEAT: -21.05233
 CYCLE:    96 TIME:   0.012 TIME LEFT:  2.00D  GRAD.:     2.240 HEAT: -21.05536
 CYCLE:    97 TIME:   0.012 TIME LEFT:  2.00D  GRAD.:     2.353 HEAT: -21.06063
 CYCLE:    98 TIME:   0.008 TIME LEFT:  2.00D  GRAD.:     4.234 HEAT: -21.06650
 CYCLE:    99 TIME:   0.012 TIME LEFT:  2.00D  GRAD.:     3.386 HEAT: -21.07422
 CYCLE:   100 TIME:   0.012 TIME LEFT:  2.00D  GRAD.:     3.018 HEAT: -21.08078
 CYCLE:   101 TIME:   0.008 TIME LEFT:  2.00D  GRAD.:     2.523 HEAT: -21.08635
 CYCLE:   102 TIME:   0.012 TIME LEFT:  2.00D  GRAD.:     6.261 HEAT: -21.09101
 CYCLE:   103 TIME:   0.012 TIME LEFT:  2.00D  GRAD.:     3.579 HEAT: -21.10459
 CYCLE:   104 TIME:   0.012 TIME LEFT:  2.00D  GRAD.:     4.055 HEAT: -21.10983
 CYCLE:   105 TIME:   0.012 TIME LEFT:  2.00D  GRAD.:     4.307 HEAT: -21.11778
 CYCLE:   106 TIME:   0.008 TIME LEFT:  2.00D  GRAD.:     4.723 HEAT: -21.12055
 CYCLE:   107 TIME:   0.012 TIME LEFT:  2.00D  GRAD.:     7.870 HEAT: -21.11551
 CYCLE:   108 TIME:   0.012 TIME LEFT:  2.00D  GRAD.:     2.704 HEAT: -21.12928
 CYCLE:   109 TIME:   0.012 TIME LEFT:  2.00D  GRAD.:     4.217 HEAT: -21.12964
 CYCLE:   110 TIME:   0.008 TIME LEFT:  2.00D  GRAD.:     2.004 HEAT: -21.13767
 CYCLE:   111 TIME:   0.012 TIME LEFT:  2.00D  GRAD.:     2.387 HEAT: -21.14191
 CYCLE:   112 TIME:   0.012 TIME LEFT:  2.00D  GRAD.:     2.962 HEAT: -21.15012
 CYCLE:   113 TIME:   0.008 TIME LEFT:  2.00D  GRAD.:     6.239 HEAT: -21.16196
 CYCLE:   114 TIME:   0.012 TIME LEFT:  2.00D  GRAD.:     2.862 HEAT: -21.17569
 CYCLE:   115 TIME:   0.012 TIME LEFT:  2.00D  GRAD.:     3.299 HEAT: -21.18480
 CYCLE:   116 TIME:   0.012 TIME LEFT:  2.00D  GRAD.:     5.001 HEAT: -21.19657
 CYCLE:   117 TIME:   0.012 TIME LEFT:  2.00D  GRAD.:    11.557 HEAT: -21.16120
 CYCLE:   118 TIME:   0.012 TIME LEFT:  2.00D  GRAD.:     4.576 HEAT: -21.22356
 CYCLE:   119 TIME:   0.008 TIME LEFT:  2.00D  GRAD.:     3.344 HEAT: -21.23139
 CYCLE:   120 TIME:   0.012 TIME LEFT:  2.00D  GRAD.:     2.403 HEAT: -21.23844
 CYCLE:   121 TIME:   0.012 TIME LEFT:  2.00D  GRAD.:     4.598 HEAT: -21.25207
 CYCLE:   122 TIME:   0.008 TIME LEFT:  2.00D  GRAD.:     4.232 HEAT: -21.26041
 CYCLE:   123 TIME:   0.012 TIME LEFT:  2.00D  GRAD.:     3.290 HEAT: -21.27326
 CYCLE:   124 TIME:   0.012 TIME LEFT:  2.00D  GRAD.:     3.671 HEAT: -21.28698
 CYCLE:   125 TIME:   0.012 TIME LEFT:  2.00D  GRAD.:     3.354 HEAT: -21.29475
 CYCLE:   126 TIME:   0.008 TIME LEFT:  2.00D  GRAD.:     3.213 HEAT: -21.30734
 CYCLE:   127 TIME:   0.012 TIME LEFT:  2.00D  GRAD.:     3.767 HEAT: -21.32047
 CYCLE:   128 TIME:   0.012 TIME LEFT:  2.00D  GRAD.:     3.827 HEAT: -21.33281
 CYCLE:   129 TIME:   0.012 TIME LEFT:  2.00D  GRAD.:     2.996 HEAT: -21.34293
 CYCLE:   130 TIME:   0.008 TIME LEFT:  2.00D  GRAD.:     2.353 HEAT: -21.35094
 CYCLE:   131 TIME:   0.012 TIME LEFT:  2.00D  GRAD.:     3.322 HEAT: -21.35631
 CYCLE:   132 TIME:   0.012 TIME LEFT:  2.00D  GRAD.:     2.775 HEAT: -21.36478
 CYCLE:   133 TIME:   0.008 TIME LEFT:  2.00D  GRAD.:     2.068 HEAT: -21.37172
 CYCLE:   134 TIME:   0.012 TIME LEFT:  2.00D  GRAD.:     2.296 HEAT: -21.37949
 CYCLE:   135 TIME:   0.012 TIME LEFT:  2.00D  GRAD.:     6.228 HEAT: -21.38376
 CYCLE:   136 TIME:   0.012 TIME LEFT:  2.00D  GRAD.:     2.064 HEAT: -21.39589
 CYCLE:   137 TIME:   0.008 TIME LEFT:  2.00D  GRAD.:     1.817 HEAT: -21.40048
 CYCLE:   138 TIME:   0.012 TIME LEFT:  2.00D  GRAD.:     2.230 HEAT: -21.40747
 CYCLE:   139 TIME:   0.012 TIME LEFT:  2.00D  GRAD.:     4.126 HEAT: -21.41465
 CYCLE:   140 TIME:   0.012 TIME LEFT:  2.00D  GRAD.:     2.788 HEAT: -21.42063
 CYCLE:   141 TIME:   0.008 TIME LEFT:  2.00D  GRAD.:     1.661 HEAT: -21.42337
 CYCLE:   142 TIME:   0.012 TIME LEFT:  2.00D  GRAD.:     1.610 HEAT: -21.42508
 CYCLE:   143 TIME:   0.012 TIME LEFT:  2.00D  GRAD.:     1.930 HEAT: -21.42850
 CYCLE:   144 TIME:   0.008 TIME LEFT:  2.00D  GRAD.:     2.471 HEAT: -21.43214
 CYCLE:   145 TIME:   0.012 TIME LEFT:  2.00D  GRAD.:     1.291 HEAT: -21.43510
 CYCLE:   146 TIME:   0.008 TIME LEFT:  2.00D  GRAD.:     1.355 HEAT: -21.43714
 CYCLE:   147 TIME:   0.012 TIME LEFT:  2.00D  GRAD.:     1.605 HEAT: -21.44023
 CYCLE:   148 TIME:   0.012 TIME LEFT:  2.00D  GRAD.:     3.263 HEAT: -21.44283
 CYCLE:   149 TIME:   0.012 TIME LEFT:  2.00D  GRAD.:     1.303 HEAT: -21.44656
 CYCLE:   150 TIME:   0.008 TIME LEFT:  2.00D  GRAD.:     0.975 HEAT: -21.44836
 CYCLE:   151 TIME:   0.012 TIME LEFT:  2.00D  GRAD.:     1.140 HEAT: -21.44999
 CYCLE:   152 TIME:   0.012 TIME LEFT:  2.00D  GRAD.:     1.965 HEAT: -21.45072
 CYCLE:   153 TIME:   0.012 TIME LEFT:  2.00D  GRAD.:     0.804 HEAT: -21.45186
 CYCLE:   154 TIME:   0.012 TIME LEFT:  2.00D  GRAD.:     0.730 HEAT: -21.45254
 CYCLE:   155 TIME:   0.008 TIME LEFT:  2.00D  GRAD.:     1.117 HEAT: -21.45347
 CYCLE:   156 TIME:   0.012 TIME LEFT:  2.00D  GRAD.:     2.518 HEAT: -21.45470
 CYCLE:   157 TIME:   0.008 TIME LEFT:  2.00D  GRAD.:     1.523 HEAT: -21.45652
 CYCLE:   158 TIME:   0.012 TIME LEFT:  2.00D  GRAD.:     1.356 HEAT: -21.45830
 CYCLE:   159 TIME:   0.012 TIME LEFT:  2.00D  GRAD.:     1.471 HEAT: -21.46034
 CYCLE:   160 TIME:   0.012 TIME LEFT:  2.00D  GRAD.:     1.630 HEAT: -21.46333
 CYCLE:   161 TIME:   0.008 TIME LEFT:  2.00D  GRAD.:     1.805 HEAT: -21.46590
 CYCLE:   162 TIME:   0.012 TIME LEFT:  2.00D  GRAD.:     1.471 HEAT: -21.46885
 CYCLE:   163 TIME:   0.012 TIME LEFT:  2.00D  GRAD.:     2.078 HEAT: -21.47127
 CYCLE:   164 TIME:   0.012 TIME LEFT:  2.00D  GRAD.:     1.729 HEAT: -21.47419
 CYCLE:   165 TIME:   0.008 TIME LEFT:  2.00D  GRAD.:     2.026 HEAT: -21.47759
 CYCLE:   166 TIME:   0.012 TIME LEFT:  2.00D  GRAD.:     2.302 HEAT: -21.47805
 CYCLE:   167 TIME:   0.012 TIME LEFT:  2.00D  GRAD.:     0.793 HEAT: -21.47947
 CYCLE:   168 TIME:   0.012 TIME LEFT:  2.00D  GRAD.:     0.707 HEAT: -21.47974
 CYCLE:   169 TIME:   0.008 TIME LEFT:  2.00D  GRAD.:     0.847 HEAT: -21.48049
 CYCLE:   170 TIME:   0.012 TIME LEFT:  2.00D  GRAD.:     1.229 HEAT: -21.48190
 CYCLE:   171 TIME:   0.012 TIME LEFT:  2.00D  GRAD.:     1.585 HEAT: -21.48285
 CYCLE:   172 TIME:   0.008 TIME LEFT:  2.00D  GRAD.:     1.019 HEAT: -21.48377
 CYCLE:   173 TIME:   0.012 TIME LEFT:  2.00D  GRAD.:     0.901 HEAT: -21.48476
 CYCLE:   174 TIME:   0.012 TIME LEFT:  2.00D  GRAD.:     1.137 HEAT: -21.48564
 CYCLE:   175 TIME:   0.012 TIME LEFT:  2.00D  GRAD.:     1.115 HEAT: -21.48662
 CYCLE:   176 TIME:   0.008 TIME LEFT:  2.00D  GRAD.:     0.892 HEAT: -21.48776
 CYCLE:   177 TIME:   0.012 TIME LEFT:  2.00D  GRAD.:     1.334 HEAT: -21.48916
 CYCLE:   178 TIME:   0.012 TIME LEFT:  2.00D  GRAD.:     1.031 HEAT: -21.49023
 CYCLE:   179 TIME:   0.008 TIME LEFT:  2.00D  GRAD.:     0.847 HEAT: -21.49111
 CYCLE:   180 TIME:   0.012 TIME LEFT:  2.00D  GRAD.:     0.961 HEAT: -21.49289
 CYCLE:   181 TIME:   0.012 TIME LEFT:  2.00D  GRAD.:     1.879 HEAT: -21.49422
 CYCLE:   182 TIME:   0.008 TIME LEFT:  2.00D  GRAD.:     1.273 HEAT: -21.49601
 CYCLE:   183 TIME:   0.012 TIME LEFT:  2.00D  GRAD.:     1.013 HEAT: -21.49787
 CYCLE:   184 TIME:   0.012 TIME LEFT:  2.00D  GRAD.:     1.618 HEAT: -21.50037
 CYCLE:   185 TIME:   0.012 TIME LEFT:  2.00D  GRAD.:     1.867 HEAT: -21.50304
 CYCLE:   186 TIME:   0.012 TIME LEFT:  2.00D  GRAD.:     1.790 HEAT: -21.50628
 CYCLE:   187 TIME:   0.008 TIME LEFT:  2.00D  GRAD.:     2.462 HEAT: -21.50944
 CYCLE:   188 TIME:   0.012 TIME LEFT:  2.00D  GRAD.:     3.081 HEAT: -21.51260
 CYCLE:   189 TIME:   0.012 TIME LEFT:  2.00D  GRAD.:     3.636 HEAT: -21.51707
 CYCLE:   190 TIME:   0.012 TIME LEFT:  2.00D  GRAD.:     4.654 HEAT: -21.52062
 CYCLE:   191 TIME:   0.008 TIME LEFT:  2.00D  GRAD.:    14.752 HEAT: -21.48846
 CYCLE:   192 TIME:   0.012 TIME LEFT:  2.00D  GRAD.:    21.590 HEAT: -21.42024
 CYCLE:   193 TIME:   0.012 TIME LEFT:  2.00D  GRAD.:    22.036 HEAT: -21.42394
 CYCLE:   194 TIME:   0.012 TIME LEFT:  2.00D  GRAD.:    96.667 HEAT: -17.90901
 CYCLE:   195 TIME:   0.012 TIME LEFT:  2.00D  GRAD.:    33.344 HEAT: -21.16623
 CYCLE:   196 TIME:   0.012 TIME LEFT:  2.00D  GRAD.:    11.790 HEAT: -21.51066
 CYCLE:   197 TIME:   0.008 TIME LEFT:  2.00D  GRAD.:    11.136 HEAT: -21.51406
 CYCLE:   198 TIME:   0.012 TIME LEFT:  2.00D  GRAD.:     6.141 HEAT: -21.53181
 CYCLE:   199 TIME:   0.012 TIME LEFT:  2.00D  GRAD.:    63.479 HEAT: -20.39232
 CYCLE:   200 TIME:   0.012 TIME LEFT:  2.00D  GRAD.:    38.730 HEAT: -21.25323
 CYCLE:   201 TIME:   0.012 TIME LEFT:  2.00D  GRAD.:    53.177 HEAT: -20.61768
 CYCLE:   202 TIME:   0.012 TIME LEFT:  2.00D  GRAD.:    29.034 HEAT: -21.24183
 CYCLE:   203 TIME:   0.012 TIME LEFT:  2.00D  GRAD.:    16.921 HEAT: -21.41427
 CYCLE:   204 TIME:   0.008 TIME LEFT:  2.00D  GRAD.:    13.070 HEAT: -21.54153
 CYCLE:   205 TIME:   0.016 TIME LEFT:  2.00D  GRAD.:    10.945 HEAT: -21.48775
 CYCLE:   206 TIME:   0.012 TIME LEFT:  2.00D  GRAD.:     4.081 HEAT: -21.57098
 CYCLE:   207 TIME:   0.012 TIME LEFT:  2.00D  GRAD.:     9.529 HEAT: -21.52571
 CYCLE:   208 TIME:   0.012 TIME LEFT:  2.00D  GRAD.:     7.247 HEAT: -21.57169
 CYCLE:   209 TIME:   0.012 TIME LEFT:  2.00D  GRAD.:    14.804 HEAT: -21.53476
 CYCLE:   210 TIME:   0.008 TIME LEFT:  2.00D  GRAD.:     1.660 HEAT: -21.59302
 CYCLE:   211 TIME:   0.012 TIME LEFT:  2.00D  GRAD.:     1.722 HEAT: -21.59687
 CYCLE:   212 TIME:   0.016 TIME LEFT:  2.00D  GRAD.:     4.591 HEAT: -21.60449
 CYCLE:   213 TIME:   0.012 TIME LEFT:  2.00D  GRAD.:     4.108 HEAT: -21.61237
 CYCLE:   214 TIME:   0.008 TIME LEFT:  2.00D  GRAD.:     2.922 HEAT: -21.62497
 CYCLE:   215 TIME:   0.012 TIME LEFT:  2.00D  GRAD.:     4.920 HEAT: -21.64368
 CYCLE:   216 TIME:   0.008 TIME LEFT:  2.00D  GRAD.:     3.929 HEAT: -21.65904
 CYCLE:   217 TIME:   0.012 TIME LEFT:  2.00D  GRAD.:     4.165 HEAT: -21.68003
 CYCLE:   218 TIME:   0.008 TIME LEFT:  2.00D  GRAD.:     7.862 HEAT: -21.71405
 CYCLE:   219 TIME:   0.012 TIME LEFT:  2.00D  GRAD.:    18.530 HEAT: -21.71115
 CYCLE:   220 TIME:   0.012 TIME LEFT:  2.00D  GRAD.:     7.404 HEAT: -21.81291
 CYCLE:   221 TIME:   0.008 TIME LEFT:  2.00D  GRAD.:     6.669 HEAT: -21.87244
 CYCLE:   222 TIME:   0.008 TIME LEFT:  2.00D  GRAD.:     8.260 HEAT: -21.95931
 CYCLE:   223 TIME:   0.012 TIME LEFT:  2.00D  GRAD.:    12.141 HEAT: -22.05563
 CYCLE:   224 TIME:   0.012 TIME LEFT:  2.00D  GRAD.:     8.447 HEAT: -22.12084
 CYCLE:   225 TIME:   0.012 TIME LEFT:  2.00D  GRAD.:     7.476 HEAT: -22.16296
 CYCLE:   226 TIME:   0.008 TIME LEFT:  2.00D  GRAD.:     6.673 HEAT: -22.23110
 CYCLE:   227 TIME:   0.012 TIME LEFT:  2.00D  GRAD.:     6.082 HEAT: -22.31590
 CYCLE:   228 TIME:   0.008 TIME LEFT:  2.00D  GRAD.:    13.114 HEAT: -22.34612
 CYCLE:   229 TIME:   0.012 TIME LEFT:  2.00D  GRAD.:     6.541 HEAT: -22.38524
 CYCLE:   230 TIME:   0.008 TIME LEFT:  2.00D  GRAD.:     5.071 HEAT: -22.40647
 CYCLE:   231 TIME:   0.008 TIME LEFT:  2.00D  GRAD.:     4.357 HEAT: -22.43615
 CYCLE:   232 TIME:   0.008 TIME LEFT:  2.00D  GRAD.:     5.293 HEAT: -22.45200
 CYCLE:   233 TIME:   0.012 TIME LEFT:  2.00D  GRAD.:     2.878 HEAT: -22.46535
 CYCLE:   234 TIME:   0.008 TIME LEFT:  2.00D  GRAD.:     2.565 HEAT: -22.47417
 CYCLE:   235 TIME:   0.012 TIME LEFT:  2.00D  GRAD.:     3.004 HEAT: -22.48540
 CYCLE:   236 TIME:   0.008 TIME LEFT:  2.00D  GRAD.:     5.223 HEAT: -22.48786
 CYCLE:   237 TIME:   0.012 TIME LEFT:  2.00D  GRAD.:     2.025 HEAT: -22.49539
 CYCLE:   238 TIME:   0.008 TIME LEFT:  2.00D  GRAD.:     1.536 HEAT: -22.49927
 CYCLE:   239 TIME:   0.008 TIME LEFT:  2.00D  GRAD.:     2.138 HEAT: -22.50438
 CYCLE:   240 TIME:   0.008 TIME LEFT:  2.00D  GRAD.:     2.519 HEAT: -22.51095
 CYCLE:   241 TIME:   0.012 TIME LEFT:  2.00D  GRAD.:     4.594 HEAT: -22.51471
 CYCLE:   242 TIME:   0.008 TIME LEFT:  2.00D  GRAD.:     1.757 HEAT: -22.52246
 CYCLE:   243 TIME:   0.008 TIME LEFT:  2.00D  GRAD.:     1.770 HEAT: -22.52610
 CYCLE:   244 TIME:   0.012 TIME LEFT:  2.00D  GRAD.:     3.385 HEAT: -22.52984
 CYCLE:   245 TIME:   0.008 TIME LEFT:  2.00D  GRAD.:     2.322 HEAT: -22.53346
 CYCLE:   246 TIME:   0.008 TIME LEFT:  2.00D  GRAD.:     1.926 HEAT: -22.53621
 CYCLE:   247 TIME:   0.012 TIME LEFT:  2.00D  GRAD.:     2.097 HEAT: -22.54218
 CYCLE:   248 TIME:   0.008 TIME LEFT:  2.00D  GRAD.:     2.246 HEAT: -22.54613
 CYCLE:   249 TIME:   0.012 TIME LEFT:  2.00D  GRAD.:     2.414 HEAT: -22.55011
 CYCLE:   250 TIME:   0.008 TIME LEFT:  2.00D  GRAD.:     1.165 HEAT: -22.55303
 CYCLE:   251 TIME:   0.008 TIME LEFT:  2.00D  GRAD.:     1.250 HEAT: -22.55444
 CYCLE:   252 TIME:   0.012 TIME LEFT:  2.00D  GRAD.:     1.316 HEAT: -22.55665
 CYCLE:   253 TIME:   0.008 TIME LEFT:  2.00D  GRAD.:     3.649 HEAT: -22.55699
 CYCLE:   254 TIME:   0.012 TIME LEFT:  2.00D  GRAD.:     1.159 HEAT: -22.56056
 CYCLE:   255 TIME:   0.008 TIME LEFT:  2.00D  GRAD.:     0.793 HEAT: -22.56163
 CYCLE:   256 TIME:   0.012 TIME LEFT:  2.00D  GRAD.:     0.931 HEAT: -22.56291
 CYCLE:   257 TIME:   0.008 TIME LEFT:  2.00D  GRAD.:     1.134 HEAT: -22.56454
 CYCLE:   258 TIME:   0.008 TIME LEFT:  2.00D  GRAD.:     2.425 HEAT: -22.56513
 CYCLE:   259 TIME:   0.012 TIME LEFT:  2.00D  GRAD.:     1.057 HEAT: -22.56708
 CYCLE:   260 TIME:   0.008 TIME LEFT:  2.00D  GRAD.:     0.878 HEAT: -22.56776
 CYCLE:   261 TIME:   0.012 TIME LEFT:  2.00D  GRAD.:     0.937 HEAT: -22.56856
 CYCLE:   262 TIME:   0.008 TIME LEFT:  2.00D  GRAD.:     1.650 HEAT: -22.57014
 CYCLE:   263 TIME:   0.008 TIME LEFT:  2.00D  GRAD.:     0.997 HEAT: -22.57167
 CYCLE:   264 TIME:   0.012 TIME LEFT:  2.00D  GRAD.:     0.836 HEAT: -22.57279
 CYCLE:   265 TIME:   0.008 TIME LEFT:  2.00D  GRAD.:     0.928 HEAT: -22.57388
 CYCLE:   266 TIME:   0.012 TIME LEFT:  2.00D  GRAD.:     1.824 HEAT: -22.57506
 CYCLE:   267 TIME:   0.012 TIME LEFT:  2.00D  GRAD.:     1.080 HEAT: -22.57672
 CYCLE:   268 TIME:   0.012 TIME LEFT:  2.00D  GRAD.:     0.889 HEAT: -22.57839
 CYCLE:   269 TIME:   0.008 TIME LEFT:  2.00D  GRAD.:     1.188 HEAT: -22.57976
 CYCLE:   270 TIME:   0.012 TIME LEFT:  2.00D  GRAD.:     1.544 HEAT: -22.58122
 CYCLE:   271 TIME:   0.012 TIME LEFT:  2.00D  GRAD.:     0.986 HEAT: -22.58285
 CYCLE:   272 TIME:   0.012 TIME LEFT:  2.00D  GRAD.:     1.047 HEAT: -22.58499
 CYCLE:   273 TIME:   0.012 TIME LEFT:  2.00D  GRAD.:     1.368 HEAT: -22.58649
 CYCLE:   274 TIME:   0.008 TIME LEFT:  2.00D  GRAD.:     1.203 HEAT: -22.58828
 CYCLE:   275 TIME:   0.012 TIME LEFT:  2.00D  GRAD.:     1.723 HEAT: -22.58942
 CYCLE:   276 TIME:   0.012 TIME LEFT:  2.00D  GRAD.:     1.074 HEAT: -22.59063
 CYCLE:   277 TIME:   0.012 TIME LEFT:  2.00D  GRAD.:     0.978 HEAT: -22.59170
 CYCLE:   278 TIME:   0.008 TIME LEFT:  2.00D  GRAD.:     1.430 HEAT: -22.59281
 CYCLE:   279 TIME:   0.012 TIME LEFT:  2.00D  GRAD.:     0.919 HEAT: -22.59387
 CYCLE:   280 TIME:   0.012 TIME LEFT:  2.00D  GRAD.:     0.812 HEAT: -22.59487
 CYCLE:   281 TIME:   0.012 TIME LEFT:  2.00D  GRAD.:     1.024 HEAT: -22.59599
 CYCLE:   282 TIME:   0.012 TIME LEFT:  2.00D  GRAD.:     1.146 HEAT: -22.59708
 CYCLE:   283 TIME:   0.012 TIME LEFT:  2.00D  GRAD.:     0.770 HEAT: -22.59781
 CYCLE:   284 TIME:   0.012 TIME LEFT:  2.00D  GRAD.:     0.468 HEAT: -22.59822
 CYCLE:   285 TIME:   0.012 TIME LEFT:  2.00D  GRAD.:     0.438 HEAT: -22.59844
 CYCLE:   286 TIME:   0.008 TIME LEFT:  2.00D  GRAD.:     0.574 HEAT: -22.59890
 CYCLE:   287 TIME:   0.012 TIME LEFT:  2.00D  GRAD.:     1.041 HEAT: -22.59922
 CYCLE:   288 TIME:   0.012 TIME LEFT:  2.00D  GRAD.:     0.454 HEAT: -22.59960
 CYCLE:   289 TIME:   0.012 TIME LEFT:  2.00D  GRAD.:     0.362 HEAT: -22.59982
 CYCLE:   290 TIME:   0.012 TIME LEFT:  2.00D  GRAD.:     0.553 HEAT: -22.60001
 CYCLE:   291 TIME:   0.012 TIME LEFT:  2.00D  GRAD.:     0.653 HEAT: -22.60025
 CYCLE:   292 TIME:   0.008 TIME LEFT:  2.00D  GRAD.:     0.575 HEAT: -22.60051
 CYCLE:   293 TIME:   0.012 TIME LEFT:  2.00D  GRAD.:     0.457 HEAT: -22.60073
 CYCLE:   294 TIME:   0.012 TIME LEFT:  2.00D  GRAD.:     0.481 HEAT: -22.60107
 CYCLE:   295 TIME:   0.012 TIME LEFT:  2.00D  GRAD.:     0.784 HEAT: -22.60148
 CYCLE:   296 TIME:   0.008 TIME LEFT:  2.00D  GRAD.:     0.508 HEAT: -22.60186
 CYCLE:   297 TIME:   0.012 TIME LEFT:  2.00D  GRAD.:     0.452 HEAT: -22.60220
 CYCLE:   298 TIME:   0.012 TIME LEFT:  2.00D  GRAD.:     0.610 HEAT: -22.60253
 CYCLE:   299 TIME:   0.012 TIME LEFT:  2.00D  GRAD.:     0.705 HEAT: -22.60305
 CYCLE:   300 TIME:   0.008 TIME LEFT:  2.00D  GRAD.:     0.708 HEAT: -22.60369
 CYCLE:   301 TIME:   0.012 TIME LEFT:  2.00D  GRAD.:     1.058 HEAT: -22.60403
 CYCLE:   302 TIME:   0.012 TIME LEFT:  2.00D  GRAD.:     0.430 HEAT: -22.60445
 CYCLE:   303 TIME:   0.012 TIME LEFT:  2.00D  GRAD.:     0.383 HEAT: -22.60464
 CYCLE:   304 TIME:   0.008 TIME LEFT:  2.00D  GRAD.:     0.467 HEAT: -22.60495
 CYCLE:   305 TIME:   0.012 TIME LEFT:  2.00D  GRAD.:     1.070 HEAT: -22.60516
 CYCLE:   306 TIME:   0.012 TIME LEFT:  2.00D  GRAD.:     0.486 HEAT: -22.60547
 CYCLE:   307 TIME:   0.012 TIME LEFT:  2.00D  GRAD.:     0.326 HEAT: -22.60560
 CYCLE:   308 TIME:   0.008 TIME LEFT:  2.00D  GRAD.:     0.368 HEAT: -22.60571
 CYCLE:   309 TIME:   0.012 TIME LEFT:  2.00D  GRAD.:     0.379 HEAT: -22.60588
 CYCLE:   310 TIME:   0.012 TIME LEFT:  2.00D  GRAD.:     0.561 HEAT: -22.60611
 CYCLE:   311 TIME:   0.012 TIME LEFT:  2.00D  GRAD.:     0.420 HEAT: -22.60633
 CYCLE:   312 TIME:   0.008 TIME LEFT:  2.00D  GRAD.:     0.323 HEAT: -22.60649
 CYCLE:   313 TIME:   0.012 TIME LEFT:  2.00D  GRAD.:     0.378 HEAT: -22.60674
 CYCLE:   314 TIME:   0.012 TIME LEFT:  2.00D  GRAD.:     0.892 HEAT: -22.60679
 CYCLE:   315 TIME:   0.012 TIME LEFT:  2.00D  GRAD.:     0.372 HEAT: -22.60697
 CYCLE:   316 TIME:   0.008 TIME LEFT:  2.00D  GRAD.:     0.233 HEAT: -22.60707
 CYCLE:   317 TIME:   0.012 TIME LEFT:  2.00D  GRAD.:     0.280 HEAT: -22.60715
 CYCLE:   318 TIME:   0.012 TIME LEFT:  2.00D  GRAD.:     0.326 HEAT: -22.60731
 CYCLE:   319 TIME:   0.008 TIME LEFT:  2.00D  GRAD.:     0.739 HEAT: -22.60735
 CYCLE:   320 TIME:   0.012 TIME LEFT:  2.00D  GRAD.:     0.496 HEAT: -22.60750
 CYCLE:   321 TIME:   0.012 TIME LEFT:  2.00D  GRAD.:     0.228 HEAT: -22.60761
 CYCLE:   322 TIME:   0.012 TIME LEFT:  2.00D  GRAD.:     0.234 HEAT: -22.60768
 CYCLE:   323 TIME:   0.012 TIME LEFT:  2.00D  GRAD.:     0.534 HEAT: -22.60773
 CYCLE:   324 TIME:   0.008 TIME LEFT:  2.00D  GRAD.:     0.298 HEAT: -22.60781
 CYCLE:   325 TIME:   0.012 TIME LEFT:  2.00D  GRAD.:     0.194 HEAT: -22.60789

 -------------------------------------------------------------------------------
 pm3  precise nosym THREADS=1
 InChI=1S/C12H22/c1-4-6-7-10(3)12-9-8-11(12)5-2/h6-7,10-12H,4-5,8-9H2,1-3H3



     HERBERTS TEST WAS SATISFIED IN BFGS                      
     SCF FIELD WAS ACHIEVED                                   


                              PM3 CALCULATION
                                                       MOPAC v23.1.2 MacOS
                                                       Tue Jun  3 16:38:41 2025




          FINAL HEAT OF FORMATION =        -22.60789 KCAL/MOL =     -94.59141 KJ/MOL


          COSMO AREA              =        228.31 SQUARE ANGSTROMS
          COSMO VOLUME            =        255.53 CUBIC ANGSTROMS

          GRADIENT NORM           =          0.19434          =       0.03333 PER ATOM
          IONIZATION POTENTIAL    =          9.817100 EV
          HOMO LUMO ENERGIES (EV) =         -9.817  1.105
          NO. OF FILLED LEVELS    =         35
          MOLECULAR WEIGHT        =        166.3058         POINT GROUP:  C1  

          MOLECULAR DIMENSIONS (Angstroms)

            Atom       Atom       Distance
            H    28    H    18     8.31305
            H    30    H    25     6.95082
            H    23    H    20     4.06266


          SCF CALCULATIONS        =        326

          WALL-CLOCK TIME         =      3.449 SECONDS
          COMPUTATION TIME        =      2.470 SECONDS




   ATOM   CHEMICAL          X               Y               Z
  NUMBER   SYMBOL      (ANGSTROMS)     (ANGSTROMS)     (ANGSTROMS)

     1       C         -0.95426364  *  -0.66153742  *  -0.78998211  *
     2       C         -1.89463236  *  -0.11573442  *   0.32741335  *
     3       C          0.15457847  *  -1.60151491  *  -0.32050330  *
     4       C         -3.10106591  *  -0.78459615  *  -0.37432880  *
     5       C         -2.16833370  *  -1.35616116  *  -1.45518809  *
     6       C         -1.99385184  *   1.39264920  *   0.43130734  *
     7       C          3.09221468  *   0.58815088  *   0.95623848  *
     8       C          0.85983562  *  -2.23351822  *  -1.51166913  *
     9       C         -0.86122453  *   1.99260979  *   1.23314038  *
    10       C          2.84906886  *   2.05757557  *   0.67833748  *
    11       C          1.10114971  *  -0.83562632  *   0.55367379  *
    12       C          2.20512786  *  -0.24264330  *   0.09824787  *
    13       H         -1.67523793  *  -0.55188855  *   1.32607106  *
    14       H         -0.51391554  *   0.14466631  *  -1.41582028  *
    15       H         -0.30083460  *  -2.41796267  *   0.29310983  *
    16       H         -2.02302359  *   1.84516864  *  -0.58025438  *
    17       H         -2.96360499  *   1.65270886  *   0.90155877  *
    18       H         -3.62403093  *  -1.53838642  *   0.23261333  *
    19       H         -3.86295416  *  -0.08206851  *  -0.74643837  *
    20       H         -2.38243146  *  -1.01811550  *  -2.47988456  *
    21       H         -2.11515133  *  -2.45607221  *  -1.48124741  *
    22       H          4.14981622  *   0.32429778  *   0.76077218  *
    23       H          2.92254947  *   0.37193518  *   2.03012565  *
    24       H          0.12515264  *   1.78943999  *   0.77818923  *
    25       H         -0.96480774  *   3.08228701  *   1.31200126  *
    26       H         -0.83021724  *   1.59046755  *   2.25490197  *
    27       H          3.10929864  *   2.32313939  *  -0.35429686  *
    28       H          3.44320373  *   2.69560881  *   1.34362592  *
    29       H          1.78521666  *   2.31516116  *   0.82406906  *
    30       H          1.49779864  *  -3.06924640  *  -1.19769655  *
    31       H          1.50929940  *  -1.50260605  *  -2.02225539  *
    32       H          0.14227290  *  -2.61941780  *  -2.24693782  *
    33       H          2.47696628  *  -0.33353265  *  -0.96607622  *
    34       H          0.80593169  *  -0.74523748  *   1.60748233  *

                             CARTESIAN COORDINATES

   1    C       -0.954263641    -0.661537419    -0.789982109
   2    C       -1.894632355    -0.115734420     0.327413348
   3    C        0.154578472    -1.601514905    -0.320503301
   4    C       -3.101065905    -0.784596151    -0.374328798
   5    C       -2.168333704    -1.356161160    -1.455188090
   6    C       -1.993851839     1.392649203     0.431307337
   7    C        3.092214683     0.588150881     0.956238479
   8    C        0.859835623    -2.233518220    -1.511669128
   9    C       -0.861224525     1.992609786     1.233140376
  10    C        2.849068857     2.057575569     0.678337477
  11    C        1.101149710    -0.835626315     0.553673789
  12    C        2.205127856    -0.242643298     0.098247870
  13    H       -1.675237933    -0.551888549     1.326071058
  14    H       -0.513915539     0.144666308    -1.415820278
  15    H       -0.300834601    -2.417962673     0.293109834
  16    H       -2.023023587     1.845168638    -0.580254383
  17    H       -2.963604992     1.652708862     0.901558773
  18    H       -3.624030931    -1.538386420     0.232613327
  19    H       -3.862954164    -0.082068511    -0.746438372
  20    H       -2.382431458    -1.018115497    -2.479884559
  21    H       -2.115151325    -2.456072205    -1.481247408
  22    H        4.149816223     0.324297783     0.760772176
  23    H        2.922549475     0.371935180     2.030125654
  24    H        0.125152636     1.789439990     0.778189234
  25    H       -0.964807741     3.082287009     1.312001259
  26    H       -0.830217236     1.590467554     2.254901969
  27    H        3.109298642     2.323139394    -0.354296863
  28    H        3.443203732     2.695608807     1.343625917
  29    H        1.785216661     2.315161165     0.824069062
  30    H        1.497798639    -3.069246404    -1.197696548
  31    H        1.509299396    -1.502606050    -2.022255395
  32    H        0.142272901    -2.619417803    -2.246937817
  33    H        2.476966284    -0.333532645    -0.966076224
  34    H        0.805931686    -0.745237480     1.607482333


           Empirical Formula: C12 H22  =    34 atoms



      MOLECULAR POINT GROUP   :   C1  


                  EIGENVALUES  
 -42.27774 -37.38752 -34.79224 -32.34326 -28.06621 -25.55371 -25.07219 -23.39001
 -21.45982 -20.86567 -19.17238 -18.30267 -16.76934 -16.75224 -16.01628 -15.70396
 -15.28293 -14.73481 -14.30102 -14.03931 -13.85953 -13.82915 -13.58946 -13.26885
 -12.82710 -12.67268 -12.36454 -12.21358 -12.04893 -11.73882 -11.61850 -11.28551
 -11.27829 -10.99480  -9.81710   1.10546   3.24192   3.24855   3.38954   3.58544
   3.64840   3.71493   3.76391   3.84127   3.87482   3.95617   4.02315   4.05442
   4.10063   4.15204   4.24411   4.28208   4.34756   4.36617   4.43082   4.45020
   4.53173   4.63047   4.72138   4.80476   4.84109   4.90319   4.92329   4.99128
   5.02223   5.07833   5.50170   5.66215   5.78798   5.99617


              NET ATOMIC CHARGES AND DIPOLE CONTRIBUTIONS

  ATOM NO.   TYPE          CHARGE      No. of ELECS.   s-Pop       p-Pop       
    1          C          -0.089451        4.0895     1.19755     2.89190
    2          C          -0.093201        4.0932     1.19436     2.89884
    3          C          -0.030572        4.0306     1.16325     2.86732
    4          C          -0.110883        4.1109     1.17391     2.93697
    5          C          -0.110619        4.1106     1.17378     2.93684
    6          C          -0.085038        4.0850     1.15669     2.92835
    7          C          -0.057160        4.0572     1.14491     2.91225
    8          C          -0.120519        4.1205     1.14325     2.97727
    9          C          -0.130193        4.1302     1.14379     2.98640
   10          C          -0.119735        4.1197     1.14160     2.97814
   11          C          -0.145170        4.1452     1.19943     2.94574
   12          C          -0.159639        4.1596     1.19884     2.96080
   13          H           0.076058        0.9239     0.92394
   14          H           0.078628        0.9214     0.92137
   15          H           0.066126        0.9339     0.93387
   16          H           0.051148        0.9489     0.94885
   17          H           0.048449        0.9516     0.95155
   18          H           0.054709        0.9453     0.94529
   19          H           0.058306        0.9417     0.94169
   20          H           0.055142        0.9449     0.94486
   21          H           0.059810        0.9402     0.94019
   22          H           0.050890        0.9491     0.94911
   23          H           0.049876        0.9501     0.95012
   24          H           0.057203        0.9428     0.94280
   25          H           0.037161        0.9628     0.96284
   26          H           0.038175        0.9618     0.96183
   27          H           0.039030        0.9610     0.96097
   28          H           0.038258        0.9617     0.96174
   29          H           0.050443        0.9496     0.94956
   30          H           0.041629        0.9584     0.95837
   31          H           0.045508        0.9545     0.95449
   32          H           0.045203        0.9548     0.95480
   33          H           0.108410        0.8916     0.89159
   34          H           0.102019        0.8980     0.89798
 DIPOLE           X         Y         Z       TOTAL
 POINT-CHG.     0.005     0.076    -0.065     0.100
 HYBRID        -0.027     0.034    -0.012     0.045
 SUM           -0.022     0.110    -0.077     0.136


          ATOMIC ORBITAL ELECTRON POPULATIONS

     Atom    s        px        py        pz   
    1  C   1.19755   0.93669   0.98171   0.97350
    2  C   1.19436   0.96086   0.95580   0.98217
    3  C   1.16325   0.94711   0.96316   0.95704
    4  C   1.17391   0.95718   1.00029   0.97950
    5  C   1.17378   0.96231   0.99899   0.97554
    6  C   1.15669   0.98151   0.94513   1.00172
    7  C   1.14491   0.98293   0.94589   0.98343
    8  C   1.14325   1.00029   1.00057   0.97640
    9  C   1.14379   0.99219   0.99773   0.99648
   10  C   1.14160   1.01629   0.95274   1.00911
   11  C   1.19943   0.96140   0.99287   0.99147
   12  C   1.19884   0.97540   0.98631   0.99909
   13  H   0.92394
   14  H   0.92137
   15  H   0.93387
   16  H   0.94885
   17  H   0.95155
   18  H   0.94529
   19  H   0.94169
   20  H   0.94486
   21  H   0.94019
   22  H   0.94911
   23  H   0.95012
   24  H   0.94280
   25  H   0.96284
   26  H   0.96183
   27  H   0.96097
   28  H   0.96174
   29  H   0.94956
   30  H   0.95837
   31  H   0.95449
   32  H   0.95480
   33  H   0.89159
   34  H   0.89798
 *******************************************************************************
 **                                                                           **
 **                              MOPAC v23.1.2                                **
 **                                                                           **
 *******************************************************************************
 **          Digital Object Identifier (DOI): 10.5281/zenodo.6511958          **
 **    Visit the DOI location for information on how to cite this program.    **
 *******************************************************************************

                              PM3 CALCULATION RESULTS

 *******************************************************************************
 *  CALCULATION DONE: (MAX THREADS = 1)              Tue Jun  3 16:38:41 2025  *
 *  PM3        - The PM3 Hamiltonian to be used
 *  OLDGEO     - PREVIOUS GEOMETRY TO BE USED
 *  PRECISE    - TIGHTER CRITERIA TO BE USED
 *  NOSYM      - POINT-GROUP SYMMETRY SET TO C1
 *  THREADS=1  - MULTI-THREADING NOT USED
 *  T=         - A TIME OF 172800.0 SECONDS REQUESTED
 *  DUMP=N     - RESTART FILE WRITTEN EVERY 7200.0 SECONDS REQUESTED
 *  THERMO     - THERMODYNAMIC QUANTITIES TO BE CALCULATED
 *******************************************************************************
oldgeo thermo nosym precise THREADS=1  pm3
 InChI=1S/C12H22/c1-4-6-7-10(3)12-9-8-11(12)5-2/h6-7,10-12H,4-5,8-9H2,1-3H3

   ATOM   CHEMICAL          X               Y               Z
  NUMBER   SYMBOL      (ANGSTROMS)     (ANGSTROMS)     (ANGSTROMS)

     1       C         -0.95426364  *  -0.66153742  *  -0.78998211  *
     2       C         -1.89463236  *  -0.11573442  *   0.32741335  *
     3       C          0.15457847  *  -1.60151491  *  -0.32050330  *
     4       C         -3.10106591  *  -0.78459615  *  -0.37432880  *
     5       C         -2.16833370  *  -1.35616116  *  -1.45518809  *
     6       C         -1.99385184  *   1.39264920  *   0.43130734  *
     7       C          3.09221468  *   0.58815088  *   0.95623848  *
     8       C          0.85983562  *  -2.23351822  *  -1.51166913  *
     9       C         -0.86122453  *   1.99260979  *   1.23314038  *
    10       C          2.84906886  *   2.05757557  *   0.67833748  *
    11       C          1.10114971  *  -0.83562632  *   0.55367379  *
    12       C          2.20512786  *  -0.24264330  *   0.09824787  *
    13       H         -1.67523793  *  -0.55188855  *   1.32607106  *
    14       H         -0.51391554  *   0.14466631  *  -1.41582028  *
    15       H         -0.30083460  *  -2.41796267  *   0.29310983  *
    16       H         -2.02302359  *   1.84516864  *  -0.58025438  *
    17       H         -2.96360499  *   1.65270886  *   0.90155877  *
    18       H         -3.62403093  *  -1.53838642  *   0.23261333  *
    19       H         -3.86295416  *  -0.08206851  *  -0.74643837  *
    20       H         -2.38243146  *  -1.01811550  *  -2.47988456  *
    21       H         -2.11515133  *  -2.45607221  *  -1.48124741  *
    22       H          4.14981622  *   0.32429778  *   0.76077218  *
    23       H          2.92254947  *   0.37193518  *   2.03012565  *
    24       H          0.12515264  *   1.78943999  *   0.77818923  *
    25       H         -0.96480774  *   3.08228701  *   1.31200126  *
    26       H         -0.83021724  *   1.59046755  *   2.25490197  *
    27       H          3.10929864  *   2.32313939  *  -0.35429686  *
    28       H          3.44320373  *   2.69560881  *   1.34362592  *
    29       H          1.78521666  *   2.31516116  *   0.82406906  *
    30       H          1.49779864  *  -3.06924640  *  -1.19769655  *
    31       H          1.50929940  *  -1.50260605  *  -2.02225539  *
    32       H          0.14227290  *  -2.61941780  *  -2.24693782  *
    33       H          2.47696628  *  -0.33353265  *  -0.96607622  *
    34       H          0.80593169  *  -0.74523748  *   1.60748233  *



          CARTESIAN COORDINATES 

    NO.       ATOM           X           Y           Z

     1         C         -0.9543     -0.6615     -0.7900
     2         C         -1.8946     -0.1157      0.3274
     3         C          0.1546     -1.6015     -0.3205
     4         C         -3.1011     -0.7846     -0.3743
     5         C         -2.1683     -1.3562     -1.4552
     6         C         -1.9939      1.3926      0.4313
     7         C          3.0922      0.5882      0.9562
     8         C          0.8598     -2.2335     -1.5117
     9         C         -0.8612      1.9926      1.2331
    10         C          2.8491      2.0576      0.6783
    11         C          1.1011     -0.8356      0.5537
    12         C          2.2051     -0.2426      0.0982
    13         H         -1.6752     -0.5519      1.3261
    14         H         -0.5139      0.1447     -1.4158
    15         H         -0.3008     -2.4180      0.2931
    16         H         -2.0230      1.8452     -0.5803
    17         H         -2.9636      1.6527      0.9016
    18         H         -3.6240     -1.5384      0.2326
    19         H         -3.8630     -0.0821     -0.7464
    20         H         -2.3824     -1.0181     -2.4799
    21         H         -2.1152     -2.4561     -1.4812
    22         H          4.1498      0.3243      0.7608
    23         H          2.9225      0.3719      2.0301
    24         H          0.1252      1.7894      0.7782
    25         H         -0.9648      3.0823      1.3120
    26         H         -0.8302      1.5905      2.2549
    27         H          3.1093      2.3231     -0.3543
    28         H          3.4432      2.6956      1.3436
    29         H          1.7852      2.3152      0.8241
    30         H          1.4978     -3.0692     -1.1977
    31         H          1.5093     -1.5026     -2.0223
    32         H          0.1423     -2.6194     -2.2469
    33         H          2.4770     -0.3335     -0.9661
    34         H          0.8059     -0.7452      1.6075

  H: (PM3): J. J. P. STEWART, J. COMP. CHEM. 10, 209 (1989).
  C: (PM3): J. J. P. STEWART, J. COMP. CHEM. 10, 209 (1989).

           Empirical Formula: C12 H22  =    34 atoms



      MOLECULAR POINT GROUP   :   C1  


      RHF CALCULATION, NO. OF DOUBLY OCCUPIED LEVELS = 35



          HEAT OF FORMATION =     -22.607889 KCALS/MOLE


          CARTESIAN COORDINATE DERIVATIVES

   NUMBER  ATOM         X            Y            Z

     1       C      0.001170     0.009389    -0.012347
     2       C     -0.007652    -0.006805    -0.002456
     3       C     -0.018629    -0.000708     0.014421
     4       C     -0.006850     0.013936     0.003604
     5       C      0.013945    -0.003702     0.019278
     6       C      0.021480    -0.006127    -0.020396
     7       C     -0.006413    -0.005048    -0.008021
     8       C     -0.026880     0.011010     0.004516
     9       C     -0.021913    -0.015503    -0.029143
    10       C      0.025695    -0.012892     0.010512
    11       C     -0.042372    -0.025971     0.050398
    12       C      0.034903     0.044891    -0.024021
    13       H      0.006225    -0.005003    -0.019672
    14       H      0.025710    -0.009895    -0.002453
    15       H     -0.009994    -0.009152     0.015306
    16       H      0.006416     0.002143     0.040677
    17       H      0.042023     0.024592    -0.004609
    18       H     -0.000496    -0.001497    -0.023880
    19       H     -0.000344     0.023027    -0.013287
    20       H     -0.025078    -0.003779    -0.007435
    21       H      0.002695    -0.024080     0.016314
    22       H      0.019137     0.017901    -0.018431
    23       H     -0.008134     0.010721     0.009170
    24       H     -0.005225    -0.031412     0.011758
    25       H     -0.026512     0.004189     0.001978
    26       H     -0.015779    -0.012730     0.029952
    27       H     -0.012196     0.014018    -0.006348
    28       H     -0.031716    -0.023727     0.015387
    29       H      0.050190     0.011621     0.002936
    30       H      0.012639     0.026334    -0.011407
    31       H     -0.017254    -0.006362     0.005807
    32       H      0.038165    -0.004525     0.004406
    33       H     -0.022029    -0.004981    -0.017134
    34       H      0.005076     0.000127    -0.035382



          GRADIENT NORM =   0.19442

          MOLECULAR WEIGHT =  166.31



          ROTATIONAL CONSTANTS IN CM(-1)

          A =    0.03900044   B =    0.02123046   C =    0.01494129



           PRINCIPAL MOMENTS OF INERTIA IN UNITS OF 10**(-40)*GRAM-CM**2

          A =      717.7547   B =     1318.5186   C =     1873.5169


          ORIENTATION OF MOLECULE IN FORCE CALCULATION

    NO.       ATOM         X         Y         Z

     1          C      -0.2007   -0.7221   -1.0778
     2          C       1.3584   -0.7221   -1.0778
     3          C      -0.8621    0.6549   -1.0778
     4          C       1.3490   -1.4808   -2.4267
     5          C      -0.1883   -1.4464   -2.4468
     6          C       2.0208   -1.4781    0.0560
     7          C      -0.9523    1.9177    2.5898
     8          C      -2.3624    0.5275   -1.2979
     9          C       2.1223   -0.6534    1.3191
    10          C      -0.4904    0.8459    3.5560
    11          C      -0.5384    1.3479    0.2113
    12          C      -1.3230    1.2999    1.2882
    13          H       1.7891    0.2997   -1.1560
    14          H      -0.6326   -1.3387   -0.2600
    15          H      -0.4334    1.2606   -1.9144
    16          H       1.4718   -2.4191    0.2612
    17          H       3.0338   -1.7897   -0.2695
    18          H       1.8355   -0.9467   -3.2562
    19          H       1.7878   -2.4900   -2.3888
    20          H      -0.6752   -2.4329   -2.4455
    21          H      -0.6241   -0.8710   -3.2788
    22          H      -1.8227    2.4648    3.0016
    23          H      -0.1560    2.6773    2.4568
    24          H       1.1302   -0.3521    1.7013
    25          H       2.6228   -1.2134    2.1193
    26          H       2.6951    0.2696    1.1558
    27          H      -1.2945    0.1359    3.7882
    28          H      -0.1486    1.2798    4.5034
    29          H       0.3459    0.2648    3.1291
    30          H      -2.8147    1.5015   -1.5231
    31          H      -2.8642    0.1364   -0.3968
    32          H      -2.5917   -0.1477   -2.1322
    33          H      -2.2816    0.7575    1.2444
    34          H       0.4266    1.8712    0.2392


    FIRST DERIVATIVES WILL BE USED IN THE CALCULATION OF SECOND DERIVATIVES

          ESTIMATED TIME TO COMPLETE CALCULATION =        6.38 SECONDS

    FOR POINT-GROUP C1   THERE ARE   1 UNIQUE SYMMETRY FUNCTIONS.

 STEP:   1 TIME =     0.04 SECS, INTEGRAL =      0.04 TIME LEFT: 172799.95
 STEP:   2 TIME =     0.04 SECS, INTEGRAL =      0.08 TIME LEFT: 172799.91
 STEP:   3 TIME =     0.04 SECS, INTEGRAL =      0.11 TIME LEFT: 172799.87
 STEP:   4 TIME =     0.04 SECS, INTEGRAL =      0.15 TIME LEFT: 172799.83
 STEP:   5 TIME =     0.04 SECS, INTEGRAL =      0.19 TIME LEFT: 172799.79
 STEP:   6 TIME =     0.04 SECS, INTEGRAL =      0.23 TIME LEFT: 172799.75
 STEP:   7 TIME =     0.04 SECS, INTEGRAL =      0.27 TIME LEFT: 172799.71
 STEP:   8 TIME =     0.04 SECS, INTEGRAL =      0.31 TIME LEFT: 172799.68
 STEP:   9 TIME =     0.04 SECS, INTEGRAL =      0.35 TIME LEFT: 172799.64
 STEP:  10 TIME =     0.04 SECS, INTEGRAL =      0.39 TIME LEFT: 172799.60
 STEP:  11 TIME =     0.04 SECS, INTEGRAL =      0.43 TIME LEFT: 172799.56
 STEP:  12 TIME =     0.04 SECS, INTEGRAL =      0.46 TIME LEFT: 172799.52
 STEP:  13 TIME =     0.04 SECS, INTEGRAL =      0.50 TIME LEFT: 172799.48
 STEP:  14 TIME =     0.04 SECS, INTEGRAL =      0.54 TIME LEFT: 172799.44
 STEP:  15 TIME =     0.04 SECS, INTEGRAL =      0.58 TIME LEFT: 172799.40
 STEP:  16 TIME =     0.04 SECS, INTEGRAL =      0.62 TIME LEFT: 172799.36
 STEP:  17 TIME =     0.04 SECS, INTEGRAL =      0.66 TIME LEFT: 172799.32
 STEP:  18 TIME =     0.04 SECS, INTEGRAL =      0.70 TIME LEFT: 172799.29
 STEP:  19 TIME =     0.04 SECS, INTEGRAL =      0.74 TIME LEFT: 172799.25
 STEP:  20 TIME =     0.04 SECS, INTEGRAL =      0.78 TIME LEFT: 172799.21
 STEP:  21 TIME =     0.04 SECS, INTEGRAL =      0.82 TIME LEFT: 172799.17
 STEP:  22 TIME =     0.04 SECS, INTEGRAL =      0.86 TIME LEFT: 172799.13
 STEP:  23 TIME =     0.04 SECS, INTEGRAL =      0.89 TIME LEFT: 172799.09
 STEP:  24 TIME =     0.04 SECS, INTEGRAL =      0.94 TIME LEFT: 172799.05
 STEP:  25 TIME =     0.04 SECS, INTEGRAL =      0.98 TIME LEFT: 172799.00
 STEP:  26 TIME =     0.04 SECS, INTEGRAL =      1.02 TIME LEFT: 172798.96
 STEP:  27 TIME =     0.04 SECS, INTEGRAL =      1.06 TIME LEFT: 172798.92
 STEP:  28 TIME =     0.04 SECS, INTEGRAL =      1.11 TIME LEFT: 172798.88
 STEP:  29 TIME =     0.04 SECS, INTEGRAL =      1.14 TIME LEFT: 172798.84
 STEP:  30 TIME =     0.04 SECS, INTEGRAL =      1.19 TIME LEFT: 172798.80
 STEP:  31 TIME =     0.04 SECS, INTEGRAL =      1.23 TIME LEFT: 172798.76
 STEP:  32 TIME =     0.04 SECS, INTEGRAL =      1.27 TIME LEFT: 172798.72
 STEP:  33 TIME =     0.04 SECS, INTEGRAL =      1.30 TIME LEFT: 172798.68
 STEP:  34 TIME =     0.04 SECS, INTEGRAL =      1.34 TIME LEFT: 172798.64
 STEP:  35 TIME =     0.04 SECS, INTEGRAL =      1.38 TIME LEFT: 172798.60
 STEP:  36 TIME =     0.04 SECS, INTEGRAL =      1.42 TIME LEFT: 172798.56
 STEP:  37 TIME =     0.04 SECS, INTEGRAL =      1.46 TIME LEFT: 172798.52
 STEP:  38 TIME =     0.04 SECS, INTEGRAL =      1.50 TIME LEFT: 172798.48
 STEP:  39 TIME =     0.04 SECS, INTEGRAL =      1.55 TIME LEFT: 172798.44
 STEP:  40 TIME =     0.04 SECS, INTEGRAL =      1.59 TIME LEFT: 172798.39
 STEP:  41 TIME =     0.04 SECS, INTEGRAL =      1.63 TIME LEFT: 172798.36
 STEP:  42 TIME =     0.04 SECS, INTEGRAL =      1.67 TIME LEFT: 172798.31
 STEP:  43 TIME =     0.04 SECS, INTEGRAL =      1.71 TIME LEFT: 172798.27
 STEP:  44 TIME =     0.04 SECS, INTEGRAL =      1.76 TIME LEFT: 172798.23
 STEP:  45 TIME =     0.04 SECS, INTEGRAL =      1.80 TIME LEFT: 172798.19
 STEP:  46 TIME =     0.04 SECS, INTEGRAL =      1.84 TIME LEFT: 172798.15
 STEP:  47 TIME =     0.04 SECS, INTEGRAL =      1.88 TIME LEFT: 172798.11
 STEP:  48 TIME =     0.04 SECS, INTEGRAL =      1.92 TIME LEFT: 172798.07
 STEP:  49 TIME =     0.04 SECS, INTEGRAL =      1.96 TIME LEFT: 172798.03
 STEP:  50 TIME =     0.04 SECS, INTEGRAL =      2.00 TIME LEFT: 172797.98
 STEP:  51 TIME =     0.04 SECS, INTEGRAL =      2.04 TIME LEFT: 172797.94
 STEP:  52 TIME =     0.04 SECS, INTEGRAL =      2.08 TIME LEFT: 172797.90
 STEP:  53 TIME =     0.04 SECS, INTEGRAL =      2.12 TIME LEFT: 172797.86
 STEP:  54 TIME =     0.04 SECS, INTEGRAL =      2.16 TIME LEFT: 172797.82
 STEP:  55 TIME =     0.04 SECS, INTEGRAL =      2.20 TIME LEFT: 172797.79
 STEP:  56 TIME =     0.04 SECS, INTEGRAL =      2.24 TIME LEFT: 172797.75
 STEP:  57 TIME =     0.05 SECS, INTEGRAL =      2.29 TIME LEFT: 172797.70
 STEP:  58 TIME =     0.04 SECS, INTEGRAL =      2.33 TIME LEFT: 172797.66
 STEP:  59 TIME =     0.04 SECS, INTEGRAL =      2.37 TIME LEFT: 172797.62
 STEP:  60 TIME =     0.04 SECS, INTEGRAL =      2.41 TIME LEFT: 172797.57
 STEP:  61 TIME =     0.04 SECS, INTEGRAL =      2.45 TIME LEFT: 172797.54
 STEP:  62 TIME =     0.04 SECS, INTEGRAL =      2.49 TIME LEFT: 172797.50
 STEP:  63 TIME =     0.04 SECS, INTEGRAL =      2.53 TIME LEFT: 172797.46
 STEP:  64 TIME =     0.04 SECS, INTEGRAL =      2.57 TIME LEFT: 172797.42
 STEP:  65 TIME =     0.04 SECS, INTEGRAL =      2.61 TIME LEFT: 172797.38
 STEP:  66 TIME =     0.04 SECS, INTEGRAL =      2.65 TIME LEFT: 172797.34
 STEP:  67 TIME =     0.04 SECS, INTEGRAL =      2.69 TIME LEFT: 172797.29
 STEP:  68 TIME =     0.04 SECS, INTEGRAL =      2.73 TIME LEFT: 172797.25
 STEP:  69 TIME =     0.04 SECS, INTEGRAL =      2.77 TIME LEFT: 172797.21
 STEP:  70 TIME =     0.04 SECS, INTEGRAL =      2.81 TIME LEFT: 172797.17
 STEP:  71 TIME =     0.04 SECS, INTEGRAL =      2.85 TIME LEFT: 172797.13
 STEP:  72 TIME =     0.04 SECS, INTEGRAL =      2.89 TIME LEFT: 172797.09
 STEP:  73 TIME =     0.04 SECS, INTEGRAL =      2.93 TIME LEFT: 172797.05
 STEP:  74 TIME =     0.04 SECS, INTEGRAL =      2.97 TIME LEFT: 172797.01
 STEP:  75 TIME =     0.04 SECS, INTEGRAL =      3.02 TIME LEFT: 172796.97
 STEP:  76 TIME =     0.04 SECS, INTEGRAL =      3.05 TIME LEFT: 172796.93
 STEP:  77 TIME =     0.04 SECS, INTEGRAL =      3.09 TIME LEFT: 172796.89
 STEP:  78 TIME =     0.04 SECS, INTEGRAL =      3.14 TIME LEFT: 172796.85
 STEP:  79 TIME =     0.04 SECS, INTEGRAL =      3.18 TIME LEFT: 172796.81
 STEP:  80 TIME =     0.04 SECS, INTEGRAL =      3.22 TIME LEFT: 172796.77
 STEP:  81 TIME =     0.05 SECS, INTEGRAL =      3.27 TIME LEFT: 172796.72
 STEP:  82 TIME =     0.04 SECS, INTEGRAL =      3.31 TIME LEFT: 172796.68
 STEP:  83 TIME =     0.04 SECS, INTEGRAL =      3.35 TIME LEFT: 172796.63
 STEP:  84 TIME =     0.04 SECS, INTEGRAL =      3.39 TIME LEFT: 172796.59
 STEP:  85 TIME =     0.04 SECS, INTEGRAL =      3.43 TIME LEFT: 172796.56
 STEP:  86 TIME =     0.04 SECS, INTEGRAL =      3.46 TIME LEFT: 172796.52
 STEP:  87 TIME =     0.04 SECS, INTEGRAL =      3.50 TIME LEFT: 172796.48
 STEP:  88 TIME =     0.04 SECS, INTEGRAL =      3.54 TIME LEFT: 172796.44
 STEP:  89 TIME =     0.04 SECS, INTEGRAL =      3.58 TIME LEFT: 172796.41
 STEP:  90 TIME =     0.04 SECS, INTEGRAL =      3.62 TIME LEFT: 172796.36
 STEP:  91 TIME =     0.04 SECS, INTEGRAL =      3.66 TIME LEFT: 172796.32
 STEP:  92 TIME =     0.04 SECS, INTEGRAL =      3.70 TIME LEFT: 172796.29
 STEP:  93 TIME =     0.04 SECS, INTEGRAL =      3.74 TIME LEFT: 172796.25
 STEP:  94 TIME =     0.04 SECS, INTEGRAL =      3.78 TIME LEFT: 172796.20
 STEP:  95 TIME =     0.04 SECS, INTEGRAL =      3.82 TIME LEFT: 172796.16
 STEP:  96 TIME =     0.04 SECS, INTEGRAL =      3.86 TIME LEFT: 172796.12
 STEP:  97 TIME =     0.04 SECS, INTEGRAL =      3.90 TIME LEFT: 172796.09
 STEP:  98 TIME =     0.04 SECS, INTEGRAL =      3.94 TIME LEFT: 172796.05
 STEP:  99 TIME =     0.04 SECS, INTEGRAL =      3.98 TIME LEFT: 172796.00
 STEP: 100 TIME =     0.04 SECS, INTEGRAL =      4.02 TIME LEFT: 172795.96
 STEP: 101 TIME =     0.04 SECS, INTEGRAL =      4.07 TIME LEFT: 172795.92
 STEP: 102 TIME =     0.04 SECS, INTEGRAL =      4.11 TIME LEFT: 172795.88

(To convert to Hartree/Bohr^2, multiply by (10^(-21) x N x a0^2)/(4.184 x 627.51) =  0.0642)


           FORCE MATRIX IN MILLIDYNES/ANGSTROM


                  C  1       C  2       C  3       C  4       C  5       C  6
 ------------------------------------------------------------------------------
     C    1  14.259342
     C    2   3.133148  14.384463
     C    3   3.862790   0.498208  14.631803
     C    4   1.811235   3.480733   0.040881  14.455342
     C    5   3.439979   1.815723   0.520897   3.797034  14.426699
     C    6   0.521079   4.287191   0.033324   0.550315   0.041466  14.476652
     C    7   0.022050   0.001397   0.142601   0.000420   0.003817   0.001056
     C    8   0.645963   0.048519   4.134227   0.005843   0.047339   0.006865
     C    9   0.020729   0.645606   0.001448   0.049627   0.004953   4.475272
     C   10   0.004762   0.000821   0.023205   0.000272   0.001243   0.003204
     C   11   0.699509   0.047277   4.572202   0.005629   0.048454   0.003613
     C   12   0.036073   0.002464   0.777633   0.000686   0.003759   0.001897
     H   13   0.437369   4.385567   0.031283   0.428263   0.026511   0.431670
     H   14   4.393630   0.437069   0.432620   0.026057   0.428364   0.031190
     H   15   0.439131   0.020706   4.191751   0.001679   0.022782   0.001090
     H   16   0.028722   0.450384   0.001563   0.016100   0.001931   4.439179
     H   17   0.045422   0.432643   0.005843   0.027063   0.003603   4.435841
     H   18   0.030845   0.443128   0.003704   4.704681   0.445568   0.033437
     H   19   0.029525   0.453013   0.001405   4.667370   0.445906   0.032036
     H   20   0.441968   0.031078   0.033112   0.445391   4.704123   0.003862
     H   21   0.452050   0.029635   0.025578   0.445588   4.653254   0.001808
     H   22   0.002246   0.000293   0.015771   0.000120   0.000256   0.000266
     H   23   0.000674   0.000103   0.003501   0.000081   0.000212   0.000242
     H   24   0.004653   0.016311   0.003695   0.001940   0.000614   0.461983
     H   25   0.001735   0.052113   0.000409   0.008580   0.000662   0.450359
     H   26   0.001843   0.024598   0.000708   0.001778   0.000403   0.464098
     H   27   0.000282   0.000246   0.000808   0.000101   0.000093   0.000473
     H   28   0.001038   0.000232   0.003897   0.000136   0.000377   0.000780
     H   29   0.000734   0.000611   0.001324   0.000353   0.000351   0.001937
     H   30   0.049993   0.007924   0.453824   0.000724   0.002684   0.001344
     H   31   0.014902   0.000945   0.470133   0.000416   0.002315   0.000454
     H   32   0.037572   0.002503   0.458209   0.000950   0.018775   0.000581
     H   33   0.014311   0.001120   0.084710   0.000336   0.003082   0.000769
     H   34   0.013125   0.010307   0.430300   0.000941   0.001658   0.002229


                  C  7       C  8       C  9       C 10       C 11       C 12
 ------------------------------------------------------------------------------
     C    7  14.693948
     C    8   0.009858  14.313354
     C    9   0.003105   0.000283  14.281322
     C   10   4.349856   0.000772   0.019364  14.247846
     C   11   0.815011   0.664462   0.025072   0.035358  18.043509
     C   12   4.986066   0.103750   0.006047   0.742971  10.702721  18.088450
     H   13   0.000543   0.002709   0.038121   0.000289   0.011083   0.001679
     H   14   0.000887   0.023506   0.004689   0.000508   0.024779   0.004331
     H   15   0.013571   0.416781   0.000325   0.001719   0.412406   0.044021
     H   16   0.000182   0.000633   0.437394   0.000390   0.000455   0.000464
     H   17   0.000354   0.001662   0.439955   0.000431   0.000835   0.000482
     H   18   0.000105   0.000834   0.005953   0.000054   0.000728   0.000189
     H   19   0.000115   0.000437   0.002775   0.000067   0.000529   0.000334
     H   20   0.000614   0.001976   0.000782   0.000302   0.006467   0.000558
     H   21   0.000238   0.013931   0.000506   0.000119   0.002293   0.000741
     H   22   4.470706   0.000516   0.000662   0.448131   0.042971   0.424053
     H   23   4.441168   0.001061   0.000290   0.439191   0.044983   0.458165
     H   24   0.004891   0.000777   4.499786   0.064873   0.008999   0.007242
     H   25   0.000378   0.000308   4.749100   0.001599   0.001840   0.000882
     H   26   0.000651   0.000196   4.712546   0.001568   0.002695   0.001234
     H   27   0.463339   0.000128   0.002059   4.745198   0.001645   0.021036
     H   28   0.453664   0.000204   0.002647   4.770864   0.004003   0.050648
     H   29   0.460887   0.000351   0.068572   4.519906   0.003670   0.029141
     H   30   0.000493   4.759730   0.000101   0.000261   0.011834   0.004896
     H   31   0.001885   4.558498   0.000088   0.000327   0.033696   0.104880
     H   32   0.001355   4.740865   0.000068   0.000151   0.052158   0.008008
     H   33   0.426297   0.099430   0.000386   0.010776   0.473842   4.609150
     H   34   0.084843   0.039899   0.004089   0.012359   4.751177   0.472043


                  H 13       H 14       H 15       H 16       H 17       H 18
 ------------------------------------------------------------------------------
     H   13   4.894964
     H   14   0.029301   4.895446
     H   15   0.021160   0.041915   4.650076
     H   16   0.042394   0.029651   0.000525   5.054894
     H   17   0.020142   0.003024   0.000373   0.571788   5.044308
     H   18   0.026995   0.001231   0.000812   0.001039   0.002177   5.325938
     H   19   0.031642   0.002596   0.000525   0.010263   0.019784   0.557398
     H   20   0.001251   0.026972   0.001478   0.000813   0.000702   0.033081
     H   21   0.002646   0.031775   0.021225   0.000530   0.000600   0.023578
     H   22   0.000103   0.000199   0.002409   0.000057   0.000150   0.000032
     H   23   0.000201   0.000175   0.000392   0.000084   0.000124   0.000040
     H   24   0.002439   0.005234   0.000355   0.023308   0.047708   0.000513
     H   25   0.002249   0.000427   0.000128   0.030299   0.030556   0.001149
     H   26   0.025928   0.000529   0.000188   0.048242   0.024774   0.000316
     H   27   0.000069   0.000141   0.000083   0.000113   0.000188   0.000026
     H   28   0.000099   0.000179   0.000229   0.000109   0.000259   0.000037
     H   29   0.000189   0.000248   0.000170   0.000344   0.000663   0.000135
     H   30   0.000578   0.001820   0.035617   0.000127   0.000350   0.000121
     H   31   0.000499   0.009524   0.045005   0.000166   0.000137   0.000181
     H   32   0.000516   0.002702   0.020859   0.000129   0.000170   0.000330
     H   33   0.000641   0.002361   0.005455   0.000277   0.000244   0.000142
     H   34   0.019308   0.002124   0.038263   0.000486   0.000402   0.000378


                  H 19       H 20       H 21       H 22       H 23       H 24
 ------------------------------------------------------------------------------
     H   19   5.297966
     H   20   0.023134   5.325857
     H   21   0.033160   0.557578   5.285256
     H   22   0.000037   0.000059   0.000053   5.071145
     H   23   0.000036   0.000060   0.000033   0.568069   5.051333
     H   24   0.000442   0.000230   0.000271   0.000609   0.000591   5.393843
     H   25   0.000666   0.000118   0.000082   0.000157   0.000131   0.561306
     H   26   0.000439   0.000178   0.000094   0.000191   0.000320   0.572147
     H   27   0.000015   0.000038   0.000035   0.025297   0.048503   0.000617
     H   28   0.000024   0.000087   0.000056   0.024338   0.031415   0.001119
     H   29   0.000061   0.000073   0.000106   0.048916   0.022469   0.215724
     H   30   0.000112   0.000357   0.000616   0.000115   0.000159   0.000185
     H   31   0.000092   0.000347   0.000468   0.000218   0.000436   0.000244
     H   32   0.000352   0.001836   0.024674   0.000257   0.000259   0.000206
     H   33   0.000162   0.000539   0.000435   0.029603   0.037078   0.001133
     H   34   0.000446   0.000520   0.000571   0.006781   0.029705   0.005053


                  H 25       H 26       H 27       H 28       H 29       H 30
 ------------------------------------------------------------------------------
     H   25   5.480864
     H   26   0.573626   5.453160
     H   27   0.000183   0.000229   5.478643
     H   28   0.000221   0.000377   0.573413   5.493669
     H   29   0.002612   0.000861   0.565875   0.547569   5.434454
     H   30   0.000065   0.000054   0.000051   0.000136   0.000125   5.488342
     H   31   0.000076   0.000064   0.000145   0.000157   0.000125   0.573180
     H   32   0.000092   0.000073   0.000039   0.000081   0.000090   0.565883
     H   33   0.000320   0.000366   0.006135   0.001611   0.002544   0.002898
     H   34   0.000659   0.006214   0.000607   0.002408   0.001203   0.001537


                  H 31       H 32       H 33       H 34
 ------------------------------------------------------
     H   31   5.313144
     H   32   0.547270   5.466252
     H   33   0.069716   0.003313   5.017116
     H   34   0.002233   0.006904   0.107329   5.127650


          HEAT OF FORMATION =     -22.607889 KCALS/MOLE

          ZERO POINT ENERGY     195.289 KCAL/MOL


           NORMAL COORDINATE ANALYSIS (Total motion = 1 Angstrom)


   Root No.       1         2         3         4         5         6         7         8

                 1 A       2 A       3 A       4 A       5 A       6 A       7 A       8 A   

                  47.7      60.8      78.4      95.8     106.9     163.3     176.2     190.4
  
           1    0.0000   -0.0010    0.0094   -0.0046   -0.0043   -0.0032    0.0113    0.0053
           2    0.0047    0.0013   -0.0044   -0.0050    0.0025   -0.0042    0.0151   -0.0000
           3    0.0067   -0.0017    0.0073   -0.0115    0.0156   -0.0023   -0.0003    0.0007
           4    0.0001   -0.0012    0.0094   -0.0046   -0.0038   -0.0034    0.0107    0.0052
           5   -0.0062    0.0060   -0.0003   -0.0076    0.0096   -0.0035   -0.0038    0.0010
           6   -0.0057   -0.0036   -0.0124    0.0043    0.0133   -0.0001   -0.0067   -0.0071
           7    0.0118   -0.0042    0.0069   -0.0067   -0.0069    0.0027    0.0026    0.0050
           8    0.0104   -0.0001   -0.0053   -0.0062    0.0021   -0.0017    0.0106   -0.0006
           9   -0.0009   -0.0075    0.0139    0.0049   -0.0062   -0.0007    0.0005    0.0024
          10   -0.0163   -0.0006   -0.0053    0.0076   -0.0028   -0.0017   -0.0047   -0.0005
          11   -0.0297   -0.0051   -0.0021   -0.0046    0.0260    0.0038   -0.0210    0.0024
          12    0.0076    0.0027   -0.0113    0.0025    0.0040   -0.0046    0.0022   -0.0078
          13   -0.0160   -0.0009   -0.0056    0.0084   -0.0037   -0.0017   -0.0035   -0.0011
          14   -0.0119   -0.0074   -0.0070    0.0159   -0.0124    0.0020    0.0158   -0.0069
          15    0.0156    0.0031    0.0085   -0.0227    0.0238   -0.0056   -0.0010    0.0045
          16    0.0064    0.0022    0.0251   -0.0143    0.0008    0.0022    0.0055   -0.0015
          17    0.0110    0.0183    0.0026   -0.0055   -0.0089   -0.0057   -0.0069   -0.0008
          18    0.0019    0.0025   -0.0198    0.0115   -0.0009   -0.0046   -0.0050   -0.0045
          19   -0.0137    0.0401   -0.0080    0.0099    0.0080   -0.0064   -0.0150   -0.0032
          20   -0.0164   -0.0067    0.0175    0.0076    0.0003    0.0026    0.0044    0.0007
          21    0.0074   -0.0046    0.0062    0.0015   -0.0077   -0.0033   -0.0009    0.0015
          22    0.0129   -0.0059    0.0078   -0.0074   -0.0068    0.0027    0.0001    0.0055
          23    0.0264   -0.0058   -0.0041   -0.0093   -0.0022    0.0097   -0.0208   -0.0003
          24   -0.0169    0.0084    0.0079    0.0117   -0.0047   -0.0056    0.0282    0.0006
          25    0.0235   -0.0267   -0.0065    0.0267    0.0381    0.0241    0.0076    0.0001
          26    0.0344    0.0186   -0.0131    0.0172   -0.0204   -0.0081   -0.0125    0.0067
          27   -0.0146    0.0046   -0.0069   -0.0063    0.0035   -0.0039   -0.0017   -0.0091
          28   -0.0098   -0.0278   -0.0204   -0.0137   -0.0148   -0.0211   -0.0166   -0.0114
          29   -0.0238   -0.0235   -0.0025   -0.0068   -0.0168    0.0226   -0.0003    0.0042
          30   -0.0026    0.0093   -0.0096   -0.0031   -0.0153    0.0255   -0.0052    0.0095
          31    0.0037    0.0079    0.0074    0.0032   -0.0068   -0.0005    0.0011    0.0003
          32    0.0039    0.0075   -0.0134   -0.0153    0.0167   -0.0039    0.0277   -0.0030
          33    0.0049   -0.0145    0.0178    0.0069   -0.0143    0.0011   -0.0084    0.0050
          34   -0.0038    0.0243   -0.0189   -0.0069   -0.0004    0.0049    0.0071   -0.0017
          35   -0.0048   -0.0003    0.0352    0.0186    0.0115   -0.0203    0.0022   -0.0054
          36   -0.0008   -0.0030    0.0008    0.0009   -0.0101    0.0043   -0.0050    0.0037
          37    0.0055   -0.0044    0.0065   -0.0033   -0.0065   -0.0057    0.0223    0.0074
          38   -0.0101    0.0067    0.0004   -0.0078    0.0117   -0.0020   -0.0100   -0.0001
          39   -0.0280   -0.0127   -0.0187    0.0062    0.0285    0.0032   -0.0174   -0.0057
          40    0.0021    0.0024    0.0215   -0.0128   -0.0029   -0.0058    0.0138    0.0096
          41    0.0167    0.0050   -0.0043   -0.0191    0.0138   -0.0060    0.0157    0.0029
          42    0.0169    0.0029    0.0137   -0.0264    0.0246   -0.0053    0.0022    0.0053
          43    0.0266   -0.0136    0.0088   -0.0129   -0.0071    0.0087   -0.0192    0.0062
          44    0.0071   -0.0055    0.0003    0.0021   -0.0097   -0.0022    0.0107    0.0016
          45    0.0043   -0.0162    0.0187    0.0075   -0.0147    0.0018   -0.0101    0.0048
          46    0.0029    0.0186    0.0511   -0.0398   -0.0129    0.0009    0.0014   -0.0123
          47    0.0181    0.0073   -0.0163    0.0150   -0.0003   -0.0034   -0.0054    0.0061
          48    0.0251   -0.0040   -0.0369    0.0374    0.0019    0.0017   -0.0085   -0.0013
          49    0.0014    0.0114    0.0358   -0.0274   -0.0100   -0.0028    0.0048   -0.0038
          50   -0.0009    0.0386    0.0370   -0.0425   -0.0254   -0.0096   -0.0104   -0.0139
          51   -0.0022    0.0117   -0.0193    0.0059   -0.0192   -0.0170   -0.0042    0.0015
          52   -0.0143   -0.0017   -0.0178    0.0295   -0.0287   -0.0018    0.0113   -0.0114
          53   -0.0505   -0.0114   -0.0016   -0.0106    0.0513    0.0095   -0.0461    0.0075
          54   -0.0046   -0.0020   -0.0183    0.0116    0.0049   -0.0011   -0.0043   -0.0110
          55   -0.0283    0.0007   -0.0013   -0.0076    0.0247   -0.0005   -0.0311    0.0069
          56   -0.0344   -0.0041   -0.0005   -0.0110    0.0373    0.0042   -0.0321    0.0056
          57    0.0234    0.0112   -0.0155    0.0087   -0.0172   -0.0105    0.0181   -0.0133
          58   -0.0280    0.0005   -0.0025   -0.0056    0.0228   -0.0003   -0.0294    0.0056
          59   -0.0059   -0.0081   -0.0086    0.0229   -0.0256    0.0014    0.0287   -0.0103
          60    0.0297    0.0097    0.0168   -0.0478    0.0438   -0.0105   -0.0052    0.0148
          61   -0.0129   -0.0023   -0.0177    0.0304   -0.0307   -0.0020    0.0139   -0.0120
          62   -0.0163   -0.0132   -0.0102    0.0363   -0.0355    0.0052    0.0294   -0.0151
          63    0.0109   -0.0001    0.0127   -0.0203    0.0221   -0.0033   -0.0010    0.0047
          64   -0.0194    0.0623    0.0019    0.0240    0.0174   -0.0080   -0.0259    0.0004
          65   -0.0274    0.0411    0.0256    0.0274    0.0139    0.0168   -0.0073    0.0108
          66    0.0101   -0.0210    0.0162    0.0049   -0.0059   -0.0254   -0.0085   -0.0045
          67   -0.0188    0.0809    0.0028    0.0280    0.0228   -0.0010   -0.0214    0.0029
          68   -0.0090   -0.0487    0.0071   -0.0112   -0.0142   -0.0043    0.0131   -0.0062
          69    0.0190   -0.0002    0.0122    0.0020   -0.0012   -0.0114    0.0122   -0.0027
          70    0.0280   -0.0369   -0.0175    0.0398    0.0505    0.0289    0.0096    0.0052
          71    0.0381   -0.0146   -0.0567    0.0436    0.0010   -0.0864   -0.0077    0.1096
          72   -0.0057    0.0047   -0.0006    0.0070    0.0184    0.0715    0.0006   -0.0744
          73    0.0366   -0.0096    0.0160    0.0308    0.0346    0.1241    0.0038   -0.1067
          74    0.0502    0.0330   -0.0061    0.0225   -0.0392    0.0228   -0.0192   -0.0323
          75   -0.0118    0.0040   -0.0161   -0.0052   -0.0074   -0.0448   -0.0039    0.0304
          76    0.0186   -0.0568   -0.0429    0.0423    0.0596   -0.0583    0.0135    0.1032
          77    0.0329    0.0378    0.0120    0.0025   -0.0340    0.0378   -0.0156   -0.0536
          78   -0.0399    0.0076    0.0068   -0.0349    0.0029   -0.0352    0.0026    0.0137
          79   -0.0034   -0.0662   -0.0327   -0.0259   -0.0253   -0.0477   -0.0145   -0.0440
          80   -0.0365    0.0172    0.0115    0.0029   -0.0112    0.0750   -0.0070    0.0688
          81   -0.0194    0.0008   -0.0097   -0.0157   -0.0342    0.0931   -0.0179    0.0928
          82   -0.0236   -0.0212   -0.0023   -0.0155   -0.0216    0.0424   -0.0265    0.0856
          83   -0.0322   -0.0349   -0.0201   -0.0194   -0.0326    0.0481   -0.0069    0.0155
          84    0.0063    0.0121   -0.0081    0.0033   -0.0057   -0.0091    0.0012   -0.0306
          85    0.0011   -0.0494   -0.0363   -0.0180   -0.0156   -0.0687   -0.0103   -0.0797
          86   -0.0080   -0.0661   -0.0151   -0.0147   -0.0202   -0.0391    0.0079   -0.0668
          87   -0.0026    0.0249   -0.0244   -0.0008   -0.0124    0.0142   -0.0052   -0.0291
          88    0.0249   -0.0112    0.0110   -0.0097   -0.0076    0.0088   -0.0357    0.0034
          89    0.0324   -0.0087   -0.0046   -0.0114   -0.0055    0.0157   -0.0201    0.0028
          90   -0.0150    0.0066   -0.0010    0.0071   -0.0171    0.0081    0.1035    0.0179
          91    0.0002    0.0044    0.0013   -0.0045   -0.0065   -0.0002    0.0353    0.0073
          92    0.0253   -0.0018    0.0037   -0.0040    0.0085   -0.0005   -0.0945   -0.0165
          93   -0.0245    0.0159    0.0077    0.0156    0.0001   -0.0117    0.0158   -0.0055
          94    0.0141   -0.0117    0.0097   -0.0088   -0.0066    0.0004    0.0008    0.0064
          95    0.0342   -0.0120   -0.0091   -0.0149   -0.0129    0.0234    0.0260    0.0138
          96   -0.0236    0.0150    0.0114    0.0166    0.0039   -0.0160   -0.0097   -0.0110
          97   -0.0034    0.0266   -0.0457   -0.0262    0.0015    0.0166    0.0261    0.0005
          98   -0.0046   -0.0055    0.0841    0.0533    0.0076   -0.0411   -0.0323   -0.0090
          99   -0.0125    0.0095   -0.0142   -0.0023   -0.0058    0.0092   -0.0020    0.0036
         100    0.0036    0.0044    0.0345    0.0224   -0.0110   -0.0103   -0.0159   -0.0023
[...]
 EFFECTIVE MASS      1.5053
 FORCE CONSTANT      4.2282

 VIBRATION         81   81A           ATOM PAIR      ENERGY CONTRIBUTION    RADIAL
 FREQUENCY          3026.70         C  5 -- H 21         +32.9% ( 60.0%)     97.6%
 TRANSITION DIPOLE   0.0144         C  5 -- H 20         +23.1% ( 50.3%)     95.5%
 TRAVEL (Ang.)       0.2876         C  4 -- H 19         +22.2% ( 49.3%)     97.3%
 REDUCED MASS        0.2693         C  4 -- H 18         +17.5% ( 43.8%)     95.9%
 EFFECTIVE MASS      1.5514
 FORCE CONSTANT      1.4536

 VIBRATION         82   82A           ATOM PAIR      ENERGY CONTRIBUTION    RADIAL
 FREQUENCY          3027.99         C  6 -- H 16         +49.9% ( 69.6%)     97.9%
 TRANSITION DIPOLE   0.0182         C  6 -- H 17         +45.9% ( 66.8%)     97.5%
 TRAVEL (Ang.)       0.2204         C  9 -- H 24          +1.2% ( 10.6%)     97.4%
 REDUCED MASS        0.4585         C  9 -- H 25          +0.8% (  8.8%)     95.0%
 EFFECTIVE MASS      1.2800
 FORCE CONSTANT      2.4770

 VIBRATION         83   83A           ATOM PAIR      ENERGY CONTRIBUTION    RADIAL
 FREQUENCY          3031.05         C 11 -- H 34         +46.4% ( 68.1%)    100.0%
 TRANSITION DIPOLE   0.1646         C  7 -- H 22         +27.8% ( 52.8%)     98.3%
 TRAVEL (Ang.)       0.2592         C  7 -- H 23         +21.7% ( 46.6%)     96.8%
 REDUCED MASS        0.3312         C 11 -- C 12          +0.7% (  8.6%)     40.4%
 EFFECTIVE MASS      1.3909
 FORCE CONSTANT      1.7926

 VIBRATION         84   84A           ATOM PAIR      ENERGY CONTRIBUTION    RADIAL
 FREQUENCY          3033.04         C 11 -- H 34         +52.7% ( 72.7%)    100.0%
 TRANSITION DIPOLE   0.1595         C  7 -- H 22         +22.5% ( 47.5%)     98.1%
 TRAVEL (Ang.)       0.2503         C  7 -- H 23         +19.4% ( 44.1%)     97.2%
 REDUCED MASS        0.3548         C 10 -- H 29          +1.1% ( 10.7%)     98.5%
 EFFECTIVE MASS      1.4101
 FORCE CONSTANT      1.9232

 VIBRATION         85   85A           ATOM PAIR      ENERGY CONTRIBUTION    RADIAL
 FREQUENCY          3038.98         C  9 -- H 24         +49.1% ( 72.3%)     99.4%
 TRANSITION DIPOLE   0.2173         C 10 -- H 29         +28.1% ( 54.7%)     99.5%
 TRAVEL (Ang.)       0.2571         C  9 -- H 26          +7.9% ( 29.0%)     82.3%
 REDUCED MASS        0.3356         C  9 -- H 25          +3.7% ( 19.8%)     64.5%
 EFFECTIVE MASS      1.4725
 FORCE CONSTANT      1.8262

 VIBRATION         86   86A           ATOM PAIR      ENERGY CONTRIBUTION    RADIAL
 FREQUENCY          3041.49         C  4 -- H 19         +32.5% ( 59.2%)     97.7%
 TRANSITION DIPOLE   0.0911         C  5 -- H 21         +24.2% ( 51.0%)     98.0%
 TRAVEL (Ang.)       0.2860         C  4 -- H 18         +24.0% ( 50.9%)     96.0%
 REDUCED MASS        0.2711         C  5 -- H 20         +15.6% ( 41.0%)     95.5%
 EFFECTIVE MASS      1.5300
 FORCE CONSTANT      1.4776

 VIBRATION         87   87A           ATOM PAIR      ENERGY CONTRIBUTION    RADIAL
 FREQUENCY          3046.22         C  8 -- H 31         +76.6% ( 89.8%)     99.5%
 TRANSITION DIPOLE   0.0465         C  8 -- H 30         +10.5% ( 33.2%)     79.6%
 TRAVEL (Ang.)       0.1888         C  8 -- H 32          +6.4% ( 26.0%)     68.0%
 REDUCED MASS        0.6212         C 12 -- H 33          +4.8% ( 22.5%)    100.0%
 EFFECTIVE MASS      1.4896
 FORCE CONSTANT      3.3961

 VIBRATION         88   88A           ATOM PAIR      ENERGY CONTRIBUTION    RADIAL
 FREQUENCY          3078.45         C  9 -- H 26         +51.9% ( 74.2%)     98.8%
 TRANSITION DIPOLE   0.0171         C  9 -- H 25         +20.1% ( 46.2%)     91.5%
 TRAVEL (Ang.)       0.2496         C 10 -- H 29         +13.6% ( 38.0%)     98.1%
 REDUCED MASS        0.3517         C 10 -- H 27          +7.7% ( 28.6%)     94.9%
 EFFECTIVE MASS      1.4915
 FORCE CONSTANT      1.9637

 VIBRATION         89   89A           ATOM PAIR      ENERGY CONTRIBUTION    RADIAL
 FREQUENCY          3084.23         C 10 -- H 27         +34.4% ( 60.3%)     98.8%
 TRANSITION DIPOLE   0.0127         C  9 -- H 25         +27.7% ( 54.1%)     98.7%
 TRAVEL (Ang.)       0.2950         C 10 -- H 29         +16.1% ( 41.2%)     92.4%
 REDUCED MASS        0.2512         C  9 -- H 24         +13.0% ( 37.0%)     93.0%
 EFFECTIVE MASS      1.4839
 FORCE CONSTANT      1.4076

 VIBRATION         90   90A           ATOM PAIR      ENERGY CONTRIBUTION    RADIAL
 FREQUENCY          3084.70         C  8 -- H 32         +55.5% ( 76.9%)     97.8%
 TRANSITION DIPOLE   0.0361         C  8 -- H 30         +42.1% ( 67.0%)     96.1%
 TRAVEL (Ang.)       0.2059         C  8 -- H 31          +1.0% ( 10.6%)      2.4%
 REDUCED MASS        0.5158         C  3 -- C  8          +1.0% ( 10.5%)      0.1%
 EFFECTIVE MASS      1.5109
 FORCE CONSTANT      2.8917

 VIBRATION         91   91A           ATOM PAIR      ENERGY CONTRIBUTION    RADIAL
 FREQUENCY          3088.35         C 10 -- H 28         +55.0% ( 76.3%)     98.9%
 TRANSITION DIPOLE   0.0110         C 10 -- H 27         +17.5% ( 43.0%)     87.3%
 TRAVEL (Ang.)       0.2400         C 10 -- H 29         +14.1% ( 38.6%)     82.3%
 REDUCED MASS        0.3791         C  9 -- H 25          +6.4% ( 26.1%)     97.7%
 EFFECTIVE MASS      1.4960
 FORCE CONSTANT      2.1301

 VIBRATION         92   92A           ATOM PAIR      ENERGY CONTRIBUTION    RADIAL
 FREQUENCY          3101.85         C  5 -- H 20         +49.6% ( 69.9%)     98.3%
 TRANSITION DIPOLE   0.0691         C  5 -- H 21         +32.3% ( 56.3%)     95.5%
 TRAVEL (Ang.)       0.2442         C  4 -- H 18          +9.5% ( 30.5%)     98.2%
 REDUCED MASS        0.3646         C  4 -- H 19          +6.4% ( 25.0%)     95.6%
 EFFECTIVE MASS      1.2836
 FORCE CONSTANT      2.0668

 VIBRATION         93   93A           ATOM PAIR      ENERGY CONTRIBUTION    RADIAL
 FREQUENCY          3104.03         C  4 -- H 18         +46.7% ( 67.8%)     98.0%
 TRANSITION DIPOLE   0.0756         C  4 -- H 19         +35.3% ( 59.0%)     96.2%
 TRAVEL (Ang.)       0.2460         C  5 -- H 20          +9.2% ( 30.1%)     98.2%
 REDUCED MASS        0.3589         C  5 -- H 21          +6.5% ( 25.4%)     95.9%
 EFFECTIVE MASS      1.2884
 FORCE CONSTANT      2.0372

 VIBRATION         94   94A           ATOM PAIR      ENERGY CONTRIBUTION    RADIAL
 FREQUENCY          3166.67         C  8 -- H 30         +47.8% ( 66.8%)     98.5%
 TRANSITION DIPOLE   0.0307         C  8 -- H 32         +37.2% ( 58.9%)     97.2%
 TRAVEL (Ang.)       0.2384         C  8 -- H 31         +14.6% ( 36.9%)     89.6%
 REDUCED MASS        0.3745         C  3 -- C  8          +0.3% (  5.4%)     83.6%
 EFFECTIVE MASS      1.1530
 FORCE CONSTANT      2.2128

 VIBRATION         95   95A           ATOM PAIR      ENERGY CONTRIBUTION    RADIAL
 FREQUENCY          3167.08         C  9 -- H 25         +31.5% ( 54.3%)     98.3%
 TRANSITION DIPOLE   0.0869         C  9 -- H 26         +26.1% ( 49.4%)     97.4%
 TRAVEL (Ang.)       0.3165         C 10 -- H 28         +14.1% ( 36.4%)     98.2%
 REDUCED MASS        0.2125         C 10 -- H 27         +13.1% ( 35.0%)     97.8%
 EFFECTIVE MASS      1.1547         C  9 -- H 24         +11.3% ( 32.6%)     90.9%
 FORCE CONSTANT      1.2561

 VIBRATION         96   96A           ATOM PAIR      ENERGY CONTRIBUTION    RADIAL
 FREQUENCY          3181.68         C 10 -- H 28         +25.1% ( 48.1%)     97.7%
 TRANSITION DIPOLE   0.0173         C 10 -- H 27         +23.5% ( 46.5%)     97.3%
 TRAVEL (Ang.)       0.3349         C 10 -- H 29         +20.7% ( 43.7%)     97.3%
 REDUCED MASS        0.1889         C  9 -- H 24         +11.4% ( 32.4%)     96.0%
 EFFECTIVE MASS      1.1314         C  9 -- H 25         +10.1% ( 30.5%)     97.3%
 FORCE CONSTANT      1.1268

      SYMMETRY NUMBER FOR POINT-GROUP C1  =  1


          SYSTEM IS A GROUND STATE



 InChI=1S/C12H22/c1-4-6-7-10(3)12-9-8-11(12)5-2/h6-7,10-12H,4-5,8-9H2,1-3H3


          MOLECULE IS NOT LINEAR

          THERE ARE 96 GENUINE VIBRATIONS IN THIS SYSTEM
          THIS THERMODYNAMICS CALCULATION IS LIMITED TO
          MOLECULES WHICH HAVE NO INTERNAL ROTATIONS




                    CALCULATED THERMODYNAMIC PROPERTIES
                                          *
   TEMP. (K)   PARTITION FUNCTION   H.O.F.    ENTHALPY  HEAT CAPACITY ENTROPY
                                   KCAL/MOL   CAL/MOLE    CAL/K/MOL  CAL/K/MOL


 298.00  VIB.     0.4132D+05                  7044.3000    47.1812    44.7606
         ROT.     0.1502D+07                   888.2803     2.9808    31.2436
         INT.     0.6206D+11                  7932.5803    50.1620    76.0042
         TRA.     0.2073D+28                  1480.4672     4.9680    41.2320
         TOT.                      -22.608    9413.0475    55.1300   117.2362

 200.00  VIB.     0.8042D+03                  3237.3627    31.1841    29.4809
         ROT.     0.8259D+06                   596.1613     2.9808    30.0549
         INT.     0.6642D+09                  3833.5240    34.1649    59.5358
         TRA.     0.1140D+28                   993.6021     4.9680    39.2509
         TOT.                      -27.194    4827.1262    39.1329    98.7867

 210.00  VIB.     0.1208D+04                  3556.3470    32.6202    31.0370
         ROT.     0.8886D+06                   625.9693     2.9808    30.2003
         INT.     0.1073D+10                  4182.3164    35.6010    61.2373
         TRA.     0.1227D+28                  1043.2822     4.9680    39.4932
         TOT.                      -26.795    5225.5986    40.5690   100.7306

 220.00  VIB.     0.1811D+04                  3889.9199    34.1024    32.5885
         ROT.     0.9528D+06                   655.7774     2.9808    30.3390
         INT.     0.1725D+10                  4545.6973    37.0832    62.9275
         TRA.     0.1315D+28                  1092.9623     4.9680    39.7244
         TOT.                      -26.382    5638.6597    42.0512   102.6519

 230.00  VIB.     0.2712D+04                  4238.5554    35.6329    34.1380
         ROT.     0.1019D+07                   685.5855     2.9808    30.4715
         INT.     0.2762D+10                  4924.1409    38.6137    64.6095
         TRA.     0.1406D+28                  1142.6424     4.9680    39.9452
         TOT.                      -25.954    6066.7833    43.5817   104.5547

 240.00  VIB.     0.4056D+04                  4602.7386    37.2118    35.6877
         ROT.     0.1086D+07                   715.3935     2.9808    30.5984
         INT.     0.4403D+10                  5318.1321    40.1926    66.2861
         TRA.     0.1499D+28                  1192.3226     4.9680    40.1566
         TOT.                      -25.510    6510.4547    45.1606   106.4427

 250.00  VIB.     0.6061D+04                  4982.9476    38.8377    37.2396
         ROT.     0.1154D+07                   745.2016     2.9808    30.7201
         INT.     0.6996D+10                  5728.1492    41.8185    67.9596
         TRA.     0.1593D+28                  1242.0027     4.9680    40.3594
         TOT.                      -25.051    6970.1519    46.7865   108.3191

 260.00  VIB.     0.9049D+04                  5379.6390    40.5077    38.7952
         ROT.     0.1224D+07                   775.0097     2.9808    30.8370
         INT.     0.1108D+11                  6154.6486    43.4885    69.6322
         TRA.     0.1690D+28                  1291.6828     4.9680    40.5543
         TOT.                      -24.575    7446.3314    48.4565   110.1864

 270.00  VIB.     0.1350D+05                  5793.2356    42.2180    40.3559
         ROT.     0.1295D+07                   804.8177     2.9808    30.9495
         INT.     0.1749D+11                  6598.0533    45.1988    71.3054
         TRA.     0.1788D+28                  1341.3629     4.9680    40.7418
         TOT.                      -24.082    7939.4162    50.1668   112.0472

 280.00  VIB.     0.2014D+05                  6224.1185    43.9641    41.9227
         ROT.     0.1368D+07                   834.6258     2.9808    31.0579
         INT.     0.2755D+11                  7058.7443    46.9449    72.9806
         TRA.     0.1888D+28                  1391.0430     4.9680    40.9225
         TOT.                      -23.571    8449.7873    51.9130   113.9031

 290.00  VIB.     0.3002D+05                  6672.6210    45.7410    43.4964
         ROT.     0.1442D+07                   864.4339     2.9808    31.1625
         INT.     0.4329D+11                  7537.0548    48.7219    74.6589
         TRA.     0.1990D+28                  1440.7231     4.9680    41.0968
         TOT.                      -23.043    8977.7779    53.6899   115.7557

 300.00  VIB.     0.4475D+05                  7139.0245    47.5435    45.0774
         ROT.     0.1517D+07                   894.2419     2.9808    31.2635
         INT.     0.6790D+11                  8033.2664    50.5243    76.3409
         TRA.     0.2094D+28                  1490.4032     4.9680    41.2652
         TOT.                      -22.497    9523.6696    55.4923   117.6062

 310.00  VIB.     0.6670D+05                  7623.5575    49.3660    46.6660
         ROT.     0.1594D+07                   924.0500     2.9808    31.3613
         INT.     0.1063D+12                  8547.6075    52.3469    78.0273
         TRA.     0.2200D+28                  1540.0833     4.9680    41.4281
         TOT.                      -21.933   10087.6908    57.3149   119.4554

 320.00  VIB.     0.9944D+05                  8126.3951    51.2035    48.2623
         ROT.     0.1671D+07                   953.8580     2.9808    31.4559
         INT.     0.1662D+12                  9080.2531    54.1843    79.7182
         TRA.     0.2307D+28                  1589.7634     4.9680    41.5859
         TOT.                      -21.351   10670.0165    59.1523   121.3041

 330.00  VIB.     0.1483D+06                  8647.6602    53.0507    49.8662
         ROT.     0.1750D+07                   983.6661     2.9808    31.5476
         INT.     0.2595D+12                  9631.3263    56.0315    81.4138
         TRA.     0.2416D+28                  1639.4435     4.9680    41.7387
         TOT.                      -20.750   11270.7698    60.9996   123.1525

 340.00  VIB.     0.2211D+06                  9187.4261    54.9029    51.4774
         ROT.     0.1831D+07                  1013.4742     2.9808    31.6366
         INT.     0.4048D+12                 10200.9003    57.8837    83.1140
         TRA.     0.2527D+28                  1689.1236     4.9680    41.8870
         TOT.                      -20.131   11890.0239    62.8517   125.0011

 350.00  VIB.     0.3299D+06                  9745.7190    56.7554    53.0957
         ROT.     0.1912D+07                  1043.2822     2.9808    31.7230
         INT.     0.6308D+12                 10789.0012    59.7362    84.8187
         TRA.     0.2639D+28                  1738.8037     4.9680    42.0310
         TOT.                      -19.493   12527.8050    64.7042   126.8497

 360.00  VIB.     0.4925D+06                 10322.5216    58.6041    54.7204
         ROT.     0.1994D+07                  1073.0903     2.9808    31.8070
         INT.     0.9823D+12                 11395.6119    61.5850    86.5274
         TRA.     0.2753D+28                  1788.4838     4.9680    42.1710
         TOT.                      -18.837   13184.0957    66.5530   128.6984

 370.00  VIB.     0.7355D+06                 10917.7766    60.4453    56.3513
         ROT.     0.2078D+07                  1102.8984     2.9808    31.8887
         INT.     0.1528D+13                 12020.6750    63.4261    88.2399
         TRA.     0.2869D+28                  1838.1639     4.9680    42.3071
         TOT.                      -18.162   13858.8389    68.3941   130.5470

 380.00  VIB.     0.1099D+07                 11531.3910    62.2755    57.9875
         ROT.     0.2163D+07                  1132.7064     2.9808    31.9681
         INT.     0.2377D+13                 12664.0974    65.2563    89.9557
         TRA.     0.2986D+28                  1887.8440     4.9680    42.4396
         TOT.                      -17.469   14551.9415    70.2243   132.3953

 390.00  VIB.     0.1643D+07                 12163.2394    64.0916    59.6287
         ROT.     0.2249D+07                  1162.5145     2.9808    32.0456
         INT.     0.3695D+13                 13325.7539    67.0724    91.6743
         TRA.     0.3104D+28                  1937.5242     4.9680    42.5687
         TOT.                      -16.758   15263.2781    72.0405   134.2429

 400.00  VIB.     0.2458D+07                 12813.1683    65.8912    61.2741
         ROT.     0.2336D+07                  1192.3226     2.9808    32.1210
         INT.     0.5741D+13                 14005.4909    68.8720    93.3951
         TRA.     0.3224D+28                  1987.2043     4.9680    42.6944
         TOT.                      -16.028   15992.6952    73.8400   136.0896

   *: NOTE: HEATS OF FORMATION ARE RELATIVE TO THE
            ELEMENTS IN THEIR STANDARD STATE AT 298K
              (=  Standard Enthalpy of Formation).

            Hvib:  Zero-point energy is not included.
                   frequencies of less than zero cm-1 are not included.
            Hrot = (3/2)RT
            Htra = (3/2)RT + pV = (5/2)RT

            Heat capacity is Cp, not Cv

          For more information, see: HTTP://OpenMOPAC.net/Manual/thermochemistry.html


           FORCE CONSTANT IN CARTESIAN COORDINATES (Millidynes/A)

    ATOM   CHEMICAL       X               Y               Z
   NUMBER   SYMBOL  FORCE CONSTANT  FORCE CONSTANT  FORCE CONSTANT

      1       C        7.816063        8.262625        8.266378
      2       C        7.694466        8.601595        8.224514
      3       C        8.418316        8.004520        8.883032
      4       C        8.144337        8.387787        8.054930
      5       C        8.145463        8.415614        7.973390
      6       C        8.259699        8.371019        8.440841
      7       C        8.282589        8.414164        8.723588
      8       C        8.020907        8.370482        8.387188
      9       C        8.092529        8.249622        8.389035
     10       C        8.110623        8.115744        8.444115
     11       C        9.925608        4.655120       12.517820
     12       C        9.665005        4.374108       13.112906
     13       H        1.359227        4.132842        0.765410
     14       H        1.358528        1.967440        2.901759
     15       H        1.293257        1.845522        2.833811
     16       H        1.836452        3.672173        0.883170
     17       H        4.296281        0.966518        1.098925
     18       H        1.549186        1.830759        3.248200
     19       H        1.379340        4.509306        0.731434
     20       H        1.547948        4.372036        0.706458
     21       H        1.371574        1.986699        3.254235
     22       H        3.431867        1.659501        1.268046
     23       H        2.969012        2.604536        0.817872
     24       H        4.417526        1.021795        1.344584
     25       H        1.651874        2.014508        3.111212
     26       H        1.962358        3.934987        0.862630
     27       H        3.306440        2.592956        0.871760
     28       H        1.110348        1.523485        4.149922
     29       H        3.308689        1.909041        1.593750
     30       H        1.443512        4.478378        0.860765
     31       H        1.639344        1.285655        3.777332
     32       H        0.910832        2.465690        3.393815
     33       H        3.841589        1.489518        0.816377
     34       H        3.976946        1.464876        0.754779

 **********************
 *                    *
 * JOB ENDED NORMALLY *
 *                    *
 **********************



 TOTAL JOB TIME:            11.26 SECONDS

 == MOPAC DONE ==
