 *******************************************************************************
 **                                                                           **
 **                              MOPAC v23.1.2                                **
 **                                                                           **
 *******************************************************************************
 **          Digital Object Identifier (DOI): 10.5281/zenodo.6511958          **
 **    Visit the DOI location for information on how to cite this program.    **
 *******************************************************************************

                              PM3 CALCULATION RESULTS

 *******************************************************************************
 *  CALCULATION DONE: (MAX THREADS = 1)              Tue Jun  3 16:28:07 2025  *
 *  PM3        - The PM3 Hamiltonian to be used
 *  PRECISE    - TIGHTER CRITERIA TO BE USED
 *  NOSYM      - POINT-GROUP SYMMETRY SET TO C1
 *  THREADS=1  - MULTI-THREADING NOT USED
 *  T=         - A TIME OF 172800.0 SECONDS REQUESTED
 *  DUMP=N     - RESTART FILE WRITTEN EVERY 7200.0 SECONDS REQUESTED
 *******************************************************************************
pm3  precise nosym THREADS=1
 InChI=1S/C7H10/c1-2-7-5-3-4-6-7/h2-3,5,7H,1,4,6H2

   ATOM   CHEMICAL          X               Y               Z
  NUMBER   SYMBOL      (ANGSTROMS)     (ANGSTROMS)     (ANGSTROMS)

     1       C          0.32370000  *   0.22080000  *   0.51830000  *
     2       C         -0.28650000  *  -1.07460000  *  -0.04920000  *
     3       C         -1.78220000  *  -0.79620000  *  -0.23030000  *
     4       C         -0.79720000  *   1.20040000  *   0.47200000  *
     5       C         -1.93070000  *   0.65000000  *   0.07420000  *
     6       C          1.50160000  *   0.70580000  *  -0.29000000  *
     7       C          2.66950000  *   0.05760000  *  -0.26650000  *
     8       H          0.62440000  *   0.07770000  *   1.57990000  *
     9       H          0.16150000  *  -1.34740000  *  -1.03120000  *
    10       H         -0.12950000  *  -1.91960000  *   0.65630000  *
    11       H         -2.10650000  *  -1.00380000  *  -1.27260000  *
    12       H         -2.38710000  *  -1.39430000  *   0.48460000  *
    13       H         -2.86690000  *   1.19400000  *   0.00330000  *
    14       H         -0.71180000  *   2.24140000  *   0.76770000  *
    15       H          1.41340000  *   1.60300000  *  -0.89750000  *
    16       H          3.50680000  *   0.42470000  *  -0.85100000  *
    17       H          2.79740000  *  -0.83950000  *   0.33200000  *



          CARTESIAN COORDINATES 

    NO.       ATOM           X           Y           Z

     1         C          0.3237      0.2208      0.5183
     2         C         -0.2865     -1.0746     -0.0492
     3         C         -1.7822     -0.7962     -0.2303
     4         C         -0.7972      1.2004      0.4720
     5         C         -1.9307      0.6500      0.0742
     6         C          1.5016      0.7058     -0.2900
     7         C          2.6695      0.0576     -0.2665
     8         H          0.6244      0.0777      1.5799
     9         H          0.1615     -1.3474     -1.0312
    10         H         -0.1295     -1.9196      0.6563
    11         H         -2.1065     -1.0038     -1.2726
    12         H         -2.3871     -1.3943      0.4846
    13         H         -2.8669      1.1940      0.0033
    14         H         -0.7118      2.2414      0.7677
    15         H          1.4134      1.6030     -0.8975
    16         H          3.5068      0.4247     -0.8510
    17         H          2.7974     -0.8395      0.3320

  H: (PM3): J. J. P. STEWART, J. COMP. CHEM. 10, 209 (1989).
  C: (PM3): J. J. P. STEWART, J. COMP. CHEM. 10, 209 (1989).

           Empirical Formula: C7 H10  =    17 atoms



      MOLECULAR POINT GROUP   :   C1  


      RHF CALCULATION, NO. OF DOUBLY OCCUPIED LEVELS = 19


          Geometry optimization using EF

          DIAGONAL MATRIX USED AS START HESSIAN

 CYCLE:     1 TIME:   0.004 TIME LEFT:  2.00D  GRAD.:    56.709 HEAT:  25.55896
 CYCLE:     2 TIME:   0.012 TIME LEFT:  2.00D  GRAD.:    51.843 HEAT:  25.05755
 CYCLE:     3 TIME:   0.004 TIME LEFT:  2.00D  GRAD.:    33.049 HEAT:  24.50056
 CYCLE:     4 TIME:   0.004 TIME LEFT:  2.00D  GRAD.:    48.282 HEAT:  24.41311
 CYCLE:     5 TIME:   0.008 TIME LEFT:  2.00D  GRAD.:    26.250 HEAT:  23.89074
 CYCLE:     6 TIME:   0.008 TIME LEFT:  2.00D  GRAD.:    17.719 HEAT:  23.73862
 CYCLE:     7 TIME:   0.008 TIME LEFT:  2.00D  GRAD.:    12.307 HEAT:  23.60939
 CYCLE:     8 TIME:   0.012 TIME LEFT:  2.00D  GRAD.:    12.491 HEAT:  23.54487
 CYCLE:     9 TIME:   0.004 TIME LEFT:  2.00D  GRAD.:    11.803 HEAT:  23.49359
 CYCLE:    10 TIME:   0.008 TIME LEFT:  2.00D  GRAD.:     7.522 HEAT:  23.45529
 CYCLE:    11 TIME:   0.008 TIME LEFT:  2.00D  GRAD.:     6.420 HEAT:  23.44190
 CYCLE:    12 TIME:   0.004 TIME LEFT:  2.00D  GRAD.:     6.490 HEAT:  23.43649
 CYCLE:    13 TIME:   0.004 TIME LEFT:  2.00D  GRAD.:     6.831 HEAT:  23.43251
 CYCLE:    14 TIME:   0.004 TIME LEFT:  2.00D  GRAD.:     5.609 HEAT:  23.42718
 CYCLE:    15 TIME:   0.008 TIME LEFT:  2.00D  GRAD.:     5.890 HEAT:  23.42563
 CYCLE:    16 TIME:   0.004 TIME LEFT:  2.00D  GRAD.:     4.063 HEAT:  23.42032
 CYCLE:    17 TIME:   0.004 TIME LEFT:  2.00D  GRAD.:     3.878 HEAT:  23.41835
 CYCLE:    18 TIME:   0.004 TIME LEFT:  2.00D  GRAD.:     3.652 HEAT:  23.41672
 CYCLE:    19 TIME:   0.004 TIME LEFT:  2.00D  GRAD.:     3.401 HEAT:  23.41615
 CYCLE:    20 TIME:   0.004 TIME LEFT:  2.00D  GRAD.:     2.040 HEAT:  23.41313
 CYCLE:    21 TIME:   0.008 TIME LEFT:  2.00D  GRAD.:     2.347 HEAT:  23.41282
 CYCLE:    22 TIME:   0.004 TIME LEFT:  2.00D  GRAD.:     1.148 HEAT:  23.41092
 CYCLE:    23 TIME:   0.008 TIME LEFT:  2.00D  GRAD.:     1.420 HEAT:  23.41022
 CYCLE:    24 TIME:   0.004 TIME LEFT:  2.00D  GRAD.:     0.768 HEAT:  23.40880
 CYCLE:    25 TIME:   0.008 TIME LEFT:  2.00D  GRAD.:     0.671 HEAT:  23.40708
 CYCLE:    26 TIME:   0.004 TIME LEFT:  2.00D  GRAD.:     0.638 HEAT:  23.40637
 CYCLE:    27 TIME:   0.008 TIME LEFT:  2.00D  GRAD.:     0.621 HEAT:  23.40535
 CYCLE:    28 TIME:   0.004 TIME LEFT:  2.00D  GRAD.:     0.781 HEAT:  23.40370
 CYCLE:    29 TIME:   0.004 TIME LEFT:  2.00D  GRAD.:     1.082 HEAT:  23.40126
 CYCLE:    30 TIME:   0.008 TIME LEFT:  2.00D  GRAD.:     1.254 HEAT:  23.39918
 CYCLE:    31 TIME:   0.004 TIME LEFT:  2.00D  GRAD.:     1.407 HEAT:  23.39681
 CYCLE:    32 TIME:   0.004 TIME LEFT:  2.00D  GRAD.:     1.446 HEAT:  23.39300
 CYCLE:    33 TIME:   0.008 TIME LEFT:  2.00D  GRAD.:     2.563 HEAT:  23.38019
 CYCLE:    34 TIME:   0.004 TIME LEFT:  2.00D  GRAD.:     2.880 HEAT:  23.36902
 CYCLE:    35 TIME:   0.004 TIME LEFT:  2.00D  GRAD.:     3.306 HEAT:  23.35192
 CYCLE:    36 TIME:   0.004 TIME LEFT:  2.00D  GRAD.:     2.876 HEAT:  23.34591
 CYCLE:    37 TIME:   0.008 TIME LEFT:  2.00D  GRAD.:     2.265 HEAT:  23.33213
 CYCLE:    38 TIME:   0.004 TIME LEFT:  2.00D  GRAD.:     3.713 HEAT:  23.31858
 CYCLE:    39 TIME:   0.008 TIME LEFT:  2.00D  GRAD.:     2.678 HEAT:  23.30600
 CYCLE:    40 TIME:   0.008 TIME LEFT:  2.00D  GRAD.:     3.006 HEAT:  23.28287
 CYCLE:    41 TIME:   0.004 TIME LEFT:  2.00D  GRAD.:     2.307 HEAT:  23.27276
 CYCLE:    42 TIME:   0.008 TIME LEFT:  2.00D  GRAD.:     3.774 HEAT:  23.26127
 CYCLE:    43 TIME:   0.008 TIME LEFT:  2.00D  GRAD.:     5.272 HEAT:  23.25396
 CYCLE:    44 TIME:   0.008 TIME LEFT:  2.00D  GRAD.:     2.740 HEAT:  23.23666
 CYCLE:    45 TIME:   0.004 TIME LEFT:  2.00D  GRAD.:     1.482 HEAT:  23.22901
 CYCLE:    46 TIME:   0.008 TIME LEFT:  2.00D  GRAD.:     2.387 HEAT:  23.22279
 CYCLE:    47 TIME:   0.004 TIME LEFT:  2.00D  GRAD.:     2.323 HEAT:  23.21650
 CYCLE:    48 TIME:   0.008 TIME LEFT:  2.00D  GRAD.:     2.206 HEAT:  23.20889
 CYCLE:    49 TIME:   0.008 TIME LEFT:  2.00D  GRAD.:     3.018 HEAT:  23.19600
 CYCLE:    50 TIME:   0.004 TIME LEFT:  2.00D  GRAD.:     2.821 HEAT:  23.17929
 CYCLE:    51 TIME:   0.008 TIME LEFT:  2.00D  GRAD.:     3.233 HEAT:  23.16535
 CYCLE:    52 TIME:   0.008 TIME LEFT:  2.00D  GRAD.:     5.929 HEAT:  23.16451
 CYCLE:    53 TIME:   0.008 TIME LEFT:  2.00D  GRAD.:     4.809 HEAT:  23.14851
 CYCLE:    54 TIME:   0.004 TIME LEFT:  2.00D  GRAD.:     2.576 HEAT:  23.13691
 CYCLE:    55 TIME:   0.008 TIME LEFT:  2.00D  GRAD.:     3.754 HEAT:  23.12008
 CYCLE:    56 TIME:   0.008 TIME LEFT:  2.00D  GRAD.:     6.230 HEAT:  23.10397
 CYCLE:    57 TIME:   0.004 TIME LEFT:  2.00D  GRAD.:     5.629 HEAT:  23.07638
 CYCLE:    58 TIME:   0.008 TIME LEFT:  2.00D  GRAD.:     5.469 HEAT:  23.05473
 CYCLE:    59 TIME:   0.004 TIME LEFT:  2.00D  GRAD.:     4.460 HEAT:  23.03301
 CYCLE:    60 TIME:   0.004 TIME LEFT:  2.00D  GRAD.:     2.943 HEAT:  23.01065
 CYCLE:    61 TIME:   0.008 TIME LEFT:  2.00D  GRAD.:     7.022 HEAT:  22.99364
 CYCLE:    62 TIME:   0.004 TIME LEFT:  2.00D  GRAD.:     4.875 HEAT:  22.97508
 CYCLE:    63 TIME:   0.008 TIME LEFT:  2.00D  GRAD.:     3.734 HEAT:  22.95178
 CYCLE:    64 TIME:   0.004 TIME LEFT:  2.00D  GRAD.:     4.219 HEAT:  22.92131
 CYCLE:    65 TIME:   0.008 TIME LEFT:  2.00D  GRAD.:     4.704 HEAT:  22.90962
 CYCLE:    66 TIME:   0.008 TIME LEFT:  2.00D  GRAD.:     2.485 HEAT:  22.89823
 CYCLE:    67 TIME:   0.004 TIME LEFT:  2.00D  GRAD.:     2.549 HEAT:  22.88906
 CYCLE:    68 TIME:   0.008 TIME LEFT:  2.00D  GRAD.:     2.835 HEAT:  22.87754
 CYCLE:    69 TIME:   0.008 TIME LEFT:  2.00D  GRAD.:     1.610 HEAT:  22.87146
 CYCLE:    70 TIME:   0.004 TIME LEFT:  2.00D  GRAD.:     1.259 HEAT:  22.86736
 CYCLE:    71 TIME:   0.008 TIME LEFT:  2.00D  GRAD.:     1.061 HEAT:  22.86491
 CYCLE:    72 TIME:   0.008 TIME LEFT:  2.00D  GRAD.:     0.895 HEAT:  22.86335
 CYCLE:    73 TIME:   0.004 TIME LEFT:  2.00D  GRAD.:     0.770 HEAT:  22.86243
 CYCLE:    74 TIME:   0.008 TIME LEFT:  2.00D  GRAD.:     0.639 HEAT:  22.86190
 CYCLE:    75 TIME:   0.008 TIME LEFT:  2.00D  GRAD.:     0.607 HEAT:  22.86140
 CYCLE:    76 TIME:   0.008 TIME LEFT:  2.00D  GRAD.:     0.635 HEAT:  22.86062
 CYCLE:    77 TIME:   0.008 TIME LEFT:  2.00D  GRAD.:     0.624 HEAT:  22.85978
 CYCLE:    78 TIME:   0.008 TIME LEFT:  2.00D  GRAD.:     0.625 HEAT:  22.85903
 CYCLE:    79 TIME:   0.004 TIME LEFT:  2.00D  GRAD.:     0.562 HEAT:  22.85850
 CYCLE:    80 TIME:   0.008 TIME LEFT:  2.00D  GRAD.:     0.508 HEAT:  22.85805
 CYCLE:    81 TIME:   0.008 TIME LEFT:  2.00D  GRAD.:     0.360 HEAT:  22.85776
 CYCLE:    82 TIME:   0.008 TIME LEFT:  2.00D  GRAD.:     0.347 HEAT:  22.85755
 CYCLE:    83 TIME:   0.008 TIME LEFT:  2.00D  GRAD.:     0.262 HEAT:  22.85744
 CYCLE:    84 TIME:   0.008 TIME LEFT:  2.00D  GRAD.:     0.302 HEAT:  22.85735
 CYCLE:    85 TIME:   0.008 TIME LEFT:  2.00D  GRAD.:     0.263 HEAT:  22.85726
 CYCLE:    86 TIME:   0.008 TIME LEFT:  2.00D  GRAD.:     0.356 HEAT:  22.85708
 CYCLE:    87 TIME:   0.004 TIME LEFT:  2.00D  GRAD.:     0.355 HEAT:  22.85694
 CYCLE:    88 TIME:   0.008 TIME LEFT:  2.00D  GRAD.:     0.385 HEAT:  22.85669
 CYCLE:    89 TIME:   0.008 TIME LEFT:  2.00D  GRAD.:     0.312 HEAT:  22.85641
 CYCLE:    90 TIME:   0.008 TIME LEFT:  2.00D  GRAD.:     0.377 HEAT:  22.85591
 CYCLE:    91 TIME:   0.004 TIME LEFT:  2.00D  GRAD.:     0.370 HEAT:  22.85574
 CYCLE:    92 TIME:   0.008 TIME LEFT:  2.00D  GRAD.:     0.579 HEAT:  22.85543
 CYCLE:    93 TIME:   0.008 TIME LEFT:  2.00D  GRAD.:     0.484 HEAT:  22.85518
 CYCLE:    94 TIME:   0.008 TIME LEFT:  2.00D  GRAD.:     0.357 HEAT:  22.85507
 CYCLE:    95 TIME:   0.008 TIME LEFT:  2.00D  GRAD.:     0.307 HEAT:  22.85480
 CYCLE:    96 TIME:   0.004 TIME LEFT:  2.00D  GRAD.:     0.263 HEAT:  22.85470
 CYCLE:    97 TIME:   0.008 TIME LEFT:  2.00D  GRAD.:     0.169 HEAT:  22.85452
 CYCLE:    98 TIME:   0.008 TIME LEFT:  2.00D  GRAD.:     0.200 HEAT:  22.85443
 CYCLE:    99 TIME:   0.008 TIME LEFT:  2.00D  GRAD.:     0.305 HEAT:  22.85439
 CYCLE:   100 TIME:   0.004 TIME LEFT:  2.00D  GRAD.:     0.146 HEAT:  22.85432
 CYCLE:   101 TIME:   0.012 TIME LEFT:  2.00D  GRAD.:     0.092 HEAT:  22.85429
 CYCLE:   102 TIME:   0.008 TIME LEFT:  2.00D  GRAD.:     0.059 HEAT:  22.85428
 CYCLE:   103 TIME:   0.004 TIME LEFT:  2.00D  GRAD.:     0.107 HEAT:  22.85430
 CYCLE:   104 TIME:   0.008 TIME LEFT:  2.00D  GRAD.:     0.016 HEAT:  22.85428

     GRADIENT =  0.01617 IS LESS THAN CUTOFF =  0.05000



 -------------------------------------------------------------------------------
 pm3  precise nosym THREADS=1
 InChI=1S/C7H10/c1-2-7-5-3-4-6-7/h2-3,5,7H,1,4,6H2



     GEOMETRY OPTIMISED USING EIGENVECTOR FOLLOWING (EF).     
     SCF FIELD WAS ACHIEVED                                   


                              PM3 CALCULATION
                                                       MOPAC v23.1.2 MacOS
                                                       Tue Jun  3 16:28:08 2025




          FINAL HEAT OF FORMATION =         22.85428 KCAL/MOL =      95.62231 KJ/MOL


          COSMO AREA              =        146.96 SQUARE ANGSTROMS
          COSMO VOLUME            =        139.49 CUBIC ANGSTROMS

          GRADIENT NORM           =          0.01617          =       0.00392 PER ATOM
          IONIZATION POTENTIAL    =          9.660043 EV
          HOMO LUMO ENERGIES (EV) =         -9.660  1.003
          NO. OF FILLED LEVELS    =         19
          MOLECULAR WEIGHT        =         94.1560         POINT GROUP:  C1  

          MOLECULAR DIMENSIONS (Angstroms)

            Atom       Atom       Distance
            H    16    H    12     6.56097
            H     9    H    14     4.11932
            H    17    H    11     3.04351


          SCF CALCULATIONS        =        114

          WALL-CLOCK TIME         =      0.676 SECONDS
          COMPUTATION TIME        =      0.391 SECONDS




   ATOM   CHEMICAL          X               Y               Z
  NUMBER   SYMBOL      (ANGSTROMS)     (ANGSTROMS)     (ANGSTROMS)

     1       C          0.35862320  *   0.03449904  *   0.43435348  *
     2       C         -0.43737436  *  -1.17274246  *  -0.11195505  *
     3       C         -1.89411295  *  -0.70326397  *  -0.23936303  *
     4       C         -0.65379626  *   1.14377467  *   0.52186945  *
     5       C         -1.87542741  *   0.73650804  *   0.16193362  *
     6       C          1.48507204  *   0.41110547  *  -0.47095250  *
     7       C          2.75014922  *   0.45296267  *  -0.07064347  *
     8       H          0.74301785  *  -0.18509859  *   1.45913290  *
     9       H         -0.03945344  *  -1.50981091  *  -1.08667878  *
    10       H         -0.35090110  *  -2.04151903  *   0.56409631  *
    11       H         -2.28148887  *  -0.81992954  *  -1.26807595  *
    12       H         -2.57548793  *  -1.28111414  *   0.41199347  *
    13       H         -2.78302496  *   1.33930549  *   0.14733465  *
    14       H         -0.36656197  *   2.14238295  *   0.84926380  *
    15       H          1.20607243  *   0.65698933  *  -1.50276734  *
    16       H          3.56428932  *   0.72772214  *  -0.73431194  *
    17       H          3.06464542  *   0.21769918  *   0.94275804  *

                             CARTESIAN COORDINATES

   1    C        0.358623202     0.034499041     0.434353475
   2    C       -0.437374356    -1.172742464    -0.111955046
   3    C       -1.894112946    -0.703263969    -0.239363029
   4    C       -0.653796256     1.143774672     0.521869447
   5    C       -1.875427406     0.736508038     0.161933617
   6    C        1.485072044     0.411105470    -0.470952496
   7    C        2.750149224     0.452962666    -0.070643474
   8    H        0.743017849    -0.185098587     1.459132901
   9    H       -0.039453438    -1.509810908    -1.086678779
  10    H       -0.350901097    -2.041519027     0.564096308
  11    H       -2.281488874    -0.819929541    -1.268075950
  12    H       -2.575487930    -1.281114139     0.411993474
  13    H       -2.783024962     1.339305491     0.147334654
  14    H       -0.366561974     2.142382946     0.849263804
  15    H        1.206072428     0.656989329    -1.502767342
  16    H        3.564289317     0.727722139    -0.734311940
  17    H        3.064645421     0.217699177     0.942758037


           Empirical Formula: C7 H10  =    17 atoms



      MOLECULAR POINT GROUP   :   C1  


                  EIGENVALUES  
 -40.45862 -33.05798 -28.02698 -26.69796 -20.80885 -19.66499 -18.54260 -17.61031
 -16.21849 -15.54692 -14.40245 -13.64373 -13.02068 -12.84688 -12.50632 -12.22481
 -12.05223 -10.26233  -9.66004   1.00318   1.22110   3.32664   3.47708   3.68441
   3.71110   3.85432   3.92557   4.04998   4.15169   4.18695   4.30806   4.46444
   4.94395   5.04552   5.53331   5.63694   5.87580   5.99290


              NET ATOMIC CHARGES AND DIPOLE CONTRIBUTIONS

  ATOM NO.   TYPE          CHARGE      No. of ELECS.   s-Pop       p-Pop       
    1          C          -0.018522        4.0185     1.16279     2.85573
    2          C          -0.097367        4.0974     1.16884     2.92853
    3          C          -0.066200        4.0662     1.15413     2.91208
    4          C          -0.150158        4.1502     1.20400     2.94615
    5          C          -0.151326        4.1513     1.20231     2.94902
    6          C          -0.129062        4.1291     1.19596     2.93310
    7          C          -0.163395        4.1634     1.18304     2.98035
    8          H           0.071671        0.9283     0.92833
    9          H           0.055977        0.9440     0.94402
   10          H           0.050963        0.9490     0.94904
   11          H           0.055464        0.9445     0.94454
   12          H           0.055710        0.9443     0.94429
   13          H           0.110702        0.8893     0.88930
   14          H           0.114042        0.8860     0.88596
   15          H           0.100993        0.8990     0.89901
   16          H           0.079111        0.9209     0.92089
   17          H           0.081396        0.9186     0.91860
 DIPOLE           X         Y         Z       TOTAL
 POINT-CHG.    -0.150    -0.166    -0.032     0.226
 HYBRID         0.010     0.021    -0.011     0.025
 SUM           -0.140    -0.146    -0.043     0.206


          ATOMIC ORBITAL ELECTRON POPULATIONS

     Atom    s        px        py        pz   
    1  C   1.16279   0.94100   0.93769   0.97704
    2  C   1.16884   0.94910   0.96685   1.01258
    3  C   1.15413   0.96115   0.94517   1.00575
    4  C   1.20400   0.95295   0.98290   1.01031
    5  C   1.20231   0.97472   0.96984   1.00446
    6  C   1.19596   0.95018   0.99345   0.98948
    7  C   1.18304   0.96082   1.01236   1.00717
    8  H   0.92833
    9  H   0.94402
   10  H   0.94904
   11  H   0.94454
   12  H   0.94429
   13  H   0.88930
   14  H   0.88596
   15  H   0.89901
   16  H   0.92089
   17  H   0.91860
 *******************************************************************************
 **                                                                           **
 **                              MOPAC v23.1.2                                **
 **                                                                           **
 *******************************************************************************
 **          Digital Object Identifier (DOI): 10.5281/zenodo.6511958          **
 **    Visit the DOI location for information on how to cite this program.    **
 *******************************************************************************

                              PM3 CALCULATION RESULTS

 *******************************************************************************
 *  CALCULATION DONE: (MAX THREADS = 1)              Tue Jun  3 16:28:08 2025  *
 *  PM3        - The PM3 Hamiltonian to be used
 *  OLDGEO     - PREVIOUS GEOMETRY TO BE USED
 *  PRECISE    - TIGHTER CRITERIA TO BE USED
 *  NOSYM      - POINT-GROUP SYMMETRY SET TO C1
 *  THREADS=1  - MULTI-THREADING NOT USED
 *  T=         - A TIME OF 172800.0 SECONDS REQUESTED
 *  DUMP=N     - RESTART FILE WRITTEN EVERY 7200.0 SECONDS REQUESTED
 *  THERMO     - THERMODYNAMIC QUANTITIES TO BE CALCULATED
 *******************************************************************************
oldgeo thermo nosym precise THREADS=1  pm3
 InChI=1S/C7H10/c1-2-7-5-3-4-6-7/h2-3,5,7H,1,4,6H2

   ATOM   CHEMICAL          X               Y               Z
  NUMBER   SYMBOL      (ANGSTROMS)     (ANGSTROMS)     (ANGSTROMS)

     1       C          0.35862320  *   0.03449904  *   0.43435348  *
     2       C         -0.43737436  *  -1.17274246  *  -0.11195505  *
     3       C         -1.89411295  *  -0.70326397  *  -0.23936303  *
     4       C         -0.65379626  *   1.14377467  *   0.52186945  *
     5       C         -1.87542741  *   0.73650804  *   0.16193362  *
     6       C          1.48507204  *   0.41110547  *  -0.47095250  *
     7       C          2.75014922  *   0.45296267  *  -0.07064347  *
     8       H          0.74301785  *  -0.18509859  *   1.45913290  *
     9       H         -0.03945344  *  -1.50981091  *  -1.08667878  *
    10       H         -0.35090110  *  -2.04151903  *   0.56409631  *
    11       H         -2.28148887  *  -0.81992954  *  -1.26807595  *
    12       H         -2.57548793  *  -1.28111414  *   0.41199347  *
    13       H         -2.78302496  *   1.33930549  *   0.14733465  *
    14       H         -0.36656197  *   2.14238295  *   0.84926380  *
    15       H          1.20607243  *   0.65698933  *  -1.50276734  *
    16       H          3.56428932  *   0.72772214  *  -0.73431194  *
    17       H          3.06464542  *   0.21769918  *   0.94275804  *



          CARTESIAN COORDINATES 

    NO.       ATOM           X           Y           Z

     1         C          0.3586      0.0345      0.4344
     2         C         -0.4374     -1.1727     -0.1120
     3         C         -1.8941     -0.7033     -0.2394
     4         C         -0.6538      1.1438      0.5219
     5         C         -1.8754      0.7365      0.1619
     6         C          1.4851      0.4111     -0.4710
     7         C          2.7501      0.4530     -0.0706
     8         H          0.7430     -0.1851      1.4591
     9         H         -0.0395     -1.5098     -1.0867
    10         H         -0.3509     -2.0415      0.5641
    11         H         -2.2815     -0.8199     -1.2681
    12         H         -2.5755     -1.2811      0.4120
    13         H         -2.7830      1.3393      0.1473
    14         H         -0.3666      2.1424      0.8493
    15         H          1.2061      0.6570     -1.5028
    16         H          3.5643      0.7277     -0.7343
    17         H          3.0646      0.2177      0.9428

  H: (PM3): J. J. P. STEWART, J. COMP. CHEM. 10, 209 (1989).
  C: (PM3): J. J. P. STEWART, J. COMP. CHEM. 10, 209 (1989).

           Empirical Formula: C7 H10  =    17 atoms



      MOLECULAR POINT GROUP   :   C1  


      RHF CALCULATION, NO. OF DOUBLY OCCUPIED LEVELS = 19



          HEAT OF FORMATION =      22.854281 KCALS/MOLE


          CARTESIAN COORDINATE DERIVATIVES

   NUMBER  ATOM         X            Y            Z

     1       C     -0.000321    -0.000436     0.000649
     2       C     -0.001125    -0.000655     0.002985
     3       C      0.000704     0.001601     0.001699
     4       C     -0.002138     0.000033    -0.002028
     5       C      0.000065     0.003202    -0.000497
     6       C      0.001045     0.001564     0.002592
     7       C     -0.002924     0.002007     0.002002
     8       H      0.000684     0.002645    -0.000755
     9       H     -0.003491    -0.004503     0.001447
    10       H      0.002271     0.001697    -0.002215
    11       H      0.002193     0.000548    -0.001253
    12       H     -0.003379    -0.002715     0.000726
    13       H     -0.000285     0.002415    -0.000592
    14       H      0.001217    -0.000570    -0.002127
    15       H      0.003497    -0.004605    -0.002068
    16       H      0.000244    -0.000021     0.000450
    17       H      0.001743    -0.002207    -0.001014



          GRADIENT NORM =   0.01429

          MOLECULAR WEIGHT =   94.16



          ROTATIONAL CONSTANTS IN CM(-1)

          A =    0.21008846   B =    0.06128264   C =    0.05207001



           PRINCIPAL MOMENTS OF INERTIA IN UNITS OF 10**(-40)*GRAM-CM**2

          A =      133.2427   B =      456.7811   C =      537.5983


          ORIENTATION OF MOLECULE IN FORCE CALCULATION

    NO.       ATOM         X         Y         Z

     1          C      -0.2887   -0.3604   -0.3334
     2          C       1.2571   -0.3604   -0.3334
     3          C       1.6856    1.1144   -0.3334
     4          C      -0.6646    1.0944   -0.2595
     5          C       0.4098    1.8903   -0.2668
     6          C      -0.8429   -1.1139    0.8308
     7          C      -1.6685   -2.1449    0.6968
     8          H      -0.6773   -0.7856   -1.2896
     9          H       1.6599   -0.8936    0.5473
    10          H       1.6522   -0.8956   -1.2147
    11          H       2.3398    1.3587    0.5236
    12          H       2.2576    1.3810   -1.2412
    13          H       0.4115    2.9794   -0.2329
    14          H      -1.7081    1.4034   -0.2099
    15          H      -0.5266   -0.7628    1.8206
    16          H      -2.0678   -2.6882    1.5478
    17          H      -2.0049   -2.5202   -0.2661


    FIRST DERIVATIVES WILL BE USED IN THE CALCULATION OF SECOND DERIVATIVES

          ESTIMATED TIME TO COMPLETE CALCULATION =        1.59 SECONDS

    FOR POINT-GROUP C1   THERE ARE   1 UNIQUE SYMMETRY FUNCTIONS.

 STEP:   1 TIME =     0.02 SECS, INTEGRAL =      0.02 TIME LEFT: 172799.97
 STEP:   2 TIME =     0.02 SECS, INTEGRAL =      0.04 TIME LEFT: 172799.95
 STEP:   3 TIME =     0.01 SECS, INTEGRAL =      0.05 TIME LEFT: 172799.94
 STEP:   4 TIME =     0.01 SECS, INTEGRAL =      0.06 TIME LEFT: 172799.93
 STEP:   5 TIME =     0.01 SECS, INTEGRAL =      0.07 TIME LEFT: 172799.92
 STEP:   6 TIME =     0.01 SECS, INTEGRAL =      0.09 TIME LEFT: 172799.91
 STEP:   7 TIME =     0.01 SECS, INTEGRAL =      0.10 TIME LEFT: 172799.89
 STEP:   8 TIME =     0.01 SECS, INTEGRAL =      0.11 TIME LEFT: 172799.88
 STEP:   9 TIME =     0.02 SECS, INTEGRAL =      0.12 TIME LEFT: 172799.87
 STEP:  10 TIME =     0.01 SECS, INTEGRAL =      0.14 TIME LEFT: 172799.86
 STEP:  11 TIME =     0.02 SECS, INTEGRAL =      0.15 TIME LEFT: 172799.84
 STEP:  12 TIME =     0.01 SECS, INTEGRAL =      0.16 TIME LEFT: 172799.83
 STEP:  13 TIME =     0.01 SECS, INTEGRAL =      0.18 TIME LEFT: 172799.82
 STEP:  14 TIME =     0.01 SECS, INTEGRAL =      0.19 TIME LEFT: 172799.80
 STEP:  15 TIME =     0.01 SECS, INTEGRAL =      0.20 TIME LEFT: 172799.79
 STEP:  16 TIME =     0.01 SECS, INTEGRAL =      0.21 TIME LEFT: 172799.78
 STEP:  17 TIME =     0.02 SECS, INTEGRAL =      0.23 TIME LEFT: 172799.77
 STEP:  18 TIME =     0.01 SECS, INTEGRAL =      0.24 TIME LEFT: 172799.75
 STEP:  19 TIME =     0.01 SECS, INTEGRAL =      0.25 TIME LEFT: 172799.74
 STEP:  20 TIME =     0.01 SECS, INTEGRAL =      0.26 TIME LEFT: 172799.73
 STEP:  21 TIME =     0.01 SECS, INTEGRAL =      0.27 TIME LEFT: 172799.72
 STEP:  22 TIME =     0.01 SECS, INTEGRAL =      0.29 TIME LEFT: 172799.71
 STEP:  23 TIME =     0.02 SECS, INTEGRAL =      0.30 TIME LEFT: 172799.69
 STEP:  24 TIME =     0.01 SECS, INTEGRAL =      0.31 TIME LEFT: 172799.68
 STEP:  25 TIME =     0.02 SECS, INTEGRAL =      0.33 TIME LEFT: 172799.66
 STEP:  26 TIME =     0.01 SECS, INTEGRAL =      0.34 TIME LEFT: 172799.65
 STEP:  27 TIME =     0.01 SECS, INTEGRAL =      0.35 TIME LEFT: 172799.64
 STEP:  28 TIME =     0.02 SECS, INTEGRAL =      0.37 TIME LEFT: 172799.62
 STEP:  29 TIME =     0.01 SECS, INTEGRAL =      0.38 TIME LEFT: 172799.61
 STEP:  30 TIME =     0.01 SECS, INTEGRAL =      0.39 TIME LEFT: 172799.60
 STEP:  31 TIME =     0.02 SECS, INTEGRAL =      0.41 TIME LEFT: 172799.59
 STEP:  32 TIME =     0.02 SECS, INTEGRAL =      0.42 TIME LEFT: 172799.57
 STEP:  33 TIME =     0.01 SECS, INTEGRAL =      0.43 TIME LEFT: 172799.56
 STEP:  34 TIME =     0.01 SECS, INTEGRAL =      0.45 TIME LEFT: 172799.55
 STEP:  35 TIME =     0.02 SECS, INTEGRAL =      0.46 TIME LEFT: 172799.53
 STEP:  36 TIME =     0.02 SECS, INTEGRAL =      0.48 TIME LEFT: 172799.52
 STEP:  37 TIME =     0.02 SECS, INTEGRAL =      0.49 TIME LEFT: 172799.50
 STEP:  38 TIME =     0.01 SECS, INTEGRAL =      0.50 TIME LEFT: 172799.49
 STEP:  39 TIME =     0.02 SECS, INTEGRAL =      0.52 TIME LEFT: 172799.47
 STEP:  40 TIME =     0.01 SECS, INTEGRAL =      0.53 TIME LEFT: 172799.46
 STEP:  41 TIME =     0.01 SECS, INTEGRAL =      0.54 TIME LEFT: 172799.45
 STEP:  42 TIME =     0.02 SECS, INTEGRAL =      0.56 TIME LEFT: 172799.43
 STEP:  43 TIME =     0.01 SECS, INTEGRAL =      0.57 TIME LEFT: 172799.42
 STEP:  44 TIME =     0.01 SECS, INTEGRAL =      0.58 TIME LEFT: 172799.41
 STEP:  45 TIME =     0.01 SECS, INTEGRAL =      0.59 TIME LEFT: 172799.40
 STEP:  46 TIME =     0.02 SECS, INTEGRAL =      0.61 TIME LEFT: 172799.38
 STEP:  47 TIME =     0.01 SECS, INTEGRAL =      0.62 TIME LEFT: 172799.37
 STEP:  48 TIME =     0.01 SECS, INTEGRAL =      0.63 TIME LEFT: 172799.36
 STEP:  49 TIME =     0.02 SECS, INTEGRAL =      0.65 TIME LEFT: 172799.34
 STEP:  50 TIME =     0.01 SECS, INTEGRAL =      0.66 TIME LEFT: 172799.33
 STEP:  51 TIME =     0.01 SECS, INTEGRAL =      0.67 TIME LEFT: 172799.32

(To convert to Hartree/Bohr^2, multiply by (10^(-21) x N x a0^2)/(4.184 x 627.51) =  0.0642)


           FORCE MATRIX IN MILLIDYNES/ANGSTROM


                  C  1       C  2       C  3       C  4       C  5       C  6
 ------------------------------------------------------------------------------
     C    1  14.965104
     C    2   3.443162  14.166591
     C    3   0.723865   3.768413  14.666994
     C    4   4.406346   0.862560   1.178444  18.321983
     C    5   1.141014   0.883316   4.739074  10.597717  18.369804
     C    6   4.772758   0.619456   0.036046   0.702859   0.044048  18.191608
     C    7   0.818636   0.036925   0.004564   0.039275   0.006742  11.089436
     H    8   4.240534   0.419893   0.025146   0.402767   0.037486   0.453114
     H    9   0.454285   4.547256   0.440281   0.024494   0.026704   0.065778
     H   10   0.441305   4.585893   0.440290   0.030422   0.030075   0.025462
     H   11   0.031494   0.436040   4.525561   0.039101   0.431127   0.002071
     H   12   0.026421   0.436120   4.516820   0.037920   0.429919   0.006141
     H   13   0.116603   0.043417   0.413293   0.448629   5.017627   0.017790
     H   14   0.414585   0.041824   0.118740   5.026344   0.448269   0.009463
     H   15   0.436692   0.019168   0.001548   0.012021   0.003168   4.796069
     H   16   0.139790   0.017850   0.002185   0.019609   0.003018   0.461172
     H   17   0.099432   0.010996   0.001843   0.012071   0.002489   0.490742


                  C  7       H  8       H  9       H 10       H 11       H 12
 ------------------------------------------------------------------------------
     C    7  18.033073
     H    8   0.053704   4.704380
     H    9   0.003865   0.027485   5.165757
     H   10   0.003578   0.029010   0.582731   5.189252
     H   11   0.000523   0.003845   0.029048   0.026546   5.131491
     H   12   0.000760   0.001305   0.028763   0.029000   0.575263   5.123240
     H   13   0.002117   0.015399   0.002883   0.003411   0.014973   0.014130
     H   14   0.003072   0.013742   0.002621   0.003289   0.016162   0.016534
     H   15   0.453227   0.038583   0.023383   0.001344   0.000635   0.000812
     H   16   5.104394   0.002167   0.000948   0.001573   0.000202   0.000473
     H   17   5.066014   0.029866   0.000845   0.001199   0.000175   0.000168


                  H 13       H 14       H 15       H 16       H 17
 ------------------------------------------------------------------
     H   13   5.413077
     H   14   0.049052   5.420435
     H   15   0.000937   0.003474   5.166354
     H   16   0.001134   0.000790   0.081359   5.493277
     H   17   0.000693   0.001036   0.120741   0.425146   5.462961


          HEAT OF FORMATION =      22.854281 KCALS/MOLE

          ZERO POINT ENERGY      92.747 KCAL/MOL


           NORMAL COORDINATE ANALYSIS (Total motion = 1 Angstrom)


   Root No.       1         2         3         4         5         6         7         8

                 1 A       2 A       3 A       4 A       5 A       6 A       7 A       8 A   

                  37.3      69.9     248.8     335.9     395.5     466.5     642.3     691.7
  
           1   -0.0274   -0.0079    0.0119   -0.0224   -0.0056    0.0049   -0.0002    0.0365
           2    0.0221   -0.0035   -0.0140    0.0166    0.0023    0.0025   -0.0093    0.0234
           3    0.0020   -0.0252   -0.0341   -0.0253    0.0158   -0.0347   -0.0054    0.0250
           4   -0.0270   -0.0077    0.0126   -0.0209   -0.0131   -0.0007    0.0175    0.0337
           5   -0.0117   -0.0063   -0.0016   -0.0020   -0.0213   -0.0208    0.0060   -0.0361
           6    0.0059   -0.0435    0.0034    0.0324    0.0074    0.0136   -0.0039    0.0058
           7    0.0049   -0.0025   -0.0026   -0.0017   -0.0174   -0.0164    0.0160   -0.0313
           8   -0.0212   -0.0079    0.0033   -0.0103   -0.0248   -0.0205    0.0117   -0.0233
           9   -0.0036    0.0539   -0.0203    0.0040   -0.0042    0.0094   -0.0039    0.0077
          10    0.0045   -0.0055   -0.0012   -0.0042   -0.0201   -0.0163    0.0046   -0.0131
          11    0.0300   -0.0025   -0.0179    0.0232   -0.0038   -0.0090   -0.0251    0.0195
          12    0.0014   -0.0332   -0.0106   -0.0228   -0.0291    0.0520    0.0063    0.0066
          13    0.0218   -0.0030   -0.0069    0.0091   -0.0129   -0.0170   -0.0012   -0.0168
          14    0.0067   -0.0056   -0.0104    0.0071   -0.0147   -0.0125   -0.0193    0.0176
          15   -0.0023    0.0136    0.0581    0.0091    0.0220   -0.0253   -0.0050    0.0059
          16   -0.0387    0.0111   -0.0127    0.0251    0.0329    0.0233   -0.0553   -0.0105
          17    0.0292    0.0168    0.0250   -0.0192    0.0283    0.0261    0.0451    0.0079
          18    0.0011   -0.0023   -0.0201   -0.0265    0.0465   -0.0265    0.0048   -0.0252
          19    0.0585    0.0149   -0.0004    0.0076    0.0351    0.0214    0.0040   -0.0013
          20   -0.0479    0.0095    0.0113   -0.0099    0.0400    0.0308   -0.0013   -0.0021
          21   -0.0044    0.0319    0.0186    0.0189   -0.0426   -0.0065   -0.0010   -0.0010
          22   -0.0350   -0.0227    0.0307   -0.0140   -0.0152    0.0046    0.0226    0.0567
          23    0.0308   -0.0187   -0.0267    0.0255   -0.0310    0.0362   -0.0330    0.0529
          24    0.0012   -0.0120   -0.0345   -0.0313    0.0331   -0.0480   -0.0038    0.0030
          25   -0.0425    0.0043   -0.0090   -0.0620   -0.0101   -0.0388    0.0218    0.0837
          26   -0.0134   -0.0732    0.0289    0.0305   -0.0189    0.0005    0.0045   -0.0935
          27    0.0119   -0.0898    0.0322    0.0729    0.0083    0.0462   -0.0084   -0.0537
          28   -0.0359   -0.0229    0.0448    0.0130   -0.0226    0.0386    0.0170   -0.0121
          29   -0.0276    0.0581   -0.0238   -0.0457   -0.0332   -0.0480    0.0175    0.0122
          30    0.0116   -0.0898    0.0318    0.0749    0.0101    0.0485   -0.0108   -0.0479
          31    0.0140   -0.0581    0.0646    0.0221    0.0189   -0.0690   -0.0073    0.0147
          32   -0.0310   -0.0515    0.0072   -0.0063   -0.0254   -0.0076    0.0231    0.0002
          33   -0.0078    0.1090   -0.0737   -0.0156   -0.0327    0.0473    0.0116   -0.0372
          34    0.0066    0.0585   -0.0799   -0.0192   -0.0566    0.0354    0.0341   -0.0977
          35   -0.0383    0.0335    0.0129   -0.0328   -0.0266   -0.0299    0.0233   -0.0289
          36   -0.0075    0.1047   -0.0670   -0.0141   -0.0301    0.0410    0.0114   -0.0373
          37    0.0457   -0.0013   -0.0149    0.0270   -0.0007   -0.0107   -0.0275    0.0145
          38    0.0067   -0.0059   -0.0130    0.0066   -0.0160   -0.0119   -0.0206    0.0203
          39   -0.0043    0.0242    0.1406    0.0282    0.0526   -0.0576    0.0286   -0.0860
          40    0.0113   -0.0064   -0.0049    0.0001   -0.0230   -0.0161    0.0051   -0.0274
          41    0.0530    0.0005   -0.0294    0.0410   -0.0057   -0.0271   -0.0344   -0.0140
          42    0.0029   -0.0693   -0.0162   -0.0466   -0.0821    0.1670    0.0805   -0.0899
          43   -0.1258    0.0238   -0.0497    0.1221    0.0518    0.0229    0.0065   -0.0156
          44    0.0979    0.0392    0.0847   -0.0745   -0.0063    0.0590    0.0016   -0.0098
          45    0.0044   -0.0143   -0.0288   -0.0364    0.0504   -0.0373    0.0003   -0.0162
          46    0.0557    0.0308   -0.0222    0.1104    0.0148    0.0108    0.2525    0.0751
          47   -0.0471    0.0255    0.0647   -0.0460   -0.0441    0.0611   -0.2074    0.0032
          48   -0.0052    0.0496    0.0426    0.0446   -0.1080    0.0070   -0.0161    0.0396
          49    0.1472    0.0024    0.0331   -0.1109    0.0567    0.0307   -0.1522   -0.0606
          50   -0.1168   -0.0128   -0.0541    0.0352    0.1358    0.0075    0.1321   -0.0257
          51   -0.0085    0.0450    0.0327    0.0435   -0.0892   -0.0002    0.0013    0.0305


   Root No.       9        10        11        12        13        14        15        16

                 9 A      10 A      11 A      12 A      13 A      14 A      15 A      16 A   

                 751.8     782.1     819.2     900.5     933.7     948.9     991.2    1002.7
  
           1    0.0209    0.0073   -0.0053   -0.0052   -0.0048    0.0037    0.0147   -0.0138
           2   -0.0140    0.0348   -0.0065    0.0046    0.0019    0.0015   -0.0056   -0.0252
           3    0.0001    0.0261   -0.0048   -0.0254    0.0013    0.0119   -0.0024   -0.0095
           4    0.0014    0.0286   -0.0145    0.0369    0.0071   -0.0012   -0.0181    0.0101
           5   -0.0334    0.0069    0.0051   -0.0086   -0.0081    0.0031    0.0255    0.0138
           6   -0.0078    0.0026    0.0308   -0.0142   -0.0034   -0.0179    0.0150    0.0006
           7   -0.0475    0.0201    0.0007   -0.0030    0.0005   -0.0003   -0.0086   -0.0289
           8   -0.0056   -0.0127    0.0018   -0.0049    0.0040   -0.0033   -0.0153   -0.0086
           9   -0.0167   -0.0209    0.0219    0.0176   -0.0002    0.0143   -0.0238   -0.0015
          10    0.0392   -0.0542    0.0073   -0.0210    0.0072   -0.0045   -0.0071   -0.0014
          11    0.0106    0.0232   -0.0040    0.0258   -0.0073    0.0043    0.0069    0.0121
          12   -0.0227   -0.0219   -0.0192   -0.0119   -0.0047   -0.0287   -0.0105    0.0211
          13   -0.0035   -0.0067    0.0029   -0.0005   -0.0011    0.0006    0.0036    0.0142
          14    0.0658   -0.0410    0.0044   -0.0025    0.0011   -0.0003    0.0020   -0.0100
          15   -0.0090   -0.0134   -0.0205   -0.0009    0.0074    0.0111    0.0314   -0.0062
          16   -0.0044    0.0005    0.0040   -0.0070   -0.0417    0.0047   -0.0010    0.0016
          17   -0.0051   -0.0044    0.0003   -0.0087    0.0349   -0.0012   -0.0005    0.0017
          18    0.0128   -0.0071   -0.0043    0.0162    0.0021    0.0068   -0.0092    0.0089
          19   -0.0048   -0.0031    0.0029   -0.0110   -0.0108    0.0036   -0.0028   -0.0014
          20   -0.0072   -0.0043    0.0024   -0.0152    0.0115    0.0024   -0.0019    0.0074
          21    0.0040   -0.0018   -0.0022    0.0302   -0.0040   -0.0196    0.0117   -0.0162
          22    0.0100    0.0424    0.0212    0.0069   -0.0119   -0.0145    0.1461    0.0136
          23   -0.0309    0.0178   -0.0337    0.0190   -0.0048   -0.0606   -0.0891   -0.1315
          24    0.0122    0.0199   -0.0043   -0.0341    0.0070    0.0472   -0.0195    0.0280
          25    0.0044    0.0516    0.0328   -0.0106    0.0133   -0.0368    0.0589    0.0250
          26    0.0152    0.0128   -0.1153   -0.0091    0.0107    0.0466    0.0308    0.0214
          27    0.0229   -0.0044   -0.0685    0.0081    0.0058    0.0272   -0.0180   -0.0027
          28    0.0342   -0.0189   -0.0707    0.1232    0.0110    0.0372   -0.0893    0.0926
          29   -0.0681   -0.0200    0.1229    0.0085   -0.0244   -0.0383    0.0296    0.0854
          30    0.0283   -0.0028   -0.0701    0.0142    0.0088    0.0263   -0.0216   -0.0062
          31   -0.1323   -0.0633    0.0738    0.0415   -0.0004    0.0552   -0.0472   -0.0653
          32   -0.0356    0.0066    0.0712    0.0157   -0.0065   -0.0674   -0.0754    0.0631
          33    0.0583    0.0414   -0.0578   -0.0236    0.0035   -0.0103    0.0254    0.0061
          34    0.0398    0.1011   -0.0715   -0.0728   -0.0056   -0.0556    0.0664   -0.0337
          35   -0.0059    0.0064   -0.0857    0.0298    0.0289    0.0570   -0.0293   -0.0115
          36    0.0429    0.0376   -0.0531   -0.0186    0.0037   -0.0036    0.0207   -0.0062
          37    0.0130    0.0418   -0.0024    0.0517   -0.0257    0.0114    0.0669    0.1352
          38    0.0599   -0.0481    0.0012    0.0000    0.0025    0.0029    0.0067   -0.0099
          39    0.1934    0.2117    0.0806   -0.0530   -0.0425   -0.0936   -0.1204    0.0203
          40    0.0325   -0.0444    0.0148   -0.0063    0.0045    0.0022   -0.0101    0.0306
          41   -0.0350    0.0411   -0.0082    0.0596   -0.0212   -0.0028   -0.0159    0.1279
          42    0.1109    0.0803    0.1611    0.0937    0.0272    0.1555    0.0559   -0.0598
          43   -0.0093   -0.0061    0.0229    0.0208    0.3072   -0.0568    0.0257   -0.0028
          44   -0.0135   -0.0375   -0.0034    0.0148   -0.2617   -0.0263    0.0204   -0.0113
          45    0.0169    0.0073   -0.0092   -0.0020   -0.0036    0.0356   -0.0253    0.0146
          46   -0.0046   -0.0085   -0.0095   -0.1006    0.0215    0.0506   -0.0226    0.0559
          47   -0.0341    0.0394    0.0198   -0.1166    0.0104    0.0676   -0.0443    0.0295
          48   -0.0129    0.0249    0.0028   -0.0784    0.0108    0.0463   -0.0258    0.0256
          49   -0.0047   -0.0065    0.0107    0.0766    0.2050   -0.0728    0.0353   -0.0173
          50    0.0157   -0.0480   -0.0092    0.0900   -0.1873   -0.0558    0.0342   -0.0581
          51   -0.0056    0.0174   -0.0004   -0.0453   -0.0013    0.0319   -0.0170    0.0159


   Root No.      17        18        19        20        21        22        23        24

                17 A      18 A      19 A      20 A      21 A      22 A      23 A      24 A   

                1019.5    1032.6    1061.1    1079.9    1102.8    1114.7    1124.9    1179.6
  
           1    0.0211   -0.0123   -0.0029    0.0057   -0.0031    0.0064    0.0302    0.0112
           2    0.0039   -0.0022   -0.0049    0.0085    0.0059    0.0010    0.0176    0.0159
           3    0.0029   -0.0001    0.0112    0.0079   -0.0025   -0.0058    0.0133    0.0409
           4   -0.0161    0.0081   -0.0054   -0.0021    0.0005   -0.0140   -0.0287   -0.0044
           5    0.0230   -0.0186    0.0039    0.0262    0.0023   -0.0242    0.0029    0.0044
           6   -0.0145    0.0114    0.0114   -0.0078    0.0327    0.0015   -0.0196   -0.0049
           7    0.0027    0.0007   -0.0200   -0.0235   -0.0047    0.0156   -0.0166   -0.0061
           8   -0.0152    0.0132    0.0008   -0.0147   -0.0023    0.0253    0.0015   -0.0063
           9    0.0160   -0.0102    0.0100    0.0047   -0.0371   -0.0020    0.0031   -0.0039
          10   -0.0072    0.0033    0.0135    0.0140    0.0050   -0.0091    0.0146    0.0071
          11    0.0011    0.0007   -0.0106   -0.0180   -0.0057    0.0090   -0.0111   -0.0022
          12    0.0124   -0.0163    0.0016   -0.0183   -0.0068    0.0066   -0.0055   -0.0039
          13   -0.0046    0.0029    0.0111    0.0108    0.0022    0.0042    0.0126    0.0072
          14    0.0062   -0.0052   -0.0171   -0.0165   -0.0043   -0.0001   -0.0264   -0.0096
          15   -0.0238    0.0195   -0.0239    0.0113    0.0055   -0.0022    0.0027    0.0029
          16    0.0121    0.0235   -0.0004   -0.0034    0.0022    0.0017   -0.0014   -0.0007
          17   -0.0111   -0.0180    0.0012    0.0019   -0.0022   -0.0008    0.0013    0.0014
          18   -0.0002   -0.0018   -0.0137    0.0005    0.0094   -0.0002   -0.0034   -0.0409
          19   -0.0283   -0.0299    0.0017    0.0016   -0.0001   -0.0005    0.0021   -0.0036
          20    0.0196    0.0253    0.0014   -0.0014    0.0021    0.0000    0.0006   -0.0050
          21    0.0055   -0.0011    0.0044    0.0020   -0.0023    0.0014    0.0091    0.0074
          22    0.0489   -0.0653    0.0082   -0.1121   -0.0275    0.0364    0.1512   -0.1231
          23   -0.0056    0.0398    0.0568    0.1735    0.0875   -0.0748    0.0471   -0.1332
          24   -0.0042    0.0026   -0.0216   -0.0177   -0.0276    0.0146   -0.0487    0.1631
          25   -0.0693    0.0477    0.0970    0.0254   -0.0936   -0.0920   -0.1398   -0.0874
          26    0.0276   -0.0206    0.0699    0.0832   -0.1479   -0.0877   -0.0305   -0.0263
          27    0.0148   -0.0094    0.0038    0.0123   -0.0148   -0.0011    0.0114    0.0165
          28    0.0379   -0.0499   -0.0946    0.0197    0.1273   -0.0625    0.0120    0.0726
          29    0.0197   -0.0294   -0.0321    0.0392    0.1754   -0.0607   -0.0097    0.0418
          30    0.0116   -0.0077   -0.0043   -0.0041   -0.0153    0.0023    0.0059    0.0090
          31    0.0796   -0.0558    0.0166   -0.0680   -0.0315   -0.0251   -0.0716   -0.0348
          32   -0.0970    0.0835   -0.1032    0.0994   -0.1336    0.1171    0.1048    0.0217
          33   -0.0198    0.0131    0.0115    0.0060    0.0208    0.0026    0.0118    0.0083
          34   -0.0240    0.0190   -0.1235   -0.0224    0.0223   -0.0279   -0.0539   -0.0179
          35   -0.0401    0.0247    0.2084   -0.0740    0.1317    0.1374    0.0051    0.0069
          36   -0.0101    0.0061    0.0073   -0.0122    0.0194    0.0037   -0.0171   -0.0067
          37    0.0383   -0.0392    0.0471    0.1573   -0.0006    0.1810   -0.0799   -0.0461
          38    0.0026   -0.0024   -0.0198   -0.0165   -0.0041    0.0017   -0.0278   -0.0105
          39    0.0730   -0.0554    0.0502   -0.0250   -0.0174   -0.0040   -0.0023    0.0010
          40   -0.0331    0.0258    0.0351   -0.0190   -0.0021   -0.0526    0.0587    0.0044
          41   -0.0770    0.0661    0.0571   -0.1388   -0.0314   -0.1324    0.1253   -0.0159
          42   -0.0394    0.0466    0.0003    0.0271    0.0047   -0.0144    0.0119    0.0112
          43   -0.0424   -0.0593    0.0337   -0.0075   -0.0259   -0.0078   -0.0361    0.1100
          44    0.0135    0.0665    0.0452   -0.0106   -0.0265   -0.0139   -0.0647    0.1366
          45    0.0087   -0.0055   -0.0400    0.0065    0.0273    0.0074    0.0315   -0.1238
          46    0.1053    0.1233   -0.0082   -0.0062    0.0121   -0.0028   -0.0062   -0.0313
          47   -0.1025   -0.0892   -0.0077    0.0043    0.0113   -0.0066   -0.0083   -0.0365
          48   -0.0095   -0.0025   -0.0076    0.0021    0.0099   -0.0036   -0.0002   -0.0281
          49    0.1003    0.0972    0.0191   -0.0038   -0.0042    0.0023    0.0139    0.0253
          50   -0.0690   -0.0810    0.0265    0.0085   -0.0127   -0.0009    0.0202    0.0314
          51   -0.0051   -0.0040   -0.0117    0.0004    0.0059    0.0005   -0.0017   -0.0202


   Root No.      25        26        27        28        29        30        31        32

                25 A      26 A      27 A      28 A      29 A      30 A      31 A      32 A   

                1195.2    1228.2    1268.2    1290.8    1328.2    1359.4    1398.5    1415.5
  
           1   -0.0053    0.0381   -0.0096    0.0615    0.0237    0.0110    0.0148    0.0160
           2   -0.0153   -0.0274   -0.0174   -0.0162   -0.0357    0.0034    0.0495    0.0495
           3    0.0192    0.0069    0.0282   -0.0268   -0.0075   -0.0145   -0.0281   -0.0236
           4   -0.0086   -0.0066   -0.0404   -0.0415    0.0045    0.0005    0.0048   -0.0299
           5   -0.0087   -0.0018   -0.0428   -0.0157    0.0189   -0.0013   -0.0183   -0.0055
           6   -0.0126    0.0021   -0.0069    0.0090    0.0023    0.0025    0.0041    0.0045
           7    0.0064    0.0003    0.0070    0.0062    0.0163   -0.0220   -0.0405    0.0416
           8    0.0106    0.0310    0.0224   -0.0026   -0.0358    0.0581    0.0074   -0.0103
           9    0.0010   -0.0012    0.0013   -0.0007   -0.0017    0.0017    0.0018   -0.0018
          10   -0.0064   -0.0145   -0.0087   -0.0174   -0.0126   -0.0040    0.0115    0.0055
          11    0.0019   -0.0153    0.0101    0.0343    0.0265    0.0240   -0.0128   -0.0352
          12   -0.0072   -0.0041   -0.0040    0.0037    0.0003    0.0024    0.0031    0.0020
          13   -0.0040   -0.0258    0.0056    0.0143    0.0009    0.0363    0.0039   -0.0322
          14    0.0053    0.0046   -0.0023   -0.0122    0.0121   -0.0338   -0.0158    0.0133
          15    0.0027    0.0024    0.0012   -0.0015    0.0004   -0.0026   -0.0017    0.0006
          16   -0.0076   -0.0066   -0.0018    0.0005   -0.0166   -0.0059   -0.0045   -0.0034
          17   -0.0101    0.0067   -0.0025    0.0112   -0.0124   -0.0076   -0.0109   -0.0075
          18    0.0359   -0.0123   -0.0287    0.0207    0.0068    0.0121    0.0236    0.0182
          19   -0.0089    0.0042    0.0065   -0.0014   -0.0063   -0.0071   -0.0141   -0.0115
          20   -0.0105    0.0007    0.0079   -0.0052   -0.0101   -0.0090   -0.0166   -0.0136
          21   -0.0273    0.0047    0.0096   -0.0054   -0.0033   -0.0034   -0.0052   -0.0034
          22    0.1312   -0.1087    0.0505   -0.0987   -0.0623   -0.0246   -0.0128   -0.0202
          23    0.1113    0.0626    0.0186    0.0232    0.0280   -0.0182   -0.0557   -0.0440
          24   -0.0899    0.0260   -0.0134    0.0213   -0.0014    0.0097    0.0301    0.0319
          25   -0.0335   -0.0648    0.1200    0.0680   -0.0555    0.0310   -0.0163    0.1169
          26   -0.0134   -0.0505    0.0906    0.0749    0.0061   -0.0593    0.0570    0.0039
          27   -0.0027    0.0013   -0.0005    0.0121    0.0204   -0.0413    0.0508   -0.0507
          28    0.0558   -0.0397    0.1580    0.0057   -0.0620    0.0051   -0.0515    0.0768
          29   -0.0055   -0.0303    0.0871    0.0715    0.0111   -0.0652    0.0522   -0.0014
          30    0.0127    0.0045    0.0030   -0.0211   -0.0204    0.0377   -0.0558    0.0422
          31    0.0193    0.0623    0.0519   -0.0046   -0.0332   -0.0637    0.1210   -0.0773
          32    0.0169   -0.0711    0.0253    0.0373    0.0609   -0.1368    0.0227   -0.0069
          33   -0.0098   -0.0174   -0.0296   -0.0032    0.0080    0.0774   -0.1101    0.0762
          34    0.0257    0.0679    0.0555   -0.0055   -0.0326   -0.0720    0.1291   -0.0859
          35   -0.0185   -0.0683    0.0072    0.0477    0.0622   -0.1295    0.0265   -0.0009
          36    0.0033    0.0102    0.0232    0.0063   -0.0032   -0.0738    0.0996   -0.0680
          37    0.0411    0.1552    0.0105   -0.0825   -0.0657   -0.0367    0.0075    0.0618
          38    0.0062    0.0057   -0.0014   -0.0127    0.0130   -0.0352   -0.0179    0.0134
          39   -0.0004   -0.0043    0.0016   -0.0001    0.0024   -0.0019   -0.0037   -0.0037
          40   -0.0027    0.0420   -0.0193   -0.0274   -0.0206   -0.0309    0.0174    0.0345
          41    0.0127    0.1711   -0.0243    0.0019    0.0027   -0.0664    0.0021    0.0617
          42    0.0138    0.0101    0.0083   -0.0037    0.0009   -0.0041   -0.0065   -0.0040
          43    0.1831    0.0034   -0.0446    0.0318    0.0139    0.0087    0.0194    0.0111
          44    0.2233   -0.0251   -0.0496    0.0165   -0.0004    0.0107    0.0290    0.0219
          45   -0.1031   -0.0047   -0.0003    0.0102   -0.0076    0.0011    0.0032    0.0039
          46    0.0376    0.0009    0.0378   -0.0582    0.1027    0.0424    0.0409    0.0271
          47    0.0464   -0.0028    0.0441   -0.0777    0.1169    0.0496    0.0518    0.0346
          48    0.0311   -0.0002    0.0416   -0.0708    0.1198    0.0542    0.0625    0.0446
          49   -0.0481    0.0101    0.0731   -0.0944    0.0965    0.0356    0.0346    0.0234
          50   -0.0607    0.0282    0.0944   -0.1068    0.1349    0.0480    0.0412    0.0281
          51    0.0066   -0.0078   -0.0435    0.0612   -0.0884   -0.0378   -0.0423   -0.0303


   Root No.      33        34        35        36        37        38        39        40

                33 A      34 A      35 A      36 A      37 A      38 A      39 A      40 A   

                1421.0    1829.4    1861.5    2884.5    2972.7    2991.0    3044.3    3055.3
  
           1   -0.0080    0.0089   -0.0168   -0.0236    0.0004   -0.0007   -0.0007   -0.0004
           2    0.0044    0.0196   -0.0231   -0.0262    0.0004   -0.0006   -0.0007   -0.0002
           3    0.0021   -0.0026    0.0212   -0.0582    0.0009   -0.0016   -0.0017    0.0000
           4    0.0229    0.0046   -0.0010   -0.0010    0.0005   -0.0013   -0.0007   -0.0029
           5   -0.0421   -0.0060   -0.0008    0.0001   -0.0006    0.0014    0.0010    0.0047
           6   -0.0013   -0.0001    0.0003    0.0041    0.0202   -0.0401   -0.0000    0.0006
           7    0.0238   -0.0185   -0.0004    0.0002   -0.0015   -0.0007    0.0002    0.0342
           8    0.0182   -0.0012    0.0001    0.0001    0.0007    0.0004    0.0001    0.0141
           9   -0.0009    0.0005   -0.0000   -0.0002   -0.0405   -0.0197    0.0000   -0.0005
          10   -0.0028   -0.1625   -0.0141    0.0002   -0.0000    0.0000    0.0000    0.0002
          11   -0.0040   -0.1494   -0.0140   -0.0009    0.0000   -0.0000    0.0001   -0.0003
          12   -0.0001    0.0008    0.0014   -0.0001   -0.0002   -0.0001   -0.0002   -0.0000
          13   -0.0082    0.1916    0.0164    0.0004    0.0000    0.0000    0.0000    0.0005
          14    0.0048    0.1113    0.0109    0.0004    0.0000    0.0000    0.0000   -0.0017
          15    0.0005   -0.0026    0.0000   -0.0003   -0.0000   -0.0001   -0.0000   -0.0001
          16    0.0016   -0.0149    0.1354    0.0005    0.0002   -0.0004   -0.0220    0.0001
          17   -0.0008   -0.0145    0.1717    0.0005    0.0000   -0.0001   -0.0249    0.0001
          18   -0.0004    0.0014   -0.0166    0.0015   -0.0001    0.0001   -0.0594    0.0003
          19    0.0006    0.0116   -0.1170    0.0000   -0.0000    0.0000    0.0008    0.0000
          20    0.0012    0.0143   -0.1466    0.0000   -0.0000    0.0000    0.0008    0.0000
          21   -0.0001    0.0017   -0.0156   -0.0005    0.0000   -0.0000    0.0053   -0.0000
          22    0.0252   -0.0219    0.0228    0.2855   -0.0055    0.0101    0.0046   -0.0003
          23   -0.0055    0.0166    0.0322    0.3122   -0.0044    0.0082    0.0046    0.0001
          24   -0.0068    0.0057   -0.0182    0.7047   -0.0099    0.0176    0.0191   -0.0001
          25   -0.1226    0.0020   -0.0098   -0.0069   -0.0615    0.1213    0.0061    0.0183
          26    0.1736   -0.0016   -0.0032    0.0132    0.0761   -0.1599   -0.0056   -0.0220
          27    0.1704    0.0048    0.0052   -0.0220   -0.1279    0.2562    0.0093    0.0441
          28   -0.1088    0.0005    0.0017    0.0068    0.0539   -0.1041    0.0047    0.0207
          29    0.1765   -0.0025    0.0015   -0.0170   -0.0691    0.1428   -0.0064   -0.0263
          30   -0.1670   -0.0053    0.0018   -0.0273   -0.1139    0.2230   -0.0118   -0.0508
          31   -0.0820   -0.0229   -0.0020    0.0015    0.1840    0.0901   -0.0013   -0.2239
          32   -0.0697    0.0241    0.0030    0.0004    0.0677    0.0361   -0.0004   -0.0824
          33    0.0911    0.0018    0.0010    0.0020    0.2330    0.1124   -0.0018   -0.3347
          34   -0.0897   -0.0208   -0.0018   -0.0003   -0.1661   -0.0820   -0.0010   -0.1850
          35   -0.0681    0.0239    0.0026    0.0005   -0.0759   -0.0404   -0.0004   -0.0879
          36   -0.0847    0.0014   -0.0007    0.0002    0.2556    0.1244    0.0018    0.3413
          37    0.0236   -0.0521   -0.0031    0.0003   -0.0001   -0.0000    0.0000    0.0017
          38    0.0058    0.1525    0.0152    0.0041   -0.0003   -0.0001   -0.0001    0.0177
          39   -0.0006    0.0072    0.0011   -0.0007   -0.0009   -0.0005    0.0001    0.0005
          40   -0.0004   -0.1342   -0.0124   -0.0053    0.0001   -0.0002    0.0001   -0.0091
          41    0.0075    0.0925    0.0067   -0.0001    0.0000    0.0000   -0.0001    0.0023
          42    0.0005    0.0063    0.0012   -0.0012   -0.0004   -0.0003   -0.0001    0.0004
          43    0.0034    0.0013   -0.0015   -0.0084    0.0004   -0.0009    0.2222   -0.0012
          44    0.0027    0.0013   -0.0091   -0.0100    0.0002   -0.0004    0.2478   -0.0013
          45   -0.0015   -0.0127    0.1306   -0.0174    0.0002   -0.0003    0.7098   -0.0036
          46   -0.0033    0.0021   -0.0210    0.0010   -0.0001    0.0001    0.0266   -0.0002
          47   -0.0017    0.0020   -0.0332    0.0014   -0.0000    0.0001    0.0366   -0.0002
          48   -0.0037   -0.0137    0.1365   -0.0016    0.0001   -0.0002   -0.0650    0.0004
          49   -0.0015   -0.0010   -0.0010    0.0027   -0.0001    0.0003    0.0035   -0.0000
          50   -0.0050   -0.0005    0.0065    0.0032   -0.0001    0.0003    0.0041   -0.0000
          51    0.0030    0.0150   -0.1478    0.0032   -0.0003    0.0007    0.0061   -0.0001


   Root No.      41        42        43        44        45

                41 A      42 A      43 A      44 A      45 A   

                3069.1    3115.6    3134.1    3134.8    3146.8
  
           1    0.0006   -0.0000   -0.0001   -0.0006   -0.0003
           2   -0.0003    0.0004   -0.0001   -0.0008   -0.0004
           3   -0.0004   -0.0000    0.0004   -0.0002   -0.0002
           4    0.0218   -0.0000   -0.0001    0.0010    0.0000
           5   -0.0292    0.0002    0.0001   -0.0013    0.0000
           6   -0.0034    0.0000    0.0001   -0.0001   -0.0000
           7    0.0046   -0.0004   -0.0002    0.0020   -0.0000
           8    0.0014   -0.0003   -0.0001    0.0006    0.0000
           9   -0.0003   -0.0000    0.0000   -0.0000   -0.0000
          10    0.0004   -0.0339    0.0045   -0.0395    0.0002
          11    0.0000    0.0104   -0.0008    0.0067    0.0000
          12   -0.0000    0.0016   -0.0002    0.0017   -0.0000
          13   -0.0001   -0.0003   -0.0006    0.0048   -0.0000
          14   -0.0007   -0.0406   -0.0040    0.0356   -0.0003
          15   -0.0000   -0.0013   -0.0001    0.0010   -0.0000
          16   -0.0002   -0.0001    0.0019    0.0001   -0.0055
          17   -0.0004    0.0001    0.0024    0.0003   -0.0067
          18   -0.0010    0.0000   -0.0011   -0.0001   -0.0053
          19    0.0000   -0.0000   -0.0135   -0.0010    0.0286
          20    0.0000   -0.0000   -0.0141   -0.0010    0.0374
          21    0.0001   -0.0000   -0.0584   -0.0048   -0.0303
          22    0.0028   -0.0006   -0.0023    0.0004    0.0010
          23    0.0015    0.0012   -0.0030    0.0019    0.0010
          24    0.0046    0.0006   -0.0021    0.0032    0.0038
          25   -0.1253    0.0005   -0.0001   -0.0026    0.0004
          26    0.1634   -0.0004    0.0001    0.0035   -0.0002
          27   -0.3144    0.0009   -0.0002   -0.0068    0.0003
          28   -0.1388    0.0006    0.0003   -0.0029   -0.0001
          29    0.1886   -0.0004   -0.0004    0.0040    0.0000
          30    0.3542   -0.0010   -0.0006    0.0076    0.0001
          31   -0.0299    0.0045    0.0009   -0.0086    0.0001
          32   -0.0120   -0.0001    0.0002   -0.0020    0.0000
          33   -0.0454    0.0053    0.0012   -0.0117    0.0002
          34   -0.0264    0.0035    0.0008   -0.0070    0.0001
          35   -0.0138    0.0000    0.0002   -0.0022    0.0000
          36    0.0486   -0.0052   -0.0013    0.0118   -0.0001
          37   -0.0001   -0.0025    0.0001   -0.0003   -0.0000
          38    0.0122    0.4794    0.0421   -0.3729    0.0028
          39    0.0004    0.0150    0.0013   -0.0116    0.0001
          40   -0.0096    0.4062   -0.0461    0.4045   -0.0019
          41    0.0031   -0.1236    0.0137   -0.1204    0.0005
          42    0.0005   -0.0194    0.0023   -0.0193    0.0000
          43    0.0039   -0.0000    0.0063    0.0005    0.0191
          44    0.0039   -0.0000    0.0073    0.0007    0.0215
          45    0.0113   -0.0001    0.0120    0.0012    0.0555
          46    0.0005    0.0003   -0.0653   -0.0062   -0.2440
          47    0.0006    0.0002   -0.0877   -0.0084   -0.3329
          48   -0.0011   -0.0005    0.1163    0.0114    0.5372
          49   -0.0002    0.0001    0.2016    0.0161   -0.0473
          50   -0.0002    0.0001    0.2250    0.0180   -0.0512
          51   -0.0006    0.0004    0.5779    0.0460   -0.1690


           MASS-WEIGHTED COORDINATE ANALYSIS (NORMAL COORDINATES)


   Root No.       1         2         3         4         5         6         7         8

                 1 A       2 A       3 A       4 A       5 A       6 A       7 A       8 A   

                  37.3      69.9     248.8     335.9     395.5     466.5     642.3     691.7
  
           1   -0.1991   -0.0648    0.1012   -0.1941   -0.0410    0.0392   -0.0011    0.3028
           2    0.1606   -0.0288   -0.1189    0.1441    0.0165    0.0201   -0.0646    0.1940
           3    0.0145   -0.2062   -0.2906   -0.2188    0.1156   -0.2762   -0.0371    0.2074
           4   -0.1964   -0.0629    0.1071   -0.1811   -0.0959   -0.0052    0.1215    0.2797
           5   -0.0854   -0.0518   -0.0138   -0.0170   -0.1558   -0.1654    0.0418   -0.2996
           6    0.0430   -0.3554    0.0293    0.2803    0.0539    0.1087   -0.0268    0.0478
           7    0.0355   -0.0202   -0.0224   -0.0148   -0.1275   -0.1303    0.1110   -0.2593
           8   -0.1540   -0.0649    0.0278   -0.0892   -0.1814   -0.1631    0.0814   -0.1931
           9   -0.0259    0.4401   -0.1725    0.0347   -0.0304    0.0750   -0.0268    0.0642
          10    0.0324   -0.0452   -0.0099   -0.0363   -0.1475   -0.1301    0.0322   -0.1085
          11    0.2183   -0.0201   -0.1524    0.2004   -0.0281   -0.0717   -0.1740    0.1620
          12    0.0101   -0.2709   -0.0902   -0.1974   -0.2130    0.4139    0.0437    0.0544
          13    0.1587   -0.0247   -0.0589    0.0786   -0.0945   -0.1354   -0.0080   -0.1391
          14    0.0484   -0.0457   -0.0883    0.0618   -0.1080   -0.0999   -0.1341    0.1460
          15   -0.0170    0.1113    0.4944    0.0790    0.1611   -0.2012   -0.0350    0.0489
          16   -0.2816    0.0905   -0.1081    0.2175    0.2410    0.1858   -0.3835   -0.0871
          17    0.2124    0.1374    0.2123   -0.1659    0.2074    0.2078    0.3131    0.0657
          18    0.0078   -0.0192   -0.1710   -0.2290    0.3403   -0.2112    0.0336   -0.2087
          19    0.4253    0.1216   -0.0036    0.0660    0.2568    0.1705    0.0275   -0.0104
          20   -0.3480    0.0777    0.0963   -0.0860    0.2933    0.2455   -0.0093   -0.0171
          21   -0.0318    0.2609    0.1581    0.1640   -0.3123   -0.0519   -0.0067   -0.0085
          22   -0.0736   -0.0537    0.0757   -0.0350   -0.0322    0.0107    0.0454    0.1363
          23    0.0649   -0.0444   -0.0658    0.0640   -0.0658    0.0835   -0.0662    0.1271
          24    0.0026   -0.0283   -0.0850   -0.0784    0.0704   -0.1108   -0.0076    0.0072
          25   -0.0894    0.0102   -0.0223   -0.1555   -0.0213   -0.0895    0.0437    0.2013
          26   -0.0283   -0.1734    0.0712    0.0764   -0.0400    0.0012    0.0090   -0.2249
          27    0.0251   -0.2127    0.0793    0.1828    0.0176    0.1065   -0.0168   -0.1290
          28   -0.0756   -0.0543    0.1103    0.0327   -0.0479    0.0891    0.0341   -0.0291
          29   -0.0581    0.1376   -0.0587   -0.1145   -0.0704   -0.1107    0.0352    0.0293
          30    0.0245   -0.2125    0.0784    0.1878    0.0214    0.1120   -0.0217   -0.1151
          31    0.0295   -0.1374    0.1591    0.0553    0.0401   -0.1592   -0.0146    0.0353
          32   -0.0652   -0.1219    0.0179   -0.0157   -0.0539   -0.0175    0.0465    0.0004
          33   -0.0164    0.2581   -0.1818   -0.0392   -0.0695    0.1091    0.0233   -0.0895
          34    0.0138    0.1385   -0.1968   -0.0482   -0.1201    0.0817    0.0686   -0.2349
          35   -0.0806    0.0792    0.0318   -0.0823   -0.0565   -0.0690    0.0469   -0.0694
          36   -0.0159    0.2479   -0.1653   -0.0353   -0.0638    0.0946    0.0229   -0.0898
          37    0.0962   -0.0031   -0.0368    0.0677   -0.0016   -0.0248   -0.0553    0.0350
          38    0.0141   -0.0140   -0.0320    0.0166   -0.0339   -0.0274   -0.0414    0.0487
          39   -0.0090    0.0574    0.3466    0.0707    0.1117   -0.1329    0.0574   -0.2067
          40    0.0239   -0.0151   -0.0120    0.0003   -0.0489   -0.0372    0.0102   -0.0659
          41    0.1116    0.0012   -0.0724    0.1029   -0.0120   -0.0626   -0.0692   -0.0335
          42    0.0062   -0.1641   -0.0399   -0.1168   -0.1742    0.3853    0.1619   -0.2161
          43   -0.2649    0.0563   -0.1225    0.3061    0.1100    0.0528    0.0130   -0.0374
          44    0.2061    0.0927    0.2088   -0.1867   -0.0133    0.1362    0.0033   -0.0235
          45    0.0093   -0.0339   -0.0711   -0.0913    0.1070   -0.0861    0.0006   -0.0389
          46    0.1173    0.0729   -0.0548    0.2768    0.0315    0.0248    0.5076    0.1806
          47   -0.0992    0.0604    0.1596   -0.1155   -0.0937    0.1409   -0.4168    0.0076
          48   -0.0109    0.1175    0.1050    0.1117   -0.2291    0.0162   -0.0324    0.0951
          49    0.3099    0.0058    0.0816   -0.2782    0.1204    0.0708   -0.3060   -0.1456
          50   -0.2459   -0.0302   -0.1333    0.0882    0.2881    0.0174    0.2655   -0.0617
          51   -0.0178    0.1065    0.0807    0.1090   -0.1893   -0.0005    0.0027    0.0734


   Root No.       9        10        11        12        13        14        15        16

                 9 A      10 A      11 A      12 A      13 A      14 A      15 A      16 A   

                 751.8     782.1     819.2     900.5     933.7     948.9     991.2    1002.7
  
           1    0.1519    0.0556   -0.0488   -0.0456   -0.0307    0.0388    0.1390   -0.1298
           2   -0.1014    0.2651   -0.0600    0.0404    0.0119    0.0159   -0.0533   -0.2371
           3    0.0009    0.1989   -0.0443   -0.2211    0.0085    0.1238   -0.0226   -0.0897
           4    0.0101    0.2180   -0.1329    0.3210    0.0459   -0.0121   -0.1716    0.0952
           5   -0.2425    0.0525    0.0470   -0.0750   -0.0518    0.0324    0.2411    0.1301
           6   -0.0564    0.0201    0.2833   -0.1234   -0.0218   -0.1855    0.1421    0.0052
           7   -0.3444    0.1531    0.0065   -0.0264    0.0033   -0.0031   -0.0811   -0.2723
           8   -0.0403   -0.0969    0.0169   -0.0427    0.0258   -0.0343   -0.1450   -0.0808
           9   -0.1212   -0.1591    0.2010    0.1532   -0.0016    0.1481   -0.2256   -0.0140
          10    0.2846   -0.4129    0.0674   -0.1832    0.0465   -0.0465   -0.0673   -0.0133
          11    0.0769    0.1765   -0.0370    0.2250   -0.0467    0.0447    0.0656    0.1135
          12   -0.1644   -0.1670   -0.1763   -0.1033   -0.0304   -0.2975   -0.0994    0.1981
          13   -0.0253   -0.0510    0.0267   -0.0040   -0.0072    0.0063    0.0339    0.1339
          14    0.4774   -0.3120    0.0400   -0.0215    0.0073   -0.0036    0.0193   -0.0944
          15   -0.0656   -0.1023   -0.1888   -0.0074    0.0472    0.1155    0.2972   -0.0584
          16   -0.0322    0.0036    0.0369   -0.0614   -0.2678    0.0493   -0.0095    0.0152
          17   -0.0373   -0.0338    0.0025   -0.0753    0.2237   -0.0124   -0.0050    0.0161
          18    0.0929   -0.0537   -0.0398    0.1409    0.0133    0.0703   -0.0869    0.0833
          19   -0.0345   -0.0234    0.0270   -0.0958   -0.0694    0.0371   -0.0263   -0.0133
          20   -0.0523   -0.0326    0.0218   -0.1324    0.0741    0.0244   -0.0178    0.0697
          21    0.0293   -0.0137   -0.0206    0.2627   -0.0257   -0.2031    0.1109   -0.1526
          22    0.0210    0.0934    0.0565    0.0174   -0.0222   -0.0437    0.4004    0.0370
          23   -0.0649    0.0392   -0.0897    0.0480   -0.0089   -0.1820   -0.2443   -0.3584
          24    0.0257    0.0440   -0.0113   -0.0859    0.0131    0.1417   -0.0536    0.0763
          25    0.0093    0.1138    0.0873   -0.0267    0.0246   -0.1107    0.1615    0.0680
          26    0.0320    0.0282   -0.3070   -0.0230    0.0198    0.1400    0.0845    0.0582
          27    0.0482   -0.0098   -0.1824    0.0205    0.0107    0.0818   -0.0493   -0.0074
          28    0.0719   -0.0416   -0.1882    0.3108    0.0204    0.1117   -0.2447    0.2523
          29   -0.1431   -0.0441    0.3272    0.0213   -0.0454   -0.1151    0.0812    0.2327
          30    0.0594   -0.0062   -0.1866    0.0357    0.0164    0.0791   -0.0592   -0.0169
          31   -0.2781   -0.1396    0.1966    0.1048   -0.0008    0.1658   -0.1293   -0.1780
          32   -0.0747    0.0145    0.1896    0.0396   -0.0121   -0.2027   -0.2068    0.1720
          33    0.1226    0.0912   -0.1539   -0.0596    0.0064   -0.0310    0.0696    0.0166
          34    0.0837    0.2230   -0.1903   -0.1836   -0.0104   -0.1671    0.1821   -0.0919
          35   -0.0125    0.0141   -0.2282    0.0751    0.0537    0.1714   -0.0804   -0.0313
          36    0.0902    0.0828   -0.1413   -0.0469    0.0070   -0.0108    0.0566   -0.0168
          37    0.0274    0.0923   -0.0065    0.1304   -0.0478    0.0342    0.1833    0.3685
          38    0.1258   -0.1061    0.0031    0.0000    0.0047    0.0088    0.0183   -0.0270
          39    0.4064    0.4668    0.2144   -0.1336   -0.0790   -0.2813   -0.3300    0.0553
          40    0.0682   -0.0979    0.0394   -0.0158    0.0083    0.0067   -0.0276    0.0835
          41   -0.0736    0.0906   -0.0220    0.1503   -0.0394   -0.0083   -0.0435    0.3484
          42    0.2330    0.1771    0.4288    0.2362    0.0506    0.4673    0.1533   -0.1628
          43   -0.0195   -0.0135    0.0610    0.0525    0.5711   -0.1706    0.0706   -0.0077
          44   -0.0283   -0.0827   -0.0091    0.0373   -0.4865   -0.0790    0.0560   -0.0308
          45    0.0356    0.0161   -0.0245   -0.0051   -0.0067    0.1069   -0.0695    0.0398
          46   -0.0097   -0.0188   -0.0253   -0.2537    0.0399    0.1522   -0.0619    0.1523
          47   -0.0717    0.0868    0.0527   -0.2941    0.0193    0.2031   -0.1215    0.0804
          48   -0.0271    0.0549    0.0075   -0.1976    0.0201    0.1393   -0.0708    0.0697
          49   -0.0099   -0.0143    0.0286    0.1932    0.3812   -0.2189    0.0968   -0.0473
          50    0.0330   -0.1057   -0.0244    0.2270   -0.3483   -0.1678    0.0939   -0.1583
          51   -0.0117    0.0384   -0.0011   -0.1143   -0.0024    0.0958   -0.0465    0.0433


   Root No.      17        18        19        20        21        22        23        24

                17 A      18 A      19 A      20 A      21 A      22 A      23 A      24 A   

                1019.5    1032.6    1061.1    1079.9    1102.8    1114.7    1124.9    1179.6
  
           1    0.1997   -0.1177   -0.0270    0.0498   -0.0267    0.0582    0.2674    0.0910
           2    0.0369   -0.0211   -0.0450    0.0739    0.0506    0.0087    0.1563    0.1289
           3    0.0278   -0.0011    0.1030    0.0690   -0.0215   -0.0530    0.1179    0.3315
           4   -0.1519    0.0775   -0.0500   -0.0182    0.0042   -0.1281   -0.2538   -0.0357
           5    0.2174   -0.1775    0.0361    0.2283    0.0197   -0.2212    0.0255    0.0359
           6   -0.1367    0.1088    0.1049   -0.0684    0.2805    0.0139   -0.1740   -0.0399
           7    0.0259    0.0063   -0.1834   -0.2050   -0.0401    0.1426   -0.1471   -0.0495
           8   -0.1437    0.1259    0.0076   -0.1284   -0.0201    0.2313    0.0130   -0.0512
           9    0.1507   -0.0973    0.0914    0.0412   -0.3178   -0.0183    0.0277   -0.0317
          10   -0.0683    0.0318    0.1235    0.1219    0.0427   -0.0833    0.1289    0.0574
          11    0.0104    0.0067   -0.0977   -0.1574   -0.0488    0.0822   -0.0981   -0.0176
          12    0.1167   -0.1555    0.0144   -0.1593   -0.0583    0.0604   -0.0484   -0.0318
          13   -0.0432    0.0280    0.1019    0.0939    0.0189    0.0385    0.1116    0.0582
          14    0.0585   -0.0498   -0.1570   -0.1438   -0.0366   -0.0011   -0.2339   -0.0775
          15   -0.2249    0.1855   -0.2194    0.0989    0.0470   -0.0201    0.0241    0.0232
          16    0.1141    0.2245   -0.0036   -0.0298    0.0184    0.0160   -0.0128   -0.0053
          17   -0.1044   -0.1715    0.0112    0.0168   -0.0189   -0.0072    0.0119    0.0113
          18   -0.0015   -0.0172   -0.1258    0.0048    0.0807   -0.0021   -0.0299   -0.3318
          19   -0.2676   -0.2852    0.0153    0.0141   -0.0004   -0.0049    0.0186   -0.0288
          20    0.1848    0.2409    0.0128   -0.0126    0.0184    0.0001    0.0052   -0.0405
          21    0.0518   -0.0102    0.0408    0.0170   -0.0200    0.0129    0.0807    0.0598
          22    0.1338   -0.1803    0.0217   -0.2832   -0.0683    0.0966    0.3879   -0.2892
          23   -0.0154    0.1101    0.1510    0.4384    0.2173   -0.1985    0.1208   -0.3129
          24   -0.0114    0.0071   -0.0575   -0.0447   -0.0685    0.0387   -0.1249    0.3830
          25   -0.1897    0.1318    0.2579    0.0642   -0.2325   -0.2441   -0.3587   -0.2054
          26    0.0754   -0.0570    0.1859    0.2102   -0.3674   -0.2326   -0.0782   -0.0619
          27    0.0406   -0.0259    0.0101    0.0311   -0.0367   -0.0028    0.0293    0.0387
          28    0.1036   -0.1380   -0.2515    0.0499    0.3162   -0.1659    0.0308    0.1706
          29    0.0538   -0.0814   -0.0853    0.0990    0.4358   -0.1611   -0.0250    0.0982
          30    0.0318   -0.0213   -0.0115   -0.0104   -0.0381    0.0062    0.0152    0.0212
          31    0.2177   -0.1543    0.0441   -0.1718   -0.0783   -0.0665   -0.1837   -0.0818
          32   -0.2655    0.2308   -0.2745    0.2511   -0.3319    0.3105    0.2690    0.0510
          33   -0.0543    0.0361    0.0305    0.0151    0.0517    0.0068    0.0303    0.0196
          34   -0.0658    0.0524   -0.3284   -0.0567    0.0554   -0.0739   -0.1383   -0.0420
          35   -0.1098    0.0683    0.5542   -0.1869    0.3272    0.3644    0.0132    0.0162
          36   -0.0276    0.0170    0.0194   -0.0308    0.0482    0.0098   -0.0440   -0.0156
          37    0.1048   -0.1082    0.1251    0.3975   -0.0014    0.4802   -0.2051   -0.1082
          38    0.0071   -0.0067   -0.0525   -0.0417   -0.0101    0.0045   -0.0712   -0.0246
          39    0.1997   -0.1530    0.1335   -0.0631   -0.0433   -0.0107   -0.0059    0.0024
          40   -0.0906    0.0713    0.0933   -0.0479   -0.0052   -0.1396    0.1506    0.0104
          41   -0.2108    0.1828    0.1519   -0.3506   -0.0781   -0.3511    0.3215   -0.0374
          42   -0.1077    0.1287    0.0009    0.0686    0.0117   -0.0381    0.0305    0.0263
          43   -0.1160   -0.1637    0.0895   -0.0191   -0.0643   -0.0208   -0.0928    0.2585
          44    0.0369    0.1839    0.1202   -0.0267   -0.0657   -0.0368   -0.1659    0.3208
          45    0.0238   -0.0153   -0.1064    0.0165    0.0678    0.0196    0.0808   -0.2909
          46    0.2882    0.3407   -0.0218   -0.0156    0.0301   -0.0075   -0.0159   -0.0735
          47   -0.2804   -0.2465   -0.0204    0.0110    0.0282   -0.0174   -0.0213   -0.0859
          48   -0.0260   -0.0070   -0.0201    0.0054    0.0245   -0.0097   -0.0006   -0.0660
          49    0.2744    0.2685    0.0508   -0.0096   -0.0104    0.0061    0.0357    0.0595
          50   -0.1887   -0.2238    0.0704    0.0215   -0.0317   -0.0023    0.0519    0.0738
          51   -0.0138   -0.0110   -0.0310    0.0010    0.0146    0.0013   -0.0043   -0.0474


   Root No.      25        26        27        28        29        30        31        32

                25 A      26 A      27 A      28 A      29 A      30 A      31 A      32 A   

                1195.2    1228.2    1268.2    1290.8    1328.2    1359.4    1398.5    1415.5
  
           1   -0.0418    0.3316   -0.0801    0.4884    0.2006    0.0894    0.1218    0.1309
           2   -0.1200   -0.2389   -0.1455   -0.1283   -0.3018    0.0275    0.4082    0.4061
           3    0.1505    0.0600    0.2360   -0.2125   -0.0632   -0.1174   -0.2319   -0.1931
           4   -0.0676   -0.0571   -0.3373   -0.3292    0.0384    0.0037    0.0393   -0.2454
           5   -0.0681   -0.0159   -0.3578   -0.1245    0.1597   -0.0107   -0.1512   -0.0447
           6   -0.0989    0.0185   -0.0579    0.0714    0.0198    0.0200    0.0338    0.0366
           7    0.0504    0.0028    0.0585    0.0492    0.1381   -0.1785   -0.3337    0.3406
           8    0.0835    0.2697    0.1875   -0.0208   -0.3029    0.4717    0.0614   -0.0845
           9    0.0080   -0.0106    0.0105   -0.0058   -0.0144    0.0137    0.0151   -0.0149
          10   -0.0500   -0.1262   -0.0726   -0.1379   -0.1066   -0.0325    0.0945    0.0448
          11    0.0153   -0.1334    0.0847    0.2724    0.2245    0.1946   -0.1059   -0.2885
          12   -0.0567   -0.0356   -0.0332    0.0295    0.0029    0.0192    0.0259    0.0165
          13   -0.0316   -0.2244    0.0466    0.1137    0.0074    0.2952    0.0319   -0.2643
          14    0.0412    0.0397   -0.0189   -0.0972    0.1020   -0.2744   -0.1302    0.1092
          15    0.0208    0.0210    0.0102   -0.0120    0.0038   -0.0208   -0.0138    0.0049
          16   -0.0593   -0.0575   -0.0151    0.0043   -0.1404   -0.0478   -0.0374   -0.0276
          17   -0.0794    0.0580   -0.0208    0.0892   -0.1051   -0.0614   -0.0901   -0.0617
          18    0.2811   -0.1073   -0.2395    0.1643    0.0576    0.0986    0.1942    0.1492
          19   -0.0697    0.0368    0.0539   -0.0115   -0.0532   -0.0578   -0.1164   -0.0946
          20   -0.0821    0.0063    0.0659   -0.0413   -0.0853   -0.0732   -0.1369   -0.1118
          21   -0.2137    0.0411    0.0805   -0.0430   -0.0281   -0.0279   -0.0426   -0.0281
          22    0.2979   -0.2742    0.1222   -0.2270   -0.1528   -0.0579   -0.0307   -0.0480
          23    0.2528    0.1580    0.0451    0.0534    0.0686   -0.0428   -0.1330   -0.1045
          24   -0.2041    0.0656   -0.0324    0.0489   -0.0034    0.0229    0.0719    0.0758
          25   -0.0760   -0.1634    0.2906    0.1564   -0.1359    0.0730   -0.0390    0.2775
          26   -0.0304   -0.1273    0.2193    0.1721    0.0150   -0.1395    0.1362    0.0092
          27   -0.0062    0.0033   -0.0011    0.0278    0.0499   -0.0972    0.1214   -0.1205
          28    0.1267   -0.1001    0.3825    0.0130   -0.1519    0.0120   -0.1231    0.1824
          29   -0.0124   -0.0764    0.2108    0.1643    0.0272   -0.1535    0.1248   -0.0032
          30    0.0288    0.0113    0.0073   -0.0484   -0.0499    0.0886   -0.1332    0.1002
          31    0.0439    0.1571    0.1256   -0.0106   -0.0813   -0.1499    0.2891   -0.1835
          32    0.0384   -0.1794    0.0612    0.0858    0.1491   -0.3219    0.0541   -0.0164
          33   -0.0223   -0.0440   -0.0717   -0.0074    0.0195    0.1822   -0.2630    0.1809
          34    0.0584    0.1712    0.1343   -0.0127   -0.0798   -0.1695    0.3085   -0.2039
          35   -0.0421   -0.1722    0.0175    0.1096    0.1525   -0.3046    0.0633   -0.0021
          36    0.0075    0.0257    0.0562    0.0145   -0.0078   -0.1736    0.2378   -0.1615
          37    0.0934    0.3915    0.0254   -0.1896   -0.1610   -0.0864    0.0178    0.1467
          38    0.0140    0.0145   -0.0034   -0.0292    0.0318   -0.0829   -0.0429    0.0319
          39   -0.0009   -0.0108    0.0040   -0.0002    0.0058   -0.0045   -0.0089   -0.0089
[...]
 EFFECTIVE MASS      5.8384
 FORCE CONSTANT      0.8855

 VIBRATION         28   28A           ATOM PAIR      ENERGY CONTRIBUTION    RADIAL
 FREQUENCY          1290.80         C  1 -- C  2         +17.7% ( 59.4%)     89.2%
 TRANSITION DIPOLE   0.0477         C  1 -- C  4         +16.6% ( 57.5%)     50.6%
 TRAVEL (Ang.)       0.1905         C  1 -- H  8         +14.0% ( 52.8%)      0.3%
 REDUCED MASS        1.4399         C  1 -- C  6         +12.3% ( 49.5%)     31.2%
 EFFECTIVE MASS      7.3967
 FORCE CONSTANT      1.4135

 VIBRATION         29   29A           ATOM PAIR      ENERGY CONTRIBUTION    RADIAL
 FREQUENCY          1328.24         C  1 -- C  4         +12.3% ( 43.6%)     92.3%
 TRANSITION DIPOLE   0.0234         C  7 -- H 16         +11.8% ( 42.7%)      0.6%
 TRAVEL (Ang.)       0.3057         C  7 -- H 17         +10.8% ( 40.8%)      1.5%
 REDUCED MASS        0.5434         C  1 -- C  6          +7.9% ( 34.9%)      8.7%
 EFFECTIVE MASS      5.0319
 FORCE CONSTANT      0.5648

 VIBRATION         30   30A           ATOM PAIR      ENERGY CONTRIBUTION    RADIAL
 FREQUENCY          1359.41         C  3 -- C  5         +22.5% ( 61.8%)     80.4%
 TRANSITION DIPOLE   0.0328         C  3 -- H 11         +17.3% ( 54.2%)      0.1%
 TRAVEL (Ang.)       0.2051         C  3 -- H 12         +16.9% ( 53.4%)      0.1%
 REDUCED MASS        1.1795         C  4 -- C  5          +9.1% ( 39.3%)      0.1%
 EFFECTIVE MASS      6.3328
 FORCE CONSTANT      1.2843

 VIBRATION         31   31A           ATOM PAIR      ENERGY CONTRIBUTION    RADIAL
 FREQUENCY          1398.50         C  1 -- C  6         +14.2% ( 50.6%)     90.7%
 TRANSITION DIPOLE   0.1101         C  1 -- C  4         +11.4% ( 45.2%)     68.8%
 TRAVEL (Ang.)       0.2267         C  1 -- H  8         +11.2% ( 44.9%)      0.0%
 REDUCED MASS        0.9384         C  3 -- H 11         +10.6% ( 43.6%)      4.9%
 EFFECTIVE MASS      6.3451         C  3 -- H 12         +10.6% ( 43.6%)      4.9%
 FORCE CONSTANT      1.0813         C  1 -- C  2         +10.5% ( 43.6%)      1.7%

 VIBRATION         32   32A           ATOM PAIR      ENERGY CONTRIBUTION    RADIAL
 FREQUENCY          1415.52         C  1 -- C  4         +13.3% ( 51.9%)     76.7%
 TRANSITION DIPOLE   0.0793         C  1 -- C  6         +10.3% ( 45.6%)     87.4%
 TRAVEL (Ang.)       0.2168         C  1 -- C  2          +9.9% ( 44.8%)     35.6%
 REDUCED MASS        1.0135         C  3 -- C  5          +9.9% ( 44.7%)     94.5%
 EFFECTIVE MASS      7.5777
 FORCE CONSTANT      1.1964

 VIBRATION         33   33A           ATOM PAIR      ENERGY CONTRIBUTION    RADIAL
 FREQUENCY          1420.98         C  2 -- H  9         +29.4% ( 55.7%)      4.5%
 TRANSITION DIPOLE   0.0561         C  2 -- H 10         +27.8% ( 54.1%)      5.3%
 TRAVEL (Ang.)       0.3347         C  2 -- C  3         +11.6% ( 35.0%)     93.1%
 REDUCED MASS        0.4237         C  3 -- H 11          +8.7% ( 30.3%)      5.4%
 EFFECTIVE MASS      2.7488
 FORCE CONSTANT      0.5040

 VIBRATION         34   34A           ATOM PAIR      ENERGY CONTRIBUTION    RADIAL
 FREQUENCY          1829.43         C  4 -- C  5         +45.4% ( 99.7%)    100.0%
 TRANSITION DIPOLE   0.1301         C  1 -- C  4         +13.8% ( 55.0%)     25.0%
 TRAVEL (Ang.)       0.0834         C  3 -- C  5         +13.8% ( 55.0%)     25.8%
 REDUCED MASS        5.2962         C  5 -- H 13         +12.9% ( 53.1%)      9.6%
 EFFECTIVE MASS     11.8859         C  4 -- H 14         +12.8% ( 52.9%)     10.1%
 FORCE CONSTANT     10.4435

 VIBRATION         35   35A           ATOM PAIR      ENERGY CONTRIBUTION    RADIAL
 FREQUENCY          1861.54         C  6 -- C  7         +45.0% ( 98.9%)     98.9%
 TRANSITION DIPOLE   0.1505         C  1 -- C  6         +16.5% ( 60.0%)     54.3%
 TRAVEL (Ang.)       0.0834         C  6 -- H 15         +15.3% ( 57.7%)      4.1%
 REDUCED MASS        5.2074         C  7 -- H 17         +10.9% ( 48.7%)     11.0%
 EFFECTIVE MASS     11.7964         C  7 -- H 16         +10.7% ( 48.3%)     12.8%
 FORCE CONSTANT     10.6321

 VIBRATION         36   36A           ATOM PAIR      ENERGY CONTRIBUTION    RADIAL
 FREQUENCY          2884.52         C  1 -- H  8         +96.4% ( 99.8%)    100.0%
 TRANSITION DIPOLE   0.0682         C  1 -- C  2          +1.1% ( 10.6%)     10.1%
 TRAVEL (Ang.)       0.1591         C  1 -- C  6          +1.1% ( 10.6%)     11.9%
 REDUCED MASS        0.9233         C  1 -- C  4          +1.1% ( 10.5%)      9.9%
 EFFECTIVE MASS      1.4504
 FORCE CONSTANT      4.5262

 VIBRATION         37   37A           ATOM PAIR      ENERGY CONTRIBUTION    RADIAL
 FREQUENCY          2972.66         C  3 -- H 12         +40.3% ( 66.1%)     96.7%
 TRANSITION DIPOLE   0.0083         C  3 -- H 11         +38.0% ( 64.2%)     96.4%
 TRAVEL (Ang.)       0.2527         C  2 -- H  9         +10.6% ( 33.9%)     96.8%
 REDUCED MASS        0.3552         C  2 -- H 10          +8.6% ( 30.6%)     95.5%
 EFFECTIVE MASS      1.5508
 FORCE CONSTANT      1.8492

 VIBRATION         38   38A           ATOM PAIR      ENERGY CONTRIBUTION    RADIAL
 FREQUENCY          2990.95         C  2 -- H  9         +44.1% ( 68.8%)     97.3%
 TRANSITION DIPOLE   0.0597         C  2 -- H 10         +34.5% ( 60.8%)     95.8%
 TRAVEL (Ang.)       0.2510         C  3 -- H 12          +9.9% ( 32.6%)     97.1%
 REDUCED MASS        0.3579         C  3 -- H 11          +9.2% ( 31.4%)     96.7%
 EFFECTIVE MASS      1.5318
 FORCE CONSTANT      1.8864

 VIBRATION         39   39A           ATOM PAIR      ENERGY CONTRIBUTION    RADIAL
 FREQUENCY          3044.34         C  6 -- H 15         +96.2% ( 99.4%)    100.0%
 TRANSITION DIPOLE   0.2438         C  6 -- C  7          +1.4% ( 12.1%)     30.9%
 TRAVEL (Ang.)       0.1560         C  1 -- C  6          +1.3% ( 11.7%)     14.1%
 REDUCED MASS        0.9097         C  7 -- H 16          +1.0% ( 10.0%)     95.7%
 EFFECTIVE MASS      1.5015
 FORCE CONSTANT      4.9677

 VIBRATION         40   40A           ATOM PAIR      ENERGY CONTRIBUTION    RADIAL
 FREQUENCY          3055.31         C  3 -- H 11         +49.9% ( 69.7%)     97.8%
 TRANSITION DIPOLE   0.0822         C  3 -- H 12         +46.6% ( 67.4%)     97.4%
 TRAVEL (Ang.)       0.2178         C  2 -- H 10          +1.1% ( 10.4%)     98.1%
 REDUCED MASS        0.4650         C  2 -- H  9          +0.8% (  8.9%)     96.2%
 EFFECTIVE MASS      1.2837
 FORCE CONSTANT      2.5578

 VIBRATION         41   41A           ATOM PAIR      ENERGY CONTRIBUTION    RADIAL
 FREQUENCY          3069.10         C  2 -- H 10         +54.6% ( 72.8%)     98.3%
 TRANSITION DIPOLE   0.0732         C  2 -- H  9         +42.1% ( 63.9%)     96.7%
 TRAVEL (Ang.)       0.2159         C  3 -- H 12          +1.0% (  9.7%)     98.0%
 REDUCED MASS        0.4712         C  3 -- H 11          +0.9% (  9.4%)     97.8%
 EFFECTIVE MASS      1.2798
 FORCE CONSTANT      2.6149

 VIBRATION         42   42A           ATOM PAIR      ENERGY CONTRIBUTION    RADIAL
 FREQUENCY          3115.61         C  5 -- H 13         +54.6% ( 75.0%)    100.0%
 TRANSITION DIPOLE   0.3758         C  4 -- H 14         +42.8% ( 66.5%)    100.0%
 TRAVEL (Ang.)       0.2142         C  4 -- C  5          +1.1% ( 10.7%)      0.3%
 REDUCED MASS        0.4716         C  3 -- C  5          +0.8% (  9.2%)     27.3%
 EFFECTIVE MASS      1.4620
 FORCE CONSTANT      2.6971

 VIBRATION         43   43A           ATOM PAIR      ENERGY CONTRIBUTION    RADIAL
 FREQUENCY          3134.05         C  7 -- H 17         +90.2% ( 96.7%)     99.8%
 TRANSITION DIPOLE   0.2042         C  7 -- H 16          +7.6% ( 28.0%)     73.8%
 TRAVEL (Ang.)       0.1613         C  6 -- C  7          +1.3% ( 11.6%)     20.9%
 REDUCED MASS        0.8270         C  4 -- H 14          +0.5% (  7.1%)     99.9%
 EFFECTIVE MASS      1.5423
 FORCE CONSTANT      4.7861

 VIBRATION         44   44A           ATOM PAIR      ENERGY CONTRIBUTION    RADIAL
 FREQUENCY          3134.82         C  4 -- H 14         +53.1% ( 74.3%)     99.9%
 TRANSITION DIPOLE   0.3481         C  5 -- H 13         +41.5% ( 65.6%)     99.9%
 TRAVEL (Ang.)       0.2152         C  4 -- C  5          +2.5% ( 16.0%)     99.6%
 REDUCED MASS        0.4644         C  1 -- C  4          +1.0% ( 10.3%)     18.3%
 EFFECTIVE MASS      1.6501
 FORCE CONSTANT      2.6888

 VIBRATION         45   45A           ATOM PAIR      ENERGY CONTRIBUTION    RADIAL
 FREQUENCY          3146.81         C  7 -- H 16         +90.9% ( 96.0%)     99.6%
 TRANSITION DIPOLE   0.2607         C  7 -- H 17          +6.6% ( 25.8%)     46.7%
 TRAVEL (Ang.)       0.1632         C  6 -- C  7          +1.6% ( 12.7%)     75.2%
 REDUCED MASS        0.8047         C  6 -- H 15          +0.8% (  9.2%)     94.9%
 EFFECTIVE MASS      1.4632
 FORCE CONSTANT      4.6947

      SYMMETRY NUMBER FOR POINT-GROUP C1  =  1


          SYSTEM IS A GROUND STATE



 InChI=1S/C7H10/c1-2-7-5-3-4-6-7/h2-3,5,7H,1,4,6H2


          MOLECULE IS NOT LINEAR

          THERE ARE 45 GENUINE VIBRATIONS IN THIS SYSTEM
          THIS THERMODYNAMICS CALCULATION IS LIMITED TO
          MOLECULES WHICH HAVE NO INTERNAL ROTATIONS




                    CALCULATED THERMODYNAMIC PROPERTIES
                                          *
   TEMP. (K)   PARTITION FUNCTION   H.O.F.    ENTHALPY  HEAT CAPACITY ENTROPY
                                   KCAL/MOL   CAL/MOLE    CAL/K/MOL  CAL/K/MOL


 298.00  VIB.     0.6433D+02                  2582.6659    19.7371    16.9413
         ROT.     0.2041D+06                   888.2803     2.9808    27.2766
         INT.     0.1313D+08                  3470.9462    22.7179    44.2179
         TRA.     0.8833D+27                  1480.4672     4.9680    39.5363
         TOT.                       22.854    4951.4134    27.6859    83.7542

 200.00  VIB.     0.1618D+02                  1090.9360    11.0722    10.9861
         ROT.     0.1122D+06                   596.1613     2.9808    26.0880
         INT.     0.1815D+07                  1687.0973    14.0530    37.0740
         TRA.     0.4856D+27                   993.6021     4.9680    37.5551
         TOT.                       20.584    2680.6994    19.0210    74.6292

 210.00  VIB.     0.1856D+02                  1205.4556    11.8376    11.5446
         ROT.     0.1207D+06                   625.9693     2.9808    26.2334
         INT.     0.2240D+07                  1831.4249    14.8184    37.7780
         TRA.     0.5225D+27                  1043.2822     4.9680    37.7975
         TOT.                       20.778    2874.7071    19.7864    75.5756

 220.00  VIB.     0.2130D+02                  1327.8034    12.6375    12.1137
         ROT.     0.1294D+06                   655.7774     2.9808    26.3721
         INT.     0.2757D+07                  1983.5808    15.6184    38.4857
         TRA.     0.5603D+27                  1092.9623     4.9680    38.0286
         TOT.                       20.979    3076.5431    20.5864    76.5144

 230.00  VIB.     0.2446D+02                  1458.3141    13.4698    12.6937
         ROT.     0.1384D+06                   685.5855     2.9808    26.5046
         INT.     0.3384D+07                  2143.8996    16.4506    39.1982
         TRA.     0.5989D+27                  1142.6424     4.9680    38.2495
         TOT.                       21.189    3286.5421    21.4186    77.4477

 240.00  VIB.     0.2811D+02                  1597.2971    14.3315    13.2850
         ROT.     0.1475D+06                   715.3935     2.9808    26.6314
         INT.     0.4146D+07                  2312.6906    17.3123    39.9165
         TRA.     0.6384D+27                  1192.3226     4.9680    38.4609
         TOT.                       21.408    3505.0131    22.2803    78.3774

 250.00  VIB.     0.3234D+02                  1745.0311    15.2194    13.8880
         ROT.     0.1568D+06                   745.2016     2.9808    26.7531
         INT.     0.5070D+07                  2490.2327    18.2002    40.6411
         TRA.     0.6787D+27                  1242.0027     4.9680    38.6637
         TOT.                       21.635    3732.2354    23.1683    79.3048

 260.00  VIB.     0.3723D+02                  1901.7620    16.1303    14.5026
         ROT.     0.1663D+06                   775.0097     2.9808    26.8700
         INT.     0.6192D+07                  2676.7717    19.1111    41.3726
         TRA.     0.7198D+27                  1291.6828     4.9680    38.8586
         TOT.                       21.871    3968.4544    24.0791    80.2312

 270.00  VIB.     0.4292D+02                  2067.7004    17.0603    15.1287
         ROT.     0.1760D+06                   804.8177     2.9808    26.9825
         INT.     0.7553D+07                  2872.5181    20.0412    42.1113
         TRA.     0.7618D+27                  1341.3629     4.9680    39.0461
         TOT.                       22.117    4213.8810    25.0092    81.1573

 280.00  VIB.     0.4954D+02                  2243.0213    18.0062    15.7662
         ROT.     0.1858D+06                   834.6258     2.9808    27.0909
         INT.     0.9206D+07                  3077.6471    20.9870    42.8572
         TRA.     0.8045D+27                  1391.0430     4.9680    39.2267
         TOT.                       22.372    4468.6901    25.9550    82.0839

 290.00  VIB.     0.5724D+02                  2427.8641    18.9642    16.4148
         ROT.     0.1959D+06                   864.4339     2.9808    27.1955
         INT.     0.1121D+08                  3292.2980    21.9450    43.6103
         TRA.     0.8479D+27                  1440.7231     4.9680    39.4011
         TOT.                       22.636    4733.0211    26.9130    83.0114

 300.00  VIB.     0.6624D+02                  2622.3339    19.9310    17.0740
         ROT.     0.2061D+06                   894.2419     2.9808    27.2966
         INT.     0.1365D+08                  3516.5758    22.9118    44.3705
         TRA.     0.8922D+27                  1490.4032     4.9680    39.5695
         TOT.                       22.910    5006.9790    27.8798    83.9401

 310.00  VIB.     0.7675D+02                  2826.5028    20.9035    17.7433
         ROT.     0.2165D+06                   924.0500     2.9808    27.3943
         INT.     0.1662D+08                  3750.5528    23.8843    45.1377
         TRA.     0.9372D+27                  1540.0833     4.9680    39.7324
         TOT.                       23.194    5290.6361    28.8523    84.8701

 320.00  VIB.     0.8906D+02                  3040.4122    21.8786    18.4224
         ROT.     0.2271D+06                   953.8580     2.9808    27.4890
         INT.     0.2022D+08                  3994.2702    24.8594    45.9114
         TRA.     0.9829D+27                  1589.7634     4.9680    39.8901
         TOT.                       23.487    5584.0336    29.8274    85.8015

 330.00  VIB.     0.1035D+03                  3264.0749    22.8537    19.1106
         ROT.     0.2378D+06                   983.6661     2.9808    27.5807
         INT.     0.2461D+08                  4247.7410    25.8345    46.6913
         TRA.     0.1029D+28                  1639.4435     4.9680    40.0430
         TOT.                       23.790    5887.1845    30.8025    86.7343

 340.00  VIB.     0.1204D+03                  3497.4776    23.8262    19.8073
         ROT.     0.2487D+06                  1013.4742     2.9808    27.6697
         INT.     0.2994D+08                  4510.9517    26.8070    47.4769
         TRA.     0.1076D+28                  1689.1236     4.9680    40.1913
         TOT.                       24.103    6200.0754    31.7750    87.6683

 350.00  VIB.     0.1403D+03                  3740.5836    24.7940    20.5119
         ROT.     0.2597D+06                  1043.2822     2.9808    27.7561
         INT.     0.3644D+08                  4783.8658    27.7748    48.2680
         TRA.     0.1124D+28                  1738.8037     4.9680    40.3353
         TOT.                       24.426    6522.6695    32.7428    88.6033

 360.00  VIB.     0.1637D+03                  3993.3352    25.7550    21.2239
         ROT.     0.2709D+06                  1073.0903     2.9808    27.8400
         INT.     0.4436D+08                  5066.4255    28.7358    49.0639
         TRA.     0.1173D+28                  1788.4838     4.9680    40.4753
         TOT.                       24.758    6854.9093    33.7039    89.5392

 370.00  VIB.     0.1913D+03                  4255.6562    26.7076    21.9425
         ROT.     0.2823D+06                  1102.8984     2.9808    27.9217
         INT.     0.5401D+08                  5358.5546    29.6884    49.8643
         TRA.     0.1222D+28                  1838.1639     4.9680    40.6114
         TOT.                       25.100    7196.7185    34.6564    90.4757

 380.00  VIB.     0.2239D+03                  4527.4544    27.6503    22.6673
         ROT.     0.2938D+06                  1132.7064     2.9808    28.0012
         INT.     0.6578D+08                  5660.1608    30.6311    50.6685
         TRA.     0.1272D+28                  1887.8440     4.9680    40.7439
         TOT.                       25.451    7548.0049    35.5991    91.4124

 390.00  VIB.     0.2623D+03                  4808.6238    28.5817    23.3976
         ROT.     0.3055D+06                  1162.5145     2.9808    28.0786
         INT.     0.8014D+08                  5971.1383    31.5625    51.4763
         TRA.     0.1322D+28                  1937.5242     4.9680    40.8729
         TOT.                       25.812    7908.6624    36.5305    92.3492

 400.00  VIB.     0.3077D+03                  5099.0466    29.5008    24.1329
         ROT.     0.3173D+06                  1192.3226     2.9808    28.1541
         INT.     0.9766D+08                  6291.3692    32.4816    52.2870
         TRA.     0.1374D+28                  1987.2043     4.9680    40.9987
         TOT.                       26.181    8278.5735    37.4496    93.2857

   *: NOTE: HEATS OF FORMATION ARE RELATIVE TO THE
            ELEMENTS IN THEIR STANDARD STATE AT 298K
              (=  Standard Enthalpy of Formation).

            Hvib:  Zero-point energy is not included.
                   frequencies of less than zero cm-1 are not included.
            Hrot = (3/2)RT
            Htra = (3/2)RT + pV = (5/2)RT

            Heat capacity is Cp, not Cv

          For more information, see: HTTP://OpenMOPAC.net/Manual/thermochemistry.html


           FORCE CONSTANT IN CARTESIAN COORDINATES (Millidynes/A)

    ATOM   CHEMICAL       X               Y               Z
   NUMBER   SYMBOL  FORCE CONSTANT  FORCE CONSTANT  FORCE CONSTANT

      1       C        7.742185        9.325214        8.662851
      2       C        7.551554        8.413352        8.422547
      3       C        9.626871        7.565313        8.066850
      4       C       14.596094       10.334818        2.407254
      5       C       11.990639       13.090279        2.341758
      6       C        7.603157       10.485565        9.080441
      7       C        7.193296       10.213620        9.051118
      8       H        1.183710        1.237387        3.579108
      9       H        1.315146        1.654575        3.557752
     10       H        1.233816        1.672802        3.597758
     11       H        2.102431        0.897599        3.392875
     12       H        1.743068        0.934507        3.704091
     13       H        0.710689        5.349873        0.354684
     14       H        4.967777        1.091781        0.356793
     15       H        0.869809        1.032883        4.314266
     16       H        1.105786        1.725086        3.640431
     17       H        0.927947        1.118754        4.410372

 **********************
 *                    *
 * JOB ENDED NORMALLY *
 *                    *
 **********************



 TOTAL JOB TIME:             2.13 SECONDS

 == MOPAC DONE ==
