 *******************************************************************************
 **                                                                           **
 **                              MOPAC v23.1.2                                **
 **                                                                           **
 *******************************************************************************
 **          Digital Object Identifier (DOI): 10.5281/zenodo.6511958          **
 **    Visit the DOI location for information on how to cite this program.    **
 *******************************************************************************

                              PM3 CALCULATION RESULTS

 *******************************************************************************
 *  CALCULATION DONE: (MAX THREADS = 1)              Tue Jun  3 16:36:22 2025  *
 *  PM3        - The PM3 Hamiltonian to be used
 *  PRECISE    - TIGHTER CRITERIA TO BE USED
 *  NOSYM      - POINT-GROUP SYMMETRY SET TO C1
 *  THREADS=1  - MULTI-THREADING NOT USED
 *  T=         - A TIME OF 172800.0 SECONDS REQUESTED
 *  DUMP=N     - RESTART FILE WRITTEN EVERY 7200.0 SECONDS REQUESTED
 *******************************************************************************
pm3  precise nosym THREADS=1
 InChI=1S/C6H10/c1-2-6-4-3-5-6/h6H,2-4H2,1H3/lp5

   ATOM   CHEMICAL          X               Y               Z
  NUMBER   SYMBOL      (ANGSTROMS)     (ANGSTROMS)     (ANGSTROMS)

     1       C          0.33000000  *   0.64630000  *  -0.09220000  *
     2       C          1.00070000  *  -0.61710000  *  -0.62530000  *
     3       C         -0.96670000  *   0.39780000  *   0.69210000  *
     4       C          2.18520000  *  -0.36770000  *   0.29370000  *
     5       C         -2.13000000  *   0.08530000  *  -0.24510000  *
     6       C          1.51470000  *   0.88530000  *   0.83090000  *
     7       H          0.24170000  *   1.44890000  *  -0.85730000  *
     8       H         -1.21630000  *   1.31160000  *   1.27350000  *
     9       H         -0.83690000  *  -0.44120000  *   1.41130000  *
    10       H          0.46640000  *  -1.56040000  *  -0.37600000  *
    11       H          1.27290000  *  -0.52960000  *  -1.69980000  *
    12       H          3.11970000  *  -0.13380000  *  -0.26010000  *
    13       H          2.29460000  *  -1.14730000  *   1.07790000  *
    14       H         -3.05570000  *  -0.06500000  *   0.34950000  *
    15       H         -2.29380000  *   0.92800000  *  -0.95020000  *
    16       H         -1.92660000  *  -0.84100000  *  -0.82290000  *



          CARTESIAN COORDINATES 

    NO.       ATOM           X           Y           Z

     1         C          0.3300      0.6463     -0.0922
     2         C          1.0007     -0.6171     -0.6253
     3         C         -0.9667      0.3978      0.6921
     4         C          2.1852     -0.3677      0.2937
     5         C         -2.1300      0.0853     -0.2451
     6         C          1.5147      0.8853      0.8309
     7         H          0.2417      1.4489     -0.8573
     8         H         -1.2163      1.3116      1.2735
     9         H         -0.8369     -0.4412      1.4113
    10         H          0.4664     -1.5604     -0.3760
    11         H          1.2729     -0.5296     -1.6998
    12         H          3.1197     -0.1338     -0.2601
    13         H          2.2946     -1.1473      1.0779
    14         H         -3.0557     -0.0650      0.3495
    15         H         -2.2938      0.9280     -0.9502
    16         H         -1.9266     -0.8410     -0.8229

  H: (PM3): J. J. P. STEWART, J. COMP. CHEM. 10, 209 (1989).
  C: (PM3): J. J. P. STEWART, J. COMP. CHEM. 10, 209 (1989).

           Empirical Formula: C6 H10  =    16 atoms



      MOLECULAR POINT GROUP   :   C1  


      RHF CALCULATION, NO. OF DOUBLY OCCUPIED LEVELS = 17


          Geometry optimization using EF

          DIAGONAL MATRIX USED AS START HESSIAN

 CYCLE:     1 TIME:   0.004 TIME LEFT:  2.00D  GRAD.:    62.663 HEAT:  85.43162
 CYCLE:     2 TIME:   0.008 TIME LEFT:  2.00D  GRAD.:    38.024 HEAT:  83.96209
 CYCLE:     3 TIME:   0.008 TIME LEFT:  2.00D  GRAD.:    44.574 HEAT:  83.12643
 CYCLE:     4 TIME:   0.008 TIME LEFT:  2.00D  GRAD.:    30.187 HEAT:  82.45517
 CYCLE:     5 TIME:   0.008 TIME LEFT:  2.00D  GRAD.:    31.367 HEAT:  82.17758
 CYCLE:     6 TIME:   0.008 TIME LEFT:  2.00D  GRAD.:    23.644 HEAT:  81.95334
 CYCLE:     7 TIME:   0.004 TIME LEFT:  2.00D  GRAD.:    21.261 HEAT:  81.87824
 CYCLE:     8 TIME:   0.004 TIME LEFT:  2.00D  GRAD.:    23.816 HEAT:  81.87813
 CYCLE:     9 TIME:   0.008 TIME LEFT:  2.00D  GRAD.:    10.430 HEAT:  81.71972
 CYCLE:    10 TIME:   0.008 TIME LEFT:  2.00D  GRAD.:     9.901 HEAT:  81.70726
 CYCLE:    11 TIME:   0.004 TIME LEFT:  2.00D  GRAD.:    11.427 HEAT:  81.70516
 CYCLE:    12 TIME:   0.008 TIME LEFT:  2.00D  GRAD.:     9.734 HEAT:  81.68956
 CYCLE:    13 TIME:   0.004 TIME LEFT:  2.00D  GRAD.:     6.964 HEAT:  81.67353
 CYCLE:    14 TIME:   0.004 TIME LEFT:  2.00D  GRAD.:     5.076 HEAT:  81.66155
 CYCLE:    15 TIME:   0.004 TIME LEFT:  2.00D  GRAD.:     3.987 HEAT:  81.65513
 CYCLE:    16 TIME:   0.004 TIME LEFT:  2.00D  GRAD.:     3.446 HEAT:  81.65023
 CYCLE:    17 TIME:   0.008 TIME LEFT:  2.00D  GRAD.:     3.667 HEAT:  81.64744
 CYCLE:    18 TIME:   0.004 TIME LEFT:  2.00D  GRAD.:     2.630 HEAT:  81.64130
 CYCLE:    19 TIME:   0.004 TIME LEFT:  2.00D  GRAD.:     1.813 HEAT:  81.63657
 CYCLE:    20 TIME:   0.008 TIME LEFT:  2.00D  GRAD.:     1.850 HEAT:  81.63139
 CYCLE:    21 TIME:   0.004 TIME LEFT:  2.00D  GRAD.:     2.548 HEAT:  81.62752
 CYCLE:    22 TIME:   0.008 TIME LEFT:  2.00D  GRAD.:     2.450 HEAT:  81.62302
 CYCLE:    23 TIME:   0.004 TIME LEFT:  2.00D  GRAD.:     1.963 HEAT:  81.61708
 CYCLE:    24 TIME:   0.004 TIME LEFT:  2.00D  GRAD.:     2.188 HEAT:  81.60793
 CYCLE:    25 TIME:   0.004 TIME LEFT:  2.00D  GRAD.:     2.086 HEAT:  81.60346
 CYCLE:    26 TIME:   0.008 TIME LEFT:  2.00D  GRAD.:     1.708 HEAT:  81.59782
 CYCLE:    27 TIME:   0.008 TIME LEFT:  2.00D  GRAD.:     1.627 HEAT:  81.59216
 CYCLE:    28 TIME:   0.004 TIME LEFT:  2.00D  GRAD.:     1.527 HEAT:  81.58884
 CYCLE:    29 TIME:   0.004 TIME LEFT:  2.00D  GRAD.:     1.673 HEAT:  81.58296
 CYCLE:    30 TIME:   0.008 TIME LEFT:  2.00D  GRAD.:     1.478 HEAT:  81.57645
 CYCLE:    31 TIME:   0.004 TIME LEFT:  2.00D  GRAD.:     1.085 HEAT:  81.57336
 CYCLE:    32 TIME:   0.008 TIME LEFT:  2.00D  GRAD.:     0.898 HEAT:  81.57055
 CYCLE:    33 TIME:   0.004 TIME LEFT:  2.00D  GRAD.:     0.768 HEAT:  81.56909
 CYCLE:    34 TIME:   0.004 TIME LEFT:  2.00D  GRAD.:     0.586 HEAT:  81.56801
 CYCLE:    35 TIME:   0.008 TIME LEFT:  2.00D  GRAD.:     0.504 HEAT:  81.56725
 CYCLE:    36 TIME:   0.004 TIME LEFT:  2.00D  GRAD.:     0.464 HEAT:  81.56649
 CYCLE:    37 TIME:   0.004 TIME LEFT:  2.00D  GRAD.:     0.457 HEAT:  81.56597
 CYCLE:    38 TIME:   0.008 TIME LEFT:  2.00D  GRAD.:     0.465 HEAT:  81.56557
 CYCLE:    39 TIME:   0.004 TIME LEFT:  2.00D  GRAD.:     0.551 HEAT:  81.56496
 CYCLE:    40 TIME:   0.008 TIME LEFT:  2.00D  GRAD.:     0.695 HEAT:  81.56393
 CYCLE:    41 TIME:   0.004 TIME LEFT:  2.00D  GRAD.:     0.652 HEAT:  81.56287
 CYCLE:    42 TIME:   0.004 TIME LEFT:  2.00D  GRAD.:     0.417 HEAT:  81.56219
 CYCLE:    43 TIME:   0.008 TIME LEFT:  2.00D  GRAD.:     0.350 HEAT:  81.56195
 CYCLE:    44 TIME:   0.004 TIME LEFT:  2.00D  GRAD.:     0.436 HEAT:  81.56175
 CYCLE:    45 TIME:   0.004 TIME LEFT:  2.00D  GRAD.:     0.363 HEAT:  81.56140
 CYCLE:    46 TIME:   0.004 TIME LEFT:  2.00D  GRAD.:     0.335 HEAT:  81.56098
 CYCLE:    47 TIME:   0.008 TIME LEFT:  2.00D  GRAD.:     0.294 HEAT:  81.56054
 CYCLE:    48 TIME:   0.004 TIME LEFT:  2.00D  GRAD.:     0.445 HEAT:  81.55973
 CYCLE:    49 TIME:   0.004 TIME LEFT:  2.00D  GRAD.:     0.416 HEAT:  81.55933
 CYCLE:    50 TIME:   0.008 TIME LEFT:  2.00D  GRAD.:     0.403 HEAT:  81.55860
 CYCLE:    51 TIME:   0.008 TIME LEFT:  2.00D  GRAD.:     0.359 HEAT:  81.55796
 CYCLE:    52 TIME:   0.004 TIME LEFT:  2.00D  GRAD.:     0.294 HEAT:  81.55736
 CYCLE:    53 TIME:   0.004 TIME LEFT:  2.00D  GRAD.:     0.316 HEAT:  81.55693
 CYCLE:    54 TIME:   0.008 TIME LEFT:  2.00D  GRAD.:     0.353 HEAT:  81.55661
 CYCLE:    55 TIME:   0.004 TIME LEFT:  2.00D  GRAD.:     0.308 HEAT:  81.55640
 CYCLE:    56 TIME:   0.004 TIME LEFT:  2.00D  GRAD.:     0.183 HEAT:  81.55601
 CYCLE:    57 TIME:   0.008 TIME LEFT:  2.00D  GRAD.:     0.168 HEAT:  81.55585
 CYCLE:    58 TIME:   0.004 TIME LEFT:  2.00D  GRAD.:     0.206 HEAT:  81.55649
 CYCLE:    59 TIME:   0.008 TIME LEFT:  2.00D  GRAD.:     0.117 HEAT:  81.55570
 CYCLE:    60 TIME:   0.004 TIME LEFT:  2.00D  GRAD.:     0.100 HEAT:  81.55568
 CYCLE:    61 TIME:   0.008 TIME LEFT:  2.00D  GRAD.:     0.081 HEAT:  81.55573
 CYCLE:    62 TIME:   0.004 TIME LEFT:  2.00D  GRAD.:     0.055 HEAT:  81.55563
 CYCLE:    63 TIME:   0.004 TIME LEFT:  2.00D  GRAD.:     0.139 HEAT:  81.55626
 CYCLE:    64 TIME:   0.008 TIME LEFT:  2.00D  GRAD.:     0.053 HEAT:  81.55563
 CYCLE:    65 TIME:   0.004 TIME LEFT:  2.00D  GRAD.:     0.042 HEAT:  81.55561

     GRADIENT =  0.04244 IS LESS THAN CUTOFF =  0.05000



 -------------------------------------------------------------------------------
 pm3  precise nosym THREADS=1
 InChI=1S/C6H10/c1-2-6-4-3-5-6/h6H,2-4H2,1H3/lp5



     GEOMETRY OPTIMISED USING EIGENVECTOR FOLLOWING (EF).     
     SCF FIELD WAS ACHIEVED                                   


                              PM3 CALCULATION
                                                       MOPAC v23.1.2 MacOS
                                                       Tue Jun  3 16:36:23 2025




          FINAL HEAT OF FORMATION =         81.55561 KCAL/MOL =     341.22869 KJ/MOL


          COSMO AREA              =        137.11 SQUARE ANGSTROMS
          COSMO VOLUME            =        129.33 CUBIC ANGSTROMS

          GRADIENT NORM           =          0.04244          =       0.01061 PER ATOM
          IONIZATION POTENTIAL    =          9.195653 EV
          HOMO LUMO ENERGIES (EV) =         -9.196 -0.579
          NO. OF FILLED LEVELS    =         17
          MOLECULAR WEIGHT        =         82.1450         POINT GROUP:  C1  

          MOLECULAR DIMENSIONS (Angstroms)

            Atom       Atom       Distance
            H    14    H    12     6.25138
            H     8    H    11     3.39234
            H    13    H     7     3.19083


          SCF CALCULATIONS        =         72

          WALL-CLOCK TIME         =      0.375 SECONDS
          COMPUTATION TIME        =      0.187 SECONDS




   ATOM   CHEMICAL          X               Y               Z
  NUMBER   SYMBOL      (ANGSTROMS)     (ANGSTROMS)     (ANGSTROMS)

     1       C          0.31246878  *   0.60394101  *  -0.05560756  *
     2       C          1.00855242  *  -0.66602530  *  -0.62181047  *
     3       C         -0.98686873  *   0.39579297  *   0.68959878  *
     4       C          2.21609946  *  -0.32014471  *   0.27805392  *
     5       C         -2.13657232  *   0.12961497  *  -0.25620031  *
     6       C          1.50270127  *   0.87130585  *   0.83668607  *
     7       H          0.19880399  *   1.41203795  *  -0.81191273  *
     8       H         -1.19318749  *   1.29251934  *   1.30654099  *
     9       H         -0.88196822  *  -0.44559602  *   1.40312580  *
    10       H          0.50376308  *  -1.61583626  *  -0.39025799  *
    11       H          1.20345881  *  -0.65341013  *  -1.70325459  *
    12       H          3.15417809  *  -0.07261210  *  -0.24423897  *
    13       H          2.46936765  *  -1.06723781  *   1.04828942  *
    14       H         -3.07389216  *  -0.02540209  *   0.29307613  *
    15       H         -2.29580984  *   0.96669860  *  -0.94881928  *
    16       H         -1.95823648  *  -0.76774689  *  -0.86402381  *

                             CARTESIAN COORDINATES

   1    C        0.312468778     0.603941005    -0.055607564
   2    C        1.008552419    -0.666025304    -0.621810472
   3    C       -0.986868730     0.395792967     0.689598783
   4    C        2.216099455    -0.320144706     0.278053916
   5    C       -2.136572322     0.129614967    -0.256200308
   6    C        1.502701270     0.871305846     0.836686072
   7    H        0.198803991     1.412037951    -0.811912733
   8    H       -1.193187489     1.292519336     1.306540994
   9    H       -0.881968218    -0.445596017     1.403125797
  10    H        0.503763075    -1.615836260    -0.390257992
  11    H        1.203458810    -0.653410129    -1.703254591
  12    H        3.154178093    -0.072612099    -0.244238974
  13    H        2.469367646    -1.067237812     1.048289418
  14    H       -3.073892156    -0.025402088     0.293076126
  15    H       -2.295809837     0.966698599    -0.948819283
  16    H       -1.958236477    -0.767746886    -0.864023807


           Empirical Formula: C6 H10  =    16 atoms



      MOLECULAR POINT GROUP   :   C1  


                  EIGENVALUES  
 -40.29617 -33.24146 -25.50104 -23.87724 -21.38189 -17.98755 -16.52087 -15.42937
 -14.88790 -14.46956 -14.01370 -13.30650 -12.71738 -12.26849 -12.08489 -11.53047
  -9.19565  -0.57931   3.05353   3.07720   3.37495   3.50298   3.74051   3.78413
   3.94083   3.99129   4.07815   4.15414   4.35207   4.53922   4.69327   4.87545
   4.94171   5.16503


              NET ATOMIC CHARGES AND DIPOLE CONTRIBUTIONS

  ATOM NO.   TYPE          CHARGE      No. of ELECS.   s-Pop       p-Pop       
    1          C          -0.251795        4.2518     1.21538     3.03642
    2          C          -0.117231        4.1172     1.18177     2.93546
    3          C          -0.051012        4.0510     1.14811     2.90290
    4          C          -0.273031        4.2730     1.19529     3.07774
    5          C          -0.114133        4.1141     1.13899     2.97515
    6          C           0.125600        3.8744     1.73263     2.14177
    7          H           0.112330        0.8877     0.88767
    8          H           0.062347        0.9377     0.93765
    9          H           0.048652        0.9513     0.95135
   10          H           0.065230        0.9348     0.93477
   11          H           0.059548        0.9405     0.94045
   12          H           0.106685        0.8933     0.89332
   13          H           0.108273        0.8917     0.89173
   14          H           0.040459        0.9595     0.95954
   15          H           0.039381        0.9606     0.96062
   16          H           0.038699        0.9613     0.96130
 DIPOLE           X         Y         Z       TOTAL
 POINT-CHG.     0.018     0.217     0.338     0.402
 HYBRID        -0.365    -1.512    -1.585     2.220
 SUM           -0.347    -1.295    -1.247     1.831


          ATOMIC ORBITAL ELECTRON POPULATIONS

     Atom    s        px        py        pz   
    1  C   1.21538   1.01509   0.98773   1.03359
    2  C   1.18177   0.95957   0.98119   0.99469
    3  C   1.14811   0.91770   1.01918   0.96602
    4  C   1.19529   0.99774   1.05919   1.02081
    5  C   1.13899   0.97510   1.00970   0.99035
    6  C   1.73263   0.75064   0.75161   0.63953
    7  H   0.88767
    8  H   0.93765
    9  H   0.95135
   10  H   0.93477
   11  H   0.94045
   12  H   0.89332
   13  H   0.89173
   14  H   0.95954
   15  H   0.96062
   16  H   0.96130
 *******************************************************************************
 **                                                                           **
 **                              MOPAC v23.1.2                                **
 **                                                                           **
 *******************************************************************************
 **          Digital Object Identifier (DOI): 10.5281/zenodo.6511958          **
 **    Visit the DOI location for information on how to cite this program.    **
 *******************************************************************************

                              PM3 CALCULATION RESULTS

 *******************************************************************************
 *  CALCULATION DONE: (MAX THREADS = 1)              Tue Jun  3 16:36:23 2025  *
 *  PM3        - The PM3 Hamiltonian to be used
 *  OLDGEO     - PREVIOUS GEOMETRY TO BE USED
 *  PRECISE    - TIGHTER CRITERIA TO BE USED
 *  NOSYM      - POINT-GROUP SYMMETRY SET TO C1
 *  THREADS=1  - MULTI-THREADING NOT USED
 *  T=         - A TIME OF 172800.0 SECONDS REQUESTED
 *  DUMP=N     - RESTART FILE WRITTEN EVERY 7200.0 SECONDS REQUESTED
 *  THERMO     - THERMODYNAMIC QUANTITIES TO BE CALCULATED
 *******************************************************************************
oldgeo thermo nosym precise THREADS=1  pm3
 InChI=1S/C6H10/c1-2-6-4-3-5-6/h6H,2-4H2,1H3/lp5

   ATOM   CHEMICAL          X               Y               Z
  NUMBER   SYMBOL      (ANGSTROMS)     (ANGSTROMS)     (ANGSTROMS)

     1       C          0.31246878  *   0.60394101  *  -0.05560756  *
     2       C          1.00855242  *  -0.66602530  *  -0.62181047  *
     3       C         -0.98686873  *   0.39579297  *   0.68959878  *
     4       C          2.21609946  *  -0.32014471  *   0.27805392  *
     5       C         -2.13657232  *   0.12961497  *  -0.25620031  *
     6       C          1.50270127  *   0.87130585  *   0.83668607  *
     7       H          0.19880399  *   1.41203795  *  -0.81191273  *
     8       H         -1.19318749  *   1.29251934  *   1.30654099  *
     9       H         -0.88196822  *  -0.44559602  *   1.40312580  *
    10       H          0.50376308  *  -1.61583626  *  -0.39025799  *
    11       H          1.20345881  *  -0.65341013  *  -1.70325459  *
    12       H          3.15417809  *  -0.07261210  *  -0.24423897  *
    13       H          2.46936765  *  -1.06723781  *   1.04828942  *
    14       H         -3.07389216  *  -0.02540209  *   0.29307613  *
    15       H         -2.29580984  *   0.96669860  *  -0.94881928  *
    16       H         -1.95823648  *  -0.76774689  *  -0.86402381  *



          CARTESIAN COORDINATES 

    NO.       ATOM           X           Y           Z

     1         C          0.3125      0.6039     -0.0556
     2         C          1.0086     -0.6660     -0.6218
     3         C         -0.9869      0.3958      0.6896
     4         C          2.2161     -0.3201      0.2781
     5         C         -2.1366      0.1296     -0.2562
     6         C          1.5027      0.8713      0.8367
     7         H          0.1988      1.4120     -0.8119
     8         H         -1.1932      1.2925      1.3065
     9         H         -0.8820     -0.4456      1.4031
    10         H          0.5038     -1.6158     -0.3903
    11         H          1.2035     -0.6534     -1.7033
    12         H          3.1542     -0.0726     -0.2442
    13         H          2.4694     -1.0672      1.0483
    14         H         -3.0739     -0.0254      0.2931
    15         H         -2.2958      0.9667     -0.9488
    16         H         -1.9582     -0.7677     -0.8640

  H: (PM3): J. J. P. STEWART, J. COMP. CHEM. 10, 209 (1989).
  C: (PM3): J. J. P. STEWART, J. COMP. CHEM. 10, 209 (1989).

           Empirical Formula: C6 H10  =    16 atoms



      MOLECULAR POINT GROUP   :   C1  


      RHF CALCULATION, NO. OF DOUBLY OCCUPIED LEVELS = 17



          HEAT OF FORMATION =      81.555614 KCALS/MOLE


          CARTESIAN COORDINATE DERIVATIVES

   NUMBER  ATOM         X            Y            Z

     1       C      0.001635    -0.002586    -0.004761
     2       C      0.001378    -0.008465    -0.000405
     3       C      0.004828    -0.000974    -0.002768
     4       C      0.001663    -0.000876    -0.001891
     5       C     -0.000556     0.002080    -0.001641
     6       C      0.003649    -0.004788    -0.003494
     7       H     -0.002412    -0.001768    -0.001295
     8       H      0.000579    -0.000680    -0.002093
     9       H     -0.002658     0.013053     0.009664
    10       H     -0.006699     0.000220     0.006736
    11       H     -0.003382    -0.005210    -0.000641
    12       H      0.002341     0.006797     0.005353
    13       H     -0.003616    -0.011633    -0.005777
    14       H     -0.013878     0.003731     0.008513
    15       H      0.014421    -0.007106    -0.005876
    16       H      0.002707     0.018204     0.000376



          GRADIENT NORM =   0.04230

          MOLECULAR WEIGHT =   82.15



          ROTATIONAL CONSTANTS IN CM(-1)

          A =    0.28990887   B =    0.07826004   C =    0.06869755



           PRINCIPAL MOMENTS OF INERTIA IN UNITS OF 10**(-40)*GRAM-CM**2

          A =       96.5571   B =      357.6890   C =      407.4781


          ORIENTATION OF MOLECULE IN FORCE CALCULATION

    NO.       ATOM         X         Y         Z

     1          C      -0.2946   -0.3693    0.1673
     2          C       1.2604   -0.3693    0.1673
     3          C      -0.9776    0.9799    0.1673
     4          C       1.1908   -1.1238   -1.1794
     5          C      -0.9305    1.6296    1.5321
     6          C      -0.3051   -1.0693   -1.1723
     7          H      -0.7301   -1.0227    0.9556
     8          H      -2.0270    0.8498   -0.1632
     9          H      -0.5033    1.6429   -0.5834
    10          H       1.7258    0.6268    0.1270
    11          H       1.7311   -0.9180    0.9949
    12          H       1.5987   -2.1473   -1.1828
    13          H       1.6338   -0.6027   -2.0441
    14          H      -1.4235    2.6100    1.5216
    15          H      -1.4332    1.0168    2.2920
    16          H       0.1035    1.7841    1.8689


    FIRST DERIVATIVES WILL BE USED IN THE CALCULATION OF SECOND DERIVATIVES

          ESTIMATED TIME TO COMPLETE CALCULATION =        0.75 SECONDS

    FOR POINT-GROUP C1   THERE ARE   1 UNIQUE SYMMETRY FUNCTIONS.

 STEP:   1 TIME =     0.01 SECS, INTEGRAL =      0.01 TIME LEFT: 172799.98
 STEP:   2 TIME =     0.02 SECS, INTEGRAL =      0.03 TIME LEFT: 172799.97
 STEP:   3 TIME =     0.02 SECS, INTEGRAL =      0.04 TIME LEFT: 172799.95
 STEP:   4 TIME =     0.02 SECS, INTEGRAL =      0.06 TIME LEFT: 172799.94
 STEP:   5 TIME =     0.02 SECS, INTEGRAL =      0.07 TIME LEFT: 172799.92
 STEP:   6 TIME =     0.02 SECS, INTEGRAL =      0.09 TIME LEFT: 172799.91
 STEP:   7 TIME =     0.02 SECS, INTEGRAL =      0.11 TIME LEFT: 172799.89
 STEP:   8 TIME =     0.01 SECS, INTEGRAL =      0.12 TIME LEFT: 172799.88
 STEP:   9 TIME =     0.02 SECS, INTEGRAL =      0.13 TIME LEFT: 172799.86
 STEP:  10 TIME =     0.02 SECS, INTEGRAL =      0.15 TIME LEFT: 172799.85
 STEP:  11 TIME =     0.02 SECS, INTEGRAL =      0.16 TIME LEFT: 172799.83
 STEP:  12 TIME =     0.02 SECS, INTEGRAL =      0.18 TIME LEFT: 172799.82
 STEP:  13 TIME =     0.02 SECS, INTEGRAL =      0.20 TIME LEFT: 172799.80
 STEP:  14 TIME =     0.02 SECS, INTEGRAL =      0.21 TIME LEFT: 172799.78
 STEP:  15 TIME =     0.01 SECS, INTEGRAL =      0.23 TIME LEFT: 172799.77
 STEP:  16 TIME =     0.02 SECS, INTEGRAL =      0.24 TIME LEFT: 172799.75
 STEP:  17 TIME =     0.02 SECS, INTEGRAL =      0.26 TIME LEFT: 172799.73
 STEP:  18 TIME =     0.01 SECS, INTEGRAL =      0.27 TIME LEFT: 172799.72
 STEP:  19 TIME =     0.01 SECS, INTEGRAL =      0.29 TIME LEFT: 172799.71
 STEP:  20 TIME =     0.01 SECS, INTEGRAL =      0.30 TIME LEFT: 172799.70
 STEP:  21 TIME =     0.01 SECS, INTEGRAL =      0.31 TIME LEFT: 172799.69
 STEP:  22 TIME =     0.01 SECS, INTEGRAL =      0.32 TIME LEFT: 172799.68
 STEP:  23 TIME =     0.01 SECS, INTEGRAL =      0.33 TIME LEFT: 172799.66
 STEP:  24 TIME =     0.01 SECS, INTEGRAL =      0.34 TIME LEFT: 172799.65
 STEP:  25 TIME =     0.01 SECS, INTEGRAL =      0.36 TIME LEFT: 172799.64
 STEP:  26 TIME =     0.01 SECS, INTEGRAL =      0.36 TIME LEFT: 172799.63
 STEP:  27 TIME =     0.01 SECS, INTEGRAL =      0.37 TIME LEFT: 172799.62
 STEP:  28 TIME =     0.01 SECS, INTEGRAL =      0.38 TIME LEFT: 172799.62
 STEP:  29 TIME =     0.01 SECS, INTEGRAL =      0.39 TIME LEFT: 172799.61
 STEP:  30 TIME =     0.01 SECS, INTEGRAL =      0.40 TIME LEFT: 172799.60
 STEP:  31 TIME =     0.01 SECS, INTEGRAL =      0.41 TIME LEFT: 172799.59
 STEP:  32 TIME =     0.01 SECS, INTEGRAL =      0.42 TIME LEFT: 172799.57
 STEP:  33 TIME =     0.01 SECS, INTEGRAL =      0.43 TIME LEFT: 172799.57
 STEP:  34 TIME =     0.01 SECS, INTEGRAL =      0.44 TIME LEFT: 172799.55
 STEP:  35 TIME =     0.01 SECS, INTEGRAL =      0.45 TIME LEFT: 172799.54
 STEP:  36 TIME =     0.01 SECS, INTEGRAL =      0.46 TIME LEFT: 172799.53
 STEP:  37 TIME =     0.02 SECS, INTEGRAL =      0.48 TIME LEFT: 172799.52
 STEP:  38 TIME =     0.01 SECS, INTEGRAL =      0.49 TIME LEFT: 172799.50
 STEP:  39 TIME =     0.01 SECS, INTEGRAL =      0.50 TIME LEFT: 172799.49
 STEP:  40 TIME =     0.01 SECS, INTEGRAL =      0.51 TIME LEFT: 172799.48
 STEP:  41 TIME =     0.01 SECS, INTEGRAL =      0.52 TIME LEFT: 172799.48
 STEP:  42 TIME =     0.02 SECS, INTEGRAL =      0.54 TIME LEFT: 172799.46
 STEP:  43 TIME =     0.01 SECS, INTEGRAL =      0.55 TIME LEFT: 172799.45
 STEP:  44 TIME =     0.01 SECS, INTEGRAL =      0.56 TIME LEFT: 172799.44
 STEP:  45 TIME =     0.01 SECS, INTEGRAL =      0.57 TIME LEFT: 172799.43
 STEP:  46 TIME =     0.01 SECS, INTEGRAL =      0.58 TIME LEFT: 172799.41
 STEP:  47 TIME =     0.01 SECS, INTEGRAL =      0.59 TIME LEFT: 172799.40
 STEP:  48 TIME =     0.01 SECS, INTEGRAL =      0.60 TIME LEFT: 172799.39

(To convert to Hartree/Bohr^2, multiply by (10^(-21) x N x a0^2)/(4.184 x 627.51) =  0.0642)


           FORCE MATRIX IN MILLIDYNES/ANGSTROM


                  C  1       C  2       C  3       C  4       C  5       C  6
 ------------------------------------------------------------------------------
     C    1  14.142351
     C    2   3.233789  14.267848
     C    3   4.279491   0.508798  14.413663
     C    4   2.078804   3.545472   0.056104  14.116402
     C    5   0.705253   0.028908   4.456284   0.013610  14.372550
     C    6   4.155902   2.033244   0.516288   4.578072   0.040270   8.745723
     H    7   4.360199   0.427825   0.443923   0.047731   0.027241   0.299214
     H    8   0.435423   0.046803   4.479323   0.006420   0.437812   0.025818
     H    9   0.439903   0.020886   4.453258   0.005106   0.439042   0.023204
     H   10   0.445446   4.703881   0.020666   0.438753   0.007103   0.045863
     H   11   0.431457   4.746195   0.032595   0.438654   0.002081   0.048411
     H   12   0.048729   0.434552   0.007042   4.647917   0.001979   0.332544
     H   13   0.049889   0.436003   0.014613   4.623544   0.002414   0.336705
     H   14   0.059964   0.002128   0.444330   0.003691   4.755080   0.008441
     H   15   0.018899   0.002163   0.464758   0.000993   4.728846   0.003980
     H   16   0.016408   0.005668   0.463910   0.001775   4.717483   0.004059


                  H  7       H  8       H  9       H 10       H 11       H 12
 ------------------------------------------------------------------------------
     H    7   4.849341
     H    8   0.026618   5.076793
     H    9   0.042462   0.561380   5.055620
     H   10   0.030233   0.003140   0.019461   5.327751
     H   11   0.027020   0.005648   0.001528   0.553296   5.363562
     H   12   0.012101   0.000601   0.000595   0.031579   0.021219   5.275835
     H   13   0.006859   0.001063   0.001104   0.022548   0.031243   0.568301
     H   14   0.003127   0.028703   0.030626   0.000546   0.000341   0.000551
     H   15   0.021055   0.024143   0.048833   0.000473   0.000341   0.000133
     H   16   0.002452   0.048295   0.024384   0.008567   0.000841   0.000189


                  H 13       H 14       H 15       H 16
 ------------------------------------------------------
     H   13   5.250903
     H   14   0.000491   5.489643
     H   15   0.000279   0.573034   5.470141
     H   16   0.000298   0.571138   0.575654   5.455072


          HEAT OF FORMATION =      81.555614 KCALS/MOLE

          ZERO POINT ENERGY      88.152 KCAL/MOL


           NORMAL COORDINATE ANALYSIS (Total motion = 1 Angstrom)


   Root No.       1         2         3         4         5         6         7         8

                 1 A       2 A       3 A       4 A       5 A       6 A       7 A       8 A   

                  80.0     144.3     181.7     264.8     403.6     431.5     713.3     769.2
  
           1   -0.0236    0.0043    0.0092    0.0248   -0.0004    0.0237   -0.0078   -0.0294
           2   -0.0205   -0.0207   -0.0000   -0.0075   -0.0269    0.0461   -0.0022   -0.0153
           3   -0.0042    0.0281    0.0084    0.0161    0.0409    0.0022    0.0093    0.0406
           4   -0.0236    0.0043    0.0088    0.0265   -0.0016    0.0281   -0.0049   -0.0048
           5   -0.0063   -0.0259   -0.0260   -0.0260    0.0273   -0.0202   -0.0033   -0.0247
           6    0.0286    0.0135    0.0052   -0.0061    0.0073    0.0137   -0.0108   -0.0216
           7   -0.0318    0.0227    0.0157   -0.0214    0.0224   -0.0393   -0.0100   -0.0376
           8   -0.0244   -0.0096    0.0039   -0.0303   -0.0223    0.0139    0.0112    0.0206
           9    0.0027   -0.0081   -0.0000    0.0277   -0.0299   -0.0329   -0.0036   -0.0079
          10    0.0123   -0.0098   -0.0061    0.0001   -0.0232   -0.0089    0.0136    0.0315
          11    0.0285    0.0461   -0.0007   -0.0189    0.0152   -0.0020    0.0415   -0.0208
          12    0.0076   -0.0262   -0.0087   -0.0100    0.0143    0.0029   -0.0330   -0.0176
          13    0.0524   -0.0114   -0.0195   -0.0259    0.0155    0.0056   -0.0017   -0.0066
          14    0.0134    0.0148    0.0125    0.0358   -0.0386   -0.0350    0.0045    0.0079
          15   -0.0183   -0.0196   -0.0035   -0.0059   -0.0303   -0.0153    0.0064    0.0031
          16    0.0114   -0.0110   -0.0051    0.0039   -0.0210   -0.0067    0.0089    0.0329
          17    0.0075   -0.0144    0.0124    0.0597    0.0582    0.0155   -0.0334    0.0208
          18   -0.0196    0.0238    0.0016   -0.0200    0.0042    0.0315    0.0141    0.0160
          19   -0.0350   -0.0016    0.0011    0.0400    0.0101    0.0243   -0.0025   -0.0311
          20   -0.0355    0.0005    0.0030   -0.0311   -0.0147    0.0655    0.0506    0.0221
          21   -0.0234    0.0405    0.0064    0.0040    0.0525    0.0218    0.0550    0.0662
          22   -0.0516    0.0307    0.0223   -0.0258    0.0320   -0.0463   -0.0115   -0.0211
          23   -0.0390    0.0002   -0.0017   -0.0887   -0.0004   -0.0478    0.0200    0.1009
          24    0.0719   -0.0379   -0.0202    0.0612   -0.0680    0.0122   -0.0008   -0.0839
          25   -0.0827    0.0550    0.0273   -0.0732    0.0670   -0.1069   -0.0072    0.0576
          26   -0.0422   -0.0282    0.0043   -0.0341   -0.0457    0.0351    0.0115   -0.0001
          27   -0.0452   -0.0047    0.0078   -0.0086   -0.0238   -0.0540   -0.0004    0.0319
          28   -0.0317    0.0122    0.0264    0.0351   -0.0481    0.0925    0.0128   -0.0574
          29   -0.0009   -0.0276   -0.0337   -0.0307    0.0492   -0.0512   -0.0106   -0.0009
          30    0.0651    0.0698    0.0248   -0.0118   -0.0282    0.0433    0.0940   -0.0838
          31   -0.0366    0.0057   -0.0003    0.0333    0.0541   -0.0192   -0.0222    0.0595
          32   -0.0241   -0.0794   -0.0519   -0.0336    0.0663   -0.0742   -0.0993    0.0256
          33    0.0242   -0.0223   -0.0066   -0.0151    0.0000    0.0063   -0.0608   -0.0287
          34    0.0266    0.0370   -0.0147   -0.0710   -0.1026   -0.0092   -0.1852    0.0612
          35    0.0343    0.0655   -0.0040   -0.0482   -0.0183   -0.0010   -0.0488   -0.0082
          36   -0.0123   -0.1043   -0.0321    0.0017    0.0642   -0.0382    0.1142   -0.0717
          37    0.0215   -0.0654   -0.0080    0.0508    0.0402   -0.0381    0.2254    0.0086
          38    0.0580    0.1203    0.0130   -0.0549   -0.0506    0.0237   -0.1410    0.0151
          39    0.0300   -0.0106   -0.0015   -0.0047    0.0100    0.0026   -0.0229   -0.0118
          40    0.0354    0.0346   -0.2250    0.0174    0.0063    0.0301    0.0037    0.0294
          41    0.0050    0.0375   -0.0903    0.0575   -0.0439   -0.0235    0.0072    0.0255
          42   -0.0109   -0.0634    0.0308   -0.0754   -0.0118    0.0536    0.0288    0.0797
          43    0.1158   -0.0765    0.1630   -0.0738    0.0242    0.0186    0.0049    0.0347
          44    0.0254    0.0535   -0.0907    0.1010   -0.0586   -0.0630   -0.0031   -0.0036
          45    0.0332   -0.0316    0.0343    0.0143   -0.0401   -0.0281    0.0050    0.0206
          46    0.0733   -0.0204   -0.0278   -0.0284    0.0161    0.0228    0.0031    0.0261
          47    0.0400   -0.0262    0.2286    0.0102   -0.0366   -0.0813   -0.0058   -0.0405
          48   -0.0942    0.0268   -0.0782    0.0127   -0.0315   -0.0450   -0.0027   -0.0686


   Root No.       9        10        11        12        13        14        15        16

                 9 A      10 A      11 A      12 A      13 A      14 A      15 A      16 A   

                 825.2     887.5     917.8     947.2     978.2     996.1    1006.1    1058.4
  
           1   -0.0025   -0.0062    0.0143   -0.0041   -0.0242    0.0184   -0.0083    0.0184
           2   -0.0057    0.0025    0.0168    0.0240   -0.0011   -0.0026   -0.0086    0.0062
           3    0.0159    0.0171    0.0039   -0.0037   -0.0006    0.0062    0.0031   -0.0090
           4   -0.0206   -0.0275   -0.0328   -0.0226    0.0168   -0.0205    0.0064   -0.0072
           5   -0.0140    0.0182   -0.0032    0.0060    0.0044    0.0183    0.0210    0.0129
           6   -0.0020   -0.0241   -0.0066    0.0034   -0.0193    0.0054    0.0294    0.0078
           7    0.0245    0.0080    0.0073    0.0072   -0.0137    0.0022   -0.0051   -0.0190
           8    0.0191   -0.0068   -0.0115   -0.0098   -0.0064   -0.0071   -0.0018    0.0018
           9   -0.0108    0.0025    0.0038    0.0091    0.0043    0.0044   -0.0073    0.0021
          10    0.0094    0.0140    0.0075    0.0140    0.0041    0.0002   -0.0192    0.0029
          11   -0.0050   -0.0161   -0.0057   -0.0100    0.0058   -0.0105   -0.0077   -0.0287
          12   -0.0085   -0.0056   -0.0034   -0.0348    0.0152   -0.0177   -0.0070   -0.0072
          13    0.0064    0.0053   -0.0011    0.0104    0.0155   -0.0088    0.0046    0.0122
          14    0.0055   -0.0057   -0.0145   -0.0241   -0.0040    0.0274   -0.0014   -0.0020
          15    0.0001   -0.0029    0.0027   -0.0075   -0.0043   -0.0044    0.0098   -0.0048
          16    0.0065    0.0073   -0.0096    0.0235   -0.0026    0.0023    0.0524   -0.0111
          17    0.0018    0.0231   -0.0021    0.0178    0.0013   -0.0011   -0.0107    0.0023
          18   -0.0001    0.0022   -0.0110    0.0594    0.0031    0.0044   -0.0306    0.0046
          19   -0.0245    0.0261    0.0779   -0.1274    0.0422    0.0770    0.0328    0.1166
          20    0.0444    0.0372    0.1286   -0.0641   -0.0084   -0.0947    0.1158   -0.0379
          21    0.0445    0.0645    0.1325   -0.1394    0.0297   -0.0340    0.1249    0.0088
          22   -0.0142    0.0027    0.0272    0.0049   -0.0461    0.0167   -0.0142   -0.0273
          23   -0.0667   -0.0108   -0.0566   -0.0071    0.1282   -0.0315    0.0361    0.0912
          24    0.1343    0.0193   -0.0395    0.0115    0.0520   -0.0261    0.0072   -0.0046
          25   -0.1208    0.0032    0.0076    0.0042    0.0452    0.0375    0.0016    0.0283
          26    0.0051   -0.0263    0.0345    0.0074   -0.0899   -0.0646   -0.0110   -0.0095
          27   -0.1085   -0.0171    0.0431    0.0205   -0.0322   -0.0232   -0.0106    0.0197
          28   -0.0823    0.0413    0.0028   -0.0232    0.1343    0.0493    0.0139   -0.1321
          29    0.0155   -0.0144   -0.0199    0.0045   -0.0541   -0.0155    0.0165    0.0780
          30   -0.0453    0.1152   -0.0499   -0.0256   -0.0646    0.0072    0.0420    0.1596
          31    0.0287   -0.1162   -0.0893   -0.0845   -0.0614   -0.1376   -0.0270    0.0611
          32    0.0400   -0.1160    0.0373    0.0369   -0.0057    0.0240    0.0206   -0.0425
          33    0.0028   -0.0561    0.0526    0.0552    0.0197    0.0775    0.0477   -0.0666
          34    0.0098    0.1576    0.0142   -0.0722   -0.0146   -0.0331   -0.1722   -0.0018
          35   -0.0046    0.0406   -0.0017   -0.0441   -0.0013   -0.0226   -0.0675   -0.0297
          36   -0.0344    0.1168   -0.0525   -0.0856   -0.0317   -0.0565   -0.1073   -0.0793
          37    0.0351   -0.0928    0.0961    0.0050    0.0483    0.0196   -0.1787    0.0477
          38    0.0193   -0.0823    0.0630   -0.0270    0.0438    0.0094   -0.0336    0.0380
          39    0.0183   -0.1009    0.0818   -0.0485    0.0589    0.0044   -0.1045    0.0565
          40   -0.0370   -0.0119    0.0105   -0.0175   -0.0364    0.0178   -0.0086   -0.0165
          41   -0.0164   -0.0145   -0.0086   -0.0374   -0.0293    0.0387   -0.0073   -0.0156
          42    0.0339   -0.0279   -0.0685   -0.1447   -0.0522    0.1637   -0.0199   -0.0362
          43   -0.0435   -0.0112    0.0132   -0.0161   -0.0339    0.0156   -0.0072   -0.0175
          44   -0.0720   -0.0076    0.0564    0.0413   -0.0279   -0.0766    0.0165   -0.0130
          45   -0.0904   -0.0145    0.0667    0.0252   -0.0539   -0.0693    0.0171   -0.0329
          46   -0.0336   -0.0084    0.0110   -0.0102   -0.0268    0.0114   -0.0078   -0.0126
          47    0.0164    0.0132    0.0066    0.0422    0.0450   -0.0574    0.0243    0.0299
          48    0.1086    0.0282   -0.0403    0.0212    0.0932   -0.0232    0.0339    0.0530


   Root No.      17        18        19        20        21        22        23        24

                17 A      18 A      19 A      20 A      21 A      22 A      23 A      24 A   

                1087.1    1120.0    1123.0    1151.0    1155.8    1183.0    1253.3    1273.0
  
           1    0.0218   -0.0002    0.0002    0.0073   -0.0172    0.0256    0.0605   -0.0064
           2   -0.0012   -0.0030    0.0135    0.0341   -0.0427    0.0068   -0.0121    0.0170
           3   -0.0077   -0.0118    0.0063   -0.0150   -0.0011    0.0497    0.0227    0.0401
           4    0.0044    0.0122   -0.0162    0.0028    0.0415   -0.0207   -0.0102    0.0350
           5   -0.0268    0.0073   -0.0130   -0.0005    0.0281    0.0350   -0.0096   -0.0125
           6    0.0365   -0.0010   -0.0061    0.0062    0.0034    0.0387   -0.0345   -0.0273
           7   -0.0219   -0.0198   -0.0236    0.0010   -0.0005   -0.0124   -0.0102   -0.0129
           8    0.0002   -0.0251   -0.0098   -0.0351    0.0007    0.0134   -0.0145    0.0388
           9   -0.0022   -0.0461    0.0181    0.0411    0.0070   -0.0039   -0.0186    0.0252
          10    0.0033    0.0027   -0.0048   -0.0019    0.0075   -0.0365   -0.0036   -0.0099
          11    0.0123   -0.0076    0.0132   -0.0037   -0.0208   -0.0228    0.0088    0.0003
          12   -0.0367   -0.0046    0.0137   -0.0053   -0.0180   -0.0340    0.0209    0.0016
          13    0.0102    0.0203    0.0308   -0.0045    0.0052    0.0057    0.0001    0.0060
          14    0.0004    0.0203    0.0115    0.0083    0.0070   -0.0086    0.0029   -0.0119
          15   -0.0000    0.0521   -0.0185   -0.0234   -0.0166    0.0017    0.0013    0.0001
          16   -0.0208   -0.0129    0.0173   -0.0022   -0.0267    0.0148    0.0050    0.0012
          17   -0.0000    0.0082   -0.0053   -0.0021    0.0058   -0.0202   -0.0045   -0.0184
          18   -0.0023    0.0097   -0.0051   -0.0036    0.0020   -0.0369   -0.0103   -0.0312
          19    0.0641   -0.0981    0.0281   -0.1789   -0.1173   -0.1058   -0.1233   -0.0375
          20    0.0139    0.0645   -0.0206    0.1978    0.0688   -0.0360    0.0229   -0.0434
          21    0.0280   -0.0113   -0.0048    0.0159    0.0357   -0.0588   -0.0517   -0.0285
          22   -0.0333    0.0302    0.0334   -0.0049   -0.0010   -0.0130   -0.0462    0.0319
          23    0.0967   -0.1135   -0.1033    0.0231   -0.0099    0.0344    0.1473   -0.0878
          24   -0.0029   -0.1729   -0.1256    0.0386    0.0104   -0.0122    0.0294   -0.0721
          25    0.0226    0.0222    0.0055    0.1028   -0.0633   -0.0107   -0.0304    0.0208
          26   -0.0116   -0.0945    0.1061   -0.1446    0.1761    0.0032    0.0582   -0.0904
          27    0.0142   -0.0808    0.1383    0.0110    0.1245   -0.0126    0.0311   -0.0694
          28   -0.0454   -0.0014   -0.0009   -0.0428    0.0549    0.1489   -0.0645   -0.0816
          29   -0.0048    0.0150   -0.0224    0.0234    0.0246   -0.0481    0.0174    0.0493
          30   -0.0508    0.0289   -0.0593    0.0120    0.0926   -0.0577    0.0063    0.1078
          31   -0.0120   -0.0034    0.0273    0.0582   -0.0722    0.0874   -0.1103   -0.0927
          32    0.1150    0.0023   -0.0199    0.0007    0.0336   -0.0393   -0.0102    0.0644
          33    0.1393    0.0038   -0.0361   -0.0268    0.0732   -0.0706    0.0217    0.0979
          34    0.0846    0.0249   -0.0310    0.0155    0.0447    0.0933   -0.0598    0.0063
          35    0.0437    0.0016    0.0025    0.0029   -0.0061    0.0269   -0.0093    0.0054
          36    0.1092   -0.0112    0.0252    0.0014   -0.0540    0.0037    0.0602    0.0094
          37   -0.0038    0.0298   -0.0372    0.0137    0.0564    0.0957   -0.0560    0.0085
          38   -0.0838    0.0097   -0.0007    0.0002    0.0003    0.0039    0.0686    0.0079
          39   -0.0966    0.0195   -0.0109    0.0049    0.0180    0.0470    0.0351    0.0140
          40   -0.0147   -0.0062   -0.0272   -0.0034   -0.0076   -0.0065    0.0048   -0.0136
          41   -0.0110    0.0079   -0.0180    0.0059    0.0020   -0.0146    0.0088   -0.0267
          42   -0.0215    0.0474   -0.0052    0.0591    0.0199   -0.0459    0.0370   -0.0998
          43   -0.0149   -0.0064   -0.0287    0.0018   -0.0091   -0.0061    0.0009   -0.0111
          44   -0.0067    0.0355   -0.0741   -0.0731   -0.0281    0.0119    0.0211   -0.0253
          45   -0.0215    0.0492   -0.1252   -0.0817   -0.0535    0.0098    0.0188   -0.0264
          46   -0.0118   -0.0186   -0.0131    0.0073   -0.0026   -0.0032   -0.0114    0.0140
          47    0.0283    0.0708    0.0298   -0.0486   -0.0014    0.0162    0.0211   -0.0123
          48    0.0507    0.1484    0.1024   -0.0351    0.0111    0.0152    0.0322   -0.0330


   Root No.      25        26        27        28        29        30        31        32

                25 A      26 A      27 A      28 A      29 A      30 A      31 A      32 A   

                1325.3    1357.3    1382.1    1405.6    1409.9    1410.8    1424.0    1448.5
  
           1    0.0277    0.0109   -0.0058   -0.0053   -0.0152   -0.0090    0.0019   -0.0326
           2   -0.0060   -0.0251    0.0101    0.0061    0.0230    0.0134    0.0069    0.0460
           3    0.0171   -0.0136    0.0139    0.0026    0.0123    0.0070    0.0044    0.0333
           4   -0.0196   -0.0128   -0.0042   -0.0010   -0.0068   -0.0036   -0.0191    0.0275
           5    0.0100    0.0076   -0.0016   -0.0011   -0.0065   -0.0036   -0.0117    0.0074
           6    0.0089    0.0075   -0.0028   -0.0008   -0.0077   -0.0039   -0.0198    0.0203
           7   -0.0106   -0.0080   -0.0087    0.0053    0.0162    0.0109   -0.0004    0.0151
           8    0.0169    0.0229    0.0108   -0.0067   -0.0222   -0.0169   -0.0166   -0.0405
           9    0.0082    0.0151   -0.0134    0.0092    0.0130    0.0069   -0.0289   -0.0296
          10    0.0690    0.0308    0.0226    0.0045    0.0121    0.0074   -0.0062    0.0298
          11    0.0161   -0.0131   -0.0052   -0.0011   -0.0021   -0.0014    0.0043   -0.0101
          12    0.0361   -0.0207   -0.0080   -0.0023   -0.0047   -0.0030    0.0075   -0.0183
          13    0.0031    0.0030   -0.0022   -0.0240    0.0114   -0.0166   -0.0001    0.0002
          14   -0.0028    0.0032   -0.0120   -0.0242   -0.0101    0.0190    0.0172    0.0137
          15    0.0034    0.0128   -0.0239    0.0039   -0.0127   -0.0104    0.0365    0.0263
          16   -0.0632   -0.0131   -0.0135   -0.0023   -0.0058   -0.0036    0.0060   -0.0219
          17   -0.0105    0.0051   -0.0049   -0.0012   -0.0043   -0.0024    0.0010   -0.0118
          18   -0.0242    0.0079   -0.0097   -0.0019   -0.0070   -0.0039    0.0013   -0.0228
          19   -0.0569   -0.0159   -0.0057    0.0000    0.0093    0.0053   -0.0042    0.0224
          20    0.0013    0.0274   -0.0202    0.0007   -0.0196   -0.0094   -0.0071   -0.0521
          21   -0.0230    0.0151   -0.0102    0.0020   -0.0081   -0.0027   -0.0100   -0.0144
          22    0.0029    0.0149   -0.0244    0.0125    0.0250    0.0152   -0.0285   -0.0162
          23    0.0074   -0.0125   -0.0967    0.0306    0.0815    0.0698   -0.0087    0.0224
          24   -0.0365   -0.0514    0.1146   -0.0451   -0.0884   -0.0672    0.0758    0.0493
          25   -0.0085   -0.0191    0.1309   -0.0549   -0.1159   -0.0933    0.0527    0.0019
          26   -0.0264   -0.0314   -0.0127    0.0031    0.0179    0.0218    0.0304    0.0529
          27   -0.0309   -0.0429    0.0703   -0.0260   -0.0494   -0.0362    0.0548    0.0458
          28    0.0449    0.0608    0.0423    0.0156    0.0566    0.0316    0.0843   -0.0844
          29   -0.0210   -0.0257   -0.0164   -0.0067   -0.0256   -0.0144   -0.0431    0.0473
          30   -0.0439   -0.0031    0.0528    0.0181    0.0876    0.0474    0.1314   -0.0916
          31    0.0233    0.0397    0.0455    0.0174    0.0687    0.0385    0.0881   -0.0575
          32   -0.0318    0.0079    0.0543    0.0195    0.0885    0.0482    0.1348   -0.1003
          33   -0.0412   -0.0195    0.0114    0.0041    0.0205    0.0109    0.0290   -0.0131
          34   -0.0332   -0.0960   -0.0432   -0.0072   -0.0178   -0.0109    0.0115   -0.0371
          35   -0.0317   -0.0504   -0.0270   -0.0051   -0.0129   -0.0079    0.0088   -0.0322
          36   -0.2079    0.1493    0.0436    0.0080    0.0137    0.0094   -0.0292    0.0538
          37   -0.0378   -0.0898   -0.0413   -0.0064   -0.0159   -0.0099    0.0098   -0.0352
          38   -0.1533    0.1590    0.0528    0.0092    0.0171    0.0113   -0.0302    0.0616
          39   -0.1298    0.0376   -0.0003   -0.0008   -0.0059   -0.0033   -0.0083   -0.0026
          40   -0.0091   -0.0238    0.0295    0.2959   -0.0513    0.0110   -0.0093   -0.0099
          41   -0.0110   -0.0160    0.0111    0.1445   -0.0284    0.0143    0.0032    0.0029
          42   -0.0434   -0.0787    0.0704   -0.0162    0.1279   -0.0914   -0.0899   -0.0338
          43   -0.0101   -0.0266    0.0453    0.0424   -0.1050    0.2163   -0.0307   -0.0259
          44   -0.0128   -0.0416    0.0567   -0.1240    0.1050   -0.0791   -0.0779   -0.0417
          45   -0.0160   -0.0499    0.0733   -0.0607    0.0107    0.0748   -0.0744   -0.0440
          46    0.0077    0.0258   -0.0388   -0.0443    0.0040   -0.0302    0.0389    0.0268
          47   -0.0039   -0.0247    0.0312    0.2631    0.0417   -0.1522   -0.0220   -0.0158
          48   -0.0170   -0.0632    0.0966   -0.0114   -0.0277    0.1464   -0.0912   -0.0600


   Root No.      33        34        35        36        37        38        39        40

                33 A      34 A      35 A      36 A      37 A      38 A      39 A      40 A   

                2933.7    2956.7    3021.3    3032.3    3048.7    3077.7    3084.8    3099.7
  
           1    0.0219   -0.0037    0.0002   -0.0001   -0.0008    0.0000   -0.0001   -0.0011
           2    0.0312   -0.0051    0.0001    0.0008   -0.0012    0.0001    0.0003    0.0003
           3   -0.0393    0.0064   -0.0002   -0.0003    0.0013   -0.0002    0.0002    0.0011
           4    0.0007    0.0000    0.0004    0.0004   -0.0019   -0.0004    0.0001   -0.0005
           5   -0.0027    0.0004    0.0110    0.0014   -0.0407    0.0009   -0.0002   -0.0009
           6    0.0011   -0.0004   -0.0057   -0.0006    0.0206   -0.0010    0.0002   -0.0011
           7   -0.0105   -0.0429   -0.0002   -0.0185   -0.0010   -0.0028    0.0010   -0.0000
           8   -0.0054   -0.0235    0.0002    0.0137    0.0004   -0.0010   -0.0013   -0.0001
           9    0.0033    0.0135   -0.0005   -0.0297   -0.0009    0.0001    0.0024   -0.0000
          10   -0.0004    0.0001   -0.0019    0.0001   -0.0006    0.0000   -0.0000    0.0274
          11    0.0002   -0.0000   -0.0405    0.0012   -0.0098    0.0001   -0.0000   -0.0185
          12    0.0002   -0.0000    0.0240   -0.0007    0.0059   -0.0001    0.0000   -0.0263
          13    0.0007    0.0023    0.0002    0.0025   -0.0010   -0.0482    0.0174    0.0001
          14    0.0005    0.0013   -0.0000   -0.0033   -0.0003   -0.0164   -0.0404   -0.0001
          15   -0.0002   -0.0006    0.0000    0.0009    0.0000    0.0089    0.0198    0.0000
          16    0.0006   -0.0002   -0.0001   -0.0002   -0.0000    0.0000   -0.0000    0.0006
          17    0.0004   -0.0001   -0.0006    0.0002   -0.0003    0.0000   -0.0000   -0.0004
          18   -0.0009    0.0001    0.0003   -0.0000    0.0003    0.0000   -0.0000   -0.0006
          19   -0.2665    0.0404   -0.0029   -0.0023    0.0116   -0.0015   -0.0002    0.0020
          20   -0.3908    0.0656   -0.0027   -0.0036    0.0119   -0.0008    0.0006    0.0032
          21    0.4822   -0.0777    0.0034    0.0031   -0.0148    0.0021    0.0006   -0.0036
          22    0.0794    0.3457    0.0063    0.4165    0.0150    0.0267   -0.0258    0.0008
          23    0.0114    0.0385    0.0010    0.0667    0.0026    0.0047   -0.0057    0.0001
          24    0.0259    0.1146    0.0016    0.1080    0.0041    0.0117   -0.0074    0.0002
          25    0.0451    0.1695   -0.0031   -0.1917   -0.0064    0.0047    0.0156   -0.0002
          26    0.0584    0.2426   -0.0041   -0.2343   -0.0063    0.0072    0.0171   -0.0001
          27   -0.0707   -0.2762    0.0045    0.2536    0.0070   -0.0126   -0.0224    0.0001
          28    0.0064   -0.0004   -0.0444   -0.0074    0.1646   -0.0017    0.0004    0.0061
          29    0.0199   -0.0041   -0.0897   -0.0142    0.3404   -0.0036    0.0008    0.0130
          30   -0.0005    0.0004    0.0056    0.0002   -0.0087   -0.0006    0.0002   -0.0011
          31   -0.0056    0.0024    0.0395    0.0040   -0.1402    0.0066   -0.0015    0.0048
          32    0.0105   -0.0031   -0.0441   -0.0038    0.1490   -0.0078    0.0018   -0.0064
          33   -0.0171    0.0049    0.0643    0.0065   -0.2391    0.0116   -0.0027    0.0079
          34   -0.0022    0.0004   -0.1362    0.0041   -0.0318    0.0004    0.0002   -0.1656
          35    0.0055   -0.0011    0.3197   -0.0096    0.0765   -0.0010   -0.0005    0.4513
          36    0.0002    0.0000    0.0074   -0.0003    0.0050   -0.0001    0.0000   -0.0197
          37   -0.0012    0.0004    0.1598   -0.0046    0.0394   -0.0005    0.0003   -0.1638
          38   -0.0022    0.0005    0.1747   -0.0047    0.0417   -0.0006    0.0004   -0.2284
          39    0.0024   -0.0007   -0.2996    0.0085   -0.0774    0.0011   -0.0007    0.3366
          40   -0.0002    0.0012   -0.0003   -0.0178   -0.0000    0.0045   -0.1931   -0.0005
          41    0.0008   -0.0011    0.0008    0.0337   -0.0011   -0.0663    0.3753    0.0011
          42   -0.0000    0.0002   -0.0001   -0.0042   -0.0001    0.0069   -0.0048    0.0000
          43   -0.0041   -0.0100   -0.0000    0.0075    0.0020    0.1516    0.1480    0.0002
          44   -0.0040   -0.0143   -0.0001    0.0070    0.0029    0.2101    0.1515    0.0001
          45    0.0055    0.0118    0.0002   -0.0086   -0.0036   -0.2521   -0.1920   -0.0002
          46   -0.0053   -0.0208   -0.0017   -0.0201    0.0094    0.4204   -0.1627   -0.0004
          47   -0.0002   -0.0012   -0.0003   -0.0038    0.0014    0.0530   -0.0444   -0.0001
          48   -0.0011   -0.0035   -0.0006   -0.0052    0.0034    0.1388   -0.0413   -0.0001


   Root No.      41        42

                41 A      42 A   

                3113.4    3180.1
  
           1   -0.0007   -0.0001
           2   -0.0000    0.0000
           3   -0.0005    0.0001
           4   -0.0295    0.0002
           5   -0.0096    0.0002
           6   -0.0274    0.0001
           7    0.0001    0.0001
           8    0.0002   -0.0003
           9   -0.0002   -0.0003
          10   -0.0011   -0.0000
          11    0.0005    0.0000
          12    0.0000    0.0000
          13    0.0009    0.0009
          14   -0.0000   -0.0118
          15   -0.0002   -0.0216
          16    0.0008   -0.0000
          17    0.0004   -0.0000
          18    0.0007   -0.0000
          19   -0.0020    0.0007
          20   -0.0020    0.0005
          21    0.0018   -0.0014
          22    0.0010   -0.0028
          23    0.0001   -0.0009
          24    0.0000   -0.0016
          25   -0.0023    0.0013
          26   -0.0023    0.0012
          27    0.0026   -0.0026
          28    0.1615   -0.0015
          29    0.3778   -0.0035
          30   -0.0338    0.0000
          31    0.1968   -0.0005
          32   -0.2616    0.0007
          33    0.3638   -0.0009
          34    0.0050    0.0001
          35   -0.0146   -0.0002
          36   -0.0000   -0.0000
          37    0.0031    0.0000
          38    0.0051    0.0000
          39   -0.0073   -0.0001
          40   -0.0022   -0.1547
          41    0.0052    0.2989
          42   -0.0003   -0.0213
          43   -0.0029   -0.1489
          44   -0.0041   -0.1901
          45    0.0048    0.2074
          46   -0.0060    0.2932
          47   -0.0007    0.0353
          48   -0.0017    0.0784


           MASS-WEIGHTED COORDINATE ANALYSIS (NORMAL COORDINATES)


   Root No.       1         2         3         4         5         6         7         8

                 1 A       2 A       3 A       4 A       5 A       6 A       7 A       8 A   

                  80.0     144.3     181.7     264.8     403.6     431.5     713.3     769.2
  
           1   -0.1944    0.0370    0.0732    0.1938   -0.0029    0.1914   -0.0584   -0.2391
           2   -0.1689   -0.1780   -0.0001   -0.0587   -0.2039    0.3721   -0.0162   -0.1240
           3   -0.0344    0.2416    0.0668    0.1259    0.3096    0.0177    0.0698    0.3296
           4   -0.1942    0.0371    0.0700    0.2067   -0.0119    0.2270   -0.0367   -0.0391
           5   -0.0517   -0.2227   -0.2073   -0.2033    0.2064   -0.1630   -0.0246   -0.2003
           6    0.2354    0.1164    0.0415   -0.0473    0.0549    0.1107   -0.0812   -0.1750
           7   -0.2616    0.1953    0.1255   -0.1670    0.1693   -0.3170   -0.0750   -0.3054
           8   -0.2013   -0.0824    0.0310   -0.2363   -0.1689    0.1119    0.0841    0.1670
           9    0.0222   -0.0698   -0.0001    0.2162   -0.2265   -0.2652   -0.0270   -0.0644
          10    0.1011   -0.0847   -0.0489    0.0004   -0.1760   -0.0715    0.1024    0.2557
          11    0.2351    0.3961   -0.0058   -0.1476    0.1154   -0.0161    0.3122   -0.1688
          12    0.0623   -0.2251   -0.0696   -0.0784    0.1082    0.0233   -0.2480   -0.1433
          13    0.4312   -0.0981   -0.1551   -0.2019    0.1171    0.0456   -0.0128   -0.0532
          14    0.1105    0.1270    0.0992    0.2798   -0.2920   -0.2827    0.0336    0.0643
          15   -0.1510   -0.1682   -0.0279   -0.0460   -0.2294   -0.1235    0.0483    0.0253
          16    0.0938   -0.0947   -0.0408    0.0305   -0.1587   -0.0542    0.0672    0.2670
          17    0.0619   -0.1238    0.0985    0.4661    0.4404    0.1253   -0.2508    0.1692
          18   -0.1612    0.2043    0.0124   -0.1561    0.0318    0.2541    0.1061    0.1302
          19   -0.0835   -0.0040    0.0025    0.0904    0.0221    0.0568   -0.0054   -0.0732
          20   -0.0848    0.0013    0.0070   -0.0704   -0.0323    0.1533    0.1102    0.0521
          21   -0.0559    0.1010    0.0147    0.0090    0.1153    0.0509    0.1197    0.1557
          22   -0.1231    0.0765    0.0515   -0.0583    0.0702   -0.1083   -0.0251   -0.0497
          23   -0.0929    0.0004   -0.0039   -0.2006   -0.0009   -0.1119    0.0435    0.2373
          24    0.1717   -0.0944   -0.0467    0.1384   -0.1491    0.0285   -0.0018   -0.1974
          25   -0.1973    0.1371    0.0631   -0.1655    0.1469   -0.2499   -0.0157    0.1355
          26   -0.1008   -0.0704    0.0100   -0.0772   -0.1003    0.0820    0.0251   -0.0003
          27   -0.1079   -0.0116    0.0179   -0.0195   -0.0523   -0.1263   -0.0009    0.0751
          28   -0.0757    0.0303    0.0609    0.0793   -0.1056    0.2163    0.0279   -0.1350
          29   -0.0022   -0.0687   -0.0779   -0.0694    0.1079   -0.1198   -0.0232   -0.0022
          30    0.1554    0.1739    0.0572   -0.0268   -0.0620    0.1013    0.2046   -0.1972
          31   -0.0874    0.0143   -0.0007    0.0754    0.1187   -0.0449   -0.0484    0.1401
          32   -0.0575   -0.1977   -0.1197   -0.0759    0.1455   -0.1736   -0.2161    0.0603
          33    0.0579   -0.0556   -0.0152   -0.0341    0.0001    0.0148   -0.1324   -0.0676
          34    0.0634    0.0923   -0.0339   -0.1606   -0.2250   -0.0216   -0.4032    0.1440
          35    0.0819    0.1631   -0.0092   -0.1089   -0.0402   -0.0024   -0.1063   -0.0193
          36   -0.0293   -0.2598   -0.0742    0.0039    0.1408   -0.0892    0.2486   -0.1686
          37    0.0514   -0.1629   -0.0184    0.1148    0.0882   -0.0890    0.4908    0.0202
          38    0.1385    0.2997    0.0300   -0.1243   -0.1109    0.0554   -0.3070    0.0354
          39    0.0716   -0.0263   -0.0035   -0.0107    0.0220    0.0062   -0.0499   -0.0279
          40    0.0845    0.0861   -0.5194    0.0393    0.0139    0.0704    0.0081    0.0691
          41    0.0118    0.0935   -0.2084    0.1300   -0.0963   -0.0549    0.0158    0.0599
          42   -0.0259   -0.1580    0.0712   -0.1706   -0.0258    0.1255    0.0628    0.1874
          43    0.2762   -0.1907    0.3763   -0.1668    0.0532    0.0435    0.0106    0.0816
          44    0.0606    0.1333   -0.2094    0.2285   -0.1286   -0.1473   -0.0067   -0.0086
          45    0.0791   -0.0786    0.0792    0.0323   -0.0879   -0.0657    0.0110    0.0484
          46    0.1748   -0.0509   -0.0641   -0.0643    0.0352    0.0534    0.0067    0.0613
          47    0.0955   -0.0652    0.5278    0.0231   -0.0803   -0.1901   -0.0125   -0.0952
          48   -0.2247    0.0668   -0.1805    0.0287   -0.0691   -0.1052   -0.0059   -0.1614


   Root No.       9        10        11        12        13        14        15        16

                 9 A      10 A      11 A      12 A      13 A      14 A      15 A      16 A   

                 825.2     887.5     917.8     947.2     978.2     996.1    1006.1    1058.4
  
           1   -0.0243   -0.0538    0.1375   -0.0322   -0.2422    0.1753   -0.0638    0.1739
           2   -0.0552    0.0220    0.1617    0.1879   -0.0113   -0.0251   -0.0660    0.0590
           3    0.1545    0.1475    0.0375   -0.0286   -0.0063    0.0594    0.0242   -0.0854
           4   -0.1994   -0.2375   -0.3151   -0.1773    0.1676   -0.1950    0.0495   -0.0682
           5   -0.1355    0.1565   -0.0308    0.0471    0.0437    0.1747    0.1615    0.1223
           6   -0.0192   -0.2075   -0.0637    0.0268   -0.1928    0.0510    0.2262    0.0734
           7    0.2370    0.0689    0.0699    0.0567   -0.1373    0.0207   -0.0392   -0.1797
           8    0.1851   -0.0586   -0.1102   -0.0769   -0.0642   -0.0674   -0.0142    0.0169
           9   -0.1046    0.0218    0.0365    0.0716    0.0431    0.0422   -0.0563    0.0198
          10    0.0907    0.1205    0.0721    0.1095    0.0405    0.0018   -0.1474    0.0272
          11   -0.0488   -0.1393   -0.0551   -0.0781    0.0579   -0.0997   -0.0591   -0.2715
          12   -0.0825   -0.0484   -0.0329   -0.2723    0.1523   -0.1685   -0.0535   -0.0681
          13    0.0623    0.0458   -0.0102    0.0813    0.1551   -0.0839    0.0351    0.1153
          14    0.0528   -0.0489   -0.1388   -0.1886   -0.0396    0.2607   -0.0109   -0.0190
          15    0.0014   -0.0250    0.0264   -0.0589   -0.0434   -0.0422    0.0751   -0.0453
          16    0.0632    0.0631   -0.0919    0.1837   -0.0262    0.0219    0.4029   -0.1049
          17    0.0172    0.1992   -0.0199    0.1397    0.0132   -0.0109   -0.0824    0.0218
          18   -0.0014    0.0193   -0.1053    0.4653    0.0312    0.0417   -0.2355    0.0435
          19   -0.0688    0.0653    0.2166   -0.2892    0.1222    0.2123    0.0732    0.3193
          20    0.1247    0.0930    0.3576   -0.1454   -0.0243   -0.2612    0.2582   -0.1038
          21    0.1247    0.1611    0.3683   -0.3162    0.0859   -0.0938    0.2784    0.0242
          22   -0.0399    0.0068    0.0756    0.0110   -0.1335    0.0462   -0.0317   -0.0749
          23   -0.1872   -0.0271   -0.1573   -0.0160    0.3708   -0.0869    0.0804    0.2496
          24    0.3767    0.0482   -0.1097    0.0261    0.1503   -0.0721    0.0161   -0.0127
          25   -0.3389    0.0079    0.0211    0.0096    0.1307    0.1036    0.0036    0.0774
          26    0.0144   -0.0657    0.0958    0.0169   -0.2602   -0.1781   -0.0246   -0.0260
          27   -0.3046   -0.0427    0.1199    0.0464   -0.0932   -0.0639   -0.0235    0.0540
          28   -0.2310    0.1033    0.0079   -0.0527    0.3886    0.1359    0.0310   -0.3616
          29    0.0434   -0.0359   -0.0553    0.0102   -0.1565   -0.0428    0.0368    0.2135
          30   -0.1272    0.2878   -0.1387   -0.0581   -0.1868    0.0198    0.0937    0.4369
          31    0.0804   -0.2903   -0.2483   -0.1917   -0.1775   -0.3797   -0.0602    0.1674
          32    0.1121   -0.2899    0.1037    0.0837   -0.0165    0.0662    0.0458   -0.1164
          33    0.0080   -0.1402    0.1463    0.1252    0.0570    0.2138    0.1063   -0.1823
          34    0.0274    0.3937    0.0395   -0.1639   -0.0422   -0.0913   -0.3837   -0.0048
          35   -0.0130    0.1013   -0.0048   -0.1000   -0.0039   -0.0623   -0.1504   -0.0812
          36   -0.0965    0.2919   -0.1459   -0.1943   -0.0917   -0.1558   -0.2392   -0.2171
          37    0.0986   -0.2317    0.2671    0.0113    0.1397    0.0542   -0.3983    0.1305
          38    0.0541   -0.2057    0.1752   -0.0612    0.1268    0.0260   -0.0749    0.1040
          39    0.0515   -0.2520    0.2273   -0.1101    0.1704    0.0122   -0.2329    0.1548
          40   -0.1038   -0.0298    0.0291   -0.0397   -0.1054    0.0490   -0.0193   -0.0451
          41   -0.0460   -0.0362   -0.0238   -0.0848   -0.0849    0.1067   -0.0163   -0.0426
          42    0.0950   -0.0696   -0.1905   -0.3283   -0.1509    0.4517   -0.0444   -0.0991
          43   -0.1221   -0.0280    0.0366   -0.0365   -0.0982    0.0430   -0.0160   -0.0479
          44   -0.2021   -0.0189    0.1569    0.0937   -0.0806   -0.2114    0.0367   -0.0357
          45   -0.2538   -0.0363    0.1855    0.0572   -0.1560   -0.1911    0.0382   -0.0900
          46   -0.0943   -0.0211    0.0305   -0.0232   -0.0777    0.0314   -0.0173   -0.0346
          47    0.0460    0.0329    0.0183    0.0958    0.1302   -0.1583    0.0541    0.0818
          48    0.3049    0.0704   -0.1121    0.0481    0.2695   -0.0641    0.0757    0.1452


   Root No.      17        18        19        20        21        22        23        24

                17 A      18 A      19 A      20 A      21 A      22 A      23 A      24 A   

                1087.1    1120.0    1123.0    1151.0    1155.8    1183.0    1253.3    1273.0
  
           1    0.1896   -0.0014    0.0022    0.0573   -0.1375    0.1866    0.5068   -0.0513
           2   -0.0104   -0.0235    0.1209    0.2688   -0.3417    0.0498   -0.1014    0.1370
           3   -0.0673   -0.0913    0.0565   -0.1178   -0.0088    0.3623    0.1900    0.3228
           4    0.0384    0.0942   -0.1449    0.0224    0.3321   -0.1508   -0.0852    0.2821
           5   -0.2334    0.0568   -0.1163   -0.0043    0.2252    0.2551   -0.0804   -0.1007
           6    0.3177   -0.0081   -0.0547    0.0491    0.0276    0.2824   -0.2885   -0.2200
           7   -0.1902   -0.1533   -0.2108    0.0082   -0.0043   -0.0902   -0.0852   -0.1038
           8    0.0021   -0.1943   -0.0876   -0.2764    0.0055    0.0975   -0.1213    0.3125
           9   -0.0188   -0.3570    0.1623    0.3233    0.0558   -0.0286   -0.1558    0.2027
          10    0.0287    0.0212   -0.0433   -0.0146    0.0604   -0.2660   -0.0302   -0.0799
          11    0.1069   -0.0585    0.1179   -0.0291   -0.1663   -0.1663    0.0735    0.0028
          12   -0.3193   -0.0353    0.1225   -0.0415   -0.1441   -0.2484    0.1747    0.0131
          13    0.0885    0.1570    0.2751   -0.0358    0.0420    0.0413    0.0011    0.0483
          14    0.0037    0.1569    0.1030    0.0652    0.0561   -0.0630    0.0239   -0.0960
          15   -0.0001    0.4031   -0.1650   -0.1844   -0.1329    0.0127    0.0109    0.0008
          16   -0.1808   -0.1001    0.1545   -0.0172   -0.2140    0.1077    0.0415    0.0094
          17   -0.0000    0.0631   -0.0473   -0.0162    0.0465   -0.1476   -0.0374   -0.1481
          18   -0.0202    0.0748   -0.0457   -0.0283    0.0158   -0.2689   -0.0860   -0.2518
          19    0.1614   -0.2199    0.0729   -0.4080   -0.2720   -0.2236   -0.2992   -0.0876
          20    0.0351    0.1446   -0.0535    0.4510    0.1597   -0.0762    0.0555   -0.1012
          21    0.0706   -0.0254   -0.0125    0.0362    0.0827   -0.1243   -0.1254   -0.0664
          22   -0.0840    0.0678    0.0866   -0.0111   -0.0024   -0.0274   -0.1120    0.0744
          23    0.2437   -0.2543   -0.2675    0.0527   -0.0230    0.0726    0.3574   -0.2050
          24   -0.0074   -0.3876   -0.3254    0.0879    0.0241   -0.0257    0.0713   -0.1683
          25    0.0568    0.0497    0.0142    0.2343   -0.1468   -0.0227   -0.0737    0.0484
          26   -0.0293   -0.2118    0.2748   -0.3299    0.4085    0.0068    0.1412   -0.2111
          27    0.0358   -0.1811    0.3582    0.0251    0.2887   -0.0266    0.0753   -0.1621
          28   -0.1143   -0.0032   -0.0023   -0.0976    0.1274    0.3147   -0.1565   -0.1904
          29   -0.0121    0.0336   -0.0581    0.0535    0.0570   -0.1017    0.0421    0.1151
          30   -0.1281    0.0647   -0.1535    0.0274    0.2148   -0.1219    0.0153    0.2515
          31   -0.0303   -0.0076    0.0708    0.1328   -0.1674    0.1846   -0.2676   -0.2163
          32    0.2896    0.0052   -0.0516    0.0016    0.0779   -0.0831   -0.0248    0.1503
          33    0.3511    0.0086   -0.0934   -0.0612    0.1698   -0.1492    0.0525    0.2286
          34    0.2131    0.0557   -0.0804    0.0353    0.1037    0.1972   -0.1451    0.0148
          35    0.1101    0.0037    0.0066    0.0067   -0.0142    0.0569   -0.0225    0.0127
          36    0.2750   -0.0251    0.0653    0.0033   -0.1252    0.0079    0.1461    0.0219
          37   -0.0097    0.0668   -0.0962    0.0313    0.1307    0.2024   -0.1359    0.0199
          38   -0.2112    0.0218   -0.0019    0.0005    0.0008    0.0083    0.1665    0.0185
          39   -0.2435    0.0438   -0.0281    0.0112    0.0418    0.0993    0.0851    0.0327
          40   -0.0369   -0.0139   -0.0705   -0.0078   -0.0176   -0.0136    0.0117   -0.0317
          41   -0.0277    0.0178   -0.0466    0.0135    0.0047   -0.0308    0.0213   -0.0623
          42   -0.0541    0.1063   -0.0135    0.1347    0.0462   -0.0970    0.0898   -0.2329
          43   -0.0375   -0.0144   -0.0743    0.0041   -0.0210   -0.0129    0.0022   -0.0258
          44   -0.0170    0.0797   -0.1920   -0.1667   -0.0652    0.0252    0.0513   -0.0589
          45   -0.0542    0.1104   -0.3242   -0.1864   -0.1241    0.0207    0.0457   -0.0615
          46   -0.0297   -0.0417   -0.0339    0.0167   -0.0060   -0.0068   -0.0277    0.0326
          47    0.0714    0.1587    0.0771   -0.1109   -0.0034    0.0343    0.0512   -0.0288
          48    0.1277    0.3326    0.2653   -0.0799    0.0257    0.0322    0.0781   -0.0769


   Root No.      25        26        27        28        29        30        31        32

                25 A      26 A      27 A      28 A      29 A      30 A      31 A      32 A   

                1325.3    1357.3    1382.1    1405.6    1409.9    1410.8    1424.0    1448.5
  
           1    0.1868    0.0975   -0.0578   -0.0385   -0.1435   -0.0778    0.0172   -0.2505
           2   -0.0403   -0.2258    0.1000    0.0443    0.2175    0.1154    0.0622    0.3536
           3    0.1157   -0.1225    0.1379    0.0189    0.1161    0.0600    0.0396    0.2561
           4   -0.1322   -0.1148   -0.0413   -0.0071   -0.0638   -0.0310   -0.1727    0.2117
           5    0.0673    0.0682   -0.0161   -0.0077   -0.0619   -0.0306   -0.1060    0.0568
           6    0.0599    0.0675   -0.0274   -0.0061   -0.0729   -0.0335   -0.1788    0.1562
           7   -0.0714   -0.0714   -0.0865    0.0386    0.1527    0.0942   -0.0036    0.1158
           8    0.1140    0.2057    0.1070   -0.0482   -0.2094   -0.1456   -0.1503   -0.3118
           9    0.0552    0.1353   -0.1330    0.0669    0.1226    0.0597   -0.2616   -0.2275
          10    0.4658    0.2768    0.2243    0.0328    0.1140    0.0639   -0.0558    0.2289
          11    0.1088   -0.1175   -0.0512   -0.0082   -0.0201   -0.0121    0.0391   -0.0780
          12    0.2436   -0.1857   -0.0792   -0.0168   -0.0441   -0.0262    0.0677   -0.1404
          13    0.0211    0.0272   -0.0219   -0.1743    0.1080   -0.1433   -0.0009    0.0016
          14   -0.0188    0.0291   -0.1190   -0.1756   -0.0954    0.1639    0.1552    0.1053
          15    0.0230    0.1149   -0.2367    0.0284   -0.1202   -0.0900    0.3306    0.2021
          16   -0.4266   -0.1174   -0.1335   -0.0165   -0.0545   -0.0314    0.0544   -0.1686
          17   -0.0706    0.0461   -0.0482   -0.0085   -0.0411   -0.0204    0.0087   -0.0904
          18   -0.1634    0.0709   -0.0962   -0.0135   -0.0657   -0.0337    0.0117   -0.1751
          19   -0.1113   -0.0413   -0.0164    0.0001    0.0253    0.0133   -0.0109    0.0499
          20    0.0025    0.0713   -0.0580    0.0015   -0.0535   -0.0233   -0.0185   -0.1161
          21   -0.0449    0.0394   -0.0294    0.0043   -0.0221   -0.0067   -0.0263   -0.0320
          22    0.0057    0.0387   -0.0700    0.0263    0.0685    0.0378   -0.0747   -0.0361
          23    0.0145   -0.0326   -0.2778    0.0642    0.2228    0.1741   -0.0227    0.0499
          24   -0.0714   -0.1338    0.3291   -0.0948   -0.2417   -0.1678    0.1986    0.1099
          25   -0.0166   -0.0496    0.3759   -0.1153   -0.3171   -0.2329    0.1380    0.0042
          26   -0.0516   -0.0816   -0.0365    0.0065    0.0490    0.0543    0.0798    0.1178
          27   -0.0604   -0.1117    0.2021   -0.0546   -0.1352   -0.0903    0.1436    0.1021
          28    0.0878    0.1583    0.1215    0.0329    0.1547    0.0787    0.2208   -0.1881
          29   -0.0410   -0.0669   -0.0472   -0.0141   -0.0699   -0.0359   -0.1129    0.1055
          30   -0.0858   -0.0080    0.1516    0.0380    0.2398    0.1183    0.3443   -0.2042
          31    0.0456    0.1033    0.1306    0.0366    0.1879    0.0960    0.2310   -0.1282
          32   -0.0621    0.0206    0.1561    0.0410    0.2421    0.1202    0.3532   -0.2236
          33   -0.0806   -0.0508    0.0327    0.0086    0.0561    0.0273    0.0760   -0.0292
          34   -0.0650   -0.2498   -0.1240   -0.0151   -0.0487   -0.0273    0.0301   -0.0827
          35   -0.0620   -0.1311   -0.0775   -0.0107   -0.0352   -0.0198    0.0230   -0.0718
          36   -0.4067    0.3883    0.1252    0.0169    0.0376    0.0234   -0.0765    0.1198
          37   -0.0739   -0.2335   -0.1185   -0.0135   -0.0436   -0.0248    0.0257   -0.0785
          38   -0.2998    0.4137    0.1516    0.0194    0.0469    0.0282   -0.0791    0.1373
          39   -0.2540    0.0979   -0.0010   -0.0017   -0.0161   -0.0081   -0.0218   -0.0058
          40   -0.0177   -0.0618    0.0846    0.6216   -0.1403    0.0275   -0.0244   -0.0220
          41   -0.0215   -0.0415    0.0319    0.3036   -0.0777    0.0357    0.0084    0.0065
          42   -0.0849   -0.2047    0.2023   -0.0340    0.3500   -0.2280   -0.2355   -0.0754
          43   -0.0198   -0.0692    0.1302    0.0891   -0.2872    0.5397   -0.0804   -0.0577
          44   -0.0251   -0.1081    0.1628   -0.2604    0.2873   -0.1974   -0.2040   -0.0928
          45   -0.0313   -0.1299    0.2104   -0.1276    0.0293    0.1865   -0.1949   -0.0980
          46    0.0151    0.0671   -0.1113   -0.0931    0.0108   -0.0755    0.1020    0.0598
          47   -0.0076   -0.0642    0.0895    0.5528    0.1140   -0.3798   -0.0578   -0.0351
          48   -0.0333   -0.1645    0.2774   -0.0239   -0.0758    0.3653   -0.2390   -0.1337


   Root No.      33        34        35        36        37        38        39        40

                33 A      34 A      35 A      36 A      37 A      38 A      39 A      40 A   

                2933.7    2956.7    3021.3    3032.3    3048.7    3077.7    3084.8    3099.7
  
           1    0.1058   -0.0216    0.0015   -0.0006   -0.0050    0.0002   -0.0003   -0.0055
           2    0.1506   -0.0298    0.0005    0.0046   -0.0075    0.0004    0.0017    0.0014
           3   -0.1894    0.0375   -0.0013   -0.0015    0.0081   -0.0012    0.0015    0.0059
           4    0.0034    0.0002    0.0022    0.0020   -0.0124   -0.0020    0.0004   -0.0025
           5   -0.0128    0.0022    0.0680    0.0081   -0.2631    0.0050   -0.0012   -0.0046
           6    0.0052   -0.0023   -0.0351   -0.0035    0.1333   -0.0054    0.0014   -0.0059
           7   -0.0508   -0.2532   -0.0011   -0.1054   -0.0066   -0.0159    0.0060   -0.0001
           8   -0.0259   -0.1385    0.0015    0.0780    0.0026   -0.0060   -0.0082   -0.0003
           9    0.0158    0.0798   -0.0031   -0.1697   -0.0059    0.0007    0.0144   -0.0001
          10   -0.0022    0.0005   -0.0118    0.0004   -0.0040    0.0001   -0.0002    0.1419
          11    0.0012   -0.0002   -0.2500    0.0069   -0.0635    0.0008   -0.0000   -0.0954
          12    0.0011   -0.0001    0.1479   -0.0038    0.0384   -0.0005    0.0003   -0.1360
          13    0.0033    0.0135    0.0011    0.0142   -0.0063   -0.2745    0.1063    0.0003
          14    0.0026    0.0074   -0.0002   -0.0189   -0.0017   -0.0935   -0.2468   -0.0004
          15   -0.0011   -0.0038    0.0002    0.0052    0.0002    0.0509    0.1211    0.0001
          16    0.0028   -0.0011   -0.0006   -0.0009   -0.0001    0.0000   -0.0000    0.0033
          17    0.0019   -0.0005   -0.0038    0.0011   -0.0022    0.0001   -0.0001   -0.0020
          18   -0.0043    0.0008    0.0020   -0.0000    0.0016    0.0000   -0.0002   -0.0030
          19   -0.3722    0.0691   -0.0052   -0.0037    0.0217   -0.0025   -0.0004    0.0030
          20   -0.5459    0.1120   -0.0049   -0.0060    0.0223   -0.0013    0.0011    0.0047
          21    0.6736   -0.1327    0.0061    0.0051   -0.0277    0.0035    0.0011   -0.0054
          22    0.1109    0.5906    0.0113    0.6891    0.0281    0.0441   -0.0456    0.0012
          23    0.0159    0.0658    0.0017    0.1104    0.0048    0.0078   -0.0102    0.0001
          24    0.0362    0.1957    0.0029    0.1787    0.0076    0.0193   -0.0130    0.0003
          25    0.0630    0.2895   -0.0056   -0.3171   -0.0120    0.0077    0.0275   -0.0003
          26    0.0816    0.4145   -0.0074   -0.3876   -0.0119    0.0119    0.0303   -0.0001
          27   -0.0987   -0.4718    0.0081    0.4196    0.0131   -0.0207   -0.0396    0.0002
          28    0.0090   -0.0008   -0.0794   -0.0122    0.3079   -0.0028    0.0007    0.0091
          29    0.0277   -0.0070   -0.1604   -0.0235    0.6367   -0.0059    0.0014    0.0194
          30   -0.0007    0.0006    0.0100    0.0003   -0.0162   -0.0010    0.0004   -0.0016
          31   -0.0079    0.0041    0.0706    0.0067   -0.2623    0.0109   -0.0026    0.0071
          32    0.0147   -0.0053   -0.0789   -0.0063    0.2787   -0.0129    0.0033   -0.0096
          33   -0.0239    0.0085    0.1149    0.0107   -0.4472    0.0191   -0.0047    0.0118
          34   -0.0031    0.0007   -0.2435    0.0067   -0.0596    0.0007    0.0003   -0.2481
          35    0.0078   -0.0018    0.5718   -0.0159    0.1432   -0.0017   -0.0009    0.6761
          36    0.0002    0.0000    0.0132   -0.0005    0.0094   -0.0002    0.0001   -0.0296
          37   -0.0017    0.0007    0.2857   -0.0075    0.0736   -0.0009    0.0006   -0.2454
          38   -0.0031    0.0008    0.3124   -0.0078    0.0781   -0.0009    0.0007   -0.3422
          39    0.0033   -0.0012   -0.5357    0.0141   -0.1448    0.0018   -0.0012    0.5043
          40   -0.0002    0.0020   -0.0006   -0.0294   -0.0001    0.0075   -0.3416   -0.0008
          41    0.0011   -0.0018    0.0014    0.0558   -0.0021   -0.1095    0.6637    0.0016
          42   -0.0000    0.0004   -0.0002   -0.0069   -0.0001    0.0114   -0.0086    0.0000
          43   -0.0058   -0.0171   -0.0000    0.0124    0.0037    0.2502    0.2618    0.0003
          44   -0.0056   -0.0245   -0.0002    0.0115    0.0054    0.3467    0.2679    0.0001
          45    0.0077    0.0201    0.0003   -0.0143   -0.0067   -0.4160   -0.3395   -0.0003
          46   -0.0074   -0.0355   -0.0031   -0.0332    0.0176    0.6936   -0.2877   -0.0007
          47   -0.0003   -0.0021   -0.0005   -0.0063    0.0026    0.0875   -0.0786   -0.0002
          48   -0.0015   -0.0059   -0.0011   -0.0086    0.0064    0.2290   -0.0731   -0.0001


   Root No.      41        42

                41 A      42 A   

                3113.4    3180.1
  
           1   -0.0037   -0.0005
           2   -0.0001    0.0002
           3   -0.0027    0.0008
           4   -0.1554    0.0010
           5   -0.0507    0.0013
           6   -0.1443    0.0003
           7    0.0007    0.0007
           8    0.0008   -0.0021
           9   -0.0013   -0.0017
          10   -0.0058   -0.0000
          11    0.0026    0.0001
          12    0.0002    0.0001
          13    0.0047    0.0055
          14   -0.0001   -0.0727
          15   -0.0011   -0.1325
          16    0.0041   -0.0000
          17    0.0020   -0.0000
          18    0.0036   -0.0001
          19   -0.0031    0.0013
          20   -0.0030    0.0009
          21    0.0028   -0.0025
          22    0.0015   -0.0049
          23    0.0001   -0.0016
          24    0.0001   -0.0029
          25   -0.0035    0.0023
          26   -0.0036    0.0021
          27    0.0039   -0.0047
          28    0.2462   -0.0026
          29    0.5759   -0.0062
          30   -0.0515    0.0000
          31    0.3000   -0.0008
          32   -0.3987    0.0013
          33    0.5544   -0.0017
          34    0.0076    0.0001
          35   -0.0223   -0.0003
          36   -0.0000   -0.0000
          37    0.0047    0.0000
          38    0.0078    0.0001
          39   -0.0112   -0.0001
          40   -0.0033   -0.2754
          41    0.0080    0.5321
          42   -0.0005   -0.0378
          43   -0.0044   -0.2649
          44   -0.0063   -0.3383
          45    0.0074    0.3691
          46   -0.0092    0.5219
          47   -0.0011    0.0629
          48   -0.0026    0.1396


          DESCRIPTION OF VIBRATIONS


 VIBRATION          1    1A           ATOM PAIR      ENERGY CONTRIBUTION    RADIAL
 FREQUENCY            80.02         C  3 -- C  5         +17.2% (815.4%)      0.0%
 TRANSITION DIPOLE   0.0701         C  5 -- H 14          +9.5% (606.6%)      3.0%
 TRAVEL (Ang.)       0.9200         C  5 -- H 15          +9.0% (591.1%)     83.8%
 REDUCED MASS        0.9956         C  5 -- H 16          +9.0% (590.0%)     99.2%
 EFFECTIVE MASS    521.2095
 FORCE CONSTANT      0.0038

 VIBRATION          2    2A           ATOM PAIR      ENERGY CONTRIBUTION    RADIAL
 FREQUENCY           144.29         C  2 -- C  4         +13.6% (407.3%)      0.0%
 TRANSITION DIPOLE   0.2305         C  1 -- C  4         +12.2% (386.3%)      0.0%
 TRAVEL (Ang.)       0.7392         C  4 -- C  6          +9.9% (348.1%)      0.0%
 REDUCED MASS        0.8553         C  4 -- H 13          +9.4% (338.7%)     98.8%
 EFFECTIVE MASS    146.3477
[...]
 FREQUENCY          1273.00         C  1 -- C  6         +10.5% ( 46.2%)     98.9%
 TRANSITION DIPOLE   0.3947         C  3 -- H  8          +9.9% ( 45.1%)      0.0%
 TRAVEL (Ang.)       0.2542         C  3 -- H  9          +9.9% ( 45.0%)      0.0%
 REDUCED MASS        0.8200         C  2 -- H 11          +9.9% ( 44.9%)      0.0%
 EFFECTIVE MASS      6.0694
 FORCE CONSTANT      0.7829

 VIBRATION         25   25A           ATOM PAIR      ENERGY CONTRIBUTION    RADIAL
 FREQUENCY          1325.28         C  4 -- C  6         +21.9% ( 65.5%)     78.5%
 TRANSITION DIPOLE   0.7085         C  4 -- H 12         +16.3% ( 56.5%)      0.2%
 TRAVEL (Ang.)       0.1758         C  4 -- H 13         +15.7% ( 55.5%)      0.1%
 REDUCED MASS        1.6457         C  1 -- C  4          +9.3% ( 42.6%)      3.2%
 EFFECTIVE MASS      7.0892
 FORCE CONSTANT      1.7030

 VIBRATION         26   26A           ATOM PAIR      ENERGY CONTRIBUTION    RADIAL
 FREQUENCY          1357.26         C  4 -- H 13         +16.1% ( 50.8%)      5.0%
 TRANSITION DIPOLE   0.7575         C  4 -- H 12         +15.8% ( 50.3%)      5.6%
 TRAVEL (Ang.)       0.3370         C  1 -- C  3          +8.2% ( 36.3%)     75.7%
 REDUCED MASS        0.4376         C  4 -- C  6          +8.0% ( 35.8%)     64.9%
 EFFECTIVE MASS      4.2544
 FORCE CONSTANT      0.4749

 VIBRATION         27   27A           ATOM PAIR      ENERGY CONTRIBUTION    RADIAL
 FREQUENCY          1382.07         C  3 -- H  8         +12.6% ( 39.8%)      3.2%
 TRANSITION DIPOLE   0.2831         C  3 -- H  9         +12.2% ( 39.1%)      3.8%
 TRAVEL (Ang.)       0.4531         C  5 -- H 16         +10.1% ( 35.6%)      3.3%
 REDUCED MASS        0.2376         C  5 -- H 15          +9.7% ( 34.8%)      2.2%
 EFFECTIVE MASS      3.1749
 FORCE CONSTANT      0.2674

 VIBRATION         28   28A           ATOM PAIR      ENERGY CONTRIBUTION    RADIAL
 FREQUENCY          1405.59         C  5 -- H 14         +46.1% ( 59.9%)      0.6%
 TRANSITION DIPOLE   0.0431         C  5 -- H 16         +30.5% ( 48.7%)      4.9%
 TRAVEL (Ang.)       0.3516         C  5 -- H 15         +10.0% ( 27.9%)     32.5%
 REDUCED MASS        0.3881         C  3 -- C  5          +5.4% ( 20.4%)     14.6%
 EFFECTIVE MASS      1.6809
 FORCE CONSTANT      0.4518

 VIBRATION         29   29A           ATOM PAIR      ENERGY CONTRIBUTION    RADIAL
 FREQUENCY          1409.89         C  3 -- H  9         +11.1% ( 37.3%)      4.6%
 TRANSITION DIPOLE   0.2115         C  1 -- C  3         +11.1% ( 37.2%)     98.1%
 TRAVEL (Ang.)       0.4160         C  5 -- H 15         +10.8% ( 36.7%)      1.5%
 REDUCED MASS        0.2764         C  3 -- H  8         +10.3% ( 36.0%)      5.8%
 EFFECTIVE MASS      3.3845
 FORCE CONSTANT      0.3237

 VIBRATION         30   30A           ATOM PAIR      ENERGY CONTRIBUTION    RADIAL
 FREQUENCY          1410.76         C  5 -- H 15         +30.3% ( 52.7%)      1.0%
 TRANSITION DIPOLE   0.1314         C  5 -- H 16         +23.7% ( 46.7%)      3.2%
 TRAVEL (Ang.)       0.4099         C  3 -- H  9          +7.4% ( 26.0%)      3.9%
 REDUCED MASS        0.2845         C  3 -- H  8          +6.8% ( 25.1%)      4.5%
 EFFECTIVE MASS      2.1989
 FORCE CONSTANT      0.3336

 VIBRATION         31   31A           ATOM PAIR      ENERGY CONTRIBUTION    RADIAL
 FREQUENCY          1424.01         C  3 -- C  5         +13.3% ( 44.0%)     99.8%
 TRANSITION DIPOLE   0.1932         C  2 -- H 11         +12.5% ( 42.6%)      4.2%
 TRAVEL (Ang.)       0.3189         C  2 -- H 10         +12.3% ( 42.3%)      4.6%
 REDUCED MASS        0.4655         C  5 -- H 15         +10.6% ( 39.3%)      3.9%
 EFFECTIVE MASS      4.2208
 FORCE CONSTANT      0.5562

 VIBRATION         32   32A           ATOM PAIR      ENERGY CONTRIBUTION    RADIAL
 FREQUENCY          1448.48         C  1 -- C  3         +14.0% ( 58.4%)     71.1%
 TRANSITION DIPOLE   0.5992         C  1 -- C  4         +10.5% ( 50.5%)     93.9%
 TRAVEL (Ang.)       0.1873         C  1 -- C  6          +9.7% ( 48.6%)     88.5%
 REDUCED MASS        1.3267         C  1 -- C  2          +9.5% ( 48.1%)     68.5%
 EFFECTIVE MASS      8.4427
 FORCE CONSTANT      1.6400

 VIBRATION         33   33A           ATOM PAIR      ENERGY CONTRIBUTION    RADIAL
 FREQUENCY          2933.71         C  1 -- H  7         +92.2% ( 98.0%)    100.0%
 TRANSITION DIPOLE   0.3357         C  3 -- H  9          +2.3% ( 15.4%)     96.6%
 TRAVEL (Ang.)       0.1637         C  3 -- H  8          +1.6% ( 12.9%)     95.2%
 REDUCED MASS        0.8580         C  1 -- C  3          +1.0% ( 10.1%)      7.7%
 EFFECTIVE MASS      1.4341
 FORCE CONSTANT      4.3511

 VIBRATION         34   34A           ATOM PAIR      ENERGY CONTRIBUTION    RADIAL
 FREQUENCY          2956.71         C  3 -- H  9         +51.2% ( 74.2%)     97.0%
 TRANSITION DIPOLE   0.0893         C  3 -- H  8         +42.6% ( 67.7%)     95.9%
 TRAVEL (Ang.)       0.2174         C  1 -- H  7          +3.4% ( 19.3%)    100.0%
 REDUCED MASS        0.4827         C  3 -- C  5          +1.1% ( 11.1%)      0.0%
 EFFECTIVE MASS      1.5394
 FORCE CONSTANT      2.4865

 VIBRATION         35   35A           ATOM PAIR      ENERGY CONTRIBUTION    RADIAL
 FREQUENCY          3021.28         C  4 -- H 13         +49.3% ( 73.1%)     97.4%
 TRANSITION DIPOLE   0.3027         C  4 -- H 12         +41.5% ( 67.1%)     96.4%
 TRAVEL (Ang.)       0.2209         C  2 -- H 10          +3.5% ( 19.4%)     97.0%
 REDUCED MASS        0.4574         C  2 -- H 11          +2.7% ( 17.1%)     95.3%
 EFFECTIVE MASS      1.5235
 FORCE CONSTANT      2.4600

 VIBRATION         36   36A           ATOM PAIR      ENERGY CONTRIBUTION    RADIAL
 FREQUENCY          3032.31         C  3 -- H  8         +54.0% ( 72.4%)     98.2%
 TRANSITION DIPOLE   0.0791         C  3 -- H  9         +43.9% ( 65.3%)     97.0%
 TRAVEL (Ang.)       0.2151         C  3 -- C  5          +0.6% (  7.8%)     26.5%
 REDUCED MASS        0.4806         C  1 -- C  3          +0.6% (  7.6%)     28.5%
 EFFECTIVE MASS      1.2755
 FORCE CONSTANT      2.6038

 VIBRATION         37   37A           ATOM PAIR      ENERGY CONTRIBUTION    RADIAL
 FREQUENCY          3048.71         C  2 -- H 10         +52.8% ( 75.6%)     97.7%
 TRANSITION DIPOLE   0.1935         C  2 -- H 11         +37.7% ( 63.8%)     95.8%
 TRAVEL (Ang.)       0.2177         C  4 -- H 13          +3.4% ( 19.1%)     98.0%
 REDUCED MASS        0.4666         C  4 -- H 12          +2.6% ( 16.6%)     96.8%
 EFFECTIVE MASS      1.5351
 FORCE CONSTANT      2.5554

 VIBRATION         38   38A           ATOM PAIR      ENERGY CONTRIBUTION    RADIAL
 FREQUENCY          3077.73         C  5 -- H 16         +58.0% ( 78.5%)     98.1%
 TRANSITION DIPOLE   0.0126         C  5 -- H 15         +38.6% ( 64.1%)     95.3%
 TRAVEL (Ang.)       0.2066         C  5 -- H 14          +2.0% ( 14.8%)     24.3%
 REDUCED MASS        0.5133         C  3 -- C  5          +1.0% ( 10.2%)      0.0%
 EFFECTIVE MASS      1.5014
 FORCE CONSTANT      2.8645

 VIBRATION         39   39A           ATOM PAIR      ENERGY CONTRIBUTION    RADIAL
 FREQUENCY          3084.78         C  5 -- H 14         +60.2% ( 80.0%)     98.6%
 TRANSITION DIPOLE   0.0187         C  5 -- H 15         +27.7% ( 54.2%)     91.5%
 TRAVEL (Ang.)       0.2137         C  5 -- H 16         +10.6% ( 33.6%)     74.8%
 REDUCED MASS        0.4785         C  3 -- C  5          +1.0% ( 10.3%)      0.0%
 EFFECTIVE MASS      1.5039
 FORCE CONSTANT      2.6827

 VIBRATION         40   40A           ATOM PAIR      ENERGY CONTRIBUTION    RADIAL
 FREQUENCY          3099.67         C  4 -- H 12         +53.6% ( 72.6%)     97.8%
 TRANSITION DIPOLE   0.4565         C  4 -- H 13         +44.1% ( 65.8%)     96.6%
 TRAVEL (Ang.)       0.2113         C  1 -- C  4          +0.7% (  8.5%)     99.3%
 REDUCED MASS        0.4873         C  4 -- C  6          +0.7% (  8.4%)     44.6%
 EFFECTIVE MASS      1.2873
 FORCE CONSTANT      2.7586

 VIBRATION         41   41A           ATOM PAIR      ENERGY CONTRIBUTION    RADIAL
 FREQUENCY          3113.45         C  2 -- H 11         +57.6% ( 75.3%)     98.1%
 TRANSITION DIPOLE   0.1059         C  2 -- H 10         +40.2% ( 62.9%)     95.7%
 TRAVEL (Ang.)       0.2089         C  2 -- C  6          +0.7% (  8.3%)     99.0%
 REDUCED MASS        0.4963         C  2 -- C  4          +0.7% (  8.3%)     54.6%
 EFFECTIVE MASS      1.2852
 FORCE CONSTANT      2.8344

 VIBRATION         42   42A           ATOM PAIR      ENERGY CONTRIBUTION    RADIAL
 FREQUENCY          3180.07         C  5 -- H 14         +37.1% ( 58.6%)     97.7%
 TRANSITION DIPOLE   0.0252         C  5 -- H 15         +32.7% ( 55.0%)     97.0%
 TRAVEL (Ang.)       0.2538         C  5 -- H 16         +29.9% ( 52.6%)     96.5%
 REDUCED MASS        0.3291         C  3 -- C  5          +0.3% (  5.1%)     99.3%
 EFFECTIVE MASS      1.1368
 FORCE CONSTANT      1.9609

      SYMMETRY NUMBER FOR POINT-GROUP C1  =  1


          SYSTEM IS A GROUND STATE



 InChI=1S/C6H10/c1-2-6-4-3-5-6/h6H,2-4H2,1H3/lp5


          MOLECULE IS NOT LINEAR

          THERE ARE 42 GENUINE VIBRATIONS IN THIS SYSTEM
          THIS THERMODYNAMICS CALCULATION IS LIMITED TO
          MOLECULES WHICH HAVE NO INTERNAL ROTATIONS




                    CALCULATED THERMODYNAMIC PROPERTIES
                                          *
   TEMP. (K)   PARTITION FUNCTION   H.O.F.    ENTHALPY  HEAT CAPACITY ENTROPY
                                   KCAL/MOL   CAL/MOLE    CAL/K/MOL  CAL/K/MOL


 298.00  VIB.     0.2359D+02                  2412.0003    18.0537    14.3753
         ROT.     0.1338D+06                   888.2803     2.9808    26.4383
         INT.     0.3157D+07                  3300.2806    21.0345    40.8136
         TRA.     0.7198D+27                  1480.4672     4.9680    39.1295
         TOT.                       81.556    4780.7478    26.0026    79.9431

 200.00  VIB.     0.6452D+01                  1024.1897    10.6604     8.8259
         ROT.     0.7358D+05                   596.1613     2.9808    25.2497
         INT.     0.4747D+06                  1620.3510    13.6412    34.0755
         TRA.     0.3957D+27                   993.6021     4.9680    37.1484
         TOT.                       79.389    2613.9531    18.6092    71.2239

 210.00  VIB.     0.7341D+01                  1133.9395    11.2948     9.3612
         ROT.     0.7917D+05                   625.9693     2.9808    25.3951
         INT.     0.5812D+06                  1759.9088    14.2756    34.7563
         TRA.     0.4258D+27                  1043.2822     4.9680    37.3907
         TOT.                       79.578    2803.1911    19.2437    72.1471

 220.00  VIB.     0.8358D+01                  1250.1918    11.9609     9.9019
         ROT.     0.8489D+05                   655.7774     2.9808    25.5338
         INT.     0.7095D+06                  1905.9692    14.9417    35.4357
         TRA.     0.4566D+27                  1092.9623     4.9680    37.6219
         TOT.                       79.774    2998.9316    19.9097    73.0575

 230.00  VIB.     0.9521D+01                  1373.2600    12.6578    10.4489
         ROT.     0.9074D+05                   685.5855     2.9808    25.6663
         INT.     0.8639D+06                  2058.8455    15.6386    36.1151
         TRA.     0.4880D+27                  1142.6424     4.9680    37.8427
         TOT.                       79.976    3201.4879    20.6067    73.9578

 240.00  VIB.     0.1085D+02                  1503.4471    13.3843    11.0028
         ROT.     0.9672D+05                   715.3935     2.9808    25.7931
         INT.     0.1050D+07                  2218.8406    16.3652    36.7959
         TRA.     0.5202D+27                  1192.3226     4.9680    38.0541
         TOT.                       80.186    3411.1632    21.3332    74.8501

 250.00  VIB.     0.1238D+02                  1641.0386    14.1384    11.5644
         ROT.     0.1028D+06                   745.2016     2.9808    25.9148
         INT.     0.1273D+07                  2386.2402    17.1192    37.4792
         TRA.     0.5531D+27                  1242.0027     4.9680    38.2569
         TOT.                       80.403    3628.2429    22.0872    75.7361

 260.00  VIB.     0.1414D+02                  1786.2974    14.9174    12.1340
         ROT.     0.1091D+06                   775.0097     2.9808    26.0317
         INT.     0.1542D+07                  2561.3071    17.8982    38.1657
         TRA.     0.5866D+27                  1291.6828     4.9680    38.4518
         TOT.                       80.628    3852.9899    22.8662    76.6175

 270.00  VIB.     0.1615D+02                  1939.4595    15.7185    12.7119
         ROT.     0.1154D+06                   804.8177     2.9808    26.1442
         INT.     0.1864D+07                  2744.2773    18.6993    38.8562
         TRA.     0.6208D+27                  1341.3629     4.9680    38.6393
         TOT.                       80.861    4085.6401    23.6673    77.4955

 280.00  VIB.     0.1848D+02                  2100.7316    16.5388    13.2984
         ROT.     0.1219D+06                   834.6258     2.9808    26.2526
         INT.     0.2252D+07                  2935.3574    19.5196    39.5510
         TRA.     0.6556D+27                  1391.0430     4.9680    38.8200
         TOT.                       81.101    4326.4004    24.4876    78.3710

 290.00  VIB.     0.2115D+02                  2270.2896    17.3752    13.8933
         ROT.     0.1285D+06                   864.4339     2.9808    26.3572
         INT.     0.2718D+07                  3134.7235    20.3560    40.2505
         TRA.     0.6910D+27                  1440.7231     4.9680    38.9943
         TOT.                       81.350    4575.4465    25.3240    79.2448

 300.00  VIB.     0.2425D+02                  2448.2785    18.2245    14.4966
         ROT.     0.1352D+06                   894.2419     2.9808    26.4583
         INT.     0.3277D+07                  3342.5204    21.2053    40.9549
         TRA.     0.7270D+27                  1490.4032     4.9680    39.1627
         TOT.                       81.608    4832.9236    26.1733    80.1176

 310.00  VIB.     0.2782D+02                  2634.8124    19.0837    15.1082
         ROT.     0.1420D+06                   924.0500     2.9808    26.5560
         INT.     0.3950D+07                  3558.8624    22.0645    41.6642
         TRA.     0.7637D+27                  1540.0833     4.9680    39.3256
         TOT.                       81.874    5098.9457    27.0325    80.9898

 320.00  VIB.     0.3195D+02                  2829.9759    19.9499    15.7277
         ROT.     0.1489D+06                   953.8580     2.9808    26.6507
         INT.     0.4758D+07                  3783.8339    22.9307    42.3784
         TRA.     0.8009D+27                  1589.7634     4.9680    39.4834
         TOT.                       82.148    5373.5973    27.8987    81.8617

 330.00  VIB.     0.3674D+02                  3033.8252    20.8204    16.3549
         ROT.     0.1559D+06                   983.6661     2.9808    26.7424
         INT.     0.5729D+07                  4017.4914    23.8012    43.0973
         TRA.     0.8388D+27                  1639.4435     4.9680    39.6362
         TOT.                       82.432    5656.9349    28.7693    82.7335

 340.00  VIB.     0.4229D+02                  3246.3904    21.6927    16.9894
         ROT.     0.1631D+06                  1013.4742     2.9808    26.8314
         INT.     0.6897D+07                  4259.8646    24.6735    43.8208
         TRA.     0.8772D+27                  1689.1236     4.9680    39.7845
         TOT.                       82.724    5948.9882    29.6415    83.6053

 350.00  VIB.     0.4874D+02                  3467.6770    22.5643    17.6308
         ROT.     0.1703D+06                  1043.2822     2.9808    26.9178
         INT.     0.8302D+07                  4510.9593    25.5452    44.5486
         TRA.     0.9162D+27                  1738.8037     4.9680    39.9285
         TOT.                       83.025    6249.7630    30.5132    84.4771

 360.00  VIB.     0.5623D+02                  3697.6684    23.4333    18.2787
         ROT.     0.1777D+06                  1073.0903     2.9808    27.0017
         INT.     0.9992D+07                  4770.7587    26.4141    45.2804
         TRA.     0.9557D+27                  1788.4838     4.9680    40.0685
         TOT.                       83.334    6559.2426    31.3821    85.3489

 370.00  VIB.     0.6495D+02                  3936.3281    24.2977    18.9325
         ROT.     0.1851D+06                  1102.8984     2.9808    27.0834
         INT.     0.1203D+08                  5039.2264    27.2785    46.0159
         TRA.     0.9958D+27                  1838.1639     4.9680    40.2046
         TOT.                       83.652    6877.3904    32.2465    86.2206

 380.00  VIB.     0.7510D+02                  4183.6016    25.1558    19.5919
         ROT.     0.1927D+06                  1132.7064     2.9808    27.1629
         INT.     0.1447D+08                  5316.3081    28.1366    46.7548
         TRA.     0.1036D+28                  1887.8440     4.9680    40.3371
         TOT.                       83.979    7204.1521    33.1047    87.0919

 390.00  VIB.     0.8694D+02                  4439.4192    26.0063    20.2564
         ROT.     0.2004D+06                  1162.5145     2.9808    27.2403
         INT.     0.1742D+08                  5601.9337    28.9871    47.4967
         TRA.     0.1078D+28                  1937.5242     4.9680    40.4662
         TOT.                       84.314    7539.4578    33.9551    87.9629

 400.00  VIB.     0.1007D+03                  4703.6973    26.8478    20.9254
         ROT.     0.2081D+06                  1192.3226     2.9808    27.3158
         INT.     0.2097D+08                  5896.0198    29.8286    48.2412
         TRA.     0.1119D+28                  1987.2043     4.9680    40.5919
         TOT.                       84.658    7883.2241    34.7966    88.8332

   *: NOTE: HEATS OF FORMATION ARE RELATIVE TO THE
            ELEMENTS IN THEIR STANDARD STATE AT 298K
              (=  Standard Enthalpy of Formation).

            Hvib:  Zero-point energy is not included.
                   frequencies of less than zero cm-1 are not included.
            Hrot = (3/2)RT
            Htra = (3/2)RT + pV = (5/2)RT

            Heat capacity is Cp, not Cv

          For more information, see: HTTP://OpenMOPAC.net/Manual/thermochemistry.html


           FORCE CONSTANT IN CARTESIAN COORDINATES (Millidynes/A)

    ATOM   CHEMICAL       X               Y               Z
   NUMBER   SYMBOL  FORCE CONSTANT  FORCE CONSTANT  FORCE CONSTANT

      1       C        7.730936        8.092164        8.244807
      2       C        7.703748        8.429513        8.012612
      3       C        8.311166        8.293715        8.359566
      4       C        8.441472        7.656476        7.867323
      5       C        8.237023        8.410302        8.244038
      6       C        6.268739        1.941500        4.762216
      7       H        1.316242        2.019300        2.675649
      8       H        4.572288        0.771805        1.034816
      9       H        1.551047        2.233444        2.595756
     10       H        1.494817        4.425575        0.712133
     11       H        1.504716        1.895459        3.258676
     12       H        1.142236        4.583902        0.670487
     13       H        1.245598        1.722473        3.393942
     14       H        1.640696        4.424379        0.724384
     15       H        1.681306        2.237426        2.860660
     16       H        4.894845        0.756765        1.102145

 **********************
 *                    *
 * JOB ENDED NORMALLY *
 *                    *
 **********************



 TOTAL JOB TIME:             1.46 SECONDS

 == MOPAC DONE ==
