 *******************************************************************************
 **                                                                           **
 **                              MOPAC v23.1.2                                **
 **                                                                           **
 *******************************************************************************
 **          Digital Object Identifier (DOI): 10.5281/zenodo.6511958          **
 **    Visit the DOI location for information on how to cite this program.    **
 *******************************************************************************

                              PM3 CALCULATION RESULTS

 *******************************************************************************
 *  CALCULATION DONE: (MAX THREADS = 1)              Tue Jun  3 16:30:38 2025  *
 *  PM3        - The PM3 Hamiltonian to be used
 *  PRECISE    - TIGHTER CRITERIA TO BE USED
 *  NOSYM      - POINT-GROUP SYMMETRY SET TO C1
 *  THREADS=1  - MULTI-THREADING NOT USED
 *  T=         - A TIME OF 172800.0 SECONDS REQUESTED
 *  DUMP=N     - RESTART FILE WRITTEN EVERY 7200.0 SECONDS REQUESTED
 *******************************************************************************
pm3  precise nosym THREADS=1
 InChI=1S/C9H12/c1-7-6-8-4-2-3-5-9(7)8/h2,4-5,7-8H,3,6H2,1H3

   ATOM   CHEMICAL          X               Y               Z
  NUMBER   SYMBOL      (ANGSTROMS)     (ANGSTROMS)     (ANGSTROMS)

     1       C         -1.54340000  *  -0.34280000  *  -0.38990000  *
     2       C          0.05140000  *   0.87630000  *  -0.87460000  *
     3       C         -1.38620000  *   1.15200000  *  -0.54140000  *
     4       C          2.27320000  *  -0.80880000  *  -0.03440000  *
     5       C         -2.04950000  *  -0.76260000  *   0.99220000  *
     6       C         -0.05450000  *  -0.59470000  *  -0.56160000  *
     7       C          1.12250000  *   1.43720000  *   0.03780000  *
     8       C          0.90340000  *  -1.43710000  *  -0.19200000  *
     9       C          2.16840000  *   0.65520000  *   0.41110000  *
    10       H         -2.13350000  *  -0.80470000  *  -1.21260000  *
    11       H          0.29440000  *   1.04350000  *  -1.94750000  *
    12       H         -1.95630000  *   1.55780000  *  -1.40520000  *
    13       H         -1.51380000  *   1.72760000  *   0.40290000  *
    14       H          2.79560000  *  -0.84320000  *  -1.01380000  *
    15       H          2.86910000  *  -1.38590000  *   0.70350000  *
    16       H         -3.09420000  *  -0.41260000  *   1.12960000  *
    17       H         -1.41490000  *  -0.33440000  *   1.79850000  *
    18       H         -2.03270000  *  -1.86980000  *   1.07460000  *
    19       H          1.08460000  *   2.47810000  *   0.34310000  *
    20       H          2.95130000  *   1.07470000  *   1.03500000  *
    21       H          0.66530000  *  -2.40560000  *   0.23500000  *



          CARTESIAN COORDINATES 

    NO.       ATOM           X           Y           Z

     1         C         -1.5434     -0.3428     -0.3899
     2         C          0.0514      0.8763     -0.8746
     3         C         -1.3862      1.1520     -0.5414
     4         C          2.2732     -0.8088     -0.0344
     5         C         -2.0495     -0.7626      0.9922
     6         C         -0.0545     -0.5947     -0.5616
     7         C          1.1225      1.4372      0.0378
     8         C          0.9034     -1.4371     -0.1920
     9         C          2.1684      0.6552      0.4111
    10         H         -2.1335     -0.8047     -1.2126
    11         H          0.2944      1.0435     -1.9475
    12         H         -1.9563      1.5578     -1.4052
    13         H         -1.5138      1.7276      0.4029
    14         H          2.7956     -0.8432     -1.0138
    15         H          2.8691     -1.3859      0.7035
    16         H         -3.0942     -0.4126      1.1296
    17         H         -1.4149     -0.3344      1.7985
    18         H         -2.0327     -1.8698      1.0746
    19         H          1.0846      2.4781      0.3431
    20         H          2.9513      1.0747      1.0350
    21         H          0.6653     -2.4056      0.2350

  H: (PM3): J. J. P. STEWART, J. COMP. CHEM. 10, 209 (1989).
  C: (PM3): J. J. P. STEWART, J. COMP. CHEM. 10, 209 (1989).

           Empirical Formula: C9 H12  =    21 atoms



      MOLECULAR POINT GROUP   :   C1  


      RHF CALCULATION, NO. OF DOUBLY OCCUPIED LEVELS = 24


          Geometry optimization using EF

          DIAGONAL MATRIX USED AS START HESSIAN

 CYCLE:     1 TIME:   0.008 TIME LEFT:  2.00D  GRAD.:   146.610 HEAT:  44.51847
 CYCLE:     2 TIME:   0.012 TIME LEFT:  2.00D  GRAD.:    86.127 HEAT:  38.96818
 CYCLE:     3 TIME:   0.008 TIME LEFT:  2.00D  GRAD.:   108.575 HEAT:  38.04448
 CYCLE:     4 TIME:   0.004 TIME LEFT:  2.00D  GRAD.:    82.907 HEAT:  36.88058
 CYCLE:     5 TIME:   0.012 TIME LEFT:  2.00D  GRAD.:    51.010 HEAT:  35.33695
 CYCLE:     6 TIME:   0.012 TIME LEFT:  2.00D  GRAD.:    46.270 HEAT:  35.06854
 CYCLE:     7 TIME:   0.004 TIME LEFT:  2.00D  GRAD.:    29.659 HEAT:  34.72657
 CYCLE:     8 TIME:   0.012 TIME LEFT:  2.00D  GRAD.:    21.620 HEAT:  34.48643
 CYCLE:     9 TIME:   0.012 TIME LEFT:  2.00D  GRAD.:    16.343 HEAT:  34.36205
 CYCLE:    10 TIME:   0.008 TIME LEFT:  2.00D  GRAD.:    21.791 HEAT:  34.28649
 CYCLE:    11 TIME:   0.004 TIME LEFT:  2.00D  GRAD.:    23.469 HEAT:  34.22241
 CYCLE:    12 TIME:   0.008 TIME LEFT:  2.00D  GRAD.:    18.213 HEAT:  34.11537
 CYCLE:    13 TIME:   0.012 TIME LEFT:  2.00D  GRAD.:    16.090 HEAT:  34.05331
 CYCLE:    14 TIME:   0.008 TIME LEFT:  2.00D  GRAD.:     9.297 HEAT:  34.01395
 CYCLE:    15 TIME:   0.008 TIME LEFT:  2.00D  GRAD.:     5.225 HEAT:  33.97982
 CYCLE:    16 TIME:   0.008 TIME LEFT:  2.00D  GRAD.:     9.984 HEAT:  33.95354
 CYCLE:    17 TIME:   0.008 TIME LEFT:  2.00D  GRAD.:     9.868 HEAT:  33.91056
 CYCLE:    18 TIME:   0.008 TIME LEFT:  2.00D  GRAD.:    11.567 HEAT:  33.88124
 CYCLE:    19 TIME:   0.012 TIME LEFT:  2.00D  GRAD.:    11.725 HEAT:  33.86085
 CYCLE:    20 TIME:   0.008 TIME LEFT:  2.00D  GRAD.:     9.187 HEAT:  33.83029
 CYCLE:    21 TIME:   0.004 TIME LEFT:  2.00D  GRAD.:     6.798 HEAT:  33.80051
 CYCLE:    22 TIME:   0.008 TIME LEFT:  2.00D  GRAD.:     6.578 HEAT:  33.77350
 CYCLE:    23 TIME:   0.008 TIME LEFT:  2.00D  GRAD.:     6.086 HEAT:  33.73849
 CYCLE:    24 TIME:   0.004 TIME LEFT:  2.00D  GRAD.:     5.943 HEAT:  33.69402
 CYCLE:    25 TIME:   0.008 TIME LEFT:  2.00D  GRAD.:    10.045 HEAT:  33.66124
 CYCLE:    26 TIME:   0.008 TIME LEFT:  2.00D  GRAD.:     7.161 HEAT:  33.62316
 CYCLE:    27 TIME:   0.004 TIME LEFT:  2.00D  GRAD.:     9.616 HEAT:  33.59425
 CYCLE:    28 TIME:   0.008 TIME LEFT:  2.00D  GRAD.:     6.610 HEAT:  33.54402
 CYCLE:    29 TIME:   0.008 TIME LEFT:  2.00D  GRAD.:     7.375 HEAT:  33.50873
 CYCLE:    30 TIME:   0.004 TIME LEFT:  2.00D  GRAD.:     5.753 HEAT:  33.47891
 CYCLE:    31 TIME:   0.008 TIME LEFT:  2.00D  GRAD.:     4.206 HEAT:  33.44769
 CYCLE:    32 TIME:   0.008 TIME LEFT:  2.00D  GRAD.:     4.770 HEAT:  33.40911
 CYCLE:    33 TIME:   0.008 TIME LEFT:  2.00D  GRAD.:     4.379 HEAT:  33.37775
 CYCLE:    34 TIME:   0.004 TIME LEFT:  2.00D  GRAD.:     2.977 HEAT:  33.35911
 CYCLE:    35 TIME:   0.008 TIME LEFT:  2.00D  GRAD.:     2.845 HEAT:  33.33943
 CYCLE:    36 TIME:   0.008 TIME LEFT:  2.00D  GRAD.:     3.629 HEAT:  33.32464
 CYCLE:    37 TIME:   0.004 TIME LEFT:  2.00D  GRAD.:     2.592 HEAT:  33.31378
 CYCLE:    38 TIME:   0.008 TIME LEFT:  2.00D  GRAD.:     2.318 HEAT:  33.30199
 CYCLE:    39 TIME:   0.008 TIME LEFT:  2.00D  GRAD.:     2.316 HEAT:  33.28972
 CYCLE:    40 TIME:   0.004 TIME LEFT:  2.00D  GRAD.:     2.260 HEAT:  33.28340
 CYCLE:    41 TIME:   0.008 TIME LEFT:  2.00D  GRAD.:     1.229 HEAT:  33.27827
 CYCLE:    42 TIME:   0.008 TIME LEFT:  2.00D  GRAD.:     0.988 HEAT:  33.27494
 CYCLE:    43 TIME:   0.004 TIME LEFT:  2.00D  GRAD.:     0.869 HEAT:  33.27309
 CYCLE:    44 TIME:   0.008 TIME LEFT:  2.00D  GRAD.:     0.667 HEAT:  33.27176
 CYCLE:    45 TIME:   0.008 TIME LEFT:  2.00D  GRAD.:     0.534 HEAT:  33.27081
 CYCLE:    46 TIME:   0.008 TIME LEFT:  2.00D  GRAD.:     0.466 HEAT:  33.27017
 CYCLE:    47 TIME:   0.004 TIME LEFT:  2.00D  GRAD.:     0.369 HEAT:  33.26976
 CYCLE:    48 TIME:   0.008 TIME LEFT:  2.00D  GRAD.:     0.308 HEAT:  33.26950
 CYCLE:    49 TIME:   0.008 TIME LEFT:  2.00D  GRAD.:     0.314 HEAT:  33.26929
 CYCLE:    50 TIME:   0.004 TIME LEFT:  2.00D  GRAD.:     0.343 HEAT:  33.26907
 CYCLE:    51 TIME:   0.008 TIME LEFT:  2.00D  GRAD.:     0.357 HEAT:  33.26880
 CYCLE:    52 TIME:   0.008 TIME LEFT:  2.00D  GRAD.:     0.369 HEAT:  33.26849
 CYCLE:    53 TIME:   0.004 TIME LEFT:  2.00D  GRAD.:     0.395 HEAT:  33.26813
 CYCLE:    54 TIME:   0.008 TIME LEFT:  2.00D  GRAD.:     0.443 HEAT:  33.26767
 CYCLE:    55 TIME:   0.008 TIME LEFT:  2.00D  GRAD.:     0.428 HEAT:  33.26723
 CYCLE:    56 TIME:   0.004 TIME LEFT:  2.00D  GRAD.:     0.333 HEAT:  33.26682
 CYCLE:    57 TIME:   0.008 TIME LEFT:  2.00D  GRAD.:     0.253 HEAT:  33.26666
 CYCLE:    58 TIME:   0.008 TIME LEFT:  2.00D  GRAD.:     0.277 HEAT:  33.26645
 CYCLE:    59 TIME:   0.004 TIME LEFT:  2.00D  GRAD.:     0.203 HEAT:  33.26635
 CYCLE:    60 TIME:   0.008 TIME LEFT:  2.00D  GRAD.:     0.191 HEAT:  33.26618
 CYCLE:    61 TIME:   0.008 TIME LEFT:  2.00D  GRAD.:     0.173 HEAT:  33.26612
 CYCLE:    62 TIME:   0.004 TIME LEFT:  2.00D  GRAD.:     0.146 HEAT:  33.26599
 CYCLE:    63 TIME:   0.008 TIME LEFT:  2.00D  GRAD.:     0.240 HEAT:  33.26583
 CYCLE:    64 TIME:   0.008 TIME LEFT:  2.00D  GRAD.:     0.189 HEAT:  33.26575
 CYCLE:    65 TIME:   0.004 TIME LEFT:  2.00D  GRAD.:     0.172 HEAT:  33.26569
 CYCLE:    66 TIME:   0.008 TIME LEFT:  2.00D  GRAD.:     0.114 HEAT:  33.26563
 CYCLE:    67 TIME:   0.008 TIME LEFT:  2.00D  GRAD.:     0.100 HEAT:  33.26559
 CYCLE:    68 TIME:   0.004 TIME LEFT:  2.00D  GRAD.:     0.138 HEAT:  33.26549
 CYCLE:    69 TIME:   0.008 TIME LEFT:  2.00D  GRAD.:     0.148 HEAT:  33.26545
 CYCLE:    70 TIME:   0.008 TIME LEFT:  2.00D  GRAD.:     0.112 HEAT:  33.26539
 CYCLE:    71 TIME:   0.004 TIME LEFT:  2.00D  GRAD.:     0.115 HEAT:  33.26536
 CYCLE:    72 TIME:   0.008 TIME LEFT:  2.00D  GRAD.:     0.112 HEAT:  33.26533
 CYCLE:    73 TIME:   0.004 TIME LEFT:  2.00D  GRAD.:     0.134 HEAT:  33.26528
 CYCLE:    74 TIME:   0.008 TIME LEFT:  2.00D  GRAD.:     0.148 HEAT:  33.26522
 CYCLE:    75 TIME:   0.004 TIME LEFT:  2.00D  GRAD.:     0.169 HEAT:  33.26513
 CYCLE:    76 TIME:   0.008 TIME LEFT:  2.00D  GRAD.:     0.152 HEAT:  33.26505
 CYCLE:    77 TIME:   0.008 TIME LEFT:  2.00D  GRAD.:     0.125 HEAT:  33.26496
 CYCLE:    78 TIME:   0.008 TIME LEFT:  2.00D  GRAD.:     0.141 HEAT:  33.26493
 CYCLE:    79 TIME:   0.004 TIME LEFT:  2.00D  GRAD.:     0.110 HEAT:  33.26490
 CYCLE:    80 TIME:   0.008 TIME LEFT:  2.00D  GRAD.:     0.093 HEAT:  33.26486
 CYCLE:    81 TIME:   0.004 TIME LEFT:  2.00D  GRAD.:     0.069 HEAT:  33.26484
 CYCLE:    82 TIME:   0.008 TIME LEFT:  2.00D  GRAD.:     0.058 HEAT:  33.26481
 CYCLE:    83 TIME:   0.008 TIME LEFT:  2.00D  GRAD.:     0.039 HEAT:  33.26480

     GRADIENT =  0.03903 IS LESS THAN CUTOFF =  0.05000



 -------------------------------------------------------------------------------
 pm3  precise nosym THREADS=1
 InChI=1S/C9H12/c1-7-6-8-4-2-3-5-9(7)8/h2,4-5,7-8H,3,6H2,1H3



     GEOMETRY OPTIMISED USING EIGENVECTOR FOLLOWING (EF).     
     SCF FIELD WAS ACHIEVED                                   


                              PM3 CALCULATION
                                                       MOPAC v23.1.2 MacOS
                                                       Tue Jun  3 16:30:39 2025




          FINAL HEAT OF FORMATION =         33.26480 KCAL/MOL =     139.17992 KJ/MOL


          COSMO AREA              =        166.16 SQUARE ANGSTROMS
          COSMO VOLUME            =        168.34 CUBIC ANGSTROMS

          GRADIENT NORM           =          0.03903          =       0.00852 PER ATOM
          IONIZATION POTENTIAL    =          9.403634 EV
          HOMO LUMO ENERGIES (EV) =         -9.404  0.968
          NO. OF FILLED LEVELS    =         24
          MOLECULAR WEIGHT        =        120.1938         POINT GROUP:  C1  

          MOLECULAR DIMENSIONS (Angstroms)

            Atom       Atom       Distance
            H    20    H    16     6.58579
            H    21    H    12     4.84093
            H    17    H    11     3.16910


          SCF CALCULATIONS        =         92

          WALL-CLOCK TIME         =      0.598 SECONDS
          COMPUTATION TIME        =      0.379 SECONDS




   ATOM   CHEMICAL          X               Y               Z
  NUMBER   SYMBOL      (ANGSTROMS)     (ANGSTROMS)     (ANGSTROMS)

     1       C         -1.58078587  *  -0.39055434  *  -0.36294670  *
     2       C          0.11797270  *   0.90697848  *  -0.84264912  *
     3       C         -1.36623494  *   1.15961623  *  -0.46667829  *
     4       C          2.26538003  *  -0.79073779  *  -0.01099343  *
     5       C         -2.19219424  *  -0.87831520  *   0.92290449  *
     6       C         -0.08577893  *  -0.54627326  *  -0.47793741  *
     7       C          1.24235536  *   1.47942107  *  -0.06335509  *
     8       C          0.88321667  *  -1.36095771  *  -0.08008426  *
     9       C          2.25314879  *   0.67691102  *   0.29188484  *
    10       H         -2.12619402  *  -0.80590464  *  -1.23706984  *
    11       H          0.31398777  *   1.07374327  *  -1.92515186  *
    12       H         -1.96331239  *   1.66223994  *  -1.23935535  *
    13       H         -1.51330554  *   1.69917077  *   0.48060015  *
    14       H          2.79487906  *  -0.96020914  *  -0.97071896  *
    15       H          2.85005341  *  -1.32642646  *   0.76138859  *
    16       H         -3.24917266  *  -0.59024046  *   0.98777981  *
    17       H         -1.68292986  *  -0.46454019  *   1.80342560  *
    18       H         -2.13752452  *  -1.97213215  *   0.99583108  *
    19       H          1.21534640  *   2.54525459  *   0.17865179  *
    20       H          3.12237396  *   1.06840986  *   0.83008318  *
    21       H          0.71195114  *  -2.38482499  *   0.26034454  *

                             CARTESIAN COORDINATES

   1    C       -1.580785874    -0.390554341    -0.362946696
   2    C        0.117972703     0.906978485    -0.842649124
   3    C       -1.366234940     1.159616232    -0.466678294
   4    C        2.265380029    -0.790737789    -0.010993429
   5    C       -2.192194238    -0.878315201     0.922904487
   6    C       -0.085778928    -0.546273265    -0.477937414
   7    C        1.242355362     1.479421065    -0.063355093
   8    C        0.883216675    -1.360957711    -0.080084259
   9    C        2.253148791     0.676911019     0.291884842
  10    H       -2.126194017    -0.805904636    -1.237069837
  11    H        0.313987767     1.073743272    -1.925151857
  12    H       -1.963312390     1.662239940    -1.239355353
  13    H       -1.513305541     1.699170767     0.480600152
  14    H        2.794879058    -0.960209140    -0.970718957
  15    H        2.850053410    -1.326426458     0.761388585
  16    H       -3.249172665    -0.590240455     0.987779814
  17    H       -1.682929856    -0.464540193     1.803425604
  18    H       -2.137524517    -1.972132152     0.995831084
  19    H        1.215346398     2.545254588     0.178651791
  20    H        3.122373958     1.068409858     0.830083181
  21    H        0.711951139    -2.384824988     0.260344536


           Empirical Formula: C9 H12  =    21 atoms



      MOLECULAR POINT GROUP   :   C1  


                  EIGENVALUES  
 -41.74690 -35.19832 -30.76484 -28.49101 -25.21793 -22.39128 -21.00716 -18.93185
 -17.32875 -17.22336 -16.17194 -15.45961 -14.79816 -14.59461 -13.87135 -13.66321
 -13.41673 -12.74402 -12.37879 -12.12321 -11.75771 -11.29512  -9.94278  -9.40363
   0.96788   1.19863   3.05780   3.30565   3.38604   3.52242   3.65826   3.74764
   3.90960   3.95073   4.07246   4.19760   4.26730   4.46157   4.51216   4.56213
   4.72277   4.73206   5.05420   5.18302   5.41615   5.59763   5.99215   6.30463


              NET ATOMIC CHARGES AND DIPOLE CONTRIBUTIONS

  ATOM NO.   TYPE          CHARGE      No. of ELECS.   s-Pop       p-Pop       
    1          C          -0.023315        4.0233     1.17409     2.84923
    2          C          -0.035121        4.0351     1.16770     2.86743
    3          C          -0.097492        4.0975     1.17882     2.91867
    4          C          -0.018430        4.0184     1.13478     2.88365
    5          C          -0.103422        4.1034     1.13581     2.96761
    6          C          -0.152217        4.1522     1.21944     2.93278
    7          C          -0.133091        4.1331     1.19143     2.94166
    8          C          -0.125159        4.1252     1.18444     2.94072
    9          C          -0.149292        4.1493     1.19760     2.95169
   10          H           0.074374        0.9256     0.92563
   11          H           0.085769        0.9142     0.91423
   12          H           0.055030        0.9450     0.94497
   13          H           0.064297        0.9357     0.93570
   14          H           0.063570        0.9364     0.93643
   15          H           0.054168        0.9458     0.94583
   16          H           0.040136        0.9599     0.95986
   17          H           0.045299        0.9547     0.95470
   18          H           0.041662        0.9583     0.95834
   19          H           0.105590        0.8944     0.89441
   20          H           0.098744        0.9013     0.90126
   21          H           0.108900        0.8911     0.89110
 DIPOLE           X         Y         Z       TOTAL
 POINT-CHG.    -0.165     0.061     0.063     0.187
 HYBRID         0.081     0.011     0.058     0.101
 SUM           -0.084     0.073     0.121     0.164


          ATOMIC ORBITAL ELECTRON POPULATIONS

     Atom    s        px        py        pz   
    1  C   1.17409   0.92022   0.94956   0.97945
    2  C   1.16770   0.93457   0.94288   0.98998
    3  C   1.17882   0.94932   0.95334   1.01600
    4  C   1.13478   0.94687   0.93168   1.00509
    5  C   1.13581   0.99716   1.00430   0.96614
    6  C   1.21944   0.96032   0.96042   1.01204
    7  C   1.19143   0.96008   0.98268   0.99890
    8  C   1.18444   0.94856   0.98645   1.00571
    9  C   1.19760   0.98585   0.95811   1.00773
   10  H   0.92563
   11  H   0.91423
   12  H   0.94497
   13  H   0.93570
   14  H   0.93643
   15  H   0.94583
   16  H   0.95986
   17  H   0.95470
   18  H   0.95834
   19  H   0.89441
   20  H   0.90126
   21  H   0.89110
 *******************************************************************************
 **                                                                           **
 **                              MOPAC v23.1.2                                **
 **                                                                           **
 *******************************************************************************
 **          Digital Object Identifier (DOI): 10.5281/zenodo.6511958          **
 **    Visit the DOI location for information on how to cite this program.    **
 *******************************************************************************

                              PM3 CALCULATION RESULTS

 *******************************************************************************
 *  CALCULATION DONE: (MAX THREADS = 1)              Tue Jun  3 16:30:39 2025  *
 *  PM3        - The PM3 Hamiltonian to be used
 *  OLDGEO     - PREVIOUS GEOMETRY TO BE USED
 *  PRECISE    - TIGHTER CRITERIA TO BE USED
 *  NOSYM      - POINT-GROUP SYMMETRY SET TO C1
 *  THREADS=1  - MULTI-THREADING NOT USED
 *  T=         - A TIME OF 172800.0 SECONDS REQUESTED
 *  DUMP=N     - RESTART FILE WRITTEN EVERY 7200.0 SECONDS REQUESTED
 *  THERMO     - THERMODYNAMIC QUANTITIES TO BE CALCULATED
 *******************************************************************************
oldgeo thermo nosym precise THREADS=1  pm3
 InChI=1S/C9H12/c1-7-6-8-4-2-3-5-9(7)8/h2,4-5,7-8H,3,6H2,1H3

   ATOM   CHEMICAL          X               Y               Z
  NUMBER   SYMBOL      (ANGSTROMS)     (ANGSTROMS)     (ANGSTROMS)

     1       C         -1.58078587  *  -0.39055434  *  -0.36294670  *
     2       C          0.11797270  *   0.90697848  *  -0.84264912  *
     3       C         -1.36623494  *   1.15961623  *  -0.46667829  *
     4       C          2.26538003  *  -0.79073779  *  -0.01099343  *
     5       C         -2.19219424  *  -0.87831520  *   0.92290449  *
     6       C         -0.08577893  *  -0.54627326  *  -0.47793741  *
     7       C          1.24235536  *   1.47942107  *  -0.06335509  *
     8       C          0.88321667  *  -1.36095771  *  -0.08008426  *
     9       C          2.25314879  *   0.67691102  *   0.29188484  *
    10       H         -2.12619402  *  -0.80590464  *  -1.23706984  *
    11       H          0.31398777  *   1.07374327  *  -1.92515186  *
    12       H         -1.96331239  *   1.66223994  *  -1.23935535  *
    13       H         -1.51330554  *   1.69917077  *   0.48060015  *
    14       H          2.79487906  *  -0.96020914  *  -0.97071896  *
    15       H          2.85005341  *  -1.32642646  *   0.76138859  *
    16       H         -3.24917266  *  -0.59024046  *   0.98777981  *
    17       H         -1.68292986  *  -0.46454019  *   1.80342560  *
    18       H         -2.13752452  *  -1.97213215  *   0.99583108  *
    19       H          1.21534640  *   2.54525459  *   0.17865179  *
    20       H          3.12237396  *   1.06840986  *   0.83008318  *
    21       H          0.71195114  *  -2.38482499  *   0.26034454  *



          CARTESIAN COORDINATES 

    NO.       ATOM           X           Y           Z

     1         C         -1.5808     -0.3906     -0.3629
     2         C          0.1180      0.9070     -0.8426
     3         C         -1.3662      1.1596     -0.4667
     4         C          2.2654     -0.7907     -0.0110
     5         C         -2.1922     -0.8783      0.9229
     6         C         -0.0858     -0.5463     -0.4779
     7         C          1.2424      1.4794     -0.0634
     8         C          0.8832     -1.3610     -0.0801
     9         C          2.2531      0.6769      0.2919
    10         H         -2.1262     -0.8059     -1.2371
    11         H          0.3140      1.0737     -1.9252
    12         H         -1.9633      1.6622     -1.2394
    13         H         -1.5133      1.6992      0.4806
    14         H          2.7949     -0.9602     -0.9707
    15         H          2.8501     -1.3264      0.7614
    16         H         -3.2492     -0.5902      0.9878
    17         H         -1.6829     -0.4645      1.8034
    18         H         -2.1375     -1.9721      0.9958
    19         H          1.2153      2.5453      0.1787
    20         H          3.1224      1.0684      0.8301
    21         H          0.7120     -2.3848      0.2603

  H: (PM3): J. J. P. STEWART, J. COMP. CHEM. 10, 209 (1989).
  C: (PM3): J. J. P. STEWART, J. COMP. CHEM. 10, 209 (1989).

           Empirical Formula: C9 H12  =    21 atoms



      MOLECULAR POINT GROUP   :   C1  


      RHF CALCULATION, NO. OF DOUBLY OCCUPIED LEVELS = 24



          HEAT OF FORMATION =      33.264798 KCALS/MOLE


          CARTESIAN COORDINATE DERIVATIVES

   NUMBER  ATOM         X            Y            Z

     1       C      0.002542     0.010798    -0.000429
     2       C      0.006629     0.000888     0.002474
     3       C      0.008877    -0.000560     0.004848
     4       C     -0.006680     0.001130    -0.001795
     5       C      0.007579     0.002382     0.004793
     6       C      0.000238     0.008159    -0.000319
     7       C      0.006015    -0.004208     0.002457
     8       C     -0.002794     0.004372    -0.007052
     9       C     -0.003755    -0.008875    -0.000985
    10       H     -0.007008    -0.008172     0.001526
    11       H      0.000352    -0.001934    -0.002667
    12       H     -0.012873    -0.005106    -0.003521
    13       H     -0.000314     0.000107     0.001864
    14       H      0.005661    -0.005608     0.003562
    15       H      0.002223     0.006216     0.000210
    16       H      0.004789    -0.001201     0.003346
    17       H     -0.013374    -0.000254    -0.000422
    18       H      0.005277    -0.000845    -0.007814
    19       H     -0.007887    -0.002648    -0.000246
    20       H      0.002552     0.003279    -0.000514
    21       H      0.001950     0.002077     0.000685



          GRADIENT NORM =   0.03957

          MOLECULAR WEIGHT =  120.19



          ROTATIONAL CONSTANTS IN CM(-1)

          A =    0.10005060   B =    0.04784025   C =    0.03736446



           PRINCIPAL MOMENTS OF INERTIA IN UNITS OF 10**(-40)*GRAM-CM**2

          A =      279.7860   B =      585.1297   C =      749.1813


          ORIENTATION OF MOLECULE IN FORCE CALCULATION

    NO.       ATOM         X         Y         Z

     1          C      -1.5209    0.6327   -0.6963
     2          C       0.6698    0.6327   -0.6963
     3          C      -0.4137    1.7435   -0.6963
     4          C       1.1474   -1.8753    0.5948
     5          C      -2.5655    0.7550    0.3803
     6          C      -0.4287   -0.3737   -0.4381
     7          C       1.7101    0.5391    0.3564
     8          C      -0.2470   -1.5418    0.1648
     9          C       1.9408   -0.6487    0.9290
    10          H      -1.9985    0.5053   -1.6912
    11          H       1.1576    0.5182   -1.6898
    12          H      -0.4098    2.3979   -1.5783
    13          H      -0.4156    2.3815    0.1998
    14          H       1.6677   -2.4386   -0.2066
    15          H       1.1143   -2.5492    1.4724
    16          H      -3.2287    1.6078    0.1872
    17          H      -2.1183    0.9029    1.3723
    18          H      -3.1869   -0.1483    0.4316
    19          H       2.2674    1.4432    0.6160
    20          H       2.7288   -0.7702    1.6791
    21          H      -1.0607   -2.2244    0.4206


    FIRST DERIVATIVES WILL BE USED IN THE CALCULATION OF SECOND DERIVATIVES

          ESTIMATED TIME TO COMPLETE CALCULATION =        1.97 SECONDS

    FOR POINT-GROUP C1   THERE ARE   1 UNIQUE SYMMETRY FUNCTIONS.

 STEP:   1 TIME =     0.02 SECS, INTEGRAL =      0.02 TIME LEFT: 172799.97
 STEP:   2 TIME =     0.02 SECS, INTEGRAL =      0.04 TIME LEFT: 172799.95
 STEP:   3 TIME =     0.02 SECS, INTEGRAL =      0.06 TIME LEFT: 172799.93
 STEP:   4 TIME =     0.02 SECS, INTEGRAL =      0.07 TIME LEFT: 172799.92
 STEP:   5 TIME =     0.02 SECS, INTEGRAL =      0.09 TIME LEFT: 172799.90
 STEP:   6 TIME =     0.02 SECS, INTEGRAL =      0.11 TIME LEFT: 172799.88
 STEP:   7 TIME =     0.02 SECS, INTEGRAL =      0.13 TIME LEFT: 172799.86
 STEP:   8 TIME =     0.02 SECS, INTEGRAL =      0.15 TIME LEFT: 172799.84
 STEP:   9 TIME =     0.02 SECS, INTEGRAL =      0.17 TIME LEFT: 172799.82
 STEP:  10 TIME =     0.02 SECS, INTEGRAL =      0.19 TIME LEFT: 172799.80
 STEP:  11 TIME =     0.02 SECS, INTEGRAL =      0.21 TIME LEFT: 172799.78
 STEP:  12 TIME =     0.02 SECS, INTEGRAL =      0.23 TIME LEFT: 172799.76
 STEP:  13 TIME =     0.02 SECS, INTEGRAL =      0.25 TIME LEFT: 172799.75
 STEP:  14 TIME =     0.02 SECS, INTEGRAL =      0.27 TIME LEFT: 172799.73
 STEP:  15 TIME =     0.02 SECS, INTEGRAL =      0.29 TIME LEFT: 172799.71
 STEP:  16 TIME =     0.02 SECS, INTEGRAL =      0.30 TIME LEFT: 172799.69
 STEP:  17 TIME =     0.02 SECS, INTEGRAL =      0.32 TIME LEFT: 172799.67
 STEP:  18 TIME =     0.02 SECS, INTEGRAL =      0.35 TIME LEFT: 172799.64
 STEP:  19 TIME =     0.02 SECS, INTEGRAL =      0.37 TIME LEFT: 172799.62
 STEP:  20 TIME =     0.02 SECS, INTEGRAL =      0.39 TIME LEFT: 172799.61
 STEP:  21 TIME =     0.02 SECS, INTEGRAL =      0.41 TIME LEFT: 172799.59
 STEP:  22 TIME =     0.02 SECS, INTEGRAL =      0.43 TIME LEFT: 172799.57
 STEP:  23 TIME =     0.02 SECS, INTEGRAL =      0.45 TIME LEFT: 172799.55
 STEP:  24 TIME =     0.02 SECS, INTEGRAL =      0.46 TIME LEFT: 172799.53
 STEP:  25 TIME =     0.02 SECS, INTEGRAL =      0.48 TIME LEFT: 172799.51
 STEP:  26 TIME =     0.02 SECS, INTEGRAL =      0.50 TIME LEFT: 172799.50
 STEP:  27 TIME =     0.02 SECS, INTEGRAL =      0.52 TIME LEFT: 172799.48
 STEP:  28 TIME =     0.02 SECS, INTEGRAL =      0.54 TIME LEFT: 172799.46
 STEP:  29 TIME =     0.02 SECS, INTEGRAL =      0.56 TIME LEFT: 172799.43
 STEP:  30 TIME =     0.02 SECS, INTEGRAL =      0.58 TIME LEFT: 172799.41
 STEP:  31 TIME =     0.02 SECS, INTEGRAL =      0.60 TIME LEFT: 172799.39
 STEP:  32 TIME =     0.02 SECS, INTEGRAL =      0.62 TIME LEFT: 172799.38
 STEP:  33 TIME =     0.02 SECS, INTEGRAL =      0.64 TIME LEFT: 172799.36
 STEP:  34 TIME =     0.02 SECS, INTEGRAL =      0.66 TIME LEFT: 172799.34
 STEP:  35 TIME =     0.02 SECS, INTEGRAL =      0.68 TIME LEFT: 172799.32
 STEP:  36 TIME =     0.02 SECS, INTEGRAL =      0.70 TIME LEFT: 172799.30
 STEP:  37 TIME =     0.02 SECS, INTEGRAL =      0.71 TIME LEFT: 172799.28
 STEP:  38 TIME =     0.02 SECS, INTEGRAL =      0.73 TIME LEFT: 172799.26
 STEP:  39 TIME =     0.02 SECS, INTEGRAL =      0.75 TIME LEFT: 172799.24
 STEP:  40 TIME =     0.02 SECS, INTEGRAL =      0.77 TIME LEFT: 172799.22
 STEP:  41 TIME =     0.02 SECS, INTEGRAL =      0.79 TIME LEFT: 172799.20
 STEP:  42 TIME =     0.02 SECS, INTEGRAL =      0.81 TIME LEFT: 172799.18
 STEP:  43 TIME =     0.02 SECS, INTEGRAL =      0.83 TIME LEFT: 172799.16
 STEP:  44 TIME =     0.02 SECS, INTEGRAL =      0.85 TIME LEFT: 172799.14
 STEP:  45 TIME =     0.02 SECS, INTEGRAL =      0.87 TIME LEFT: 172799.12
 STEP:  46 TIME =     0.02 SECS, INTEGRAL =      0.89 TIME LEFT: 172799.11
 STEP:  47 TIME =     0.02 SECS, INTEGRAL =      0.91 TIME LEFT: 172799.09
 STEP:  48 TIME =     0.02 SECS, INTEGRAL =      0.93 TIME LEFT: 172799.07
 STEP:  49 TIME =     0.02 SECS, INTEGRAL =      0.95 TIME LEFT: 172799.05
 STEP:  50 TIME =     0.02 SECS, INTEGRAL =      0.97 TIME LEFT: 172799.02
 STEP:  51 TIME =     0.02 SECS, INTEGRAL =      0.98 TIME LEFT: 172799.01
 STEP:  52 TIME =     0.02 SECS, INTEGRAL =      1.00 TIME LEFT: 172798.99
 STEP:  53 TIME =     0.02 SECS, INTEGRAL =      1.02 TIME LEFT: 172798.97
 STEP:  54 TIME =     0.02 SECS, INTEGRAL =      1.04 TIME LEFT: 172798.95
 STEP:  55 TIME =     0.02 SECS, INTEGRAL =      1.06 TIME LEFT: 172798.93
 STEP:  56 TIME =     0.02 SECS, INTEGRAL =      1.08 TIME LEFT: 172798.91
 STEP:  57 TIME =     0.02 SECS, INTEGRAL =      1.10 TIME LEFT: 172798.89
 STEP:  58 TIME =     0.02 SECS, INTEGRAL =      1.12 TIME LEFT: 172798.88
 STEP:  59 TIME =     0.02 SECS, INTEGRAL =      1.14 TIME LEFT: 172798.85
 STEP:  60 TIME =     0.02 SECS, INTEGRAL =      1.16 TIME LEFT: 172798.83
 STEP:  61 TIME =     0.02 SECS, INTEGRAL =      1.18 TIME LEFT: 172798.81
 STEP:  62 TIME =     0.02 SECS, INTEGRAL =      1.20 TIME LEFT: 172798.79
 STEP:  63 TIME =     0.02 SECS, INTEGRAL =      1.22 TIME LEFT: 172798.77

(To convert to Hartree/Bohr^2, multiply by (10^(-21) x N x a0^2)/(4.184 x 627.51) =  0.0642)


           FORCE MATRIX IN MILLIDYNES/ANGSTROM


                  C  1       C  2       C  3       C  4       C  5       C  6
 ------------------------------------------------------------------------------
     C    1  14.660157
     C    2   1.860376  15.212985
     C    3   2.951386   3.327905  14.032980
     C    4   0.130206   0.215759   0.011264  14.736390
     C    5   4.621348   0.047350   0.516222   0.015363  14.513654
     C    6   4.288513   4.170175   2.005026   1.024224   0.590255  19.604810
     C    7   0.050130   5.046716   0.461263   0.829420   0.009905   0.776565
     C    8   0.484118   0.733815   0.047680   4.619443   0.021529  10.827562
     C    9   0.009460   0.967957   0.046321   4.561686   0.002859   0.125172
     H   10   4.399877   0.031054   0.428323   0.016419   0.427917   0.419540
     H   11   0.029265   4.326232   0.435627   0.020958   0.001787   0.435303
     H   12   0.431394   0.435902   4.755596   0.002409   0.029402   0.039685
     H   13   0.451834   0.453625   4.704214   0.000817   0.022115   0.031206
     H   14   0.017691   0.022413   0.002126   4.382685   0.001962   0.027057
     H   15   0.010835   0.012788   0.001509   4.485751   0.001645   0.051711
     H   16   0.451309   0.006387   0.010367   0.002540   4.747570   0.049406
     H   17   0.469082   0.003075   0.019673   0.000662   4.732538   0.014021
     H   18   0.455051   0.003156   0.046410   0.000941   4.744788   0.013996
     H   19   0.005435   0.435279   0.009247   0.119622   0.001358   0.040889
     H   20   0.003165   0.121649   0.012245   0.429094   0.000873   0.005629
     H   21   0.070414   0.121108   0.008097   0.430188   0.010709   0.465503


                  C  7       C  8       C  9       H 10       H 11       H 12
 ------------------------------------------------------------------------------
     C    7  18.056531
     C    8   0.085238  18.162563
     C    9  10.426941   0.737329  17.860328
     H   10   0.002070   0.022872   0.001410   4.897960
     H   11   0.400538   0.024381   0.031134   0.003142   4.815858
     H   12   0.031492   0.005032   0.005512   0.023915   0.026789   5.367252
     H   13   0.014216   0.002689   0.003906   0.034533   0.035118   0.537014
     H   14   0.026553   0.420899   0.420366   0.002502   0.007295   0.000281
     H   15   0.047630   0.427977   0.430381   0.001140   0.002076   0.000293
     H   16   0.001836   0.003847   0.000511   0.029060   0.000573   0.001747
     H   17   0.001213   0.003335   0.000546   0.045282   0.000500   0.001532
     H   18   0.001454   0.002973   0.000638   0.027680   0.000502   0.005212
     H   19   4.895649   0.007401   0.449339   0.000550   0.011956   0.001816
     H   20   0.444723   0.039864   4.855130   0.000133   0.015862   0.001538
     H   21   0.012973   4.922306   0.038871   0.009401   0.016272   0.001263


                  H 13       H 14       H 15       H 16       H 17       H 18
 ------------------------------------------------------------------------------
     H   13   5.322305
     H   14   0.000414   4.979161
     H   15   0.000265   0.565066   5.060150
     H   16   0.003244   0.000282   0.000398   5.471306
     H   17   0.020146   0.000198   0.000151   0.571172   5.465280
     H   18   0.003197   0.000139   0.000198   0.564887   0.573594   5.470091
     H   19   0.005689   0.017004   0.011590   0.000337   0.000382   0.000156
     H   20   0.000796   0.013591   0.036813   0.000178   0.000214   0.000197
     H   21   0.000516   0.013657   0.034124   0.002183   0.000652   0.005631


                  H 19       H 20       H 21
 ------------------------------------------
     H   19   5.276775
     H   20   0.067180   5.226795
     H   21   0.002747   0.005084   5.302109


          HEAT OF FORMATION =      33.264798 KCALS/MOLE

          ZERO POINT ENERGY     115.219 KCAL/MOL


           NORMAL COORDINATE ANALYSIS (Total motion = 1 Angstrom)


   Root No.       1         2         3         4         5         6         7         8

                 1 A       2 A       3 A       4 A       5 A       6 A       7 A       8 A   

                 108.8     147.6     152.7     266.6     289.8     391.8     444.6     464.0
  
           1    0.0012   -0.0007   -0.0050    0.0084    0.0033    0.0021    0.0016   -0.0085
           2    0.0050    0.0017   -0.0073    0.0105    0.0013    0.0197    0.0314   -0.0013
           3   -0.0004    0.0044    0.0045   -0.0033    0.0138    0.0343   -0.0006   -0.0376
           4   -0.0007   -0.0011   -0.0067    0.0105    0.0001    0.0081   -0.0096   -0.0140
           5    0.0050   -0.0021   -0.0089   -0.0080   -0.0251   -0.0034   -0.0338   -0.0123
           6    0.0031    0.0108    0.0155   -0.0178   -0.0320   -0.0010    0.0007    0.0411
           7   -0.0001    0.0014   -0.0039    0.0175    0.0166    0.0173    0.0391   -0.0027
           8    0.0069    0.0001   -0.0086    0.0022   -0.0137    0.0100   -0.0027   -0.0060
           9    0.0392   -0.0045   -0.0084   -0.0037    0.0420   -0.0294    0.0007    0.0084
          10   -0.0068    0.0111    0.0290   -0.0036    0.0138   -0.0017    0.0046   -0.0104
          11    0.0007   -0.0062   -0.0051    0.0045    0.0091    0.0011    0.0159    0.0288
          12    0.0199   -0.0220   -0.0321   -0.0292   -0.0020   -0.0021    0.0025   -0.0098
          13   -0.0376   -0.0154   -0.0264    0.0055   -0.0104   -0.0338   -0.0021    0.0277
          14   -0.0147    0.0163    0.0386   -0.0394    0.0245   -0.0198   -0.0107   -0.0041
          15   -0.0371   -0.0120   -0.0226   -0.0015   -0.0023    0.0073   -0.0002   -0.0067
          16    0.0002   -0.0036   -0.0083   -0.0003   -0.0049   -0.0016   -0.0296   -0.0275
          17    0.0063    0.0024   -0.0050    0.0067   -0.0198    0.0181   -0.0105   -0.0042
          18    0.0104    0.0186    0.0311   -0.0016   -0.0159    0.0335    0.0005    0.0215
          19    0.0286   -0.0007   -0.0049   -0.0021   -0.0024    0.0250   -0.0308    0.0368
          20   -0.0098   -0.0021    0.0025   -0.0026    0.0005   -0.0043    0.0154    0.0074
          21   -0.0284    0.0107    0.0149   -0.0024   -0.0295   -0.0169    0.0180   -0.0105
          22   -0.0044    0.0020    0.0105   -0.0211    0.0090    0.0033   -0.0062   -0.0244
          23    0.0123   -0.0018   -0.0083    0.0301   -0.0166   -0.0111   -0.0105   -0.0157
          24    0.0228    0.0085    0.0190    0.0500   -0.0119   -0.0267   -0.0043   -0.0051
          25    0.0261    0.0075    0.0158   -0.0159   -0.0250   -0.0133    0.0242    0.0054
          26   -0.0088   -0.0082   -0.0035    0.0017    0.0259    0.0044    0.0099    0.0145
          27   -0.0260   -0.0046   -0.0054    0.0125    0.0289    0.0180   -0.0217    0.0137
          28    0.0336    0.0095    0.0109    0.0117    0.0103    0.0049    0.0029   -0.0029
          29    0.0156   -0.0150   -0.0303    0.0220    0.0282    0.0047    0.0701    0.0030
          30   -0.0178    0.0012   -0.0008   -0.0065    0.0065    0.0330   -0.0063   -0.0387
          31   -0.0261   -0.0001   -0.0061    0.0106   -0.0234   -0.0113    0.0011   -0.0390
          32    0.0175   -0.0132   -0.0284   -0.0135   -0.0152   -0.0466   -0.0724   -0.0424
          33   -0.0111    0.0124    0.0177   -0.0160   -0.0433   -0.0063    0.0104    0.0300
          34    0.0009    0.0056    0.0013    0.0161    0.0035    0.0085    0.0636    0.0432
          35    0.0398   -0.0105   -0.0227    0.0082    0.0408   -0.0441    0.0015    0.0042
          36    0.0638   -0.0124   -0.0189    0.0010    0.0833   -0.0708    0.0039    0.0166
          37   -0.0019    0.0014   -0.0093    0.0312    0.0502    0.0406    0.0722   -0.0404
          38   -0.0270    0.0114    0.0058   -0.0056   -0.0680    0.0616   -0.0069   -0.0151
          39    0.0634   -0.0125   -0.0187    0.0017    0.0822   -0.0683    0.0041    0.0154
          40   -0.0273    0.0002    0.0139   -0.0354    0.0441    0.0255   -0.0021   -0.0054
          41   -0.0381    0.0198    0.0406    0.0807    0.0472    0.0127   -0.0248    0.0789
          42    0.0339   -0.0476   -0.0744   -0.1043   -0.0092    0.0073    0.0276   -0.0436
          43   -0.0131    0.0318    0.0687    0.0549    0.0226   -0.0183   -0.0024    0.0163
          44    0.0309   -0.0309   -0.0454   -0.0690   -0.0150   -0.0058    0.0562   -0.0113
          45    0.0432   -0.0405   -0.0621   -0.0850   -0.0208   -0.0080    0.0341   -0.0409
          46   -0.0374   -0.1389    0.0622   -0.0121   -0.0053   -0.0464   -0.0295    0.0170
          47   -0.0179   -0.1081    0.1113   -0.0461    0.0214   -0.0290   -0.0264   -0.0051
          48   -0.0519   -0.1377   -0.0076    0.0322   -0.0359    0.0108    0.0282    0.0297
          49   -0.0752   -0.0363   -0.0441    0.0028   -0.0265   -0.0762   -0.0069    0.0765
          50   -0.0223    0.2288   -0.0472   -0.0709    0.0509   -0.0456   -0.0309   -0.0082
          51   -0.0191   -0.0341   -0.0021    0.0043    0.0009    0.0291    0.0047   -0.0269
          52   -0.0324    0.1147   -0.1157    0.0246   -0.0143   -0.0174    0.0266    0.0355
          53   -0.0202   -0.0657    0.0970   -0.0553    0.0283   -0.0356   -0.0331   -0.0075
          54   -0.0703    0.1232   -0.0824   -0.0378    0.0120   -0.0502   -0.0312    0.0204
          55    0.0570   -0.0084   -0.0241   -0.0132   -0.0118    0.0539   -0.0917    0.0927
          56   -0.0194   -0.0007    0.0100    0.0015    0.0124   -0.0143    0.0453   -0.0058
          57   -0.0552    0.0216    0.0288    0.0067   -0.0500   -0.0447    0.0438   -0.0858
          58    0.0521    0.0082    0.0169   -0.0450   -0.0699   -0.0392    0.0564    0.0126
          59   -0.0154   -0.0145   -0.0064    0.0043    0.0580    0.0079    0.0065   -0.0088
          60   -0.0541   -0.0066   -0.0074    0.0428    0.0808    0.0457   -0.0564    0.0020
          61   -0.0092    0.0059    0.0244   -0.0337    0.0184    0.0109    0.0152    0.0022
          62    0.0210   -0.0038   -0.0192    0.0735   -0.0237   -0.0402   -0.0380   -0.0667
          63    0.0314    0.0151    0.0325    0.1239   -0.0011   -0.0806   -0.0093   -0.0587


   Root No.       9        10        11        12        13        14        15        16

                 9 A      10 A      11 A      12 A      13 A      14 A      15 A      16 A   

                 530.1     550.8     693.6     749.6     785.6     836.7     875.0     915.1
  
           1    0.0442    0.0014   -0.0207    0.0119    0.0199    0.0121   -0.0065   -0.0092
           2   -0.0234    0.0287   -0.0123   -0.0095    0.0007   -0.0100   -0.0326   -0.0118
           3    0.0167   -0.0265   -0.0178    0.0107    0.0160    0.0130    0.0013   -0.0105
           4    0.0061   -0.0334    0.0192   -0.0002   -0.0092   -0.0120   -0.0163   -0.0018
           5    0.0169    0.0096   -0.0100   -0.0002   -0.0001   -0.0133    0.0024    0.0133
           6   -0.0075   -0.0067   -0.0196   -0.0285    0.0014    0.0021    0.0184   -0.0014
           7    0.0099   -0.0100   -0.0014   -0.0048   -0.0189   -0.0057    0.0386    0.0216
           8    0.0059    0.0385   -0.0198    0.0076    0.0179    0.0053    0.0072    0.0294
           9    0.0102   -0.0025   -0.0029   -0.0047    0.0081    0.0050    0.0222   -0.0093
          10   -0.0259    0.0319   -0.0029   -0.0133   -0.0064    0.0025   -0.0014   -0.0044
          11   -0.0138   -0.0358    0.0073    0.0213    0.0242    0.0192    0.0043   -0.0020
          12   -0.0115    0.0147   -0.0109    0.0188   -0.0018   -0.0345   -0.0008    0.0163
          13    0.0299    0.0240   -0.0059    0.0077    0.0161    0.0180   -0.0031   -0.0240
          14   -0.0061   -0.0027   -0.0024   -0.0035   -0.0016   -0.0066   -0.0224   -0.0080
          15   -0.0158   -0.0135    0.0041   -0.0022   -0.0073   -0.0089    0.0004    0.0056
          16    0.0284   -0.0141   -0.0017    0.0105   -0.0029   -0.0086   -0.0032    0.0049
          17   -0.0039    0.0101    0.0353    0.0129   -0.0140    0.0116    0.0112   -0.0047
          18    0.0613    0.0370    0.0328    0.0128   -0.0095    0.0153   -0.0084    0.0063
          19   -0.0135   -0.0287    0.0119   -0.0325    0.0109   -0.0154   -0.0199    0.0122
          20    0.0476   -0.0285   -0.0048   -0.0223   -0.0231   -0.0124   -0.0088   -0.0033
          21   -0.0078   -0.0226    0.0018    0.0051   -0.0174    0.0064   -0.0130   -0.0110
          22   -0.0293    0.0335    0.0034   -0.0070   -0.0224    0.0024    0.0155   -0.0130
          23   -0.0384   -0.0027    0.0248    0.0049   -0.0107    0.0048    0.0316   -0.0300
          24    0.0091    0.0119   -0.0071   -0.0043    0.0025   -0.0264    0.0066   -0.0227
          25   -0.0475   -0.0128    0.0149    0.0171    0.0397    0.0037   -0.0087    0.0092
          26    0.0205   -0.0126   -0.0069   -0.0050   -0.0063    0.0007   -0.0009    0.0020
          27   -0.0495    0.0075   -0.0007    0.0231    0.0046    0.0202   -0.0103    0.0052
          28    0.0809    0.0218   -0.0142    0.0210    0.0229    0.0374    0.0133    0.0202
          29   -0.0736    0.0248   -0.0538   -0.0446    0.0082   -0.0618   -0.0245   -0.0494
          30    0.0049   -0.0346   -0.0140    0.0103    0.0118    0.0063   -0.0079   -0.0173
          31   -0.0208   -0.0733   -0.0066   -0.0003   -0.0451   -0.0255   -0.0274   -0.0182
          32   -0.0117   -0.0091   -0.0581   -0.0091    0.0327   -0.0432   -0.0070    0.0183
          33   -0.0169   -0.0244   -0.0256   -0.0267   -0.0199   -0.0006    0.0115   -0.0108
          34   -0.0182    0.0081   -0.0059   -0.0504   -0.0450   -0.0239    0.0961    0.0641
          35    0.0258    0.0615    0.0425    0.0407   -0.0341   -0.0043   -0.0748    0.0581
          36    0.0256    0.0147    0.0474    0.0215   -0.0336   -0.0014   -0.0402    0.0129
          37    0.0139   -0.0176    0.0027    0.0255   -0.0283    0.0038    0.0309    0.0096
          38   -0.0123    0.0204   -0.0922   -0.0287    0.0775    0.0109    0.0836    0.0083
          39    0.0247    0.0112    0.0509    0.0223   -0.0366    0.0006   -0.0366    0.0064
          40   -0.0343    0.0441   -0.0209   -0.0150   -0.0420    0.0666   -0.0327    0.0472
          41   -0.0388   -0.0379   -0.0425    0.1141    0.0110   -0.0504   -0.0050    0.0627
          42    0.0016    0.0242    0.0144   -0.0507   -0.0146    0.0601   -0.0150    0.0034
          43    0.0028    0.0277   -0.0462    0.0158   -0.0035   -0.1039   -0.0089    0.0186
          44    0.0237   -0.0359    0.0393   -0.0610    0.0317    0.0904    0.0008   -0.0411
          45    0.0187    0.0154    0.0130   -0.0468    0.0032    0.0180   -0.0042   -0.0142
          46    0.0485   -0.0035   -0.0049    0.0226    0.0291    0.0407    0.0726   -0.0087
          47    0.0006   -0.0143    0.0033    0.0017   -0.0001    0.0020    0.0229    0.0120
          48   -0.0491    0.0366    0.0287   -0.0310   -0.0476   -0.0480   -0.0674    0.0414
          49    0.0058    0.0572    0.0355   -0.0122   -0.0236   -0.0020    0.0252    0.0553
          50    0.0018   -0.0246   -0.0029    0.0051    0.0068    0.0048    0.0341    0.0054
          51   -0.0061   -0.0243   -0.0134    0.0052    0.0084   -0.0019   -0.0203   -0.0301
          52    0.0185    0.0524   -0.0125   -0.0028    0.0125    0.0059   -0.0840   -0.0584
          53    0.0017   -0.0228    0.0042    0.0037   -0.0001    0.0020    0.0408    0.0213
          54   -0.0226   -0.0203    0.0370   -0.0061   -0.0307   -0.0139    0.0911    0.0904
          55   -0.0320   -0.0331   -0.0758   -0.0109   -0.1247    0.0289   -0.0171   -0.0655
          56    0.0454   -0.0271    0.0220   -0.0224    0.0276   -0.0164   -0.0038    0.0206
          57    0.0377   -0.0169    0.0952   -0.0414    0.0971   -0.0770   -0.0378    0.0738
          58   -0.0552   -0.0341   -0.0566    0.1370   -0.0666    0.0292   -0.0267    0.0341
          59    0.0186    0.0407    0.0030   -0.0316    0.0312   -0.0286    0.0331    0.0041
          60   -0.0414    0.0387    0.0761   -0.1076    0.1226   -0.0114    0.0127   -0.0200
          61   -0.0381    0.0479    0.0043   -0.0035   -0.0066   -0.0215    0.0185   -0.0448
          62   -0.0446   -0.0296    0.0014   -0.0398   -0.0379    0.1030   -0.0037    0.0601
          63   -0.0382   -0.0114   -0.0688   -0.1154   -0.0193    0.1607   -0.0830    0.1207


   Root No.      17        18        19        20        21        22        23        24

                17 A      18 A      19 A      20 A      21 A      22 A      23 A      24 A   

                 933.9     945.8     969.6     975.3    1012.9    1021.9    1045.4    1051.6
  
           1    0.0026   -0.0050    0.0022   -0.0006    0.0081   -0.0067   -0.0080    0.0100
           2   -0.0084    0.0017   -0.0027   -0.0020    0.0007    0.0104   -0.0110    0.0023
           3   -0.0022   -0.0023   -0.0034   -0.0031   -0.0017   -0.0095    0.0025    0.0032
           4   -0.0041    0.0118    0.0009    0.0023    0.0038    0.0100   -0.0171    0.0030
           5    0.0127    0.0099    0.0090    0.0067   -0.0148    0.0044    0.0082   -0.0117
           6   -0.0027   -0.0178    0.0045   -0.0015   -0.0068   -0.0095    0.0170    0.0002
           7    0.0129    0.0027    0.0127    0.0045   -0.0077   -0.0024    0.0139   -0.0090
           8    0.0285   -0.0054   -0.0209   -0.0013    0.0190   -0.0127    0.0012    0.0099
           9   -0.0293    0.0136    0.0030   -0.0038    0.0040   -0.0025   -0.0074    0.0013
          10    0.0060    0.0048   -0.0008    0.0026    0.0051    0.0094    0.0019    0.0042
          11    0.0113    0.0141    0.0124    0.0200   -0.0174   -0.0219   -0.0187   -0.0019
          12   -0.0159   -0.0160   -0.0043   -0.0096   -0.0241   -0.0080   -0.0093   -0.0042
          13   -0.0068   -0.0142   -0.0028    0.0077   -0.0145    0.0090    0.0071   -0.0094
          14   -0.0077    0.0013    0.0192   -0.0034    0.0048   -0.0195    0.0083    0.0013
          15    0.0131   -0.0125    0.0072    0.0073    0.0042    0.0058   -0.0037    0.0011
          16   -0.0047   -0.0013    0.0112   -0.0111    0.0190   -0.0053   -0.0130    0.0110
          17   -0.0144   -0.0044    0.0036   -0.0044   -0.0082    0.0089   -0.0049   -0.0053
          18   -0.0090    0.0105    0.0103   -0.0015   -0.0125    0.0192   -0.0084   -0.0125
          19   -0.0090   -0.0063   -0.0235    0.0191    0.0096   -0.0009    0.0150   -0.0064
          20   -0.0047   -0.0088   -0.0177   -0.0111    0.0080    0.0022    0.0046    0.0027
          21    0.0140    0.0038   -0.0136   -0.0152    0.0004   -0.0030   -0.0126    0.0060
          22   -0.0109   -0.0091   -0.0055    0.0088   -0.0068   -0.0235   -0.0043   -0.0191
          23   -0.0093   -0.0096   -0.0031    0.0058    0.0012   -0.0085    0.0090    0.0096
          24    0.0178    0.0130   -0.0026    0.0150    0.0165    0.0017    0.0115    0.0262
          25    0.0105   -0.0036    0.0046   -0.0366   -0.0009    0.0131    0.0032    0.0084
          26   -0.0055   -0.0027   -0.0003   -0.0057    0.0137    0.0091    0.0088   -0.0076
          27    0.0006    0.0077   -0.0027    0.0069    0.0325    0.0139    0.0140   -0.0245
          28   -0.0192    0.0459    0.0008   -0.0362    0.0296   -0.0556   -0.0179    0.0384
          29   -0.0358    0.0320   -0.0789    0.0174   -0.0202    0.1334   -0.0969   -0.0062
          30    0.0132   -0.0308    0.0083    0.0116   -0.0081   -0.0022    0.0179   -0.0089
          31    0.0341    0.0418    0.0486   -0.0288   -0.0656    0.0536    0.0263    0.0159
          32    0.0208    0.1021    0.1223    0.0220   -0.0508    0.0986    0.0847   -0.0715
          33    0.0161   -0.0125    0.0138   -0.0190   -0.0380    0.0018    0.0306    0.0135
          34    0.0234   -0.0671    0.1491    0.0492    0.0636    0.0249   -0.0614    0.0104
          35    0.1248   -0.0578   -0.0289    0.0077    0.0115   -0.0125    0.0200    0.0116
          36    0.0453   -0.0287   -0.0023    0.0029   -0.0021   -0.0032    0.0075    0.0029
          37    0.0122    0.0671   -0.1075   -0.0505   -0.0974   -0.0330    0.1483   -0.0537
          38   -0.0606    0.0508   -0.0171   -0.0076    0.0379   -0.0124   -0.0233    0.0127
          39    0.0381   -0.0289    0.0001    0.0009   -0.0102   -0.0030    0.0112   -0.0006
          40   -0.0303    0.0184    0.0064    0.0779   -0.0625    0.0495    0.0380    0.2611
          41   -0.0488   -0.0214    0.0136    0.0262   -0.1053   -0.0339   -0.0305    0.0946
          42    0.0043    0.0195    0.0004    0.0355   -0.0050    0.0272    0.0225    0.0951
          43    0.0110   -0.0056   -0.0031   -0.0204   -0.0252   -0.0133   -0.0779   -0.0967
          44    0.0656    0.0616    0.0247    0.0481    0.0240   -0.0173   -0.0386   -0.0316
          45    0.0273    0.0211    0.0039    0.0124    0.0079   -0.0048   -0.0265   -0.0311
          46    0.0177   -0.0305   -0.0649    0.0237   -0.0326    0.0764   -0.0191   -0.0158
          47    0.0026    0.0071   -0.0188   -0.0024    0.0006    0.0124   -0.0102    0.0026
          48   -0.0319    0.0767    0.0604   -0.0489    0.0492   -0.0986    0.0106    0.0298
          49   -0.0419    0.1049   -0.0330   -0.0559    0.0186   -0.0409   -0.0096    0.0210
          50    0.0129   -0.0096   -0.0284    0.0097   -0.0056    0.0344   -0.0166   -0.0016
          51    0.0253   -0.0619    0.0275    0.0326   -0.0078    0.0191    0.0064   -0.0110
          52   -0.0376   -0.0096    0.0595   -0.0035   -0.0088   -0.0542    0.0412   -0.0110
          53    0.0138    0.0033   -0.0305    0.0023    0.0019    0.0273   -0.0194    0.0041
          54    0.0227    0.0569   -0.0646   -0.0213    0.0258    0.0319   -0.0510    0.0256
          55    0.0820    0.0302   -0.0247   -0.0373   -0.0541   -0.0292   -0.0664    0.0157
          56   -0.0427   -0.0306   -0.0089   -0.0225    0.0599    0.0317    0.0543   -0.0045
          57   -0.0495    0.0005   -0.0431    0.1408   -0.0406   -0.0398   -0.0052   -0.0187
          58   -0.0469    0.0116   -0.0058    0.0499    0.0727    0.0397    0.0338   -0.0476
          59   -0.0008   -0.0234    0.0488   -0.0864   -0.0269    0.0509    0.0089   -0.0040
          60    0.0627   -0.0109    0.0151   -0.0965   -0.0513   -0.0071   -0.0187    0.0342
          61    0.0380    0.0331   -0.0142    0.0711   -0.0238   -0.0498   -0.0181   -0.0504
          62   -0.0796   -0.0661    0.0086   -0.0689   -0.0097    0.0144    0.0021    0.0025
          63   -0.0111   -0.0011   -0.0002    0.0149   -0.0669   -0.0179   -0.0484   -0.0931


   Root No.      25        26        27        28        29        30        31        32

                25 A      26 A      27 A      28 A      29 A      30 A      31 A      32 A   

                1077.1    1084.2    1109.5    1132.4    1138.1    1149.3    1187.6    1188.8
  
           1    0.0142   -0.0061    0.0142    0.0003    0.0187   -0.0038   -0.0095   -0.0068
           2    0.0152   -0.0052   -0.0094   -0.0149    0.0249   -0.0151    0.0209   -0.0282
           3    0.0095   -0.0043    0.0069   -0.0012    0.0165   -0.0536   -0.0200    0.0089
           4    0.0051   -0.0005   -0.0244    0.0106   -0.0094    0.0036   -0.0062   -0.0138
           5   -0.0214    0.0060    0.0232    0.0221   -0.0057    0.0044   -0.0214   -0.0070
           6    0.0213    0.0114    0.0316   -0.0035    0.0053   -0.0000   -0.0048   -0.0211
           7   -0.0196    0.0025    0.0023    0.0115   -0.0078    0.0046   -0.0442    0.0070
           8    0.0081    0.0003   -0.0247    0.0018   -0.0244    0.0030    0.0093    0.0164
           9   -0.0079    0.0045   -0.0284    0.0072   -0.0190    0.0105    0.0113    0.0026
          10   -0.0017    0.0235   -0.0074   -0.0025    0.0064   -0.0013   -0.0029    0.0089
          11    0.0055    0.0008    0.0185   -0.0068   -0.0049    0.0011    0.0095    0.0039
          12   -0.0006   -0.0081   -0.0113   -0.0051    0.0016   -0.0002   -0.0050    0.0026
          13   -0.0067    0.0020   -0.0112   -0.0004   -0.0042   -0.0028    0.0015    0.0044
          14   -0.0080    0.0042    0.0043    0.0060   -0.0100    0.0102   -0.0041    0.0075
          15   -0.0005   -0.0002   -0.0021    0.0005    0.0057    0.0507    0.0065   -0.0021
          16   -0.0016    0.0090    0.0405   -0.0085   -0.0239    0.0050    0.0361   -0.0229
          17    0.0036    0.0057   -0.0100   -0.0027   -0.0042    0.0020   -0.0058   -0.0117
          18   -0.0019   -0.0075    0.0053   -0.0027   -0.0090    0.0043    0.0066    0.0109
          19    0.0043   -0.0024   -0.0097   -0.0059    0.0045   -0.0023   -0.0025    0.0011
          20   -0.0161   -0.0172   -0.0145   -0.0027    0.0048   -0.0018    0.0008    0.0089
          21   -0.0272   -0.0068   -0.0158   -0.0072    0.0031   -0.0003   -0.0032   -0.0069
          22    0.0079   -0.0278    0.0156   -0.0068    0.0006   -0.0004    0.0089    0.0160
          23    0.0061    0.0005   -0.0044   -0.0007    0.0116   -0.0030   -0.0139   -0.0053
          24   -0.0028   -0.0015    0.0075    0.0010   -0.0029   -0.0013    0.0081    0.0027
          25   -0.0200   -0.0116   -0.0017    0.0069   -0.0004    0.0001    0.0003    0.0057
          26    0.0001   -0.0002   -0.0014    0.0071    0.0048   -0.0024    0.0057    0.0125
          27   -0.0021    0.0068    0.0040    0.0052    0.0011   -0.0002   -0.0017    0.0040
          28    0.0763   -0.0357    0.0074   -0.0086    0.1869    0.2119   -0.0396    0.0285
          29   -0.0124   -0.0202    0.2140    0.0305   -0.0561    0.0325   -0.0444    0.0743
          30   -0.0171    0.0119   -0.0175   -0.0026   -0.0556   -0.1658    0.0028   -0.0213
          31    0.2377   -0.0109   -0.0738    0.0316   -0.0762    0.0026    0.0397    0.1108
          32   -0.0388   -0.0787   -0.0300   -0.1140    0.0931   -0.0250    0.0006    0.0129
          33    0.1414    0.0156    0.0115    0.0222   -0.0390    0.0027    0.0161    0.0399
          34   -0.0353   -0.0375   -0.0100   -0.0386    0.0288   -0.0888    0.1467    0.0205
          35    0.0384   -0.0108    0.0359   -0.0123    0.0115   -0.0322   -0.0162    0.0201
          36    0.0169   -0.0031    0.0170   -0.0032    0.0072   -0.0187   -0.0073    0.0048
          37   -0.0365    0.0487    0.0527   -0.0534   -0.0149    0.0523    0.1765   -0.0496
          38   -0.0248    0.0025   -0.0889    0.0139   -0.0611    0.0415    0.0353    0.0319
          39    0.0179    0.0027    0.0200   -0.0018    0.0084   -0.0202   -0.0077   -0.0087
          40   -0.0283    0.0388   -0.0237   -0.0265   -0.0158    0.0075   -0.0326   -0.0417
          41   -0.0015   -0.0186    0.0105   -0.0260   -0.0155    0.0048    0.0037   -0.0155
          42   -0.0131    0.0166   -0.0148   -0.0069   -0.0055    0.0029   -0.0189   -0.0166
          43    0.0309    0.1746   -0.0756   -0.1248   -0.0102    0.0115   -0.0905   -0.0362
          44    0.0243    0.0959    0.0267   -0.0517   -0.0163    0.0067   -0.0039   -0.0120
          45    0.0144    0.0692   -0.0100   -0.0449   -0.0082    0.0048   -0.0209   -0.0118
          46    0.0151   -0.0089   -0.0269   -0.0190    0.0274   -0.0252    0.0137   -0.0103
          47    0.0094   -0.0036    0.0026   -0.0048    0.0091   -0.0171    0.0009   -0.0034
          48    0.0013    0.0031    0.0422    0.0180   -0.0142   -0.0024   -0.0219    0.0075
          49    0.0328   -0.0114    0.0239   -0.0059    0.0202   -0.1646   -0.0308    0.0040
          50    0.0083   -0.0048    0.0008   -0.0065    0.0093    0.0109    0.0113   -0.0090
          51   -0.0192    0.0066   -0.0161    0.0049   -0.0067    0.1229    0.0178    0.0002
          52   -0.0324    0.0145   -0.0080    0.0158   -0.0301   -0.0074   -0.0191    0.0328
          53    0.0143   -0.0063    0.0037   -0.0068    0.0122    0.0066    0.0098   -0.0141
          54    0.0499   -0.0212    0.0220   -0.0149    0.0442   -0.0288    0.0022   -0.0325
          55   -0.0910    0.0335   -0.0420    0.0535    0.0712   -0.0281    0.0571    0.0656
          56    0.0405   -0.0620    0.0019   -0.0616   -0.0612    0.0250   -0.0591   -0.0579
          57   -0.0218    0.0682   -0.0073    0.0733    0.0901   -0.0383    0.0738    0.0854
          58    0.0137    0.0384   -0.0020    0.0592    0.0246   -0.0092    0.0095   -0.0173
          59    0.0390    0.0914   -0.0085    0.1911    0.0814   -0.0317    0.0437   -0.0976
          60   -0.0337   -0.0298    0.0020   -0.0218   -0.0126    0.0048   -0.0062    0.0120
          61    0.0294   -0.1090   -0.0394    0.0561   -0.0263    0.0056   -0.0120   -0.1016
          62   -0.0139    0.0743    0.0523   -0.0608    0.0316   -0.0033    0.0066    0.1061
          63    0.0092   -0.0700   -0.0198    0.0484   -0.0372    0.0169   -0.0030   -0.0761


   Root No.      33        34        35        36        37        38        39        40

                33 A      34 A      35 A      36 A      37 A      38 A      39 A      40 A   

                1215.7    1239.7    1316.2    1345.0    1366.8    1386.8    1396.3    1406.4
  
           1   -0.0083    0.0091   -0.0171    0.0557   -0.0074    0.0031    0.0109   -0.0007
           2    0.0031    0.0455    0.0115   -0.0169   -0.0050   -0.0100   -0.0028    0.0002
           3    0.0188   -0.0215    0.0038   -0.0108    0.0025    0.0037   -0.0064    0.0013
           4   -0.0091   -0.0056    0.0173    0.0159    0.0373    0.0060    0.0006    0.0032
           5    0.0502    0.0225    0.0319    0.0164    0.0003   -0.0121    0.0005    0.0015
           6   -0.0134    0.0029   -0.0150   -0.0037    0.0159    0.0121   -0.0002    0.0032
           7   -0.0163    0.0222   -0.0037   -0.0243   -0.0090   -0.0018   -0.0021    0.0004
           8   -0.0209   -0.0187   -0.0021   -0.0008    0.0030    0.0059    0.0038   -0.0204
           9    0.0027    0.0099    0.0019    0.0034   -0.0039   -0.0026    0.0009   -0.0003
          10    0.0046    0.0109   -0.0015    0.0107    0.0611    0.0604   -0.0037    0.0001
          11   -0.0115    0.0067    0.0041    0.0042    0.0449   -0.0401   -0.0025   -0.0050
          12    0.0026    0.0014   -0.0035    0.0055    0.0226    0.0206   -0.0012    0.0002
          13    0.0051   -0.0039    0.0005    0.0120   -0.0099    0.0001   -0.0338    0.0043
          14   -0.0006   -0.0115   -0.0024   -0.0004    0.0020    0.0025   -0.0089   -0.0269
          15   -0.0034    0.0037    0.0028   -0.0177    0.0090   -0.0015   -0.0209    0.0038
          16   -0.0069    0.0061   -0.0235   -0.0442   -0.0065    0.0041   -0.0043   -0.0006
          17    0.0045   -0.0124   -0.0229   -0.0050    0.0015    0.0186   -0.0007    0.0010
          18   -0.0101    0.0004    0.0017    0.0048   -0.0032   -0.0070    0.0007   -0.0002
          19   -0.0027   -0.0139    0.0175    0.0021   -0.0060   -0.0093   -0.0007   -0.0038
          20    0.0034   -0.0011   -0.0067   -0.0019   -0.0123    0.0047    0.0006    0.0001
          21   -0.0092   -0.0159    0.0205    0.0032    0.0006   -0.0108   -0.0008   -0.0039
          22   -0.0192    0.0057    0.0263    0.0011   -0.0255   -0.0395    0.0021   -0.0019
          23    0.0015   -0.0154   -0.0182    0.0081   -0.0069    0.0098    0.0012    0.0030
          24   -0.0023    0.0083    0.0137   -0.0056   -0.0040   -0.0119   -0.0002   -0.0016
          25    0.0140    0.0055   -0.0117   -0.0051   -0.0259   -0.0040    0.0017    0.0021
          26    0.0054    0.0105   -0.0245   -0.0065   -0.0113    0.0089    0.0013    0.0034
          27    0.0130    0.0038   -0.0039   -0.0022   -0.0175   -0.0028    0.0010    0.0010
          28    0.0814   -0.0585    0.0229   -0.0631    0.0092    0.0056   -0.0150   -0.0000
          29   -0.0067   -0.1172   -0.0283    0.0128    0.0036    0.0141    0.0004   -0.0104
          30   -0.0244    0.0325   -0.0116    0.0434   -0.0074   -0.0005    0.0051    0.0022
          31    0.0451    0.0145   -0.0007   -0.0020   -0.0388   -0.0147    0.0004   -0.0016
          32   -0.1293   -0.0521   -0.0458   -0.0115    0.0008    0.0176    0.0010   -0.0052
          33    0.0335    0.0206   -0.0150   -0.0081   -0.0224   -0.0018   -0.0002    0.0014
          34    0.1354   -0.1065    0.0319    0.0591    0.0093   -0.0030    0.0021   -0.0013
          35   -0.0394   -0.0476    0.0062   -0.0213    0.0346   -0.0189   -0.0214    0.1023
          36   -0.0095   -0.0124    0.0064   -0.0112    0.0184   -0.0179   -0.0165    0.0822
          37    0.0592   -0.0626    0.0079    0.0686    0.0250    0.0045    0.0105    0.0024
          38   -0.0317   -0.0126    0.0155   -0.0056    0.0187   -0.0305   -0.0161    0.1012
          39    0.0108    0.0062   -0.0091    0.0063   -0.0136    0.0207    0.0134   -0.0779
          40    0.0170   -0.0350   -0.0177   -0.0076   -0.0631   -0.0588    0.0041    0.0009
          41   -0.0324   -0.0156    0.0928   -0.0109   -0.1175    0.1740    0.0040    0.0107
          42    0.0232   -0.0125   -0.0665    0.0029    0.0434   -0.1775   -0.0004   -0.0086
          43    0.0481   -0.0592   -0.0663    0.0028   -0.0602   -0.1722    0.0056   -0.0025
          44   -0.0219   -0.0148    0.0913   -0.0136   -0.1249    0.1384    0.0043    0.0091
          45    0.0002   -0.0179    0.0504   -0.0072   -0.1018    0.1250    0.0041    0.0095
          46    0.0214    0.0122    0.0319   -0.0997    0.0350   -0.0075    0.2410    0.0169
          47    0.0052    0.0014    0.0090   -0.0390    0.0190   -0.0024    0.2293    0.0364
          48   -0.0238   -0.0081   -0.0418    0.1396   -0.0440    0.0055    0.1418    0.1469
          49    0.0282   -0.0239    0.0259   -0.1139    0.0467   -0.0014   -0.1402    0.0013
          50   -0.0013    0.0119    0.0008    0.0035   -0.0033   -0.0088    0.0569    0.2643
          51   -0.0144    0.0104   -0.0113    0.0482   -0.0195    0.0014    0.0439   -0.0398
          52    0.0200   -0.0513    0.0190   -0.0903    0.0408    0.0040    0.2368   -0.0590
          53   -0.0097    0.0229   -0.0138    0.0648   -0.0305   -0.0007   -0.1677    0.0238
          54   -0.0194    0.0521   -0.0250    0.1079   -0.0407    0.0047    0.1297   -0.1676
          55   -0.0114    0.0103   -0.0532   -0.0172   -0.0350    0.0108    0.0018    0.0018
          56    0.0092   -0.0278    0.0668    0.0193    0.0174   -0.0145   -0.0017   -0.0056
          57   -0.0077    0.0225   -0.0770   -0.0262   -0.0463    0.0112    0.0022    0.0032
          58   -0.0115   -0.0191    0.0143   -0.0014   -0.0238   -0.0180    0.0010   -0.0012
          59   -0.1107   -0.0985    0.0869    0.0010   -0.0233   -0.0763   -0.0010   -0.0111
          60    0.0240    0.0129   -0.0142   -0.0049   -0.0247   -0.0004    0.0015    0.0022
          61    0.0302   -0.0498   -0.0651   -0.0210   -0.0430    0.0223    0.0020    0.0052
          62   -0.0493    0.0380    0.0671    0.0317    0.0135   -0.0493    0.0012   -0.0036
          63    0.0243   -0.0234   -0.0469   -0.0151   -0.0033    0.0318   -0.0004    0.0026


   Root No.      41        42        43        44        45        46        47        48

                41 A      42 A      43 A      44 A      45 A      46 A      47 A      48 A   

                1411.7    1429.1    1473.1    1844.2    1960.7    2923.5    2944.8    2945.9
  
           1    0.0067    0.0536   -0.0565    0.0082    0.0366    0.0003    0.0007   -0.0272
           2    0.0011   -0.0109    0.0036   -0.0027   -0.0280    0.0002    0.0001   -0.0066
           3   -0.0026   -0.0271    0.0248   -0.0007    0.0057    0.0019    0.0014   -0.0553
           4    0.0084    0.0291    0.0961   -0.0265   -0.0197    0.0296   -0.0007    0.0016
           5    0.0033    0.0032   -0.0032    0.0123   -0.0194   -0.0062    0.0001   -0.0002
           6    0.0067    0.0133    0.0474   -0.0228    0.0084   -0.0584    0.0015   -0.0021
           7   -0.0031   -0.0156   -0.0104   -0.0011   -0.0011    0.0008    0.0000   -0.0008
           8   -0.0362    0.0072    0.0237   -0.0052   -0.0225   -0.0004    0.0000   -0.0004
           9    0.0003    0.0022   -0.0106   -0.0007    0.0013    0.0031   -0.0002    0.0037
          10   -0.0048   -0.0201   -0.0309   -0.0086   -0.0087    0.0007    0.0196    0.0008
          11   -0.0094   -0.0155   -0.0143   -0.0276    0.0121   -0.0001   -0.0011   -0.0001
          12   -0.0014   -0.0063   -0.0112    0.0012   -0.0068   -0.0017   -0.0535   -0.0022
          13   -0.0049   -0.0436    0.0301   -0.0010   -0.0024   -0.0000   -0.0001    0.0023
          14    0.0130    0.0047   -0.0031    0.0001    0.0020   -0.0000   -0.0000    0.0002
          15   -0.0028    0.0441   -0.0263    0.0008    0.0008   -0.0001   -0.0000    0.0017
          16   -0.0036   -0.0287   -0.0151   -0.0039   -0.0449    0.0006    0.0002   -0.0005
          17    0.0005   -0.0059   -0.0106    0.0243    0.2509    0.0004    0.0001    0.0003
          18    0.0006    0.0042   -0.0076   -0.0084   -0.1110   -0.0004   -0.0002   -0.0003
          19   -0.0084   -0.0180   -0.0460    0.0674   -0.0043   -0.0005   -0.0000   -0.0000
          20    0.0000   -0.0002   -0.0104   -0.1913    0.0200    0.0004    0.0001    0.0000
          21   -0.0081   -0.0155   -0.0355    0.1204   -0.0109   -0.0007   -0.0003   -0.0001
          22    0.0000    0.0124    0.0234    0.0042    0.0550    0.0001   -0.0005    0.0002
          23    0.0052    0.0061   -0.0155   -0.0147   -0.1882   -0.0004   -0.0012   -0.0004
          24   -0.0023   -0.0009    0.0135    0.0084    0.0986    0.0000    0.0005    0.0001
          25    0.0053    0.0115    0.0163   -0.0173    0.0027    0.0001    0.0008    0.0000
          26    0.0077    0.0167    0.0389    0.2214   -0.0223   -0.0006   -0.0008   -0.0000
          27    0.0024    0.0043    0.0006   -0.0837    0.0083   -0.0001    0.0009    0.0000
          28   -0.0120   -0.0640    0.0550    0.0007    0.0147   -0.0133   -0.0087    0.3295
          29   -0.0057    0.0049   -0.0021    0.0006   -0.0017   -0.0036   -0.0022    0.0873
          30    0.0068    0.0278   -0.0306    0.0024    0.0089   -0.0267   -0.0177    0.6738
          31   -0.0045   -0.0198   -0.0734   -0.0085   -0.0165   -0.3613    0.0082   -0.0110
          32   -0.0094    0.0029    0.0041   -0.0168    0.0001    0.0805   -0.0022    0.0023
          33    0.0015   -0.0104   -0.0396   -0.0046    0.0035    0.7156   -0.0159    0.0222
          34    0.0009    0.0090    0.0008    0.0033    0.0018    0.0039   -0.0000   -0.0032
          35    0.1776   -0.0308    0.0028   -0.0017   -0.0051    0.0125   -0.0007    0.0138
          36    0.1433   -0.0238   -0.0213    0.0005    0.0210   -0.0199    0.0011   -0.0214
          37    0.0192    0.0431    0.0176   -0.0003    0.0025   -0.0029   -0.0000    0.0028
          38    0.1819   -0.0223   -0.0432   -0.0011   -0.0016   -0.0126    0.0008   -0.0153
          39   -0.1401    0.0213    0.0335   -0.0048   -0.0174   -0.0207    0.0012   -0.0246
          40    0.0062    0.0196    0.0184   -0.0130   -0.0086   -0.0099   -0.2334   -0.0092
          41    0.0166    0.0185    0.0088   -0.0042   -0.0065    0.0110    0.2537    0.0101
          42   -0.0101   -0.0024    0.0051   -0.0098   -0.0032    0.0148    0.3583    0.0144
          43    0.0041    0.0259    0.0166   -0.0316   -0.0370    0.0001   -0.0058   -0.0003
          44    0.0149    0.0181    0.0085   -0.0388    0.0087   -0.0066   -0.2312   -0.0092
          45    0.0158    0.0199    0.0077   -0.0113   -0.0055    0.0074    0.2852    0.0113
          46    0.0004    0.0295   -0.0119   -0.0008   -0.0075    0.0002    0.0002   -0.0071
          47   -0.0091    0.0173   -0.0139    0.0000   -0.0013   -0.0003   -0.0003    0.0129
          48   -0.0679   -0.0988    0.0399    0.0010    0.0100    0.0002    0.0001   -0.0055
          49   -0.0110    0.1443   -0.0657    0.0011    0.0040    0.0003    0.0004   -0.0135
          50   -0.1382    0.0090    0.0020    0.0001   -0.0004    0.0001    0.0001   -0.0030
          51    0.0242   -0.0562    0.0231   -0.0002   -0.0015    0.0005    0.0006   -0.0200
          52    0.0380    0.0327   -0.0138   -0.0005    0.0009    0.0002    0.0002   -0.0057
          53   -0.0191   -0.0439    0.0241   -0.0000    0.0003    0.0004    0.0004   -0.0129
          54    0.0994   -0.1119    0.0348    0.0003   -0.0007    0.0001    0.0000   -0.0017
          55    0.0041    0.0077    0.0004   -0.0980    0.0142    0.0023    0.0007    0.0001
          56   -0.0123   -0.0244   -0.0550   -0.0819    0.0061    0.0014   -0.0000    0.0001
          57    0.0070    0.0124    0.0100   -0.0612    0.0156   -0.0009   -0.0002   -0.0000
          58   -0.0014   -0.0005   -0.0098   -0.1063    0.0115    0.0028   -0.0088   -0.0002
          59   -0.0199   -0.0313   -0.0637   -0.0367    0.0117   -0.0006    0.0035    0.0001
          60    0.0053    0.0092    0.0086   -0.0873    0.0110    0.0013   -0.0109   -0.0003
          61    0.0092    0.0024   -0.0166   -0.0026   -0.1390   -0.0013    0.0090   -0.0009
          62   -0.0032    0.0171    0.0198   -0.0159   -0.0643   -0.0017    0.0098   -0.0002
          63    0.0034   -0.0049   -0.0132    0.0032    0.0238   -0.0005   -0.0054    0.0005


   Root No.      49        50        51        52        53        54        55        56

                49 A      50 A      51 A      52 A      53 A      54 A      55 A      56 A   

                3024.4    3051.1    3060.5    3080.0    3084.6    3085.7    3090.1    3109.9
  
           1   -0.0001   -0.0012   -0.0000   -0.0009    0.0001    0.0000    0.0002    0.0003
           2    0.0000   -0.0004   -0.0000   -0.0003   -0.0002   -0.0000   -0.0002    0.0009
           3    0.0000   -0.0024    0.0000   -0.0017    0.0002    0.0000    0.0000   -0.0003
           4    0.0001    0.0011    0.0002    0.0001    0.0000    0.0001    0.0000   -0.0002
           5    0.0000   -0.0003   -0.0002   -0.0000    0.0000   -0.0004    0.0005    0.0008
           6   -0.0003   -0.0021    0.0003   -0.0000   -0.0000    0.0005   -0.0003   -0.0003
           7    0.0000    0.0003    0.0000    0.0001    0.0002   -0.0001    0.0000   -0.0000
           8    0.0000   -0.0042    0.0001   -0.0006    0.0002   -0.0002    0.0003    0.0415
           9    0.0001   -0.0570   -0.0001   -0.0001   -0.0008   -0.0000    0.0000   -0.0070
          10   -0.0119   -0.0000   -0.0007    0.0000   -0.0000   -0.0003    0.0002   -0.0000
          11    0.0371    0.0000    0.0026   -0.0000   -0.0000    0.0014   -0.0024    0.0000
          12   -0.0102   -0.0000   -0.0019    0.0000    0.0000   -0.0006    0.0020   -0.0000
          13   -0.0000    0.0000   -0.0000   -0.0346    0.0048    0.0001    0.0009   -0.0009
          14   -0.0000    0.0005   -0.0000   -0.0101   -0.0507    0.0025    0.0029    0.0001
          15    0.0000    0.0000   -0.0000   -0.0333    0.0106   -0.0002    0.0007   -0.0006
          16    0.0004   -0.0000   -0.0001    0.0001   -0.0003    0.0003   -0.0013    0.0000
          17   -0.0004   -0.0002    0.0000    0.0001    0.0003    0.0007    0.0049   -0.0014
          18    0.0003   -0.0002   -0.0001   -0.0001    0.0000   -0.0002   -0.0025    0.0003
          19   -0.0000    0.0001    0.0119   -0.0001   -0.0009   -0.0216    0.0037   -0.0001
          20   -0.0001   -0.0003    0.0166   -0.0002   -0.0017   -0.0405    0.0071   -0.0003
          21    0.0000    0.0000    0.0063   -0.0000   -0.0004   -0.0084    0.0014   -0.0000
          22   -0.0022   -0.0000   -0.0009   -0.0010   -0.0018   -0.0055   -0.0400    0.0003
          23   -0.0013   -0.0000   -0.0010   -0.0010   -0.0017   -0.0053   -0.0388    0.0005
          24    0.0004   -0.0000    0.0005    0.0004    0.0007    0.0021    0.0149   -0.0002
          25    0.0034    0.0001   -0.0349   -0.0000   -0.0006   -0.0151    0.0042   -0.0000
          26   -0.0001    0.0000    0.0071    0.0000    0.0003    0.0068   -0.0014    0.0000
          27    0.0031    0.0001   -0.0337   -0.0000   -0.0006   -0.0158    0.0041   -0.0000
          28   -0.0000    0.0157    0.0000    0.0066   -0.0007    0.0000    0.0004    0.0014
          29   -0.0000    0.0065    0.0000    0.0026   -0.0015    0.0001   -0.0000    0.0011
          30   -0.0001    0.0259    0.0000    0.0221   -0.0025   -0.0000    0.0003    0.0024
          31   -0.0016   -0.0144    0.0009   -0.0002   -0.0001    0.0004   -0.0008   -0.0017
          32    0.0005    0.0059    0.0001    0.0000    0.0001   -0.0010    0.0004    0.0011
          33    0.0030    0.0225   -0.0008    0.0003    0.0002   -0.0015    0.0016    0.0027
          34    0.0000   -0.0016    0.0000   -0.0000    0.0001   -0.0001    0.0000   -0.0022
          35    0.0004   -0.2344   -0.0013    0.0039   -0.0040    0.0013   -0.0027   -0.2880
          36   -0.0005    0.2950    0.0016   -0.0059    0.0055   -0.0016    0.0040    0.4229
          37   -0.0000   -0.0001    0.0001    0.0006    0.0002   -0.0003    0.0000    0.0004
          38   -0.0004    0.2882    0.0005    0.0048    0.0022    0.0004   -0.0026   -0.2157
          39   -0.0005    0.3904    0.0005    0.0059    0.0027    0.0006   -0.0040   -0.3404
          40    0.1713    0.0002    0.0074   -0.0001    0.0000    0.0036   -0.0037    0.0000
          41   -0.1655   -0.0002   -0.0071    0.0000   -0.0000   -0.0033    0.0022   -0.0000
          42   -0.2868   -0.0004   -0.0146    0.0001    0.0000   -0.0065    0.0075   -0.0001
          43   -0.0286   -0.0000   -0.0048   -0.0001   -0.0002   -0.0023   -0.0022    0.0000
          44   -0.2793   -0.0002   -0.0281    0.0005    0.0005   -0.0101    0.0221   -0.0002
          45    0.4053    0.0004    0.0345   -0.0007   -0.0007    0.0120   -0.0307    0.0003
          46   -0.0001    0.0018   -0.0000    0.0965   -0.2641    0.0120    0.0104    0.0051
          47    0.0001   -0.0020   -0.0000   -0.1560    0.3275   -0.0146   -0.0118   -0.0069
          48   -0.0000    0.0004    0.0000    0.0210   -0.0839    0.0039    0.0038    0.0014
          49   -0.0000   -0.0009    0.0000    0.1838   -0.0184   -0.0009   -0.0062    0.0033
          50   -0.0000   -0.0002   -0.0000    0.0571   -0.0324    0.0010   -0.0007    0.0015
          51   -0.0000    0.0001    0.0000    0.4017   -0.0376   -0.0020   -0.0135    0.0066
          52    0.0001   -0.0049    0.0001    0.1320    0.2256   -0.0120   -0.0150    0.0027
          53    0.0001   -0.0070    0.0001    0.2200    0.3107   -0.0169   -0.0224    0.0049
          54   -0.0000    0.0004   -0.0000   -0.0245   -0.0055    0.0005    0.0012   -0.0004
          55   -0.0011    0.0009   -0.1381    0.0011    0.0112    0.2643   -0.0450    0.0014
          56   -0.0024    0.0006   -0.2188    0.0017    0.0181    0.4283   -0.0732    0.0029
          57   -0.0002    0.0001   -0.0658    0.0005    0.0052    0.1237   -0.0210    0.0007
          58   -0.0359   -0.0011    0.4119    0.0003    0.0065    0.1686   -0.0427    0.0002
          59    0.0080    0.0001   -0.0593   -0.0001   -0.0011   -0.0275    0.0068   -0.0001
          60   -0.0342   -0.0010    0.3908    0.0003    0.0062    0.1610   -0.0406    0.0003
          61    0.0190    0.0002    0.0145    0.0124    0.0217    0.0691    0.4863   -0.0041
          62    0.0187    0.0002    0.0122    0.0105    0.0186    0.0576    0.4056   -0.0034
          63   -0.0067   -0.0001   -0.0045   -0.0039   -0.0067   -0.0213   -0.1498    0.0012


   Root No.      57

                57 A   

                3178.7
  
           1    0.0005
           2   -0.0000
           3   -0.0001
           4   -0.0000
           5    0.0000
           6   -0.0000
           7   -0.0001
           8    0.0002
           9    0.0002
          10   -0.0000
          11   -0.0000
          12    0.0000
          13    0.0174
          14   -0.0020
          15   -0.0172
          16   -0.0001
          17    0.0001
          18   -0.0000
          19    0.0000
          20   -0.0000
          21    0.0000
          22   -0.0001
          23   -0.0001
          24    0.0000
          25   -0.0000
          26    0.0000
          27   -0.0000
          28   -0.0004
          29   -0.0004
          30   -0.0027
          31    0.0000
          32   -0.0000
          33   -0.0001
          34   -0.0000
          35   -0.0005
          36    0.0010
          37    0.0004
          38   -0.0020
          39   -0.0035
          40    0.0000
          41   -0.0000
          42   -0.0000
          43   -0.0000
          44    0.0000
          45   -0.0000
          46   -0.1852
          47    0.2541
          48   -0.0721
          49    0.1464
          50    0.0422
          51    0.2805
          52   -0.1730
          53   -0.2724
          54    0.0012
          55   -0.0000
          56    0.0000
          57    0.0000
          58    0.0000
          59   -0.0000
          60    0.0000
          61    0.0014
          62    0.0009
          63   -0.0004


           MASS-WEIGHTED COORDINATE ANALYSIS (NORMAL COORDINATES)


   Root No.       1         2         3         4         5         6         7         8

[...]
 FREQUENCY          1406.43         C  5 -- H 17         +36.4% ( 55.2%)      0.0%
 TRANSITION DIPOLE   0.0460         C  5 -- H 18         +16.8% ( 37.4%)      7.5%
 TRAVEL (Ang.)       0.4172         C  5 -- H 16         +12.3% ( 32.0%)     16.6%
 REDUCED MASS        0.2754         C  3 -- H 12         +10.7% ( 29.9%)      3.5%
 EFFECTIVE MASS      1.7860         C  3 -- H 13         +10.3% ( 29.4%)      3.8%
 FORCE CONSTANT      0.3210

 VIBRATION         41   41A           ATOM PAIR      ENERGY CONTRIBUTION    RADIAL
 FREQUENCY          1411.73         C  3 -- H 13         +27.4% ( 54.0%)      3.5%
 TRANSITION DIPOLE   0.0297         C  3 -- H 12         +26.6% ( 53.2%)      3.9%
 TRAVEL (Ang.)       0.3820         C  5 -- H 17          +8.1% ( 29.4%)      0.2%
 REDUCED MASS        0.3273         C  1 -- C  3          +6.5% ( 26.3%)     74.2%
 EFFECTIVE MASS      2.4263
 FORCE CONSTANT      0.3843

 VIBRATION         42   42A           ATOM PAIR      ENERGY CONTRIBUTION    RADIAL
 FREQUENCY          1429.07         C  1 -- C  5         +16.9% ( 63.8%)     97.0%
 TRANSITION DIPOLE   0.0945         C  5 -- H 17         +10.0% ( 49.1%)      3.7%
 TRAVEL (Ang.)       0.1883         C  1 -- C  6          +8.5% ( 45.2%)     42.7%
 REDUCED MASS        1.3309         C  5 -- H 18          +8.4% ( 45.1%)      4.2%
 EFFECTIVE MASS      8.2983
 FORCE CONSTANT      1.6014

 VIBRATION         43   43A           ATOM PAIR      ENERGY CONTRIBUTION    RADIAL
 FREQUENCY          1473.15         C  2 -- C  7         +16.1% ( 69.7%)     92.1%
 TRANSITION DIPOLE   0.1471         C  1 -- C  2         +13.7% ( 64.2%)     97.7%
 TRAVEL (Ang.)       0.1350         C  2 -- C  3         +10.5% ( 56.3%)     56.8%
 REDUCED MASS        2.5106         C  2 -- H 11         +10.3% ( 55.7%)      0.0%
 EFFECTIVE MASS     10.9145         C  2 -- C  6         +10.1% ( 55.2%)     37.8%
 FORCE CONSTANT      3.2102

 VIBRATION         44   44A           ATOM PAIR      ENERGY CONTRIBUTION    RADIAL
 FREQUENCY          1844.18         C  7 -- C  9         +43.9% ( 98.2%)    100.0%
 TRANSITION DIPOLE   0.1221         C  2 -- C  7         +14.0% ( 55.4%)     45.9%
 TRAVEL (Ang.)       0.0829         C  4 -- C  9         +14.0% ( 55.3%)     46.9%
 REDUCED MASS        5.3245         C  9 -- H 20         +13.0% ( 53.4%)      5.5%
 EFFECTIVE MASS     11.8849         C  7 -- H 19         +12.7% ( 52.8%)      5.8%
 FORCE CONSTANT     10.6692

 VIBRATION         45   45A           ATOM PAIR      ENERGY CONTRIBUTION    RADIAL
 FREQUENCY          1960.71         C  6 -- C  8         +36.3% ( 97.0%)     99.5%
 TRANSITION DIPOLE   0.2496         C  1 -- C  6         +15.8% ( 64.1%)     71.8%
 TRAVEL (Ang.)       0.0779         C  2 -- C  6         +15.2% ( 62.8%)     37.7%
 REDUCED MASS        5.6606         C  3 -- C  6         +15.0% ( 62.5%)     90.8%
 EFFECTIVE MASS     11.9229
 FORCE CONSTANT     12.8215

 VIBRATION         46   46A           ATOM PAIR      ENERGY CONTRIBUTION    RADIAL
 FREQUENCY          2923.51         C  2 -- H 11         +95.6% ( 99.8%)    100.0%
 TRANSITION DIPOLE   0.1378         C  2 -- C  3          +1.0% ( 10.2%)     12.7%
 TRAVEL (Ang.)       0.1581         C  1 -- C  2          +1.0% ( 10.1%)     19.0%
 REDUCED MASS        0.9225         C  2 -- C  7          +1.0% ( 10.1%)      8.8%
 EFFECTIVE MASS      1.4338
 FORCE CONSTANT      4.6455

 VIBRATION         47   47A           ATOM PAIR      ENERGY CONTRIBUTION    RADIAL
 FREQUENCY          2944.78         C  4 -- H 14         +61.9% ( 81.6%)     97.7%
 TRANSITION DIPOLE   0.0374         C  4 -- H 15         +35.6% ( 61.8%)     94.7%
 TRAVEL (Ang.)       0.2041         C  4 -- C  8          +1.1% ( 10.9%)      0.3%
 REDUCED MASS        0.5497         C  4 -- C  9          +1.1% ( 10.9%)      0.2%
 EFFECTIVE MASS      1.5346
 FORCE CONSTANT      2.8087

 VIBRATION         48   48A           ATOM PAIR      ENERGY CONTRIBUTION    RADIAL
 FREQUENCY          2945.86         C  1 -- H 10         +95.2% ( 99.7%)    100.0%
 TRANSITION DIPOLE   0.0928         C  1 -- C  3          +1.0% ( 10.4%)     12.6%
 TRAVEL (Ang.)       0.1580         C  1 -- C  5          +1.0% ( 10.4%)     10.4%
 REDUCED MASS        0.9174         C  1 -- C  2          +1.0% ( 10.3%)     22.5%
 EFFECTIVE MASS      1.4424
 FORCE CONSTANT      4.6909

 VIBRATION         49   49A           ATOM PAIR      ENERGY CONTRIBUTION    RADIAL
 FREQUENCY          3024.42         C  4 -- H 15         +62.9% ( 78.3%)     98.9%
 TRANSITION DIPOLE   0.0872         C  4 -- H 14         +34.7% ( 58.2%)     95.2%
 TRAVEL (Ang.)       0.2093         C  9 -- H 20          +0.7% (  8.4%)    100.0%
 REDUCED MASS        0.5091         C  4 -- C  9          +0.7% (  8.2%)     20.9%
 EFFECTIVE MASS      1.2889
 FORCE CONSTANT      2.7439

 VIBRATION         50   50A           ATOM PAIR      ENERGY CONTRIBUTION    RADIAL
 FREQUENCY          3051.14         C  3 -- H 13         +59.1% ( 80.0%)     98.0%
 TRANSITION DIPOLE   0.0888         C  3 -- H 12         +37.1% ( 63.4%)     95.3%
 TRAVEL (Ang.)       0.2024         C  3 -- C  6          +1.1% ( 11.1%)      0.2%
 REDUCED MASS        0.5394         C  2 -- C  3          +1.1% ( 11.0%)      0.2%
 EFFECTIVE MASS      1.5426
 FORCE CONSTANT      2.9586

 VIBRATION         51   51A           ATOM PAIR      ENERGY CONTRIBUTION    RADIAL
 FREQUENCY          3060.49         C  9 -- H 20         +79.5% ( 90.5%)    100.0%
 TRANSITION DIPOLE   0.2969         C  7 -- H 19         +17.4% ( 42.3%)     99.9%
 TRAVEL (Ang.)       0.1842         C  7 -- C  9          +1.2% ( 11.0%)      7.3%
 REDUCED MASS        0.6494         C  4 -- C  9          +1.1% ( 10.7%)     21.0%
 EFFECTIVE MASS      1.4713
 FORCE CONSTANT      3.5837

 VIBRATION         52   52A           ATOM PAIR      ENERGY CONTRIBUTION    RADIAL
 FREQUENCY          3080.02         C  5 -- H 17         +64.7% ( 83.0%)     98.8%
 TRANSITION DIPOLE   0.0388         C  5 -- H 18         +22.2% ( 48.6%)     88.8%
 TRAVEL (Ang.)       0.2070         C  5 -- H 16         +11.8% ( 35.4%)     77.4%
 REDUCED MASS        0.5109         C  1 -- C  5          +1.0% ( 10.3%)      0.0%
 EFFECTIVE MASS      1.5052
 FORCE CONSTANT      2.8558

 VIBRATION         53   53A           ATOM PAIR      ENERGY CONTRIBUTION    RADIAL
 FREQUENCY          3084.56         C  5 -- H 16         +53.8% ( 75.6%)     97.7%
 TRANSITION DIPOLE   0.0485         C  5 -- H 18         +43.2% ( 67.8%)     96.1%
 TRAVEL (Ang.)       0.2080         C  5 -- H 17          +1.6% ( 12.9%)     14.3%
 REDUCED MASS        0.5055         C  1 -- C  5          +1.0% ( 10.4%)      0.0%
 EFFECTIVE MASS      1.5082
 FORCE CONSTANT      2.8338

 VIBRATION         54   54A           ATOM PAIR      ENERGY CONTRIBUTION    RADIAL
 FREQUENCY          3085.69         C  7 -- H 19         +77.7% ( 89.5%)    100.0%
 TRANSITION DIPOLE   0.3425         C  9 -- H 20         +16.0% ( 40.6%)     99.7%
 TRAVEL (Ang.)       0.1865         C  8 -- H 21          +2.5% ( 15.9%)    100.0%
 REDUCED MASS        0.6285         C  7 -- C  9          +1.9% ( 14.0%)     83.0%
 EFFECTIVE MASS      1.5752
 FORCE CONSTANT      3.5261

 VIBRATION         55   55A           ATOM PAIR      ENERGY CONTRIBUTION    RADIAL
 FREQUENCY          3090.14         C  8 -- H 21         +93.6% ( 98.3%)    100.0%
 TRANSITION DIPOLE   0.2900         C  7 -- H 19          +1.7% ( 13.4%)     99.9%
 TRAVEL (Ang.)       0.1584         C  6 -- C  8          +1.6% ( 13.0%)     45.6%
 REDUCED MASS        0.8702         C  4 -- C  8          +1.5% ( 12.3%)     21.1%
 EFFECTIVE MASS      1.5442
 FORCE CONSTANT      4.8956

 VIBRATION         56   56A           ATOM PAIR      ENERGY CONTRIBUTION    RADIAL
 FREQUENCY          3109.87         C  3 -- H 12         +61.0% ( 77.6%)     98.3%
 TRANSITION DIPOLE   0.0932         C  3 -- H 13         +36.9% ( 60.3%)     94.8%
 TRAVEL (Ang.)       0.2064         C  3 -- C  6          +0.7% (  8.2%)     99.8%
 REDUCED MASS        0.5087         C  2 -- C  3          +0.7% (  8.1%)     49.5%
 EFFECTIVE MASS      1.2833
 FORCE CONSTANT      2.8988

 VIBRATION         57   57A           ATOM PAIR      ENERGY CONTRIBUTION    RADIAL
 FREQUENCY          3178.74         C  5 -- H 18         +33.5% ( 55.7%)     97.1%
 TRANSITION DIPOLE   0.0345         C  5 -- H 16         +33.5% ( 55.7%)     97.2%
 TRAVEL (Ang.)       0.2547         C  5 -- H 17         +32.7% ( 55.0%)     97.0%
 REDUCED MASS        0.3270         C  1 -- C  5          +0.3% (  5.1%)    100.0%
 EFFECTIVE MASS      1.1362
 FORCE CONSTANT      1.9470

      SYMMETRY NUMBER FOR POINT-GROUP C1  =  1


          SYSTEM IS A GROUND STATE



 InChI=1S/C9H12/c1-7-6-8-4-2-3-5-9(7)8/h2,4-5,7-8H,3,6H2,1H3


          MOLECULE IS NOT LINEAR

          THERE ARE 57 GENUINE VIBRATIONS IN THIS SYSTEM
          THIS THERMODYNAMICS CALCULATION IS LIMITED TO
          MOLECULES WHICH HAVE NO INTERNAL ROTATIONS




                    CALCULATED THERMODYNAMIC PROPERTIES
                                          *
   TEMP. (K)   PARTITION FUNCTION   H.O.F.    ENTHALPY  HEAT CAPACITY ENTROPY
                                   KCAL/MOL   CAL/MOLE    CAL/K/MOL  CAL/K/MOL


 298.00  VIB.     0.3765D+02                  3249.8686    26.0459    18.1160
         ROT.     0.3951D+06                   888.2803     2.9808    28.5895
         INT.     0.1488D+08                  4138.1489    29.0267    46.7055
         TRA.     0.1274D+28                  1480.4672     4.9680    40.2640
         TOT.                       33.265    5618.6161    33.9947    86.9696

 200.00  VIB.     0.6984D+01                  1265.2764    14.8341    10.1889
         ROT.     0.2172D+06                   596.1613     2.9808    27.4009
         INT.     0.1517D+07                  1861.4377    17.8149    37.5897
         TRA.     0.7004D+27                   993.6021     4.9680    38.2829
         TOT.                       30.501    2855.0398    22.7829    75.8727

 210.00  VIB.     0.8201D+01                  1418.7007    15.8566    10.9372
         ROT.     0.2337D+06                   625.9693     2.9808    27.5463
         INT.     0.1917D+07                  2044.6701    18.8374    38.4835
         TRA.     0.7536D+27                  1043.2822     4.9680    38.5253
         TOT.                       30.734    3087.9523    23.8055    77.0088

 220.00  VIB.     0.9655D+01                  1582.5240    16.9136    11.6992
         ROT.     0.2506D+06                   655.7774     2.9808    27.6850
         INT.     0.2419D+07                  2238.3014    19.8945    39.3841
         TRA.     0.8081D+27                  1092.9623     4.9680    38.7564
         TOT.                       30.977    3331.2638    24.8625    78.1405

 230.00  VIB.     0.1140D+02                  1757.0829    18.0034    12.4749
         ROT.     0.2679D+06                   685.5855     2.9808    27.8175
         INT.     0.3053D+07                  2442.6684    20.9842    40.2924
         TRA.     0.8638D+27                  1142.6424     4.9680    38.9773
         TOT.                       31.231    3585.3108    25.9522    79.2696

 240.00  VIB.     0.1349D+02                  1942.6933    19.1235    13.2647
         ROT.     0.2855D+06                   715.3935     2.9808    27.9443
         INT.     0.3851D+07                  2658.0869    22.1043    41.2090
         TRA.     0.9207D+27                  1192.3226     4.9680    39.1887
         TOT.                       31.497    3850.4094    27.0723    80.3977

 250.00  VIB.     0.1600D+02                  2139.6439    20.2709    14.0685
         ROT.     0.3036D+06                   745.2016     2.9808    28.0660
         INT.     0.4858D+07                  2884.8455    23.2517    42.1345
         TRA.     0.9789D+27                  1242.0027     4.9680    39.3915
         TOT.                       31.773    4126.8482    28.2197    81.5260

 260.00  VIB.     0.1903D+02                  2348.1913    21.4422    14.8863
         ROT.     0.3220D+06                   775.0097     2.9808    28.1829
         INT.     0.6128D+07                  3123.2010    24.4231    43.0692
         TRA.     0.1038D+28                  1291.6828     4.9680    39.5863
         TOT.                       32.061    4414.8837    29.3911    82.6556

 270.00  VIB.     0.2270D+02                  2568.5565    22.6338    15.7178
         ROT.     0.3407D+06                   804.8177     2.9808    28.2954
         INT.     0.7734D+07                  3373.3742    25.6147    44.0133
         TRA.     0.1099D+28                  1341.3629     4.9680    39.7738
         TOT.                       32.361    4714.7371    30.5827    83.7871

 280.00  VIB.     0.2714D+02                  2800.9232    23.8419    16.5628
         ROT.     0.3598D+06                   834.6258     2.9808    28.4038
         INT.     0.9764D+07                  3635.5490    26.8227    44.9666
         TRA.     0.1160D+28                  1391.0430     4.9680    39.9545
         TOT.                       32.673    5026.5920    31.7907    84.9211

 290.00  VIB.     0.3252D+02                  3045.4373    25.0627    17.4207
         ROT.     0.3793D+06                   864.4339     2.9808    28.5084
         INT.     0.1233D+08                  3909.8712    28.0435    45.9291
         TRA.     0.1223D+28                  1440.7231     4.9680    40.1289
         TOT.                       32.997    5350.5943    33.0115    86.0580

 300.00  VIB.     0.3907D+02                  3302.2069    26.2924    18.2910
         ROT.     0.3991D+06                   894.2419     2.9808    28.6095
         INT.     0.1559D+08                  4196.4488    29.2732    46.9005
         TRA.     0.1287D+28                  1490.4032     4.9680    40.2973
         TOT.                       33.333    5686.8520    34.2412    87.1978

 310.00  VIB.     0.4705D+02                  3571.3035    27.5275    19.1733
         ROT.     0.4192D+06                   924.0500     2.9808    28.7072
         INT.     0.1972D+08                  4495.3535    30.5083    47.8805
         TRA.     0.1352D+28                  1540.0833     4.9680    40.4602
         TOT.                       33.682    6035.4368    35.4763    88.3407

 320.00  VIB.     0.5679D+02                  3852.7641    28.7647    20.0668
         ROT.     0.4396D+06                   953.8580     2.9808    28.8019
         INT.     0.2496D+08                  4806.6221    31.7455    48.8687
         TRA.     0.1418D+28                  1589.7634     4.9680    40.6179
         TOT.                       34.043    6396.3855    36.7135    89.4866

 330.00  VIB.     0.6870D+02                  4146.5929    30.0007    20.9709
         ROT.     0.4604D+06                   983.6661     2.9808    28.8936
         INT.     0.3163D+08                  5130.2590    32.9815    49.8644
         TRA.     0.1485D+28                  1639.4435     4.9680    40.7708
         TOT.                       34.416    6769.7025    37.9495    90.6352

 340.00  VIB.     0.8330D+02                  4452.7643    31.2327    21.8848
         ROT.     0.4815D+06                  1013.4742     2.9808    28.9826
         INT.     0.4011D+08                  5466.2385    34.2135    50.8674
         TRA.     0.1553D+28                  1689.1236     4.9680    40.9191
         TOT.                       34.802    7155.3621    39.1815    91.7864

 350.00  VIB.     0.1012D+03                  4771.2251    32.4582    22.8078
         ROT.     0.5029D+06                  1043.2822     2.9808    29.0690
         INT.     0.5091D+08                  5814.5074    35.4390    51.8768
         TRA.     0.1622D+28                  1738.8037     4.9680    41.0631
         TOT.                       35.199    7553.3111    40.4070    92.9399

 360.00  VIB.     0.1233D+03                  5101.8978    33.6747    23.7393
         ROT.     0.5246D+06                  1073.0903     2.9808    29.1529
         INT.     0.6467D+08                  6174.9881    36.6555    52.8922
         TRA.     0.1692D+28                  1788.4838     4.9680    41.2031
         TOT.                       35.610    7963.4720    41.6235    94.0953

 370.00  VIB.     0.1504D+03                  5444.6829    34.8803    24.6784
         ROT.     0.5466D+06                  1102.8984     2.9808    29.2346
         INT.     0.8223D+08                  6547.5813    37.8611    53.9130
         TRA.     0.1762D+28                  1838.1639     4.9680    41.3392
         TOT.                       36.032    8385.7452    42.8291    95.2522

 380.00  VIB.     0.1840D+03                  5799.4617    36.0732    25.6245
         ROT.     0.5689D+06                  1132.7064     2.9808    29.3141
         INT.     0.1047D+09                  6932.1681    39.0540    54.9386
         TRA.     0.1834D+28                  1887.8440     4.9680    41.4717
         TOT.                       36.466    8820.0122    44.0220    96.4103

 390.00  VIB.     0.2254D+03                  6166.0992    37.2518    26.5768
         ROT.     0.5915D+06                  1162.5145     2.9808    29.3915
         INT.     0.1333D+09                  7328.6137    40.2326    55.9683
         TRA.     0.1907D+28                  1937.5242     4.9680    41.6007
         TOT.                       36.912    9266.1378    45.2006    97.5690

 400.00  VIB.     0.2766D+03                  6544.4460    38.4149    27.5346
         ROT.     0.6144D+06                  1192.3226     2.9808    29.4670
         INT.     0.1700D+09                  7736.7686    41.3957    57.0016
         TRA.     0.1981D+28                  1987.2043     4.9680    41.7265
         TOT.                       37.370    9723.9728    46.3637    98.7281

   *: NOTE: HEATS OF FORMATION ARE RELATIVE TO THE
            ELEMENTS IN THEIR STANDARD STATE AT 298K
              (=  Standard Enthalpy of Formation).

            Hvib:  Zero-point energy is not included.
                   frequencies of less than zero cm-1 are not included.
            Hrot = (3/2)RT
            Htra = (3/2)RT + pV = (5/2)RT

            Heat capacity is Cp, not Cv

          For more information, see: HTTP://OpenMOPAC.net/Manual/thermochemistry.html


           FORCE CONSTANT IN CARTESIAN COORDINATES (Millidynes/A)

    ATOM   CHEMICAL       X               Y               Z
   NUMBER   SYMBOL  FORCE CONSTANT  FORCE CONSTANT  FORCE CONSTANT

      1       C       10.136491        6.130968        8.586485
      2       C       10.451341        6.827623        8.632814
      3       C        5.362447        9.604226        8.705298
      4       C        8.530048        8.856350        8.076996
      5       C        8.455129        8.344664        8.336959
      6       C        7.789198       15.424589        5.037443
      7       C        6.664890       13.791567        6.803923
      8       C        9.192009       12.906551        5.010436
      9       C        6.816993       13.045050        6.938056
     10       H        1.514014        0.681513        3.973492
     11       H        1.487043        0.653014        3.869921
     12       H        0.654502        2.300105        3.705061
     13       H        0.649094        2.214243        3.747161
     14       H        1.546268        1.650272        2.955198
     15       H        0.713353        2.162467        3.454042
     16       H        2.323869        3.544265        0.875456
     17       H        1.566258        0.750146        4.448885
     18       H        2.120164        3.925789        0.696924
     19       H        1.721165        3.766478        0.792600
     20       H        2.869355        0.789062        2.604455
     21       H        3.237580        2.382919        0.676941

 **********************
 *                    *
 * JOB ENDED NORMALLY *
 *                    *
 **********************



 TOTAL JOB TIME:             2.55 SECONDS

 == MOPAC DONE ==
