 *******************************************************************************
 **                                                                           **
 **                              MOPAC v23.1.2                                **
 **                                                                           **
 *******************************************************************************
 **          Digital Object Identifier (DOI): 10.5281/zenodo.6511958          **
 **    Visit the DOI location for information on how to cite this program.    **
 *******************************************************************************

                              PM3 CALCULATION RESULTS

 *******************************************************************************
 *  CALCULATION DONE: (MAX THREADS = 1)              Tue Jun  3 16:33:09 2025  *
 *  PM3        - The PM3 Hamiltonian to be used
 *  PRECISE    - TIGHTER CRITERIA TO BE USED
 *  NOSYM      - POINT-GROUP SYMMETRY SET TO C1
 *  THREADS=1  - MULTI-THREADING NOT USED
 *  T=         - A TIME OF 172800.0 SECONDS REQUESTED
 *  DUMP=N     - RESTART FILE WRITTEN EVERY 7200.0 SECONDS REQUESTED
 *******************************************************************************
pm3  precise nosym THREADS=1
 InChI=1S/C10H10/c1-3-9-7-5-6-8-10(9)4-2/h4-8H,1H2,2H3

   ATOM   CHEMICAL          X               Y               Z
  NUMBER   SYMBOL      (ANGSTROMS)     (ANGSTROMS)     (ANGSTROMS)

     1       C         -0.65370000  *  -2.40580000  *  -0.44950000  *
     2       C         -0.67600000  *  -0.00160000  *   0.42870000  *
     3       C          0.54310000  *   0.43990000  *  -0.18680000  *
     4       C         -1.21220000  *  -1.24710000  *   0.32160000  *
     5       C         -1.39000000  *   0.93030000  *   1.21710000  *
     6       C          0.98260000  *   1.76140000  *   0.00900000  *
     7       C         -0.93160000  *   2.23550000  *   1.39500000  *
     8       C          0.25060000  *   2.64970000  *   0.79310000  *
     9       C          2.06670000  *  -1.05940000  *  -1.69320000  *
    10       C          1.29680000  *  -0.32420000  *  -0.94000000  *
    11       H          0.34210000  *  -2.69100000  *  -0.05100000  *
    12       H         -0.59720000  *  -2.15940000  *  -1.53010000  *
    13       H         -1.32550000  *  -3.28280000  *  -0.33810000  *
    14       H         -2.14390000  *  -1.46220000  *   0.83600000  *
    15       H         -2.31750000  *   0.65240000  *   1.70620000  *
    16       H          1.90180000  *   2.11450000  *  -0.44780000  *
    17       H         -1.49790000  *   2.92860000  *   2.00380000  *
    18       H          0.60240000  *   3.66370000  *   0.93410000  *
    19       H          2.86020000  *  -1.64320000  *  -1.24740000  *
    20       H          1.89920000  *  -1.09940000  *  -2.76060000  *



          CARTESIAN COORDINATES 

    NO.       ATOM           X           Y           Z

     1         C         -0.6537     -2.4058     -0.4495
     2         C         -0.6760     -0.0016      0.4287
     3         C          0.5431      0.4399     -0.1868
     4         C         -1.2122     -1.2471      0.3216
     5         C         -1.3900      0.9303      1.2171
     6         C          0.9826      1.7614      0.0090
     7         C         -0.9316      2.2355      1.3950
     8         C          0.2506      2.6497      0.7931
     9         C          2.0667     -1.0594     -1.6932
    10         C          1.2968     -0.3242     -0.9400
    11         H          0.3421     -2.6910     -0.0510
    12         H         -0.5972     -2.1594     -1.5301
    13         H         -1.3255     -3.2828     -0.3381
    14         H         -2.1439     -1.4622      0.8360
    15         H         -2.3175      0.6524      1.7062
    16         H          1.9018      2.1145     -0.4478
    17         H         -1.4979      2.9286      2.0038
    18         H          0.6024      3.6637      0.9341
    19         H          2.8602     -1.6432     -1.2474
    20         H          1.8992     -1.0994     -2.7606

  H: (PM3): J. J. P. STEWART, J. COMP. CHEM. 10, 209 (1989).
  C: (PM3): J. J. P. STEWART, J. COMP. CHEM. 10, 209 (1989).

           Empirical Formula: C10 H10  =    20 atoms



      MOLECULAR POINT GROUP   :   C1  


      RHF CALCULATION, NO. OF DOUBLY OCCUPIED LEVELS = 25


          Geometry optimization using EF

          DIAGONAL MATRIX USED AS START HESSIAN

 CYCLE:     1 TIME:   0.008 TIME LEFT:  2.00D  GRAD.:   207.574 HEAT:  92.89919
 CYCLE:     2 TIME:   0.012 TIME LEFT:  2.00D  GRAD.:   141.122 HEAT:  87.47304
 CYCLE:     3 TIME:   0.012 TIME LEFT:  2.00D  GRAD.:   107.710 HEAT:  85.94830
 CYCLE:     4 TIME:   0.008 TIME LEFT:  2.00D  GRAD.:   102.436 HEAT:  85.90118
 CYCLE:     5 TIME:   0.008 TIME LEFT:  2.00D  GRAD.:    62.864 HEAT:  85.10340
 CYCLE:     6 TIME:   0.008 TIME LEFT:  2.00D  GRAD.:    73.547 HEAT:  85.07824
 CYCLE:     7 TIME:   0.008 TIME LEFT:  2.00D  GRAD.:    31.916 HEAT:  84.32525
 CYCLE:     8 TIME:   0.012 TIME LEFT:  2.00D  GRAD.:    21.182 HEAT:  84.18320
 CYCLE:     9 TIME:   0.008 TIME LEFT:  2.00D  GRAD.:    20.268 HEAT:  84.14205
 CYCLE:    10 TIME:   0.008 TIME LEFT:  2.00D  GRAD.:    20.627 HEAT:  84.08366
 CYCLE:    11 TIME:   0.008 TIME LEFT:  2.00D  GRAD.:    11.828 HEAT:  84.02469
 CYCLE:    12 TIME:   0.012 TIME LEFT:  2.00D  GRAD.:    10.854 HEAT:  84.00200
 CYCLE:    13 TIME:   0.004 TIME LEFT:  2.00D  GRAD.:     6.159 HEAT:  83.97250
 CYCLE:    14 TIME:   0.016 TIME LEFT:  2.00D  GRAD.:     5.908 HEAT:  83.96545
 CYCLE:    15 TIME:   0.008 TIME LEFT:  2.00D  GRAD.:     2.807 HEAT:  83.95300
 CYCLE:    16 TIME:   0.008 TIME LEFT:  2.00D  GRAD.:     4.215 HEAT:  83.94061
 CYCLE:    17 TIME:   0.008 TIME LEFT:  2.00D  GRAD.:     5.468 HEAT:  83.92850
 CYCLE:    18 TIME:   0.004 TIME LEFT:  2.00D  GRAD.:     5.219 HEAT:  83.92124
 CYCLE:    19 TIME:   0.008 TIME LEFT:  2.00D  GRAD.:     5.405 HEAT:  83.91696
 CYCLE:    20 TIME:   0.008 TIME LEFT:  2.00D  GRAD.:     4.167 HEAT:  83.91068
 CYCLE:    21 TIME:   0.004 TIME LEFT:  2.00D  GRAD.:     2.103 HEAT:  83.90486
 CYCLE:    22 TIME:   0.008 TIME LEFT:  2.00D  GRAD.:     2.862 HEAT:  83.90324
 CYCLE:    23 TIME:   0.004 TIME LEFT:  2.00D  GRAD.:     2.620 HEAT:  83.89965
 CYCLE:    24 TIME:   0.008 TIME LEFT:  2.00D  GRAD.:     4.681 HEAT:  83.89854
 CYCLE:    25 TIME:   0.008 TIME LEFT:  2.00D  GRAD.:     2.312 HEAT:  83.89367
 CYCLE:    26 TIME:   0.004 TIME LEFT:  2.00D  GRAD.:     2.779 HEAT:  83.89221
 CYCLE:    27 TIME:   0.008 TIME LEFT:  2.00D  GRAD.:     1.251 HEAT:  83.88907
 CYCLE:    28 TIME:   0.008 TIME LEFT:  2.00D  GRAD.:     1.827 HEAT:  83.88730
 CYCLE:    29 TIME:   0.004 TIME LEFT:  2.00D  GRAD.:     2.352 HEAT:  83.88572
 CYCLE:    30 TIME:   0.008 TIME LEFT:  2.00D  GRAD.:     1.456 HEAT:  83.88335
 CYCLE:    31 TIME:   0.008 TIME LEFT:  2.00D  GRAD.:     1.118 HEAT:  83.88241
 CYCLE:    32 TIME:   0.008 TIME LEFT:  2.00D  GRAD.:     0.821 HEAT:  83.88172
 CYCLE:    33 TIME:   0.008 TIME LEFT:  2.00D  GRAD.:     0.432 HEAT:  83.88130
 CYCLE:    34 TIME:   0.008 TIME LEFT:  2.00D  GRAD.:     0.459 HEAT:  83.88082
 CYCLE:    35 TIME:   0.004 TIME LEFT:  2.00D  GRAD.:     0.632 HEAT:  83.88044
 CYCLE:    36 TIME:   0.008 TIME LEFT:  2.00D  GRAD.:     0.604 HEAT:  83.87994
 CYCLE:    37 TIME:   0.008 TIME LEFT:  2.00D  GRAD.:     0.521 HEAT:  83.87932
 CYCLE:    38 TIME:   0.008 TIME LEFT:  2.00D  GRAD.:     0.449 HEAT:  83.87875
 CYCLE:    39 TIME:   0.008 TIME LEFT:  2.00D  GRAD.:     0.438 HEAT:  83.87829
 CYCLE:    40 TIME:   0.008 TIME LEFT:  2.00D  GRAD.:     0.363 HEAT:  83.87795
 CYCLE:    41 TIME:   0.004 TIME LEFT:  2.00D  GRAD.:     0.265 HEAT:  83.87767
 CYCLE:    42 TIME:   0.012 TIME LEFT:  2.00D  GRAD.:     0.201 HEAT:  83.87749
 CYCLE:    43 TIME:   0.004 TIME LEFT:  2.00D  GRAD.:     0.161 HEAT:  83.87741
 CYCLE:    44 TIME:   0.008 TIME LEFT:  2.00D  GRAD.:     0.110 HEAT:  83.87737
 CYCLE:    45 TIME:   0.008 TIME LEFT:  2.00D  GRAD.:     0.081 HEAT:  83.87735
 CYCLE:    46 TIME:   0.008 TIME LEFT:  2.00D  GRAD.:     0.063 HEAT:  83.87734
 CYCLE:    47 TIME:   0.004 TIME LEFT:  2.00D  GRAD.:     0.056 HEAT:  83.87733
 CYCLE:    48 TIME:   0.008 TIME LEFT:  2.00D  GRAD.:     0.044 HEAT:  83.87733

     GRADIENT =  0.04399 IS LESS THAN CUTOFF =  0.05000



 -------------------------------------------------------------------------------
 pm3  precise nosym THREADS=1
 InChI=1S/C10H10/c1-3-9-7-5-6-8-10(9)4-2/h4-8H,1H2,2H3



     GEOMETRY OPTIMISED USING EIGENVECTOR FOLLOWING (EF).     
     SCF FIELD WAS ACHIEVED                                   


                              PM3 CALCULATION
                                                       MOPAC v23.1.2 MacOS
                                                       Tue Jun  3 16:33:09 2025




          FINAL HEAT OF FORMATION =         83.87733 KCAL/MOL =     350.94273 KJ/MOL


          COSMO AREA              =        178.97 SQUARE ANGSTROMS
          COSMO VOLUME            =        179.75 CUBIC ANGSTROMS

          GRADIENT NORM           =          0.04399          =       0.00984 PER ATOM
          IONIZATION POTENTIAL    =          8.122940 EV
          HOMO LUMO ENERGIES (EV) =         -8.123 -0.703
          NO. OF FILLED LEVELS    =         25
          MOLECULAR WEIGHT        =        130.1890         POINT GROUP:  C1  

          MOLECULAR DIMENSIONS (Angstroms)

            Atom       Atom       Distance
            H    18    H    13     7.33410
            H    15    H    19     6.34632
            H    20    H    11     2.17614


          SCF CALCULATIONS        =         56

          WALL-CLOCK TIME         =      0.383 SECONDS
          COMPUTATION TIME        =      0.235 SECONDS




   ATOM   CHEMICAL          X               Y               Z
  NUMBER   SYMBOL      (ANGSTROMS)     (ANGSTROMS)     (ANGSTROMS)

     1       C         -0.67154543  *  -2.38946379  *  -0.43084231  *
     2       C         -0.69907318  *  -0.02426617  *   0.43474855  *
     3       C          0.54601581  *   0.41560630  *  -0.19761567  *
     4       C         -1.23513171  *  -1.26168687  *   0.33088430  *
     5       C         -1.40885553  *   0.96577623  *   1.24074945  *
     6       C          0.98511493  *   1.79247823  *   0.01903892  *
     7       C         -0.95328140  *   2.22088609  *   1.40362288  *
     8       C          0.27471351  *   2.64605403  *   0.77738491  *
     9       C          2.09392190  *  -1.05211295  *  -1.70901285  *
    10       C          1.30322874  *  -0.35689256  *  -0.95644996  *
    11       H          0.33392058  *  -2.65126488  *  -0.06774353  *
    12       H         -0.57038676  *  -2.13773851  *  -1.49749963  *
    13       H         -1.29848373  *  -3.28631237  *  -0.35638312  *
    14       H         -2.17853049  *  -1.46775935  *   0.85528637  *
    15       H         -2.34353384  *   0.64680735  *   1.71834431  *
    16       H          1.91914669  *   2.10333108  *  -0.46211170  *
    17       H         -1.49918183  *   2.94901464  *   2.01212702  *
    18       H          0.60646833  *   3.67680601  *   0.93790237  *
    19       H          2.91952966  *  -1.63388850  *  -1.30635284  *
    20       H          1.97695071  *  -1.10074001  *  -2.78890901  *

                             CARTESIAN COORDINATES

   1    C       -0.671545430    -2.389463789    -0.430842311
   2    C       -0.699073177    -0.024266168     0.434748548
   3    C        0.546015814     0.415606299    -0.197615666
   4    C       -1.235131714    -1.261686872     0.330884302
   5    C       -1.408855530     0.965776234     1.240749447
   6    C        0.985114933     1.792478226     0.019038917
   7    C       -0.953281405     2.220886089     1.403622880
   8    C        0.274713512     2.646054029     0.777384908
   9    C        2.093921899    -1.052112951    -1.709012852
  10    C        1.303228738    -0.356892558    -0.956449963
  11    H        0.333920582    -2.651264881    -0.067743527
  12    H       -0.570386763    -2.137738507    -1.497499631
  13    H       -1.298483730    -3.286312368    -0.356383117
  14    H       -2.178530488    -1.467759348     0.855286369
  15    H       -2.343533840     0.646807351     1.718344314
  16    H        1.919146686     2.103331083    -0.462111696
  17    H       -1.499181832     2.949014636     2.012127024
  18    H        0.606468334     3.676806015     0.937902369
  19    H        2.919529664    -1.633888496    -1.306352837
  20    H        1.976950710    -1.100740010    -2.788909014


           Empirical Formula: C10 H10  =    20 atoms



      MOLECULAR POINT GROUP   :   C1  


                  EIGENVALUES  
 -40.01668 -34.37144 -32.76111 -28.92911 -28.14656 -23.90614 -21.66061 -20.32621
 -18.22857 -17.23566 -16.76544 -16.11223 -15.41251 -15.26022 -14.61061 -14.22447
 -14.13158 -12.91262 -12.87726 -12.66009 -12.29496 -10.47792 -10.45803 -10.42035
  -8.12294  -0.70338   1.00920   1.18483   1.22742   2.79332   2.89120   3.22988
   3.38409   3.43896   3.75005   3.77979   3.93343   4.09810   4.22085   4.47715
   4.52204   4.58158   4.83257   5.03557   5.22565   5.39654   5.68142   5.98423
   6.33080   6.60793


              NET ATOMIC CHARGES AND DIPOLE CONTRIBUTIONS

  ATOM NO.   TYPE          CHARGE      No. of ELECS.   s-Pop       p-Pop       
    1          C          -0.085287        4.0853     1.12551     2.95977
    2          C          -0.044897        4.0449     1.16245     2.88244
    3          C           0.036228        3.9638     1.12994     2.83383
    4          C          -0.112893        4.1129     1.19425     2.91864
    5          C          -0.090625        4.0906     1.18352     2.90710
    6          C          -0.088220        4.0882     1.18089     2.90733
    7          C          -0.107667        4.1077     1.17918     2.92849
    8          C          -0.103027        4.1030     1.17891     2.92412
    9          C          -0.089780        4.0898     1.14754     2.94224
   10          C          -0.163920        4.1639     1.21453     2.94939
   11          H           0.055286        0.9447     0.94471
   12          H           0.055326        0.9447     0.94467
   13          H           0.041512        0.9585     0.95849
   14          H           0.096811        0.9032     0.90319
   15          H           0.100639        0.8994     0.89936
   16          H           0.104157        0.8958     0.89584
   17          H           0.102090        0.8979     0.89791
   18          H           0.102448        0.8976     0.89755
   19          H           0.095917        0.9041     0.90408
   20          H           0.095903        0.9041     0.90410
 DIPOLE           X         Y         Z       TOTAL
 POINT-CHG.     0.126    -0.412    -0.228     0.487
 HYBRID         0.020    -0.051    -0.031     0.063
 SUM            0.146    -0.463    -0.259     0.550


          ATOMIC ORBITAL ELECTRON POPULATIONS

     Atom    s        px        py        pz   
    1  C   1.12551   1.00495   0.96048   0.99434
    2  C   1.16245   0.94530   0.94523   0.99192
    3  C   1.12994   0.93494   0.92479   0.97410
    4  C   1.19425   0.98810   0.94348   0.98706
    5  C   1.18352   0.98056   0.94589   0.98065
    6  C   1.18089   0.98727   0.92982   0.99024
    7  C   1.17918   0.96656   0.96475   0.99717
    8  C   1.17891   0.95942   0.98159   0.98311
    9  C   1.14754   0.97258   0.99577   0.97390
   10  C   1.21453   0.98118   0.98057   0.98765
   11  H   0.94471
   12  H   0.94467
   13  H   0.95849
   14  H   0.90319
   15  H   0.89936
   16  H   0.89584
   17  H   0.89791
   18  H   0.89755
   19  H   0.90408
   20  H   0.90410
 *******************************************************************************
 **                                                                           **
 **                              MOPAC v23.1.2                                **
 **                                                                           **
 *******************************************************************************
 **          Digital Object Identifier (DOI): 10.5281/zenodo.6511958          **
 **    Visit the DOI location for information on how to cite this program.    **
 *******************************************************************************

                              PM3 CALCULATION RESULTS

 *******************************************************************************
 *  CALCULATION DONE: (MAX THREADS = 1)              Tue Jun  3 16:33:09 2025  *
 *  PM3        - The PM3 Hamiltonian to be used
 *  OLDGEO     - PREVIOUS GEOMETRY TO BE USED
 *  PRECISE    - TIGHTER CRITERIA TO BE USED
 *  NOSYM      - POINT-GROUP SYMMETRY SET TO C1
 *  THREADS=1  - MULTI-THREADING NOT USED
 *  T=         - A TIME OF 172800.0 SECONDS REQUESTED
 *  DUMP=N     - RESTART FILE WRITTEN EVERY 7200.0 SECONDS REQUESTED
 *  THERMO     - THERMODYNAMIC QUANTITIES TO BE CALCULATED
 *******************************************************************************
oldgeo thermo nosym precise THREADS=1  pm3
 InChI=1S/C10H10/c1-3-9-7-5-6-8-10(9)4-2/h4-8H,1H2,2H3

   ATOM   CHEMICAL          X               Y               Z
  NUMBER   SYMBOL      (ANGSTROMS)     (ANGSTROMS)     (ANGSTROMS)

     1       C         -0.67154543  *  -2.38946379  *  -0.43084231  *
     2       C         -0.69907318  *  -0.02426617  *   0.43474855  *
     3       C          0.54601581  *   0.41560630  *  -0.19761567  *
     4       C         -1.23513171  *  -1.26168687  *   0.33088430  *
     5       C         -1.40885553  *   0.96577623  *   1.24074945  *
     6       C          0.98511493  *   1.79247823  *   0.01903892  *
     7       C         -0.95328140  *   2.22088609  *   1.40362288  *
     8       C          0.27471351  *   2.64605403  *   0.77738491  *
     9       C          2.09392190  *  -1.05211295  *  -1.70901285  *
    10       C          1.30322874  *  -0.35689256  *  -0.95644996  *
    11       H          0.33392058  *  -2.65126488  *  -0.06774353  *
    12       H         -0.57038676  *  -2.13773851  *  -1.49749963  *
    13       H         -1.29848373  *  -3.28631237  *  -0.35638312  *
    14       H         -2.17853049  *  -1.46775935  *   0.85528637  *
    15       H         -2.34353384  *   0.64680735  *   1.71834431  *
    16       H          1.91914669  *   2.10333108  *  -0.46211170  *
    17       H         -1.49918183  *   2.94901464  *   2.01212702  *
    18       H          0.60646833  *   3.67680601  *   0.93790237  *
    19       H          2.91952966  *  -1.63388850  *  -1.30635284  *
    20       H          1.97695071  *  -1.10074001  *  -2.78890901  *



          CARTESIAN COORDINATES 

    NO.       ATOM           X           Y           Z

     1         C         -0.6715     -2.3895     -0.4308
     2         C         -0.6991     -0.0243      0.4347
     3         C          0.5460      0.4156     -0.1976
     4         C         -1.2351     -1.2617      0.3309
     5         C         -1.4089      0.9658      1.2407
     6         C          0.9851      1.7925      0.0190
     7         C         -0.9533      2.2209      1.4036
     8         C          0.2747      2.6461      0.7774
     9         C          2.0939     -1.0521     -1.7090
    10         C          1.3032     -0.3569     -0.9564
    11         H          0.3339     -2.6513     -0.0677
    12         H         -0.5704     -2.1377     -1.4975
    13         H         -1.2985     -3.2863     -0.3564
    14         H         -2.1785     -1.4678      0.8553
    15         H         -2.3435      0.6468      1.7183
    16         H          1.9191      2.1033     -0.4621
    17         H         -1.4992      2.9490      2.0121
    18         H          0.6065      3.6768      0.9379
    19         H          2.9195     -1.6339     -1.3064
    20         H          1.9770     -1.1007     -2.7889

  H: (PM3): J. J. P. STEWART, J. COMP. CHEM. 10, 209 (1989).
  C: (PM3): J. J. P. STEWART, J. COMP. CHEM. 10, 209 (1989).

           Empirical Formula: C10 H10  =    20 atoms



      MOLECULAR POINT GROUP   :   C1  


      RHF CALCULATION, NO. OF DOUBLY OCCUPIED LEVELS = 25



          HEAT OF FORMATION =      83.877326 KCALS/MOLE


          CARTESIAN COORDINATE DERIVATIVES

   NUMBER  ATOM         X            Y            Z

     1       C      0.000018     0.007737    -0.000383
     2       C     -0.005174     0.001835    -0.001259
     3       C     -0.002432    -0.004320     0.010571
     4       C     -0.001506     0.001518    -0.000986
     5       C     -0.005299    -0.002981    -0.001608
     6       C     -0.002257    -0.003516     0.000366
     7       C      0.003836     0.006162    -0.016336
     8       C      0.006737    -0.001340     0.008151
     9       C     -0.005705     0.001290    -0.000375
    10       C      0.005732    -0.003630    -0.003291
    11       H     -0.002197     0.001221    -0.001876
    12       H      0.001519     0.007626    -0.004149
    13       H     -0.002273     0.007685    -0.002707
    14       H      0.005890    -0.004803     0.005556
    15       H     -0.000065    -0.016085     0.015441
    16       H      0.001649    -0.002380     0.000633
    17       H      0.006451     0.016213    -0.006384
    18       H     -0.003688    -0.003104    -0.001237
    19       H      0.002214     0.005365    -0.003731
    20       H     -0.003450    -0.014492     0.003604



          GRADIENT NORM =   0.04713

          MOLECULAR WEIGHT =  130.19



          ROTATIONAL CONSTANTS IN CM(-1)

          A =    0.07063320   B =    0.04044312   C =    0.02597718



           PRINCIPAL MOMENTS OF INERTIA IN UNITS OF 10**(-40)*GRAM-CM**2

          A =      396.3116   B =      692.1512   C =     1077.5899


          ORIENTATION OF MOLECULE IN FORCE CALCULATION

    NO.       ATOM         X         Y         Z

     1          C      -2.6457   -0.8399    0.0002
     2          C      -0.1269   -0.8399    0.0002
     3          C       0.0552    0.6129    0.0002
     4          C      -1.3187   -1.4794    0.0005
     5          C       1.0875   -1.6515   -0.0002
     6          C       1.4178    1.1410   -0.0010
     7          C       2.3171   -1.1061   -0.0018
     8          C       2.4877    0.3263   -0.0022
     9          C      -1.8594    2.3930    0.0025
    10          C      -0.9393    1.4829    0.0013
    11          H      -2.7777   -0.1989   -0.8847
    12          H      -2.7770   -0.1962    0.8833
    13          H      -3.4554   -1.5797    0.0017
    14          H      -1.3217   -2.5782    0.0008
    15          H       0.9623   -2.7414    0.0007
    16          H       1.5341    2.2305   -0.0011
    17          H       3.2159   -1.7311   -0.0026
    18          H       3.5071    0.7251   -0.0033
    19          H      -2.2763    2.8015   -0.9148
    20          H      -2.2749    2.8002    0.9211


    FIRST DERIVATIVES WILL BE USED IN THE CALCULATION OF SECOND DERIVATIVES

          ESTIMATED TIME TO COMPLETE CALCULATION =        1.88 SECONDS

    FOR POINT-GROUP C1   THERE ARE   1 UNIQUE SYMMETRY FUNCTIONS.

 STEP:   1 TIME =     0.02 SECS, INTEGRAL =      0.02 TIME LEFT: 172799.98
 STEP:   2 TIME =     0.02 SECS, INTEGRAL =      0.04 TIME LEFT: 172799.96
 STEP:   3 TIME =     0.02 SECS, INTEGRAL =      0.05 TIME LEFT: 172799.94
 STEP:   4 TIME =     0.02 SECS, INTEGRAL =      0.07 TIME LEFT: 172799.92
 STEP:   5 TIME =     0.02 SECS, INTEGRAL =      0.09 TIME LEFT: 172799.90
 STEP:   6 TIME =     0.02 SECS, INTEGRAL =      0.12 TIME LEFT: 172799.88
 STEP:   7 TIME =     0.02 SECS, INTEGRAL =      0.14 TIME LEFT: 172799.85
 STEP:   8 TIME =     0.02 SECS, INTEGRAL =      0.16 TIME LEFT: 172799.83
 STEP:   9 TIME =     0.02 SECS, INTEGRAL =      0.19 TIME LEFT: 172799.80
 STEP:  10 TIME =     0.02 SECS, INTEGRAL =      0.21 TIME LEFT: 172799.79
 STEP:  11 TIME =     0.02 SECS, INTEGRAL =      0.22 TIME LEFT: 172799.77
 STEP:  12 TIME =     0.02 SECS, INTEGRAL =      0.25 TIME LEFT: 172799.75
 STEP:  13 TIME =     0.02 SECS, INTEGRAL =      0.27 TIME LEFT: 172799.72
 STEP:  14 TIME =     0.02 SECS, INTEGRAL =      0.29 TIME LEFT: 172799.70
 STEP:  15 TIME =     0.02 SECS, INTEGRAL =      0.31 TIME LEFT: 172799.68
 STEP:  16 TIME =     0.02 SECS, INTEGRAL =      0.33 TIME LEFT: 172799.66
 STEP:  17 TIME =     0.02 SECS, INTEGRAL =      0.35 TIME LEFT: 172799.64
 STEP:  18 TIME =     0.02 SECS, INTEGRAL =      0.37 TIME LEFT: 172799.62
 STEP:  19 TIME =     0.02 SECS, INTEGRAL =      0.39 TIME LEFT: 172799.60
 STEP:  20 TIME =     0.02 SECS, INTEGRAL =      0.41 TIME LEFT: 172799.58
 STEP:  21 TIME =     0.02 SECS, INTEGRAL =      0.44 TIME LEFT: 172799.55
 STEP:  22 TIME =     0.02 SECS, INTEGRAL =      0.46 TIME LEFT: 172799.54
 STEP:  23 TIME =     0.02 SECS, INTEGRAL =      0.48 TIME LEFT: 172799.52
 STEP:  24 TIME =     0.02 SECS, INTEGRAL =      0.50 TIME LEFT: 172799.49
 STEP:  25 TIME =     0.02 SECS, INTEGRAL =      0.52 TIME LEFT: 172799.47
 STEP:  26 TIME =     0.02 SECS, INTEGRAL =      0.54 TIME LEFT: 172799.45
 STEP:  27 TIME =     0.02 SECS, INTEGRAL =      0.56 TIME LEFT: 172799.43
 STEP:  28 TIME =     0.02 SECS, INTEGRAL =      0.58 TIME LEFT: 172799.41
 STEP:  29 TIME =     0.02 SECS, INTEGRAL =      0.60 TIME LEFT: 172799.39
 STEP:  30 TIME =     0.02 SECS, INTEGRAL =      0.62 TIME LEFT: 172799.37
 STEP:  31 TIME =     0.02 SECS, INTEGRAL =      0.64 TIME LEFT: 172799.35
 STEP:  32 TIME =     0.02 SECS, INTEGRAL =      0.67 TIME LEFT: 172799.32
 STEP:  33 TIME =     0.02 SECS, INTEGRAL =      0.69 TIME LEFT: 172799.30
 STEP:  34 TIME =     0.02 SECS, INTEGRAL =      0.71 TIME LEFT: 172799.28
 STEP:  35 TIME =     0.02 SECS, INTEGRAL =      0.73 TIME LEFT: 172799.26
 STEP:  36 TIME =     0.02 SECS, INTEGRAL =      0.75 TIME LEFT: 172799.24
 STEP:  37 TIME =     0.02 SECS, INTEGRAL =      0.77 TIME LEFT: 172799.23
 STEP:  38 TIME =     0.02 SECS, INTEGRAL =      0.79 TIME LEFT: 172799.21
 STEP:  39 TIME =     0.02 SECS, INTEGRAL =      0.80 TIME LEFT: 172799.19
 STEP:  40 TIME =     0.02 SECS, INTEGRAL =      0.82 TIME LEFT: 172799.17
 STEP:  41 TIME =     0.02 SECS, INTEGRAL =      0.84 TIME LEFT: 172799.15
 STEP:  42 TIME =     0.02 SECS, INTEGRAL =      0.87 TIME LEFT: 172799.12
 STEP:  43 TIME =     0.02 SECS, INTEGRAL =      0.89 TIME LEFT: 172799.10
 STEP:  44 TIME =     0.02 SECS, INTEGRAL =      0.91 TIME LEFT: 172799.08
 STEP:  45 TIME =     0.02 SECS, INTEGRAL =      0.93 TIME LEFT: 172799.06
 STEP:  46 TIME =     0.02 SECS, INTEGRAL =      0.96 TIME LEFT: 172799.04
 STEP:  47 TIME =     0.02 SECS, INTEGRAL =      0.98 TIME LEFT: 172799.02
 STEP:  48 TIME =     0.02 SECS, INTEGRAL =      1.00 TIME LEFT: 172798.99
 STEP:  49 TIME =     0.02 SECS, INTEGRAL =      1.02 TIME LEFT: 172798.97
 STEP:  50 TIME =     0.02 SECS, INTEGRAL =      1.04 TIME LEFT: 172798.96
 STEP:  51 TIME =     0.02 SECS, INTEGRAL =      1.05 TIME LEFT: 172798.94
 STEP:  52 TIME =     0.02 SECS, INTEGRAL =      1.07 TIME LEFT: 172798.92
 STEP:  53 TIME =     0.02 SECS, INTEGRAL =      1.09 TIME LEFT: 172798.90
 STEP:  54 TIME =     0.02 SECS, INTEGRAL =      1.11 TIME LEFT: 172798.88
 STEP:  55 TIME =     0.02 SECS, INTEGRAL =      1.14 TIME LEFT: 172798.86
 STEP:  56 TIME =     0.02 SECS, INTEGRAL =      1.16 TIME LEFT: 172798.83
 STEP:  57 TIME =     0.02 SECS, INTEGRAL =      1.18 TIME LEFT: 172798.81
 STEP:  58 TIME =     0.02 SECS, INTEGRAL =      1.20 TIME LEFT: 172798.79
 STEP:  59 TIME =     0.02 SECS, INTEGRAL =      1.23 TIME LEFT: 172798.77
 STEP:  60 TIME =     0.02 SECS, INTEGRAL =      1.25 TIME LEFT: 172798.75

(To convert to Hartree/Bohr^2, multiply by (10^(-21) x N x a0^2)/(4.184 x 627.51) =  0.0642)


           FORCE MATRIX IN MILLIDYNES/ANGSTROM


                  C  1       C  2       C  3       C  4       C  5       C  6
 ------------------------------------------------------------------------------
     C    1  14.659733
     C    2   0.793619  18.525660
     C    3   0.127637   5.090948  18.873762
     C    4   5.360765   9.285414   0.925452  17.661057
     C    5   0.138879   5.206241   0.711632   1.241531  18.240122
     C    6   0.018055   0.688334   5.163700   0.097871   0.332380  18.211893
     C    7   0.038327   1.123739   0.269485   0.217643   9.784112   1.294329
     C    8   0.026948   0.279625   1.137962   0.130123   1.290266   9.812076
     C    9   0.050826   0.097968   0.762085   0.024211   0.013896   0.103317
     C   10   0.098840   1.044984  10.189861   0.192519   0.096658   1.345064
     H   11   4.620456   0.043794   0.031056   0.447895   0.018110   0.004671
     H   12   4.620208   0.043810   0.031123   0.448072   0.018083   0.004680
     H   13   4.773775   0.051045   0.002160   0.460257   0.007396   0.000360
     H   14   0.431461   0.447030   0.108326   4.730200   0.102666   0.008165
     H   15   0.002427   0.439681   0.045499   0.064823   4.784800   0.011213
     H   16   0.002120   0.045154   0.442988   0.007444   0.010965   4.837552
     H   17   0.009624   0.117132   0.003549   0.007501   0.440791   0.050825
     H   18   0.000602   0.004768   0.115671   0.001403   0.050563   0.440209
     H   19   0.009818   0.069206   0.044379   0.009386   0.002446   0.073978
     H   20   0.009813   0.069212   0.044314   0.009368   0.002447   0.073981


                  C  7       C  8       C  9       C 10       H 11       H 12
 ------------------------------------------------------------------------------
     C    7  18.196576
     C    8   5.765399  18.220285
     C    9   0.020695   0.038410  18.036942
     C   10   0.131906   0.228536  11.848543  24.235132
     H   11   0.007052   0.006258   0.017514   0.026374   5.352956
     H   12   0.007054   0.006263   0.017726   0.026651   0.584272   5.352706
     H   13   0.001839   0.000476   0.002749   0.004049   0.554891   0.554713
     H   14   0.005721   0.005103   0.002249   0.009825   0.025625   0.025699
     H   15   0.439721   0.121516   0.002067   0.008662   0.000360   0.000359
     H   16   0.120669   0.439513   0.005733   0.052174   0.000462   0.000462
     H   17   4.861438   0.436278   0.000571   0.001545   0.001175   0.001171
     H   18   0.436018   4.864004   0.005321   0.007789   0.000240   0.000242
     H   19   0.005480   0.006170   4.991424   0.480421   0.003655   0.004859
     H   20   0.005477   0.006170   4.991436   0.480381   0.004824   0.003676


                  H 13       H 14       H 15       H 16       H 17       H 18
 ------------------------------------------------------------------------------
     H   13   5.468453
     H   14   0.032514   5.088607
     H   15   0.000378   0.024730   5.157135
     H   16   0.000088   0.003042   0.008451   5.208293
     H   17   0.000301   0.004837   0.063545   0.007124   5.225882
     H   18   0.000054   0.000802   0.007383   0.062761   0.030920   5.228560
     H   19   0.000574   0.005219   0.001728   0.001371   0.000310   0.005529
     H   20   0.000580   0.005217   0.001728   0.001369   0.000309   0.005529


                  H 19       H 20
 ------------------------------
     H   19   5.375486
     H   20   0.409921   5.375477


          HEAT OF FORMATION =      83.877326 KCALS/MOLE

          ZERO POINT ENERGY     103.103 KCAL/MOL


           NORMAL COORDINATE ANALYSIS (Total motion = 1 Angstrom)


   Root No.       1         2         3         4         5         6         7         8

                 1 A       2 A       3 A       4 A       5 A       6 A       7 A       8 A   

                  26.4     119.3     148.5     159.2     224.9     242.7     311.2     393.3
  
           1   -0.0000   -0.0003    0.0000   -0.0038    0.0001    0.0377   -0.0000    0.0652
           2   -0.0001   -0.0008    0.0002   -0.0550    0.0000    0.0740    0.0000   -0.0034
           3    0.0501   -0.0163    0.0391    0.0002   -0.0281   -0.0001   -0.0123   -0.0000
           4   -0.0000   -0.0001   -0.0000   -0.0069    0.0000    0.0094   -0.0000    0.0194
           5    0.0000    0.0001    0.0000   -0.0167   -0.0000   -0.0354   -0.0000    0.0230
           6   -0.0124   -0.0045   -0.0442   -0.0001    0.0073   -0.0000   -0.0054    0.0001
           7    0.0000   -0.0001    0.0000   -0.0250   -0.0000   -0.0200    0.0000   -0.0302
           8   -0.0000    0.0001    0.0000   -0.0151   -0.0000   -0.0329   -0.0000    0.0340
           9    0.0070   -0.0044   -0.0492   -0.0001   -0.0295    0.0001    0.0106    0.0000
          10   -0.0000    0.0000   -0.0000    0.0043    0.0000   -0.0027   -0.0000    0.0469
          11   -0.0000   -0.0002    0.0001   -0.0370   -0.0000   -0.0124    0.0000   -0.0189
          12    0.0048   -0.0050   -0.0173   -0.0001    0.0668   -0.0001    0.0284   -0.0001
          13   -0.0000   -0.0001   -0.0000    0.0049   -0.0000    0.0209   -0.0000   -0.0052
          14   -0.0000    0.0001   -0.0000   -0.0004   -0.0000   -0.0154   -0.0000   -0.0140
          15   -0.0478    0.0056   -0.0183   -0.0001   -0.0205    0.0000   -0.0472   -0.0000
          16    0.0000   -0.0000    0.0000   -0.0293   -0.0000   -0.0337   -0.0000   -0.0114
          17    0.0000    0.0000    0.0000    0.0005    0.0000   -0.0031    0.0000   -0.0180
          18    0.0497   -0.0089   -0.0360   -0.0000    0.0055    0.0000   -0.0415   -0.0001
          19   -0.0000   -0.0000    0.0001   -0.0016   -0.0000    0.0094    0.0000    0.0019
          20    0.0000    0.0000   -0.0000    0.0140    0.0000    0.0137    0.0000   -0.0416
          21   -0.0247    0.0091    0.0515    0.0001   -0.0200    0.0000    0.0208   -0.0001
          22    0.0000   -0.0000    0.0001   -0.0187    0.0000   -0.0190    0.0000   -0.0241
          23    0.0000    0.0000   -0.0000    0.0157    0.0000    0.0174    0.0000   -0.0396
          24    0.0343   -0.0018    0.0391    0.0001    0.0267   -0.0001    0.0195    0.0001
          25   -0.0000    0.0004   -0.0001    0.0705    0.0001    0.0109   -0.0000   -0.0442
          26    0.0001    0.0005   -0.0002    0.0840    0.0000   -0.0007    0.0000    0.0376
          27   -0.0477    0.0204    0.0310   -0.0001    0.0208    0.0000   -0.0199    0.0001
          28   -0.0000    0.0001   -0.0000   -0.0090   -0.0001   -0.0243    0.0001   -0.0301
          29    0.0000    0.0002   -0.0000    0.0033   -0.0000   -0.0368   -0.0000    0.0446
          30   -0.0185    0.0074   -0.0243   -0.0001   -0.0361    0.0001    0.0752    0.0000
          31   -0.0448   -0.0831   -0.0291   -0.0104    0.0603    0.0825    0.0282    0.0843
          32   -0.0362   -0.2161    0.0285   -0.0543   -0.0203    0.0830   -0.0105    0.0008
          33    0.0308   -0.1589    0.0640    0.0019   -0.0521   -0.0013   -0.0240   -0.0004
          34    0.0446    0.0817    0.0291   -0.0117   -0.0600    0.0837   -0.0282    0.0845
          35    0.0360    0.2139   -0.0280   -0.0583    0.0203    0.0855    0.0104    0.0010
          36    0.0306   -0.1596    0.0641    0.0012   -0.0521   -0.0004   -0.0240    0.0003
          37    0.0001    0.0002   -0.0000    0.0056   -0.0001   -0.0154   -0.0001    0.0485
          38   -0.0000   -0.0008    0.0002   -0.0654    0.0001    0.1331    0.0000    0.0163
          39    0.1210    0.2396    0.0425   -0.0021   -0.0670    0.0015   -0.0305    0.0002
          40    0.0000    0.0003   -0.0001    0.0214   -0.0000   -0.0492   -0.0000    0.0599
          41   -0.0000   -0.0002    0.0001   -0.0371    0.0000   -0.0106    0.0000   -0.0187
          42   -0.0153   -0.0037   -0.0194   -0.0001    0.1594   -0.0002    0.0639   -0.0003
          43   -0.0001   -0.0001   -0.0001    0.0192    0.0000    0.0413   -0.0001   -0.0392
          44   -0.0000    0.0001   -0.0000   -0.0021   -0.0000   -0.0171   -0.0001   -0.0106
          45   -0.0910    0.0115   -0.0375   -0.0002   -0.0523    0.0001   -0.1195   -0.0002
          46    0.0001   -0.0000   -0.0000   -0.0421   -0.0000   -0.0567   -0.0001    0.0279
          47    0.0000    0.0000    0.0000    0.0021    0.0000   -0.0006    0.0000   -0.0222
          48    0.0922   -0.0179   -0.0720   -0.0001    0.0247   -0.0000   -0.1129   -0.0003
          49   -0.0000   -0.0001    0.0001    0.0060   -0.0000    0.0238    0.0001    0.0006
          50    0.0000    0.0000   -0.0000    0.0249    0.0000    0.0344    0.0000   -0.0425
          51   -0.0492    0.0190    0.1037    0.0002   -0.0554    0.0001    0.0393   -0.0003
          52    0.0001   -0.0000    0.0001   -0.0241    0.0000   -0.0272    0.0000   -0.0240
          53    0.0000    0.0000   -0.0000    0.0293    0.0001    0.0384    0.0000   -0.0387
          54    0.0649   -0.0048    0.0777    0.0002    0.0733   -0.0002    0.0301    0.0003
          55    0.0330   -0.0012   -0.0332    0.1056   -0.0328    0.0265    0.0524   -0.0521
          56    0.0037    0.0136    0.0274    0.1201    0.0358    0.0149   -0.0779    0.0351
          57   -0.0611    0.0271    0.0585    0.0000    0.0521   -0.0001   -0.0795    0.0019
          58   -0.0330    0.0024    0.0330    0.1058    0.0330    0.0263   -0.0525   -0.0517
          59   -0.0036   -0.0122   -0.0280    0.1202   -0.0357    0.0148    0.0780    0.0354
          60   -0.0610    0.0271    0.0585   -0.0002    0.0520    0.0001   -0.0793   -0.0017


   Root No.       9        10        11        12        13        14        15        16

                 9 A      10 A      11 A      12 A      13 A      14 A      15 A      16 A   

                 420.5     461.8     521.8     546.1     555.6     617.4     717.5     758.0
  
           1   -0.0001   -0.0000   -0.0392    0.0000    0.0224   -0.0201    0.0000    0.0000
           2    0.0000   -0.0000    0.0057    0.0000   -0.0068    0.0024   -0.0000   -0.0000
           3    0.0002   -0.0039   -0.0000   -0.0004    0.0000    0.0000   -0.0005    0.0054
           4    0.0000    0.0000    0.0343   -0.0000    0.0308    0.0323   -0.0000   -0.0000
           5   -0.0000    0.0000    0.0096   -0.0000    0.0228   -0.0284    0.0000    0.0000
           6    0.0560    0.0308   -0.0000   -0.0243   -0.0000   -0.0000   -0.0741    0.0007
           7    0.0001    0.0000   -0.0170   -0.0000    0.0326   -0.0053    0.0001    0.0000
           8   -0.0001   -0.0000    0.0057    0.0000    0.0146   -0.0131   -0.0000   -0.0000
           9    0.0150    0.0576    0.0000   -0.0147   -0.0000   -0.0000    0.0798    0.0241
          10   -0.0001   -0.0000    0.0028    0.0000    0.0320    0.0030   -0.0000    0.0000
          11    0.0000    0.0000    0.0702   -0.0000    0.0367    0.0310   -0.0000    0.0000
          12   -0.0222    0.0072    0.0000    0.0060   -0.0000   -0.0000   -0.0023    0.0149
          13    0.0000   -0.0000    0.0421   -0.0000   -0.0317    0.0318    0.0000   -0.0000
          14   -0.0000   -0.0000   -0.0039   -0.0000   -0.0451   -0.0640    0.0000    0.0000
          15    0.0045   -0.0482   -0.0000   -0.0086    0.0000    0.0000    0.0078   -0.0235
          16   -0.0000    0.0000   -0.0070    0.0000    0.0058   -0.0368   -0.0000   -0.0000
          17    0.0000   -0.0000   -0.0279    0.0000    0.0674    0.0179    0.0000    0.0000
          18   -0.0348    0.0075    0.0000    0.0266   -0.0000    0.0000    0.0011   -0.0204
          19   -0.0000    0.0001    0.0552   -0.0000   -0.0566    0.0078   -0.0000   -0.0000
          20    0.0001    0.0000   -0.0255   -0.0000   -0.0064   -0.0071   -0.0000   -0.0000
          21   -0.0253    0.0437   -0.0001    0.0097    0.0001   -0.0000   -0.0202   -0.0219
          22    0.0001   -0.0000    0.0058   -0.0000   -0.0478   -0.0560    0.0000   -0.0000
          23    0.0001   -0.0000   -0.0195   -0.0000   -0.0006    0.0047   -0.0000   -0.0000
          24    0.0392   -0.0267   -0.0000   -0.0183    0.0000    0.0001    0.0268   -0.0100
          25    0.0001   -0.0000   -0.0099   -0.0000    0.0278   -0.0026   -0.0000    0.0000
          26   -0.0001    0.0000    0.0195   -0.0000   -0.0168   -0.0029   -0.0000   -0.0000
          27    0.0003    0.0001    0.0000    0.0001   -0.0000   -0.0000   -0.0087   -0.0028
          28    0.0000   -0.0000   -0.0625    0.0000   -0.0241    0.0646   -0.0000    0.0000
          29   -0.0001    0.0000   -0.0386    0.0000   -0.0622    0.0665    0.0000   -0.0000
          30   -0.0150   -0.0472    0.0000    0.0067    0.0000   -0.0000   -0.0164   -0.0035
          31   -0.0148    0.0174   -0.1015    0.0078   -0.0060   -0.0608   -0.0100    0.0459
          32   -0.0003   -0.0080   -0.0091   -0.0083   -0.0151   -0.0073    0.0036   -0.0199
          33    0.0019   -0.0130   -0.0005   -0.0078   -0.0014    0.0004    0.0042   -0.0174
          34    0.0145   -0.0174   -0.1018   -0.0077   -0.0060   -0.0610    0.0101   -0.0458
          35    0.0003    0.0079   -0.0090    0.0083   -0.0150   -0.0075   -0.0036    0.0198
          36    0.0018   -0.0131    0.0005   -0.0078    0.0014   -0.0002    0.0042   -0.0174
          37   -0.0000   -0.0000    0.0252   -0.0000    0.0592    0.0205   -0.0000   -0.0000
          38   -0.0000   -0.0000   -0.0675    0.0001   -0.0475   -0.0442    0.0000   -0.0000
          39    0.0154   -0.0132   -0.0000    0.0007    0.0001   -0.0002    0.0070   -0.0230
          40   -0.0001   -0.0000    0.0001    0.0000    0.0491   -0.0191    0.0000    0.0000
          41    0.0000    0.0000    0.0696   -0.0000    0.0356    0.0306    0.0000   -0.0000
          42   -0.1126   -0.0503    0.0001    0.0329    0.0000    0.0001    0.1626   -0.1032
          43    0.0000   -0.0001    0.0232   -0.0000   -0.0546    0.0462    0.0001    0.0001
          44   -0.0000   -0.0001   -0.0013    0.0000   -0.0423   -0.0649    0.0001    0.0001
          45   -0.0455   -0.1535    0.0001    0.0281   -0.0001    0.0001    0.1426    0.1630
          46   -0.0001   -0.0001    0.0067    0.0001    0.0185   -0.0434   -0.0002    0.0000
          47    0.0000   -0.0000   -0.0295    0.0000    0.0650    0.0193    0.0000    0.0000
          48   -0.0913   -0.0567    0.0000    0.1206   -0.0000    0.0001   -0.2110    0.0628
          49   -0.0001    0.0001    0.0626    0.0001   -0.0435    0.0530   -0.0001    0.0002
          50    0.0000    0.0000   -0.0148    0.0000    0.0128    0.0573   -0.0000    0.0000
          51   -0.1187    0.1120   -0.0001    0.0795    0.0000   -0.0001   -0.0571    0.1865
          52    0.0001   -0.0002   -0.0062   -0.0000   -0.0276   -0.0650   -0.0000    0.0002
          53    0.0001    0.0000    0.0125   -0.0000   -0.0520    0.0273   -0.0000    0.0000
          54    0.1106   -0.1432    0.0000   -0.0264   -0.0001    0.0001   -0.0202    0.1766
          55   -0.1043   -0.0519    0.0186   -0.1908    0.0580   -0.0462   -0.0651    0.0043
          56   -0.0797    0.0370    0.0525   -0.2107    0.0075   -0.0475    0.0034    0.0247
          57    0.0126    0.0413    0.0013   -0.0072   -0.0022   -0.0001    0.0237    0.0066
          58    0.1045    0.0519    0.0188    0.1908    0.0579   -0.0462    0.0652   -0.0042
          59    0.0795   -0.0370    0.0527    0.2107    0.0075   -0.0476   -0.0035   -0.0247
          60    0.0126    0.0411   -0.0013   -0.0072    0.0021    0.0001    0.0236    0.0066


   Root No.      17        18        19        20        21        22        23        24

                17 A      18 A      19 A      20 A      21 A      22 A      23 A      24 A   

                 794.9     820.2     846.7     866.7     915.3     968.5     985.7     999.9
  
           1    0.0233    0.0000   -0.0267    0.0000   -0.0000    0.0000    0.0005    0.0000
           2    0.0006   -0.0000   -0.0065    0.0000   -0.0000    0.0000   -0.0007    0.0000
           3    0.0000   -0.0164   -0.0000   -0.0124    0.0033   -0.0089    0.0000   -0.0166
           4   -0.0052    0.0000   -0.0186    0.0000   -0.0000   -0.0000   -0.0008   -0.0000
           5    0.0385    0.0000    0.0071   -0.0000    0.0000    0.0000    0.0006   -0.0000
           6   -0.0000    0.0166    0.0001    0.0362   -0.0107    0.0085    0.0000    0.0053
           7   -0.0104    0.0000    0.0184   -0.0000    0.0000    0.0000    0.0017   -0.0000
           8   -0.0215   -0.0000    0.0231   -0.0000    0.0000   -0.0000    0.0000    0.0000
           9   -0.0000    0.0182   -0.0000   -0.0260    0.0251    0.0116   -0.0000   -0.0115
          10    0.0176    0.0000   -0.0198    0.0000   -0.0000    0.0000   -0.0003   -0.0000
          11    0.0282    0.0000   -0.0369    0.0000   -0.0000   -0.0000    0.0007   -0.0000
          12    0.0000   -0.0251   -0.0000   -0.0096   -0.0019    0.0045   -0.0000    0.0182
          13   -0.0174   -0.0000    0.0233   -0.0000    0.0000   -0.0000    0.0005   -0.0000
          14    0.0659    0.0000    0.0345   -0.0000   -0.0000   -0.0000   -0.0022   -0.0000
          15   -0.0000    0.0012   -0.0001   -0.0262    0.0063   -0.0419   -0.0000   -0.0288
          16   -0.0495   -0.0001    0.0064    0.0000   -0.0000   -0.0000   -0.0038    0.0000
          17   -0.0403   -0.0001    0.0628   -0.0000   -0.0000    0.0000   -0.0052    0.0000
          18    0.0001   -0.0188   -0.0000    0.0244   -0.0021   -0.0407    0.0000    0.0347
          19    0.0107   -0.0000    0.0608   -0.0000    0.0000    0.0000   -0.0009    0.0001
          20   -0.0082    0.0000   -0.0460    0.0000    0.0000    0.0000    0.0020    0.0000
          21    0.0000    0.0015   -0.0001   -0.0261    0.0039    0.0302    0.0000    0.0413
          22   -0.0367   -0.0000   -0.0610    0.0000   -0.0000    0.0000   -0.0037   -0.0001
          23   -0.0128    0.0000   -0.0290    0.0000    0.0000    0.0000    0.0003   -0.0000
          24    0.0001   -0.0195    0.0001    0.0209   -0.0113    0.0280    0.0000   -0.0445
          25    0.0358    0.0000    0.0098    0.0000    0.0001    0.0000   -0.0674   -0.0000
          26   -0.0340   -0.0000   -0.0092   -0.0000   -0.0000   -0.0000   -0.0712    0.0000
          27   -0.0000   -0.0037   -0.0000    0.0084    0.0739    0.0037    0.0000   -0.0015
          28    0.0344    0.0000    0.0012    0.0000   -0.0001   -0.0000    0.0265    0.0000
          29   -0.0080   -0.0000   -0.0102    0.0000    0.0000    0.0000    0.0269   -0.0000
          30   -0.0000   -0.0013   -0.0000   -0.0015   -0.0680   -0.0056   -0.0000    0.0034
          31   -0.0029   -0.1020    0.0436   -0.0656    0.0135   -0.0367    0.0024   -0.0653
          32   -0.0078    0.0451    0.0147    0.0296   -0.0066    0.0172    0.0011    0.0310
          33   -0.0016    0.0347    0.0031    0.0206   -0.0042    0.0100    0.0010    0.0172
          34   -0.0032    0.1018    0.0442    0.0654   -0.0134    0.0366    0.0024    0.0648
          35   -0.0077   -0.0450    0.0145   -0.0295    0.0066   -0.0171    0.0011   -0.0310
          36    0.0015    0.0347   -0.0030    0.0207   -0.0042    0.0100   -0.0010    0.0172
          37    0.0645    0.0002   -0.1169    0.0002   -0.0000    0.0001   -0.0007    0.0003
          38   -0.0440   -0.0001    0.0936   -0.0001    0.0000   -0.0000    0.0010   -0.0002
          39   -0.0000    0.0469    0.0001    0.0279   -0.0028    0.0140   -0.0000    0.0232
          40    0.0598    0.0001   -0.0179    0.0000    0.0000    0.0000    0.0029   -0.0001
          41    0.0284    0.0001   -0.0369    0.0000    0.0000   -0.0000    0.0007   -0.0000
          42   -0.0002    0.2121    0.0002    0.0646    0.0147    0.0046    0.0000   -0.0509
          43   -0.0718   -0.0001   -0.0098    0.0001   -0.0000    0.0001    0.0045    0.0001
          44    0.0727   -0.0000    0.0386    0.0001   -0.0000    0.0002   -0.0026    0.0001
          45   -0.0001   -0.0627   -0.0000    0.1197   -0.0271    0.1973    0.0000    0.1068
          46   -0.0767    0.0000    0.0708   -0.0002   -0.0000    0.0002   -0.0037   -0.0001
          47   -0.0377   -0.0001    0.0568   -0.0000   -0.0000    0.0000   -0.0053    0.0000
          48   -0.0001    0.1042   -0.0000   -0.1271   -0.0058    0.1927    0.0000   -0.1318
          49   -0.0100   -0.0000    0.0815    0.0001   -0.0000   -0.0002    0.0067   -0.0002
          50   -0.0349    0.0000   -0.0183    0.0000    0.0000   -0.0001    0.0130   -0.0001
          51   -0.0001    0.0507    0.0001    0.1439   -0.0169   -0.1503   -0.0000   -0.1524
          52   -0.0646    0.0001   -0.0631   -0.0001    0.0001   -0.0002   -0.0092    0.0002
          53    0.0527    0.0001   -0.0235    0.0000    0.0000   -0.0000    0.0136   -0.0000
          54   -0.0002    0.1273    0.0001   -0.1009    0.0641   -0.1418   -0.0000    0.1663
          55    0.0363   -0.0080    0.0201    0.0242    0.2079    0.0148    0.2802   -0.0069
          56   -0.0609    0.0167   -0.0084   -0.0246   -0.2050   -0.0040    0.2804    0.0007
          57   -0.0099    0.0079   -0.0035   -0.0144   -0.1192   -0.0052   -0.0012    0.0021
          58    0.0363    0.0081    0.0201   -0.0242   -0.2081   -0.0148    0.2801    0.0069
          59   -0.0608   -0.0168   -0.0084    0.0246    0.2052    0.0040    0.2804   -0.0007
          60    0.0097    0.0079    0.0034   -0.0144   -0.1186   -0.0052    0.0011    0.0021


   Root No.      25        26        27        28        29        30        31        32

                25 A      26 A      27 A      28 A      29 A      30 A      31 A      32 A   

                1008.2    1022.9    1085.9    1123.7    1158.0    1166.5    1197.3    1219.9
  
           1    0.0292   -0.0000   -0.0011    0.0056    0.0053   -0.0275    0.0143    0.0002
           2    0.0368   -0.0001    0.0008    0.0074   -0.0015    0.0354   -0.0026    0.0014
           3   -0.0001   -0.0414   -0.0000    0.0000   -0.0000    0.0000   -0.0000    0.0000
           4   -0.0153    0.0000   -0.0031   -0.0159   -0.0088   -0.0008   -0.0322   -0.0021
           5   -0.0214    0.0000    0.0027    0.0150    0.0092    0.0164    0.0120   -0.0185
           6   -0.0001   -0.0275   -0.0000    0.0000    0.0000    0.0000    0.0000    0.0000
           7   -0.0016    0.0000   -0.0022    0.0109   -0.0045   -0.0001    0.0180    0.0160
           8   -0.0038    0.0000    0.0077    0.0223   -0.0100    0.0085    0.0106   -0.0356
           9    0.0000    0.0098    0.0000   -0.0000    0.0000   -0.0000   -0.0000   -0.0000
          10   -0.0064    0.0000    0.0010   -0.0053   -0.0054    0.0248   -0.0226   -0.0096
          11   -0.0272    0.0000    0.0027   -0.0164    0.0016   -0.0450    0.0121    0.0128
          12    0.0001    0.0591    0.0000   -0.0000   -0.0000   -0.0000   -0.0000   -0.0000
          13   -0.0003    0.0000    0.0059   -0.0100   -0.0005    0.0019   -0.0091   -0.0050
          14    0.0210   -0.0000    0.0155   -0.0253   -0.0028   -0.0107   -0.0061    0.0140
          15    0.0001    0.0225   -0.0000    0.0000    0.0000   -0.0000    0.0000   -0.0000
          16    0.0102   -0.0000   -0.0005    0.0056    0.0042   -0.0017    0.0110    0.0068
          17    0.0227   -0.0000   -0.0275   -0.0189    0.0024   -0.0036    0.0018    0.0061
          18   -0.0001   -0.0098   -0.0000   -0.0000   -0.0000    0.0000   -0.0000   -0.0000
          19    0.0081   -0.0000   -0.0219    0.0023    0.0090   -0.0040    0.0020   -0.0001
          20   -0.0067    0.0000    0.0409   -0.0052   -0.0046   -0.0038   -0.0194    0.0023
          21   -0.0001   -0.0176    0.0000   -0.0000   -0.0000    0.0000    0.0000   -0.0000
          22   -0.0078    0.0000   -0.0288    0.0050    0.0081    0.0046    0.0029   -0.0089
          23   -0.0070    0.0000   -0.0330    0.0043    0.0006    0.0017   -0.0122   -0.0053
          24    0.0001    0.0123    0.0000   -0.0000   -0.0000   -0.0000   -0.0000    0.0000
          25   -0.0047    0.0000    0.0054    0.0054   -0.0013    0.0028   -0.0007   -0.0044
          26    0.0028   -0.0000   -0.0037   -0.0024    0.0008   -0.0024    0.0021    0.0035
          27    0.0000    0.0013   -0.0000   -0.0000    0.0000   -0.0000    0.0000    0.0000
          28   -0.0008   -0.0000   -0.0012   -0.0045    0.0008   -0.0013   -0.0020    0.0114
          29    0.0017   -0.0000   -0.0028   -0.0052    0.0006   -0.0002   -0.0042   -0.0096
          30   -0.0000   -0.0031    0.0000    0.0000   -0.0000    0.0000   -0.0000   -0.0000
          31   -0.1389   -0.1562    0.0014   -0.0243    0.0102   -0.1313    0.0488    0.0247
          32   -0.0071    0.0753    0.0020    0.0000   -0.0046    0.0561   -0.0157    0.0037
          33   -0.0034    0.0402    0.0003   -0.0004   -0.0024    0.0247   -0.0116   -0.0015
          34   -0.1391    0.1563    0.0014   -0.0244    0.0102   -0.1316    0.0488    0.0247
          35   -0.0071   -0.0751    0.0020    0.0001   -0.0046    0.0562   -0.0156    0.0038
          36    0.0036    0.0402   -0.0003    0.0004    0.0024   -0.0248    0.0116    0.0014
          37    0.2065   -0.0001   -0.0029    0.0333    0.0154   -0.0298    0.0584    0.0227
          38   -0.1631    0.0002    0.0032   -0.0239   -0.0119    0.0339   -0.0459   -0.0189
          39    0.0000    0.0553    0.0000   -0.0000    0.0000   -0.0001    0.0001    0.0000
          40   -0.1007    0.0002    0.0334   -0.0248   -0.0164    0.3187    0.0372    0.1492
          41   -0.0287   -0.0000    0.0036   -0.0177    0.0011   -0.0479    0.0133    0.0123
          42   -0.0001   -0.1698   -0.0000    0.0000    0.0000    0.0000   -0.0000   -0.0000
          43    0.0159   -0.0001    0.2013   -0.1111   -0.1861    0.0292    0.2359   -0.0600
          44    0.0197   -0.0001   -0.0026   -0.0153    0.0180   -0.0154   -0.0326    0.0201
          45   -0.0003   -0.0768   -0.0001    0.0001    0.0002   -0.0000   -0.0002    0.0000
          46    0.0384   -0.0000    0.2096    0.1082   -0.1653   -0.0844   -0.1966    0.0699
          47    0.0200   -0.0000   -0.0542   -0.0302    0.0207    0.0057    0.0259   -0.0012
          48    0.0001    0.0293   -0.0002   -0.0001    0.0002    0.0001    0.0002   -0.0001
          49   -0.0084    0.0001    0.0741    0.1178    0.1694    0.0007    0.0484    0.0124
          50   -0.0311    0.0001    0.1804    0.1613    0.2232    0.0025    0.0437    0.0216
          51    0.0003    0.0567   -0.0001   -0.0002   -0.0002    0.0000   -0.0001   -0.0000
          52    0.0087   -0.0001    0.0132   -0.0901    0.0913    0.0117   -0.0286   -0.0273
          53   -0.0488    0.0001   -0.1426    0.2494   -0.2075   -0.0166    0.0664    0.0404
          54   -0.0002   -0.0386   -0.0000    0.0001   -0.0001   -0.0000    0.0000    0.0000
          55   -0.0041    0.0002    0.0111    0.0126   -0.0057    0.0164   -0.0166   -0.1342
          56    0.0107   -0.0063   -0.0157   -0.0168    0.0056   -0.0156    0.0153    0.1313
          57    0.0029   -0.0017   -0.0069   -0.0085    0.0037   -0.0109    0.0119    0.1062
          58   -0.0042   -0.0002    0.0111    0.0126   -0.0057    0.0164   -0.0166   -0.1344
          59    0.0108    0.0063   -0.0157   -0.0168    0.0056   -0.0156    0.0153    0.1314
          60   -0.0029   -0.0017    0.0069    0.0085   -0.0037    0.0108   -0.0119   -0.1059


   Root No.      33        34        35        36        37        38        39        40

                33 A      34 A      35 A      36 A      37 A      38 A      39 A      40 A   

                1235.5    1344.7    1369.1    1384.9    1385.7    1433.4    1512.2    1568.8
  
           1    0.0085    0.0018   -0.0291   -0.0010   -0.0083    0.0649   -0.0010    0.0164
           2    0.0012    0.0068    0.0303   -0.0027   -0.0260   -0.0207    0.0007   -0.0095
           3   -0.0000   -0.0000   -0.0000   -0.0415    0.0026   -0.0000   -0.0000    0.0000
           4   -0.0276   -0.0301    0.0106   -0.0003   -0.0033   -0.0295    0.0191    0.0473
           5   -0.0096    0.0453   -0.0136   -0.0005   -0.0054   -0.0124   -0.0285   -0.1150
           6    0.0000    0.0000   -0.0000   -0.0001    0.0000    0.0000   -0.0000   -0.0000
           7   -0.0278    0.0034    0.0328    0.0026    0.0254    0.0301    0.1091   -0.0335
           8   -0.0107    0.0360    0.0241    0.0018    0.0177    0.0099   -0.0023    0.1269
           9    0.0000    0.0000   -0.0000   -0.0003   -0.0000   -0.0000   -0.0001    0.0000
          10   -0.0294   -0.0092   -0.0088   -0.0017   -0.0168   -0.0359   -0.0021   -0.0321
          11    0.0208   -0.0138   -0.0138   -0.0002   -0.0018    0.0211   -0.0018    0.0149
          12   -0.0000    0.0000    0.0000   -0.0013    0.0001   -0.0000   -0.0000    0.0000
          13    0.0046    0.0189    0.0206    0.0017    0.0168    0.0226   -0.0486   -0.0273
          14   -0.0135   -0.0389    0.0002   -0.0006   -0.0064   -0.0117    0.0208    0.0358
          15    0.0000    0.0000   -0.0000   -0.0001   -0.0000   -0.0000    0.0000    0.0000
          16   -0.0003   -0.0384    0.0024   -0.0002   -0.0024    0.0029   -0.0686   -0.0208
          17    0.0169   -0.0184   -0.0185   -0.0014   -0.0137   -0.0115   -0.0271   -0.0062
          18    0.0000    0.0000   -0.0000    0.0001   -0.0000   -0.0000    0.0001    0.0000
          19    0.0143    0.0198   -0.0034    0.0003    0.0033    0.0103    0.0086   -0.0146
          20   -0.0101    0.0012    0.0341    0.0025    0.0244    0.0306   -0.0561   -0.0281
          21   -0.0000   -0.0000   -0.0000   -0.0000   -0.0000   -0.0000    0.0000    0.0000
          22    0.0104    0.0008   -0.0178   -0.0013   -0.0126   -0.0162   -0.0016    0.0202
          23    0.0177    0.0360   -0.0208   -0.0010   -0.0099   -0.0128    0.0721    0.0075
          24   -0.0000   -0.0000    0.0000   -0.0000    0.0000    0.0000   -0.0000   -0.0000
          25   -0.0017    0.0291   -0.0077   -0.0005   -0.0045   -0.0102   -0.0449    0.0558
          26    0.0006   -0.0276    0.0087    0.0006    0.0056    0.0111    0.0457   -0.0535
          27    0.0000   -0.0000    0.0000   -0.0002    0.0000    0.0000    0.0001   -0.0001
          28   -0.0033    0.0062   -0.0047   -0.0003   -0.0031   -0.0032    0.0021   -0.0129
          29    0.0072   -0.0092   -0.0011   -0.0002   -0.0021   -0.0023   -0.0097    0.0142
          30    0.0000   -0.0000    0.0000    0.0003   -0.0000   -0.0000   -0.0000    0.0000
          31    0.0714    0.0097    0.0831    0.2169    0.0388   -0.1252   -0.0043   -0.0139
          32   -0.0142   -0.0231   -0.1034    0.1516    0.1891   -0.0410   -0.0056    0.0022
          33   -0.0163   -0.0192   -0.0959    0.0637    0.1353    0.0033   -0.0040    0.0104
          34    0.0715    0.0096    0.0832   -0.2060    0.0645   -0.1256   -0.0044   -0.0139
          35   -0.0142   -0.0230   -0.1031   -0.1110    0.2047   -0.0413   -0.0056    0.0021
          36    0.0163    0.0193    0.0961    0.0359   -0.1421   -0.0030    0.0040   -0.0104
          37    0.0720    0.0250    0.0609    0.0095    0.0894   -0.0969   -0.0036   -0.0126
          38   -0.0593   -0.0186   -0.0654   -0.0104   -0.1051    0.1327    0.0022    0.0193
          39    0.0001    0.0000   -0.0000    0.4132   -0.0250    0.0002    0.0000   -0.0000
          40    0.1688   -0.0429    0.0397    0.0001    0.0020    0.0553    0.0182    0.0914
          41    0.0209   -0.0141   -0.0160   -0.0004   -0.0036    0.0223   -0.0032    0.0125
          42   -0.0000    0.0000    0.0000   -0.0001   -0.0000   -0.0000   -0.0000   -0.0000
          43   -0.0278    0.0109   -0.0876   -0.0057   -0.0563   -0.0654    0.0614   -0.0142
          44   -0.0122   -0.0409    0.0124    0.0002    0.0014   -0.0030    0.0082    0.0350
          45    0.0000    0.0000    0.0001    0.0001    0.0000    0.0001   -0.0001   -0.0000
          46    0.1122    0.0595   -0.0695   -0.0037   -0.0357   -0.0316    0.0877   -0.0456
          47    0.0055   -0.0302   -0.0125   -0.0012   -0.0115   -0.0092   -0.0469   -0.0005
          48   -0.0001   -0.0001    0.0001   -0.0002    0.0000    0.0000   -0.0001    0.0000
          49    0.0051   -0.0312   -0.0526   -0.0039   -0.0382   -0.0407    0.0655    0.0371
          50   -0.0267   -0.0769   -0.0316   -0.0033   -0.0330   -0.0413    0.0176    0.0470
          51    0.0000    0.0001    0.0001    0.0000    0.0001    0.0001   -0.0001   -0.0001
          52    0.0298    0.0580   -0.0281   -0.0013   -0.0128   -0.0186    0.0615    0.0271
          53   -0.0255   -0.1070   -0.0041   -0.0016   -0.0157   -0.0146   -0.0845   -0.0007
          54   -0.0000   -0.0001    0.0000   -0.0000    0.0000    0.0000   -0.0001   -0.0000
          55    0.0594   -0.0634    0.0155    0.0015    0.0078    0.0110    0.0258   -0.0179
          56   -0.0594    0.0632   -0.0137    0.0005   -0.0083   -0.0107   -0.0236    0.0193
          57   -0.0501    0.0797   -0.0201   -0.0012   -0.0118   -0.0195   -0.0665    0.0718
          58    0.0595   -0.0635    0.0156    0.0001    0.0080    0.0111    0.0260   -0.0181
          59   -0.0594    0.0633   -0.0137   -0.0021   -0.0082   -0.0107   -0.0237    0.0194
          60    0.0500   -0.0795    0.0201    0.0012    0.0117    0.0194    0.0664   -0.0717


   Root No.      41        42        43        44        45        46        47        48

                41 A      42 A      43 A      44 A      45 A      46 A      47 A      48 A   

                1798.7    1838.6    1858.1    2227.4    3019.1    3039.4    3044.8    3052.1
  
           1   -0.0070   -0.0253    0.0177    0.0019    0.0026   -0.0003   -0.0000    0.0000
           2    0.0002    0.0059   -0.0036   -0.0007    0.0065   -0.0005   -0.0001    0.0001
           3    0.0000    0.0000   -0.0000   -0.0000    0.0000   -0.0000   -0.0573   -0.0000
           4   -0.0588   -0.0909    0.1131    0.0092    0.0037   -0.0007    0.0000    0.0005
           5   -0.0259   -0.0727    0.0483   -0.0031    0.0016   -0.0002   -0.0000    0.0003
           6    0.0000    0.0000   -0.0000   -0.0000   -0.0000    0.0000   -0.0000   -0.0000
           7   -0.0140   -0.0057   -0.0322   -0.1202    0.0002   -0.0004   -0.0000    0.0002
           8    0.0126    0.0211   -0.0159    0.1100    0.0005    0.0005    0.0000   -0.0001
           9    0.0000    0.0000    0.0000    0.0001    0.0000    0.0000    0.0001   -0.0000
          10    0.0433    0.1229   -0.0996   -0.0090   -0.0033    0.0007   -0.0000   -0.0002
          11    0.0184    0.0352   -0.0318   -0.0012   -0.0634    0.0032   -0.0000   -0.0002
          12   -0.0000   -0.0000    0.0000    0.0000    0.0000   -0.0000   -0.0001    0.0000
          13    0.1145   -0.1077   -0.0805   -0.0040   -0.0011   -0.0077    0.0000    0.0008
          14    0.0354   -0.0304   -0.0132   -0.0029   -0.0039   -0.0523    0.0000    0.0041
          15   -0.0001    0.0001    0.0001    0.0000    0.0000    0.0000   -0.0001   -0.0000
          16    0.1176    0.0523    0.0972   -0.0072    0.0000    0.0001    0.0000   -0.0038
          17   -0.0705   -0.0235   -0.0478    0.0024   -0.0001   -0.0012    0.0000   -0.0398
          18   -0.0001   -0.0001   -0.0001    0.0000    0.0000   -0.0000   -0.0000    0.0000
          19   -0.0929    0.1034    0.0562    0.0030   -0.0005   -0.0131    0.0000   -0.0054
          20   -0.0890    0.0581    0.0204    0.0047    0.0006    0.0121   -0.0000    0.0030
          21    0.0001   -0.0001   -0.0001   -0.0000    0.0000    0.0000    0.0000    0.0000
          22   -0.0882   -0.0455   -0.0735    0.0092   -0.0001    0.0021   -0.0000    0.0255
          23    0.1217    0.0211    0.0662   -0.0082    0.0001    0.0010   -0.0000    0.0112
          24    0.0001    0.0000    0.0001   -0.0000    0.0000   -0.0000   -0.0000   -0.0000
          25   -0.0016    0.0031    0.0038   -0.1116    0.0000    0.0000    0.0000    0.0000
          26    0.0020   -0.0027   -0.0041    0.1095   -0.0000   -0.0000   -0.0000   -0.0001
          27    0.0000   -0.0000   -0.0000    0.0001    0.0000    0.0000    0.0001   -0.0000
          28    0.0002   -0.0031   -0.0032    0.2364    0.0002    0.0001   -0.0000   -0.0004
          29   -0.0073   -0.0008    0.0039   -0.2190   -0.0001   -0.0001    0.0000   -0.0000
          30   -0.0000    0.0000    0.0000   -0.0003   -0.0000   -0.0000   -0.0002    0.0000
          31    0.0081    0.0151   -0.0123   -0.0001    0.0029   -0.0003    0.0471    0.0001
          32    0.0054    0.0089   -0.0072   -0.0005   -0.0169    0.0014   -0.2736   -0.0002
          33    0.0037    0.0005   -0.0019    0.0012    0.0295   -0.0024    0.3594    0.0004
          34    0.0082    0.0152   -0.0123   -0.0001    0.0029   -0.0003   -0.0469    0.0001
          35    0.0054    0.0089   -0.0072   -0.0005   -0.0172    0.0015    0.2750   -0.0002
          36   -0.0038   -0.0005    0.0019   -0.0012   -0.0297    0.0025    0.3592   -0.0004
          37   -0.0092   -0.0233    0.0183    0.0010   -0.0402    0.0037    0.0001   -0.0004
          38    0.0046    0.0072   -0.0073    0.0002   -0.0443    0.0038    0.0000   -0.0004
          39   -0.0000   -0.0000    0.0000    0.0000    0.0001   -0.0000   -0.0290    0.0000
          40   -0.0173   -0.0257    0.0325    0.0041    0.0048    0.0023   -0.0000   -0.0002
          41    0.0261    0.0491   -0.0467   -0.0041    0.7336   -0.0391    0.0003    0.0022
          42    0.0000   -0.0000   -0.0000    0.0000   -0.0002    0.0000   -0.0026   -0.0000
          43   -0.0239   -0.0015    0.0458    0.0009    0.0018    0.0637   -0.0000   -0.0055
          44    0.0662   -0.0630   -0.0356   -0.0070    0.0441    0.6057   -0.0001   -0.0470
          45   -0.0000    0.0000   -0.0000    0.0000   -0.0000   -0.0005    0.0000    0.0000
          46   -0.0365   -0.0305   -0.0354   -0.0145   -0.0001    0.0015   -0.0000    0.0541
          47   -0.0728   -0.0216   -0.0506    0.0110   -0.0001    0.0123   -0.0000    0.4635
          48    0.0000    0.0000    0.0000    0.0000    0.0000   -0.0000    0.0000   -0.0000
          49   -0.0345    0.0343    0.0142    0.0008    0.0081    0.1817   -0.0000    0.0564
          50    0.0214   -0.0727   -0.0545    0.0003   -0.0060   -0.1309    0.0000   -0.0366
          51    0.0000   -0.0000    0.0000   -0.0000   -0.0000   -0.0002    0.0001   -0.0001
          52   -0.0491   -0.0250   -0.0415    0.0113    0.0008   -0.0230    0.0000   -0.3105
          53   -0.0303   -0.0526   -0.0556    0.0032    0.0004   -0.0077    0.0000   -0.1244
          54    0.0000    0.0000    0.0000   -0.0000   -0.0000    0.0000    0.0000    0.0004
          55   -0.0013   -0.0000    0.0001   -0.0477   -0.0004   -0.0001   -0.0005   -0.0001
          56    0.0018    0.0010   -0.0017    0.0498    0.0005    0.0001   -0.0000    0.0002
          57    0.0003    0.0042    0.0039   -0.1101   -0.0011   -0.0003   -0.0005   -0.0004
          58   -0.0013   -0.0000    0.0001   -0.0475   -0.0004   -0.0001    0.0005   -0.0001
          59    0.0018    0.0010   -0.0017    0.0496    0.0005    0.0001    0.0000    0.0002
          60   -0.0003   -0.0042   -0.0039    0.1102    0.0011    0.0003   -0.0005    0.0004


   Root No.      49        50        51        52        53        54

                49 A      50 A      51 A      52 A      53 A      54 A   

                3065.1    3075.4    3076.6    3112.0    3115.6    3160.1
  
           1    0.0001   -0.0170   -0.0006   -0.0003    0.0000   -0.0256
           2    0.0003   -0.0415   -0.0015   -0.0003    0.0000    0.0039
           3   -0.0000    0.0001    0.0000    0.0000   -0.0001   -0.0000
           4    0.0004    0.0003    0.0006   -0.0001    0.0000    0.0006
           5   -0.0000   -0.0002    0.0002   -0.0003    0.0000    0.0002
           6   -0.0000    0.0000   -0.0000   -0.0000   -0.0000   -0.0000
           7   -0.0004   -0.0000    0.0007    0.0004   -0.0000    0.0001
           8    0.0001    0.0002   -0.0003   -0.0004    0.0000   -0.0002
           9    0.0000    0.0000   -0.0000   -0.0000   -0.0002   -0.0000
          10   -0.0002    0.0004   -0.0002    0.0001   -0.0000   -0.0006
          11   -0.0003   -0.0046   -0.0003    0.0001   -0.0000   -0.0005
          12    0.0000    0.0000    0.0000   -0.0000   -0.0000    0.0000
          13    0.0040   -0.0000    0.0030    0.0001   -0.0000   -0.0001
          14    0.0124   -0.0001    0.0086    0.0001   -0.0000    0.0001
          15   -0.0000    0.0000   -0.0000   -0.0000    0.0000    0.0000
          16    0.0000   -0.0000    0.0009    0.0004   -0.0000   -0.0000
          17    0.0189    0.0008   -0.0183   -0.0001    0.0000    0.0000
          18    0.0000   -0.0000   -0.0000   -0.0000   -0.0000    0.0000
          19   -0.0276    0.0006   -0.0205   -0.0001    0.0000    0.0001
          20    0.0162   -0.0005    0.0130   -0.0000    0.0000    0.0000
          21    0.0000   -0.0000    0.0000    0.0000   -0.0000   -0.0000
          22    0.0178    0.0013   -0.0290   -0.0005    0.0000    0.0000
          23    0.0044    0.0005   -0.0092    0.0000    0.0000   -0.0001
          24   -0.0000   -0.0000    0.0000    0.0000   -0.0000    0.0000
          25    0.0000   -0.0001   -0.0001    0.0337   -0.0001   -0.0002
          26    0.0000    0.0002    0.0001   -0.0330    0.0001    0.0002
          27    0.0000   -0.0000    0.0000   -0.0001   -0.0648   -0.0000
          28    0.0003    0.0002   -0.0004   -0.0059    0.0000   -0.0001
          29   -0.0001    0.0000    0.0002    0.0057   -0.0000   -0.0001
          30   -0.0000   -0.0000    0.0000    0.0000   -0.0005    0.0000
          31    0.0003   -0.0338   -0.0012   -0.0002    0.0001    0.0172
          32   -0.0009    0.1264    0.0045    0.0001   -0.0003   -0.1618
          33    0.0015   -0.2126   -0.0077   -0.0004    0.0005    0.2358
          34    0.0003   -0.0335   -0.0012   -0.0002   -0.0001    0.0169
          35   -0.0009    0.1267    0.0046    0.0000    0.0003   -0.1623
          36   -0.0015    0.2119    0.0077    0.0004    0.0005   -0.2351
          37   -0.0017    0.2623    0.0096    0.0038   -0.0000    0.2736
          38   -0.0016    0.2412    0.0088    0.0038   -0.0000    0.2770
          39    0.0000   -0.0005   -0.0000   -0.0000   -0.0000   -0.0005
          40   -0.0005   -0.0030   -0.0005   -0.0000    0.0000   -0.0003
          41    0.0031    0.0527    0.0031   -0.0008   -0.0000    0.0052
          42   -0.0000   -0.0000   -0.0000    0.0000    0.0000   -0.0000
          43   -0.0164   -0.0001   -0.0107   -0.0002    0.0000   -0.0000
          44   -0.1327    0.0009   -0.0860   -0.0009    0.0000   -0.0002
          45    0.0001   -0.0000    0.0001    0.0000   -0.0000    0.0000
          46   -0.0223   -0.0009    0.0194    0.0002   -0.0000    0.0000
          47   -0.2091   -0.0088    0.1885    0.0015   -0.0000   -0.0001
          48    0.0000    0.0000   -0.0000   -0.0000    0.0000   -0.0000
          49    0.2958   -0.0074    0.2174    0.0012   -0.0000   -0.0003
          50   -0.2041    0.0053   -0.1536   -0.0008    0.0000    0.0002
          51   -0.0003    0.0000   -0.0002   -0.0000    0.0000    0.0000
          52   -0.1894   -0.0142    0.3092    0.0035   -0.0000    0.0000
          53   -0.0709   -0.0056    0.1221    0.0014   -0.0000    0.0000
          54    0.0002    0.0000   -0.0004   -0.0000    0.0000   -0.0000
          55   -0.0002    0.0008    0.0009   -0.1691    0.1831    0.0007
          56    0.0002   -0.0008   -0.0009    0.1657   -0.1795   -0.0007
          57   -0.0005    0.0019    0.0021   -0.3983    0.3902    0.0017
          58   -0.0002    0.0008    0.0009   -0.1688   -0.1823    0.0007
          59    0.0002   -0.0008   -0.0009    0.1654    0.1787   -0.0007
          60    0.0005   -0.0019   -0.0021    0.3994    0.3901   -0.0017


           MASS-WEIGHTED COORDINATE ANALYSIS (NORMAL COORDINATES)


   Root No.       1         2         3         4         5         6         7         8

                 1 A       2 A       3 A       4 A       5 A       6 A       7 A       8 A   

                  26.4     119.3     148.5     159.2     224.9     242.7     311.2     393.3
  
           1   -0.0003   -0.0019    0.0000   -0.0243    0.0004    0.2689   -0.0002    0.4246
           2   -0.0005   -0.0055    0.0012   -0.3470    0.0004    0.5271    0.0000   -0.0224
           3    0.3887   -0.1179    0.2953    0.0013   -0.2296   -0.0004   -0.0925   -0.0000
           4   -0.0001   -0.0007   -0.0001   -0.0434    0.0000    0.0668   -0.0001    0.1262
           5    0.0000    0.0004    0.0001   -0.1052   -0.0003   -0.2523   -0.0001    0.1494
           6   -0.0961   -0.0324   -0.3333   -0.0005    0.0601   -0.0000   -0.0410    0.0006
           7    0.0001   -0.0004    0.0000   -0.1578   -0.0004   -0.1426    0.0001   -0.1963
           8   -0.0000    0.0004    0.0001   -0.0952   -0.0002   -0.2344   -0.0001    0.2212
           9    0.0539   -0.0315   -0.3711   -0.0005   -0.2409    0.0005    0.0802    0.0002
          10   -0.0000    0.0001   -0.0003    0.0270    0.0000   -0.0192   -0.0001    0.3054
          11   -0.0001   -0.0011    0.0005   -0.2332   -0.0001   -0.0887    0.0001   -0.1227
          12    0.0375   -0.0359   -0.1309   -0.0004    0.5463   -0.0006    0.2137   -0.0006
          13   -0.0002   -0.0004   -0.0001    0.0310   -0.0000    0.1489   -0.0002   -0.0336
          14   -0.0001    0.0006   -0.0000   -0.0024   -0.0001   -0.1094   -0.0001   -0.0911
          15   -0.3705    0.0407   -0.1381   -0.0005   -0.1673    0.0002   -0.3559   -0.0003
          16    0.0004   -0.0002    0.0001   -0.1850   -0.0003   -0.2404   -0.0003   -0.0740
          17    0.0000    0.0002    0.0000    0.0030    0.0000   -0.0222    0.0000   -0.1170
          18    0.3855   -0.0640   -0.2715   -0.0002    0.0448    0.0001   -0.3130   -0.0007
          19   -0.0001   -0.0003    0.0005   -0.0098   -0.0001    0.0666    0.0003    0.0123
          20    0.0001    0.0003   -0.0000    0.0882    0.0002    0.0978    0.0001   -0.2708
          21   -0.1917    0.0659    0.3887    0.0006   -0.1639    0.0003    0.1568   -0.0003
          22    0.0003   -0.0002    0.0007   -0.1182    0.0001   -0.1351    0.0003   -0.1566
          23    0.0001    0.0002   -0.0001    0.0989    0.0002    0.1242    0.0001   -0.2580
          24    0.2659   -0.0132    0.2951    0.0008    0.2185   -0.0004    0.1471    0.0009
          25   -0.0001    0.0031   -0.0007    0.4448    0.0004    0.0780   -0.0001   -0.2880
          26    0.0004    0.0039   -0.0015    0.5299    0.0001   -0.0047    0.0000    0.2450
          27   -0.3699    0.1475    0.2337   -0.0005    0.1701    0.0001   -0.1498    0.0004
          28   -0.0000    0.0009   -0.0001   -0.0571   -0.0005   -0.1730    0.0006   -0.1960
          29    0.0001    0.0017   -0.0003    0.0211   -0.0002   -0.2620   -0.0002    0.2906
          30   -0.1436    0.0533   -0.1834   -0.0006   -0.2949    0.0005    0.5671    0.0001
          31   -0.1006   -0.1738   -0.0635   -0.0191    0.1429    0.1702    0.0615    0.1589
          32   -0.0813   -0.4518    0.0622   -0.0993   -0.0480    0.1714   -0.0228    0.0014
          33    0.0691   -0.3323    0.1400    0.0035   -0.1235   -0.0028   -0.0525   -0.0008
          34    0.1001    0.1708    0.0636   -0.0214   -0.1422    0.1727   -0.0615    0.1594
          35    0.0808    0.4472   -0.0613   -0.1066    0.0482    0.1764    0.0228    0.0018
          36    0.0688   -0.3337    0.1401    0.0021   -0.1235   -0.0008   -0.0525    0.0005
          37    0.0002    0.0005   -0.0000    0.0102   -0.0002   -0.0319   -0.0001    0.0915
          38   -0.0001   -0.0017    0.0004   -0.1195    0.0003    0.2748    0.0000    0.0307
          39    0.2718    0.5010    0.0928   -0.0038   -0.1588    0.0031   -0.0665    0.0004
          40    0.0001    0.0007   -0.0002    0.0392   -0.0001   -0.1015   -0.0001    0.1129
          41   -0.0000   -0.0004    0.0001   -0.0677    0.0000   -0.0218    0.0000   -0.0352
          42   -0.0343   -0.0077   -0.0425   -0.0002    0.3778   -0.0004    0.1395   -0.0006
          43   -0.0001   -0.0001   -0.0001    0.0350    0.0000    0.0852   -0.0002   -0.0740
          44   -0.0001    0.0002   -0.0000   -0.0038   -0.0001   -0.0354   -0.0002   -0.0201
          45   -0.2044    0.0240   -0.0820   -0.0003   -0.1238    0.0002   -0.2609   -0.0004
          46    0.0002   -0.0000   -0.0000   -0.0770   -0.0001   -0.1171   -0.0003    0.0527
          47    0.0000    0.0000    0.0000    0.0039    0.0000   -0.0012    0.0000   -0.0418
          48    0.2069   -0.0374   -0.1574   -0.0002    0.0585   -0.0000   -0.2464   -0.0007
          49   -0.0001   -0.0001    0.0003    0.0109   -0.0001    0.0492    0.0001    0.0011
          50    0.0000    0.0000   -0.0000    0.0454    0.0001    0.0711    0.0001   -0.0801
          51   -0.1105    0.0398    0.2267    0.0003   -0.1312    0.0002    0.0859   -0.0005
          52    0.0002   -0.0001    0.0003   -0.0441    0.0001   -0.0561    0.0001   -0.0452
          53    0.0001    0.0000   -0.0001    0.0535    0.0001    0.0792    0.0001   -0.0729
          54    0.1457   -0.0100    0.1699    0.0005    0.1738   -0.0003    0.0658    0.0007
          55    0.0740   -0.0025   -0.0726    0.1930   -0.0777    0.0547    0.1143   -0.0982
          56    0.0083    0.0283    0.0600    0.2194    0.0848    0.0307   -0.1701    0.0662
          57   -0.1372    0.0566    0.1280    0.0001    0.1234   -0.0002   -0.1736    0.0035
          58   -0.0741    0.0050    0.0721    0.1933    0.0783    0.0543   -0.1146   -0.0975
          59   -0.0080   -0.0255   -0.0612    0.2196   -0.0847    0.0306    0.1703    0.0667
          60   -0.1371    0.0566    0.1278   -0.0003    0.1232    0.0001   -0.1732   -0.0032


   Root No.       9        10        11        12        13        14        15        16

                 9 A      10 A      11 A      12 A      13 A      14 A      15 A      16 A   

                 420.5     461.8     521.8     546.1     555.6     617.4     717.5     758.0
  
           1   -0.0008   -0.0002   -0.2516    0.0002    0.1363   -0.1262    0.0000    0.0001
           2    0.0002   -0.0001    0.0366    0.0000   -0.0414    0.0150   -0.0001   -0.0000
           3    0.0013   -0.0288   -0.0000   -0.0031    0.0000    0.0000   -0.0035    0.0497
           4    0.0001    0.0002    0.2202   -0.0001    0.1875    0.2024   -0.0002   -0.0000
           5   -0.0003    0.0000    0.0616   -0.0000    0.1390   -0.1781    0.0000    0.0001
           6    0.4634    0.2304   -0.0003   -0.1830   -0.0003   -0.0003   -0.4971    0.0065
           7    0.0005    0.0004   -0.1088   -0.0001    0.1985   -0.0334    0.0005    0.0002
           8   -0.0004   -0.0000    0.0364    0.0001    0.0891   -0.0822   -0.0001   -0.0001
           9    0.1239    0.4311    0.0000   -0.1108   -0.0002   -0.0002    0.5357    0.2194
          10   -0.0005   -0.0000    0.0179    0.0001    0.1948    0.0191   -0.0000    0.0001
          11    0.0004    0.0003    0.4506   -0.0002    0.2237    0.1945   -0.0001    0.0002
          12   -0.1836    0.0537    0.0001    0.0451   -0.0001   -0.0000   -0.0152    0.1363
          13    0.0001   -0.0002    0.2701   -0.0002   -0.1932    0.1993    0.0000   -0.0002
          14   -0.0000   -0.0003   -0.0249   -0.0001   -0.2749   -0.4015    0.0001    0.0000
          15    0.0375   -0.3605   -0.0000   -0.0648    0.0001    0.0001    0.0523   -0.2147
          16   -0.0002    0.0000   -0.0452    0.0002    0.0355   -0.2306   -0.0001   -0.0003
          17    0.0003   -0.0001   -0.1789    0.0001    0.4102    0.1122    0.0001    0.0000
          18   -0.2878    0.0563    0.0001    0.2004   -0.0000    0.0002    0.0072   -0.1862
          19   -0.0003    0.0005    0.3539   -0.0001   -0.3443    0.0490   -0.0001   -0.0002
          20    0.0005    0.0001   -0.1635   -0.0000   -0.0388   -0.0442   -0.0001   -0.0001
          21   -0.2091    0.3266   -0.0004    0.0727    0.0004   -0.0001   -0.1358   -0.2002
          22    0.0006   -0.0002    0.0369   -0.0003   -0.2912   -0.3513    0.0000   -0.0003
          23    0.0005   -0.0000   -0.1252   -0.0000   -0.0037    0.0296   -0.0000   -0.0000
          24    0.3246   -0.1997   -0.0000   -0.1376    0.0002    0.0003    0.1801   -0.0913
          25    0.0006   -0.0000   -0.0637   -0.0000    0.1694   -0.0166   -0.0000    0.0001
          26   -0.0005    0.0000    0.1252   -0.0000   -0.1024   -0.0180   -0.0000   -0.0001
          27    0.0023    0.0004    0.0001    0.0010   -0.0002   -0.0000   -0.0582   -0.0257
          28    0.0003   -0.0003   -0.4007    0.0001   -0.1469    0.4054   -0.0000    0.0001
[...]
 TRAVEL (Ang.)       0.3418         C  1 -- H 12         +18.1% ( 36.7%)     14.1%
 REDUCED MASS        0.4168         C  1 -- C  4          +4.9% ( 19.0%)      0.2%
 EFFECTIVE MASS      1.5546
 FORCE CONSTANT      0.4710

 VIBRATION         37   37A           ATOM PAIR      ENERGY CONTRIBUTION    RADIAL
 FREQUENCY          1385.69         C  1 -- H 12         +24.3% ( 50.6%)      1.4%
 TRANSITION DIPOLE   0.0661         C  1 -- H 11         +20.4% ( 46.5%)      2.8%
 TRAVEL (Ang.)       0.3914         C  1 -- H 13          +7.2% ( 27.6%)     38.5%
 REDUCED MASS        0.3177         C  3 -- C  6          +6.4% ( 26.1%)     79.0%
 EFFECTIVE MASS      3.2928
 FORCE CONSTANT      0.3595

 VIBRATION         38   38A           ATOM PAIR      ENERGY CONTRIBUTION    RADIAL
 FREQUENCY          1433.42         C  1 -- C  4         +18.0% ( 60.2%)     99.7%
 TRANSITION DIPOLE   0.0910         C  1 -- H 13         +13.6% ( 52.4%)      6.8%
 TRAVEL (Ang.)       0.2001         C  1 -- H 12         +12.3% ( 49.8%)      2.6%
 REDUCED MASS        1.1752         C  1 -- H 11         +12.3% ( 49.8%)      2.6%
 EFFECTIVE MASS      7.7994
 FORCE CONSTANT      1.4227

 VIBRATION         39   39A           ATOM PAIR      ENERGY CONTRIBUTION    RADIAL
 FREQUENCY          1512.15         C  3 -- C  6         +20.3% ( 69.1%)     94.8%
 TRANSITION DIPOLE   0.1197         C  2 -- C  3         +11.8% ( 52.7%)     15.8%
 TRAVEL (Ang.)       0.1486         C  3 -- C 10         +10.3% ( 49.3%)     49.7%
 REDUCED MASS        2.0183         C  7 -- C  8          +9.9% ( 48.3%)     96.1%
 EFFECTIVE MASS     11.0933
 FORCE CONSTANT      2.7191

 VIBRATION         40   40A           ATOM PAIR      ENERGY CONTRIBUTION    RADIAL
 FREQUENCY          1568.79         C  2 -- C  3         +28.2% ( 81.5%)     81.3%
 TRANSITION DIPOLE   0.1321         C  3 -- C  6         +13.2% ( 55.7%)      7.4%
 TRAVEL (Ang.)       0.1170         C  2 -- C  5         +12.2% ( 53.7%)     75.1%
 REDUCED MASS        3.1396         C  3 -- C 10         +10.9% ( 50.6%)     61.3%
 EFFECTIVE MASS     11.5340
 FORCE CONSTANT      4.5526

 VIBRATION         41   41A           ATOM PAIR      ENERGY CONTRIBUTION    RADIAL
 FREQUENCY          1798.71         C  6 -- C  8         +22.8% ( 72.5%)     99.0%
 TRANSITION DIPOLE   0.5087         C  5 -- C  7         +16.9% ( 62.3%)     98.5%
 TRAVEL (Ang.)       0.1218         C  7 -- C  8         +14.9% ( 58.6%)     99.1%
 REDUCED MASS        2.5253         C  8 -- H 18          +7.5% ( 41.5%)      2.0%
 EFFECTIVE MASS     11.9597
 FORCE CONSTANT      4.8137

 VIBRATION         42   42A           ATOM PAIR      ENERGY CONTRIBUTION    RADIAL
 FREQUENCY          1838.57         C  2 -- C  4         +20.8% ( 66.9%)     99.9%
 TRANSITION DIPOLE   0.3366         C  5 -- C  7         +19.1% ( 64.1%)    100.0%
 TRAVEL (Ang.)       0.1254         C  2 -- C  5         +10.5% ( 47.4%)     67.7%
 REDUCED MASS        2.3328         C  1 -- C  4          +8.1% ( 41.6%)     63.9%
 EFFECTIVE MASS     11.8723
 FORCE CONSTANT      4.6461

 VIBRATION         43   43A           ATOM PAIR      ENERGY CONTRIBUTION    RADIAL
 FREQUENCY          1858.15         C  2 -- C  4         +19.0% ( 64.1%)     98.3%
 TRANSITION DIPOLE   0.7679         C  6 -- C  8         +15.9% ( 58.7%)     99.6%
 TRAVEL (Ang.)       0.1327         C  2 -- C  5         +11.4% ( 49.6%)     38.9%
 REDUCED MASS        2.0613         C  2 -- C  3          +8.0% ( 41.7%)     26.5%
 EFFECTIVE MASS     11.8221
 FORCE CONSTANT      4.1933

 VIBRATION         44   44A           ATOM PAIR      ENERGY CONTRIBUTION    RADIAL
 FREQUENCY          2227.41         C  9 -- C 10         +42.2% ( 85.7%)     99.9%
 TRANSITION DIPOLE   0.6836         C  3 -- C 10         +41.2% ( 84.6%)     99.9%
 TRAVEL (Ang.)       0.0722         C  2 -- C  3          +4.4% ( 27.6%)     31.3%
 REDUCED MASS        5.8032         C  3 -- C  6          +4.3% ( 27.3%)     18.2%
 EFFECTIVE MASS     11.9045
 FORCE CONSTANT     16.9635

 VIBRATION         45   45A           ATOM PAIR      ENERGY CONTRIBUTION    RADIAL
 FREQUENCY          3019.11         C  4 -- H 14         +95.8% ( 99.3%)    100.0%
 TRANSITION DIPOLE   0.3715         C  2 -- C  4          +1.4% ( 11.8%)     31.8%
 TRAVEL (Ang.)       0.1573         C  1 -- C  4          +1.3% ( 11.7%)     12.8%
 REDUCED MASS        0.9024         C  1 -- H 13          +0.7% (  8.5%)     96.2%
 EFFECTIVE MASS      1.5039
 FORCE CONSTANT      4.8464

 VIBRATION         46   46A           ATOM PAIR      ENERGY CONTRIBUTION    RADIAL
 FREQUENCY          3039.40         C  5 -- H 15         +85.2% ( 93.7%)    100.0%
 TRANSITION DIPOLE   0.2689         C  7 -- H 17         +11.5% ( 34.5%)     99.8%
 TRAVEL (Ang.)       0.1745         C  5 -- C  7          +1.3% ( 11.6%)     10.7%
 REDUCED MASS        0.7288         C  2 -- C  5          +1.2% ( 11.4%)     19.4%
 EFFECTIVE MASS      1.4905
 FORCE CONSTANT      3.9668

 VIBRATION         47   47A           ATOM PAIR      ENERGY CONTRIBUTION    RADIAL
 FREQUENCY          3044.82         C  1 -- H 12         +49.1% ( 72.4%)     97.0%
 TRANSITION DIPOLE   0.0792         C  1 -- H 11         +49.0% ( 72.3%)     96.9%
 TRAVEL (Ang.)       0.2087         C  1 -- C  4          +1.0% ( 10.1%)      0.0%
 REDUCED MASS        0.5085         C  1 -- H 13          +0.9% (  9.8%)      0.0%
 EFFECTIVE MASS      1.4964
 FORCE CONSTANT      2.7777

 VIBRATION         48   48A           ATOM PAIR      ENERGY CONTRIBUTION    RADIAL
 FREQUENCY          3052.14         C  6 -- H 16         +63.1% ( 80.7%)    100.0%
 TRANSITION DIPOLE   0.2521         C  8 -- H 18         +32.4% ( 57.8%)    100.0%
 TRAVEL (Ang.)       0.2117         C  7 -- H 17          +1.3% ( 11.7%)     99.8%
 REDUCED MASS        0.4931         C  6 -- C  8          +1.2% ( 10.9%)      1.6%
 EFFECTIVE MASS      1.4747
 FORCE CONSTANT      2.7064

 VIBRATION         49   49A           ATOM PAIR      ENERGY CONTRIBUTION    RADIAL
 FREQUENCY          3065.08         C  7 -- H 17         +53.7% ( 74.5%)    100.0%
 TRANSITION DIPOLE   0.3354         C  6 -- H 16         +18.3% ( 43.5%)     99.9%
 TRAVEL (Ang.)       0.2489         C  8 -- H 18         +17.1% ( 42.0%)     99.8%
 REDUCED MASS        0.3552         C  5 -- H 15          +7.4% ( 27.7%)     99.7%
 EFFECTIVE MASS      1.5586
 FORCE CONSTANT      1.9663

 VIBRATION         50   50A           ATOM PAIR      ENERGY CONTRIBUTION    RADIAL
 FREQUENCY          3075.42         C  1 -- H 13         +50.5% ( 73.1%)     98.2%
 TRANSITION DIPOLE   0.0816         C  1 -- H 11         +23.7% ( 50.1%)     89.2%
 TRAVEL (Ang.)       0.2347         C  1 -- H 12         +23.6% ( 50.0%)     89.1%
 REDUCED MASS        0.3980         C  1 -- C  4          +1.0% ( 10.3%)      0.0%
 EFFECTIVE MASS      1.5020
 FORCE CONSTANT      2.2177

 VIBRATION         51   51A           ATOM PAIR      ENERGY CONTRIBUTION    RADIAL
 FREQUENCY          3076.62         C  8 -- H 18         +47.3% ( 69.7%)    100.0%
 TRANSITION DIPOLE   0.4609         C  7 -- H 17         +30.3% ( 55.8%)    100.0%
 TRAVEL (Ang.)       0.2537         C  6 -- H 16         +15.4% ( 39.8%)     99.8%
 REDUCED MASS        0.3406         C  5 -- H 15          +3.2% ( 18.2%)     99.6%
 EFFECTIVE MASS      1.5968
 FORCE CONSTANT      1.8995

 VIBRATION         52   52A           ATOM PAIR      ENERGY CONTRIBUTION    RADIAL
 FREQUENCY          3112.00         C  9 -- H 20         +49.2% ( 70.2%)     95.2%
 TRANSITION DIPOLE   0.3870         C  9 -- H 19         +49.0% ( 70.1%)     95.2%
 TRAVEL (Ang.)       0.2112         C  9 -- C 10          +1.7% ( 13.2%)    100.0%
 REDUCED MASS        0.4858
 EFFECTIVE MASS      1.4091
 FORCE CONSTANT      2.7719

 VIBRATION         53   53A           ATOM PAIR      ENERGY CONTRIBUTION    RADIAL
 FREQUENCY          3115.64         C  9 -- H 19         +49.5% ( 72.0%)     97.1%
 TRANSITION DIPOLE   0.2397         C  9 -- H 20         +49.3% ( 71.9%)     97.1%
 TRAVEL (Ang.)       0.2015         C  9 -- C 10          +1.2% ( 11.2%)      0.0%
 REDUCED MASS        0.5329
 EFFECTIVE MASS      1.5926
 FORCE CONSTANT      3.0479

 VIBRATION         54   54A           ATOM PAIR      ENERGY CONTRIBUTION    RADIAL
 FREQUENCY          3160.06         C  1 -- H 13         +49.2% ( 67.7%)     98.8%
 TRANSITION DIPOLE   0.0883         C  1 -- H 11         +25.2% ( 48.5%)     95.0%
 TRAVEL (Ang.)       0.2442         C  1 -- H 12         +25.2% ( 48.4%)     95.0%
 REDUCED MASS        0.3579         C  1 -- C  4          +0.3% (  5.6%)     92.6%
 EFFECTIVE MASS      1.1496
 FORCE CONSTANT      2.1056

      SYMMETRY NUMBER FOR POINT-GROUP C1  =  1


          SYSTEM IS A GROUND STATE



 InChI=1S/C10H10/c1-3-9-7-5-6-8-10(9)4-2/h4-8H,1H2,2H3


          MOLECULE IS NOT LINEAR

          THERE ARE 54 GENUINE VIBRATIONS IN THIS SYSTEM
          THIS THERMODYNAMICS CALCULATION IS LIMITED TO
          MOLECULES WHICH HAVE NO INTERNAL ROTATIONS




                    CALCULATED THERMODYNAMIC PROPERTIES
                                          *
   TEMP. (K)   PARTITION FUNCTION   H.O.F.    ENTHALPY  HEAT CAPACITY ENTROPY
                                   KCAL/MOL   CAL/MOLE    CAL/K/MOL  CAL/K/MOL


 298.00  VIB.     0.4885D+03                  4251.3965    30.3117    26.5697
         ROT.     0.6133D+06                   888.2803     2.9808    29.4636
         INT.     0.2996D+09                  5139.6768    33.2925    56.0333
         TRA.     0.1436D+28                  1480.4672     4.9680    40.5022
         TOT.                       83.877    6620.1440    38.2605    96.5354

 200.00  VIB.     0.4861D+02                  1824.2900    19.2954    16.8394
         ROT.     0.3372D+06                   596.1613     2.9808    28.2749
         INT.     0.1639D+08                  2420.4513    22.2762    45.1143
         TRA.     0.7896D+27                   993.6021     4.9680    38.5210
         TOT.                       80.671    3414.0534    27.2442    83.6353

 210.00  VIB.     0.6119D+02                  2022.6935    20.3875    17.8072
         ROT.     0.3628D+06                   625.9693     2.9808    28.4203
         INT.     0.2220D+08                  2648.6629    23.3683    46.2275
         TRA.     0.8496D+27                  1043.2822     4.9680    38.7634
         TOT.                       80.949    3691.9451    28.3363    84.9910

 220.00  VIB.     0.7713D+02                  2232.0803    21.4918    18.7811
         ROT.     0.3890D+06                   655.7774     2.9808    28.5590
         INT.     0.3001D+08                  2887.8577    24.4726    47.3401
         TRA.     0.9110D+27                  1092.9623     4.9680    38.9945
         TOT.                       81.238    3980.8200    29.4406    86.3346

 230.00  VIB.     0.9733D+02                  2452.5647    22.6067    19.7610
         ROT.     0.4159D+06                   685.5855     2.9808    28.6915
         INT.     0.4048D+08                  3138.1502    25.5875    48.4525
         TRA.     0.9738D+27                  1142.6424     4.9680    39.2154
         TOT.                       81.538    4280.7926    30.5555    87.6679

 240.00  VIB.     0.1230D+03                  2684.2438    23.7304    20.7468
         ROT.     0.4433D+06                   715.3935     2.9808    28.8184
         INT.     0.5452D+08                  3399.6373    26.7112    49.5652
         TRA.     0.1038D+28                  1192.3226     4.9680    39.4268
         TOT.                       81.849    4591.9599    31.6792    88.9920

 250.00  VIB.     0.1556D+03                  2927.1951    24.8608    21.7385
         ROT.     0.4713D+06                   745.2016     2.9808    28.9400
         INT.     0.7332D+08                  3672.3967    27.8416    50.6785
         TRA.     0.1103D+28                  1242.0027     4.9680    39.6296
         TOT.                       82.172    4914.3994    32.8096    90.3081

 260.00  VIB.     0.1970D+03                  3181.4751    25.9958    22.7356
         ROT.     0.4998D+06                   775.0097     2.9808    29.0569
         INT.     0.9848D+08                  3956.4848    28.9766    51.7926
         TRA.     0.1170D+28                  1291.6828     4.9680    39.8245
         TOT.                       82.505    5248.1676    33.9446    91.6170

 270.00  VIB.     0.2498D+03                  3447.1184    27.1331    23.7380
         ROT.     0.5289D+06                   804.8177     2.9808    29.1694
         INT.     0.1321D+09                  4251.9361    30.1139    52.9075
         TRA.     0.1239D+28                  1341.3629     4.9680    40.0120
         TOT.                       82.850    5593.2990    35.0819    92.9194

 280.00  VIB.     0.3171D+03                  3724.1374    28.2706    24.7454
         ROT.     0.5586D+06                   834.6258     2.9808    29.2778
         INT.     0.1771D+09                  4558.7632    31.2514    54.0232
         TRA.     0.1308D+28                  1391.0430     4.9680    40.1926
         TOT.                       83.207    5949.8062    36.2194    94.2158

 290.00  VIB.     0.4030D+03                  4012.5232    29.4061    25.7572
         ROT.     0.5888D+06                   864.4339     2.9808    29.3824
         INT.     0.2373D+09                  4876.9570    32.3869    55.1397
         TRA.     0.1379D+28                  1440.7231     4.9680    40.3670
         TOT.                       83.575    6317.6801    37.3549    95.5066

 300.00  VIB.     0.5126D+03                  4312.2459    30.5376    26.7732
         ROT.     0.6195D+06                   894.2419     2.9808    29.4835
         INT.     0.3175D+09                  5206.4878    33.5184    56.2567
         TRA.     0.1451D+28                  1490.4032     4.9680    40.5354
         TOT.                       83.954    6696.8910    38.4864    96.7921

 310.00  VIB.     0.6527D+03                  4623.2558    31.6632    27.7929
         ROT.     0.6507D+06                   924.0500     2.9808    29.5812
         INT.     0.4247D+09                  5547.3058    34.6440    57.3742
         TRA.     0.1524D+28                  1540.0833     4.9680    40.6983
         TOT.                       84.345    7087.3891    39.6121    98.0725

 320.00  VIB.     0.8318D+03                  4945.4852    32.7812    28.8159
         ROT.     0.6825D+06                   953.8580     2.9808    29.6759
         INT.     0.5677D+09                  5899.3432    35.7620    58.4917
         TRA.     0.1598D+28                  1589.7634     4.9680    40.8560
         TOT.                       84.746    7489.1066    40.7300    99.3478

 330.00  VIB.     0.1061D+04                  5278.8490    33.8899    29.8416
         ROT.     0.7147D+06                   983.6661     2.9808    29.7676
         INT.     0.7584D+09                  6262.5151    36.8707    59.6092
         TRA.     0.1674D+28                  1639.4435     4.9680    41.0089
         TOT.                       85.159    7901.9586    41.8387   100.6181

 340.00  VIB.     0.1355D+04                  5623.2473    34.9879    30.8696
         ROT.     0.7474D+06                  1013.4742     2.9808    29.8566
         INT.     0.1013D+10                  6636.7215    37.9687    60.7262
         TRA.     0.1750D+28                  1689.1236     4.9680    41.1572
         TOT.                       85.583    8325.8451    42.9367   101.8834

 350.00  VIB.     0.1731D+04                  5978.5664    36.0738    31.8995
         ROT.     0.7807D+06                  1043.2822     2.9808    29.9430
         INT.     0.1352D+10                  7021.8486    39.0547    61.8425
         TRA.     0.1828D+28                  1738.8037     4.9680    41.3012
         TOT.                       86.018    8760.6523    44.0227   103.1438

 360.00  VIB.     0.2214D+04                  6344.6806    37.1467    32.9309
         ROT.     0.8144D+06                  1073.0903     2.9808    30.0270
         INT.     0.1803D+10                  7417.7709    40.1275    62.9578
         TRA.     0.1907D+28                  1788.4838     4.9680    41.4412
         TOT.                       86.463    9206.2547    45.0955   104.3990

 370.00  VIB.     0.2834D+04                  6721.4538    38.2055    33.9631
         ROT.     0.8485D+06                  1102.8984     2.9808    30.1086
         INT.     0.2405D+10                  7824.3522    41.1863    64.0717
         TRA.     0.1987D+28                  1838.1639     4.9680    41.5773
         TOT.                       86.920    9662.5162    46.1543   105.6490

 380.00  VIB.     0.3629D+04                  7108.7414    39.2494    34.9959
         ROT.     0.8832D+06                  1132.7064     2.9808    30.1881
         INT.     0.3205D+10                  8241.4478    42.2303    65.1840
         TRA.     0.2068D+28                  1887.8440     4.9680    41.7098
         TOT.                       87.386   10129.2919    47.1983   106.8938

 390.00  VIB.     0.4651D+04                  7506.3909    40.2778    36.0287
         ROT.     0.9182D+06                  1162.5145     2.9808    30.2656
         INT.     0.4271D+10                  8668.9054    43.2586    66.2943
         TRA.     0.2150D+28                  1937.5242     4.9680    41.8388
         TOT.                       87.864   10606.4296    48.2266   108.1331

 400.00  VIB.     0.5964D+04                  7914.2444    41.2901    37.0613
         ROT.     0.9538D+06                  1192.3226     2.9808    30.3410
         INT.     0.5688D+10                  9106.5669    44.2709    67.4023
         TRA.     0.2233D+28                  1987.2043     4.9680    41.9646
         TOT.                       88.351   11093.7712    49.2390   109.3669

   *: NOTE: HEATS OF FORMATION ARE RELATIVE TO THE
            ELEMENTS IN THEIR STANDARD STATE AT 298K
              (=  Standard Enthalpy of Formation).

            Hvib:  Zero-point energy is not included.
                   frequencies of less than zero cm-1 are not included.
            Hrot = (3/2)RT
            Htra = (3/2)RT + pV = (5/2)RT

            Heat capacity is Cp, not Cv

          For more information, see: HTTP://OpenMOPAC.net/Manual/thermochemistry.html


           FORCE CONSTANT IN CARTESIAN COORDINATES (Millidynes/A)

    ATOM   CHEMICAL       X               Y               Z
   NUMBER   SYMBOL  FORCE CONSTANT  FORCE CONSTANT  FORCE CONSTANT

      1       C        9.184439        8.411487        7.731738
      2       C       13.899047       11.715387        2.481324
      3       C       13.138100       12.776858        2.364603
      4       C       13.914851       10.316590        2.353654
      5       C       14.106531       11.002023        2.211987
      6       C       12.995261       12.080892        2.171552
      7       C       14.051754       11.194795        2.193241
      8       C       13.342945       11.933452        2.192809
      9       C        9.010756        8.747957        8.323171
     10       C       13.960204       12.264205        1.515671
     11       H        0.716271        2.145573        3.716104
     12       H        0.716111        2.158773        3.703574
     13       H        3.143673        2.955312        0.643867
     14       H        0.807934        5.013727        0.320353
     15       H        0.838689        5.036444        0.340729
     16       H        0.839357        5.082548        0.341713
     17       H        3.716836        2.202289        0.343066
     18       H        4.571612        1.349149        0.343864
     19       H        1.134428        1.101470        3.995371
     20       H        1.129558        1.097427        4.004235

 **********************
 *                    *
 * JOB ENDED NORMALLY *
 *                    *
 **********************



 TOTAL JOB TIME:             2.17 SECONDS

 == MOPAC DONE ==
