 *******************************************************************************
 **                                                                           **
 **                              MOPAC v23.1.2                                **
 **                                                                           **
 *******************************************************************************
 **          Digital Object Identifier (DOI): 10.5281/zenodo.6511958          **
 **    Visit the DOI location for information on how to cite this program.    **
 *******************************************************************************

                              PM3 CALCULATION RESULTS

 *******************************************************************************
 *  CALCULATION DONE: (MAX THREADS = 1)              Tue Jun  3 16:44:52 2025  *
 *  PM3        - The PM3 Hamiltonian to be used
 *  PRECISE    - TIGHTER CRITERIA TO BE USED
 *  NOSYM      - POINT-GROUP SYMMETRY SET TO C1
 *  THREADS=1  - MULTI-THREADING NOT USED
 *  T=         - A TIME OF 172800.0 SECONDS REQUESTED
 *  DUMP=N     - RESTART FILE WRITTEN EVERY 7200.0 SECONDS REQUESTED
 *******************************************************************************
pm3  precise nosym THREADS=1
 InChI=1S/C12H22/c1-4-6-8-12-9-11(7-5-2)10(12)3/h6,8,10-12H,4-5,7,9H2,1-3H3

   ATOM   CHEMICAL          X               Y               Z
  NUMBER   SYMBOL      (ANGSTROMS)     (ANGSTROMS)     (ANGSTROMS)

     1       C          1.50560000  *  -0.42330000  *   0.86640000  *
     2       C          0.37790000  *  -1.18470000  *   0.15370000  *
     3       C         -0.56420000  *  -0.88390000  *   1.32700000  *
     4       C          0.55890000  *  -0.11590000  *   2.02950000  *
     5       C          1.97520000  *   0.83840000  *   0.12100000  *
     6       C          2.85920000  *   0.47500000  *  -1.07800000  *
     7       C         -3.92220000  *   0.31250000  *  -0.20200000  *
     8       C          0.67170000  *  -2.67720000  *  -0.01930000  *
     9       C          3.33970000  *   1.72610000  *  -1.80710000  *
    10       C         -3.53260000  *   1.34860000  *  -1.25280000  *
    11       C         -1.73740000  *  -0.02070000  *   0.93190000  *
    12       C         -2.74130000  *  -0.52600000  *   0.20100000  *
    13       H          0.05790000  *  -0.71570000  *  -0.80500000  *
    14       H          2.35500000  *  -1.06720000  *   1.19030000  *
    15       H         -0.87740000  *  -1.78300000  *   1.90470000  *
    16       H          0.35890000  *   0.96960000  *   2.17220000  *
    17       H          0.87970000  *  -0.61810000  *   2.96840000  *
    18       H          3.74420000  *  -0.10070000  *  -0.72930000  *
    19       H          2.28880000  *  -0.15790000  *  -1.79160000  *
    20       H          2.56150000  *   1.46710000  *   0.82630000  *
    21       H          1.09900000  *   1.43250000  *  -0.22350000  *
    22       H         -4.70600000  *  -0.35000000  *  -0.62770000  *
    23       H         -4.34820000  *   0.82050000  *   0.69030000  *
    24       H          3.93780000  *   2.36560000  *  -1.12340000  *
    25       H          3.97720000  *   1.43300000  *  -2.66760000  *
    26       H          2.47280000  *   2.30670000  *  -2.18860000  *
    27       H         -3.10620000  *   0.84720000  *  -2.14790000  *
    28       H         -2.78560000  *   2.06020000  *  -0.84110000  *
    29       H         -4.43270000  *   1.92120000  *  -1.56070000  *
    30       H          0.98770000  *  -3.14030000  *   0.94050000  *
    31       H          1.48150000  *  -2.81130000  *  -0.76690000  *
    32       H         -0.24000000  *  -3.19470000  *  -0.38510000  *
    33       H         -2.71940000  *  -1.57130000  *  -0.09630000  *
    34       H         -1.77700000  *   1.01790000  *   1.24960000  *



          CARTESIAN COORDINATES 

    NO.       ATOM           X           Y           Z

     1         C          1.5056     -0.4233      0.8664
     2         C          0.3779     -1.1847      0.1537
     3         C         -0.5642     -0.8839      1.3270
     4         C          0.5589     -0.1159      2.0295
     5         C          1.9752      0.8384      0.1210
     6         C          2.8592      0.4750     -1.0780
     7         C         -3.9222      0.3125     -0.2020
     8         C          0.6717     -2.6772     -0.0193
     9         C          3.3397      1.7261     -1.8071
    10         C         -3.5326      1.3486     -1.2528
    11         C         -1.7374     -0.0207      0.9319
    12         C         -2.7413     -0.5260      0.2010
    13         H          0.0579     -0.7157     -0.8050
    14         H          2.3550     -1.0672      1.1903
    15         H         -0.8774     -1.7830      1.9047
    16         H          0.3589      0.9696      2.1722
    17         H          0.8797     -0.6181      2.9684
    18         H          3.7442     -0.1007     -0.7293
    19         H          2.2888     -0.1579     -1.7916
    20         H          2.5615      1.4671      0.8263
    21         H          1.0990      1.4325     -0.2235
    22         H         -4.7060     -0.3500     -0.6277
    23         H         -4.3482      0.8205      0.6903
    24         H          3.9378      2.3656     -1.1234
    25         H          3.9772      1.4330     -2.6676
    26         H          2.4728      2.3067     -2.1886
    27         H         -3.1062      0.8472     -2.1479
    28         H         -2.7856      2.0602     -0.8411
    29         H         -4.4327      1.9212     -1.5607
    30         H          0.9877     -3.1403      0.9405
    31         H          1.4815     -2.8113     -0.7669
    32         H         -0.2400     -3.1947     -0.3851
    33         H         -2.7194     -1.5713     -0.0963
    34         H         -1.7770      1.0179      1.2496

  H: (PM3): J. J. P. STEWART, J. COMP. CHEM. 10, 209 (1989).
  C: (PM3): J. J. P. STEWART, J. COMP. CHEM. 10, 209 (1989).

           Empirical Formula: C12 H22  =    34 atoms



      MOLECULAR POINT GROUP   :   C1  


      RHF CALCULATION, NO. OF DOUBLY OCCUPIED LEVELS = 35


          Geometry optimization using L-BFGS
 CYCLE:     1 TIME:   0.012 TIME LEFT:  2.00D  GRAD.:    90.120 HEAT: -18.76539
 CYCLE:     2 TIME:   0.012 TIME LEFT:  2.00D  GRAD.:    88.615 HEAT: -18.84592
 CYCLE:     3 TIME:   0.012 TIME LEFT:  2.00D  GRAD.:    31.783 HEAT: -21.86557
 CYCLE:     4 TIME:   0.008 TIME LEFT:  2.00D  GRAD.:    88.620 HEAT: -18.84599
 CYCLE:     5 TIME:   0.012 TIME LEFT:  2.00D  GRAD.:    31.787 HEAT: -21.86555
 CYCLE:     6 TIME:   0.012 TIME LEFT:  2.00D  GRAD.:    29.111 HEAT: -22.27703
 CYCLE:     7 TIME:   0.008 TIME LEFT:  2.00D  GRAD.:    18.969 HEAT: -22.66531
 CYCLE:     8 TIME:   0.012 TIME LEFT:  2.00D  GRAD.:    15.075 HEAT: -22.97992
 CYCLE:     9 TIME:   0.012 TIME LEFT:  2.00D  GRAD.:    18.745 HEAT: -23.17941
 CYCLE:    10 TIME:   0.012 TIME LEFT:  2.00D  GRAD.:     6.983 HEAT: -23.28829
 CYCLE:    11 TIME:   0.008 TIME LEFT:  2.00D  GRAD.:     3.879 HEAT: -23.30969
 CYCLE:    12 TIME:   0.012 TIME LEFT:  2.00D  GRAD.:     3.082 HEAT: -23.32511
 CYCLE:    13 TIME:   0.012 TIME LEFT:  2.00D  GRAD.:     3.078 HEAT: -23.33721
 CYCLE:    14 TIME:   0.012 TIME LEFT:  2.00D  GRAD.:     5.030 HEAT: -23.34253
 CYCLE:    15 TIME:   0.008 TIME LEFT:  2.00D  GRAD.:     1.740 HEAT: -23.35044
 CYCLE:    16 TIME:   0.012 TIME LEFT:  2.00D  GRAD.:     1.602 HEAT: -23.35318
 CYCLE:    17 TIME:   0.012 TIME LEFT:  2.00D  GRAD.:     2.008 HEAT: -23.35765
 CYCLE:    18 TIME:   0.012 TIME LEFT:  2.00D  GRAD.:     2.430 HEAT: -23.36433
 CYCLE:    19 TIME:   0.008 TIME LEFT:  2.00D  GRAD.:     5.163 HEAT: -23.36446
 CYCLE:    20 TIME:   0.012 TIME LEFT:  2.00D  GRAD.:     1.555 HEAT: -23.37246
 CYCLE:    21 TIME:   0.008 TIME LEFT:  2.00D  GRAD.:     1.399 HEAT: -23.37470
 CYCLE:    22 TIME:   0.012 TIME LEFT:  2.00D  GRAD.:     2.322 HEAT: -23.37888
 CYCLE:    23 TIME:   0.012 TIME LEFT:  2.00D  GRAD.:     5.127 HEAT: -23.38299
 CYCLE:    24 TIME:   0.008 TIME LEFT:  2.00D  GRAD.:     2.996 HEAT: -23.38887
 CYCLE:    25 TIME:   0.012 TIME LEFT:  2.00D  GRAD.:     2.450 HEAT: -23.39722
 CYCLE:    26 TIME:   0.012 TIME LEFT:  2.00D  GRAD.:     2.961 HEAT: -23.40269
 CYCLE:    27 TIME:   0.008 TIME LEFT:  2.00D  GRAD.:     3.470 HEAT: -23.41335
 CYCLE:    28 TIME:   0.012 TIME LEFT:  2.00D  GRAD.:     4.595 HEAT: -23.42361
 CYCLE:    29 TIME:   0.012 TIME LEFT:  2.00D  GRAD.:     4.789 HEAT: -23.43471
 CYCLE:    30 TIME:   0.012 TIME LEFT:  2.00D  GRAD.:     6.751 HEAT: -23.44336
 CYCLE:    31 TIME:   0.008 TIME LEFT:  2.00D  GRAD.:     6.374 HEAT: -23.45655
 CYCLE:    32 TIME:   0.012 TIME LEFT:  2.00D  GRAD.:     7.376 HEAT: -23.46637
 CYCLE:    33 TIME:   0.008 TIME LEFT:  2.00D  GRAD.:    10.121 HEAT: -23.48091
 CYCLE:    34 TIME:   0.012 TIME LEFT:  2.00D  GRAD.:    14.488 HEAT: -23.39024
 CYCLE:    35 TIME:   0.012 TIME LEFT:  2.00D  GRAD.:    12.657 HEAT: -23.45089
 CYCLE:    36 TIME:   0.008 TIME LEFT:  2.00D  GRAD.:     9.265 HEAT: -23.51792
 CYCLE:    37 TIME:   0.012 TIME LEFT:  2.00D  GRAD.:     4.477 HEAT: -23.54507
 CYCLE:    38 TIME:   0.016 TIME LEFT:  2.00D  GRAD.:    32.445 HEAT: -23.25983
 CYCLE:    39 TIME:   0.012 TIME LEFT:  2.00D  GRAD.:    32.982 HEAT: -23.25907
 CYCLE:    40 TIME:   0.012 TIME LEFT:  2.00D  GRAD.:    26.183 HEAT: -23.32211
 CYCLE:    41 TIME:   0.012 TIME LEFT:  2.00D  GRAD.:    15.238 HEAT: -23.51143
 CYCLE:    42 TIME:   0.012 TIME LEFT:  2.00D  GRAD.:    36.020 HEAT: -23.32720
 CYCLE:    43 TIME:   0.008 TIME LEFT:  2.00D  GRAD.:    13.493 HEAT: -23.50003
 CYCLE:    44 TIME:   0.012 TIME LEFT:  2.00D  GRAD.:    25.891 HEAT: -23.37221
 CYCLE:    45 TIME:   0.012 TIME LEFT:  2.00D  GRAD.:    12.052 HEAT: -23.54724
 CYCLE:    46 TIME:   0.012 TIME LEFT:  2.00D  GRAD.:    13.239 HEAT: -23.50637
 CYCLE:    47 TIME:   0.008 TIME LEFT:  2.00D  GRAD.:     3.445 HEAT: -23.58019
 CYCLE:    48 TIME:   0.012 TIME LEFT:  2.00D  GRAD.:     7.469 HEAT: -23.57811
 CYCLE:    49 TIME:   0.012 TIME LEFT:  2.00D  GRAD.:     2.627 HEAT: -23.58992
 CYCLE:    50 TIME:   0.008 TIME LEFT:  2.00D  GRAD.:     2.120 HEAT: -23.59387
 CYCLE:    51 TIME:   0.012 TIME LEFT:  2.00D  GRAD.:     4.829 HEAT: -23.62092
 CYCLE:    52 TIME:   0.012 TIME LEFT:  2.00D  GRAD.:    10.444 HEAT: -23.67289
 CYCLE:    53 TIME:   0.012 TIME LEFT:  2.00D  GRAD.:    13.444 HEAT: -23.73068
 CYCLE:    54 TIME:   0.012 TIME LEFT:  2.00D  GRAD.:    11.778 HEAT: -23.77147
 CYCLE:    55 TIME:   0.008 TIME LEFT:  2.00D  GRAD.:     6.621 HEAT: -23.82365
 CYCLE:    56 TIME:   0.012 TIME LEFT:  2.00D  GRAD.:     4.790 HEAT: -23.84620
 CYCLE:    57 TIME:   0.012 TIME LEFT:  2.00D  GRAD.:     6.306 HEAT: -23.86859
 CYCLE:    58 TIME:   0.012 TIME LEFT:  2.00D  GRAD.:     8.106 HEAT: -23.89889
 CYCLE:    59 TIME:   0.012 TIME LEFT:  2.00D  GRAD.:     8.970 HEAT: -23.94236
 CYCLE:    60 TIME:   0.012 TIME LEFT:  2.00D  GRAD.:    30.088 HEAT: -23.83827
 CYCLE:    61 TIME:   0.008 TIME LEFT:  2.00D  GRAD.:     5.306 HEAT: -24.00970
 CYCLE:    62 TIME:   0.012 TIME LEFT:  2.00D  GRAD.:     3.742 HEAT: -24.02139
 CYCLE:    63 TIME:   0.012 TIME LEFT:  2.00D  GRAD.:     5.340 HEAT: -24.04423
 CYCLE:    64 TIME:   0.012 TIME LEFT:  2.00D  GRAD.:     5.556 HEAT: -24.07107
 CYCLE:    65 TIME:   0.008 TIME LEFT:  2.00D  GRAD.:     6.155 HEAT: -24.09141
 CYCLE:    66 TIME:   0.012 TIME LEFT:  2.00D  GRAD.:     2.719 HEAT: -24.10900
 CYCLE:    67 TIME:   0.008 TIME LEFT:  2.00D  GRAD.:     2.323 HEAT: -24.11554
 CYCLE:    68 TIME:   0.012 TIME LEFT:  2.00D  GRAD.:     2.964 HEAT: -24.12997
 CYCLE:    69 TIME:   0.012 TIME LEFT:  2.00D  GRAD.:     6.618 HEAT: -24.13482
 CYCLE:    70 TIME:   0.008 TIME LEFT:  2.00D  GRAD.:     2.212 HEAT: -24.14723
 CYCLE:    71 TIME:   0.012 TIME LEFT:  2.00D  GRAD.:     1.947 HEAT: -24.15113
 CYCLE:    72 TIME:   0.012 TIME LEFT:  2.00D  GRAD.:     2.249 HEAT: -24.15698
 CYCLE:    73 TIME:   0.008 TIME LEFT:  2.00D  GRAD.:     3.474 HEAT: -24.16789
 CYCLE:    74 TIME:   0.012 TIME LEFT:  2.00D  GRAD.:     3.591 HEAT: -24.17833
 CYCLE:    75 TIME:   0.012 TIME LEFT:  2.00D  GRAD.:     3.433 HEAT: -24.18750
 CYCLE:    76 TIME:   0.012 TIME LEFT:  2.00D  GRAD.:     2.785 HEAT: -24.19686
 CYCLE:    77 TIME:   0.008 TIME LEFT:  2.00D  GRAD.:     4.648 HEAT: -24.20589
 CYCLE:    78 TIME:   0.012 TIME LEFT:  2.00D  GRAD.:     2.864 HEAT: -24.21717
 CYCLE:    79 TIME:   0.008 TIME LEFT:  2.00D  GRAD.:     2.883 HEAT: -24.23104
 CYCLE:    80 TIME:   0.012 TIME LEFT:  2.00D  GRAD.:     3.487 HEAT: -24.24167
 CYCLE:    81 TIME:   0.012 TIME LEFT:  2.00D  GRAD.:     2.705 HEAT: -24.25913
 CYCLE:    82 TIME:   0.008 TIME LEFT:  2.00D  GRAD.:     4.077 HEAT: -24.27209
 CYCLE:    83 TIME:   0.012 TIME LEFT:  2.00D  GRAD.:     2.955 HEAT: -24.28397
 CYCLE:    84 TIME:   0.012 TIME LEFT:  2.00D  GRAD.:     2.370 HEAT: -24.29345
 CYCLE:    85 TIME:   0.012 TIME LEFT:  2.00D  GRAD.:     3.064 HEAT: -24.30669
 CYCLE:    86 TIME:   0.012 TIME LEFT:  2.00D  GRAD.:     4.360 HEAT: -24.32271
 CYCLE:    87 TIME:   0.008 TIME LEFT:  2.00D  GRAD.:     3.436 HEAT: -24.33980
 CYCLE:    88 TIME:   0.012 TIME LEFT:  2.00D  GRAD.:     2.961 HEAT: -24.35342
 CYCLE:    89 TIME:   0.012 TIME LEFT:  2.00D  GRAD.:     3.421 HEAT: -24.35962
 CYCLE:    90 TIME:   0.008 TIME LEFT:  2.00D  GRAD.:     2.157 HEAT: -24.36437
 CYCLE:    91 TIME:   0.012 TIME LEFT:  2.00D  GRAD.:     2.220 HEAT: -24.36861
 CYCLE:    92 TIME:   0.012 TIME LEFT:  2.00D  GRAD.:     2.855 HEAT: -24.37598
 CYCLE:    93 TIME:   0.008 TIME LEFT:  2.00D  GRAD.:     3.390 HEAT: -24.38196
 CYCLE:    94 TIME:   0.012 TIME LEFT:  2.00D  GRAD.:     1.462 HEAT: -24.38745
 CYCLE:    95 TIME:   0.008 TIME LEFT:  2.00D  GRAD.:     1.362 HEAT: -24.39024
 CYCLE:    96 TIME:   0.012 TIME LEFT:  2.00D  GRAD.:     1.604 HEAT: -24.39302
 CYCLE:    97 TIME:   0.012 TIME LEFT:  2.00D  GRAD.:     2.698 HEAT: -24.39518
 CYCLE:    98 TIME:   0.012 TIME LEFT:  2.00D  GRAD.:     0.968 HEAT: -24.39782
 CYCLE:    99 TIME:   0.016 TIME LEFT:  2.00D  GRAD.:     0.839 HEAT: -24.39871
 CYCLE:   100 TIME:   0.012 TIME LEFT:  2.00D  GRAD.:     0.981 HEAT: -24.39986
 CYCLE:   101 TIME:   0.008 TIME LEFT:  2.00D  GRAD.:     1.940 HEAT: -24.40096
 CYCLE:   102 TIME:   0.012 TIME LEFT:  2.00D  GRAD.:     0.965 HEAT: -24.40229
 CYCLE:   103 TIME:   0.012 TIME LEFT:  2.00D  GRAD.:     0.728 HEAT: -24.40300
 CYCLE:   104 TIME:   0.008 TIME LEFT:  2.00D  GRAD.:     1.060 HEAT: -24.40364
 CYCLE:   105 TIME:   0.012 TIME LEFT:  2.00D  GRAD.:     1.366 HEAT: -24.40433
 CYCLE:   106 TIME:   0.012 TIME LEFT:  2.00D  GRAD.:     1.013 HEAT: -24.40500
 CYCLE:   107 TIME:   0.012 TIME LEFT:  2.00D  GRAD.:     0.684 HEAT: -24.40617
 CYCLE:   108 TIME:   0.008 TIME LEFT:  2.00D  GRAD.:     0.828 HEAT: -24.40694
 CYCLE:   109 TIME:   0.012 TIME LEFT:  2.00D  GRAD.:     1.276 HEAT: -24.40826
 CYCLE:   110 TIME:   0.008 TIME LEFT:  2.00D  GRAD.:     1.224 HEAT: -24.40964
 CYCLE:   111 TIME:   0.012 TIME LEFT:  2.00D  GRAD.:     1.331 HEAT: -24.41114
 CYCLE:   112 TIME:   0.012 TIME LEFT:  2.00D  GRAD.:     1.131 HEAT: -24.41354
 CYCLE:   113 TIME:   0.008 TIME LEFT:  2.00D  GRAD.:     1.362 HEAT: -24.41509
 CYCLE:   114 TIME:   0.012 TIME LEFT:  2.00D  GRAD.:     1.244 HEAT: -24.41698
 CYCLE:   115 TIME:   0.012 TIME LEFT:  2.00D  GRAD.:     1.143 HEAT: -24.41961
 CYCLE:   116 TIME:   0.012 TIME LEFT:  2.00D  GRAD.:     1.228 HEAT: -24.42230
 CYCLE:   117 TIME:   0.012 TIME LEFT:  2.00D  GRAD.:     1.910 HEAT: -24.42444
 CYCLE:   118 TIME:   0.008 TIME LEFT:  2.00D  GRAD.:     1.686 HEAT: -24.42667
 CYCLE:   119 TIME:   0.012 TIME LEFT:  2.00D  GRAD.:     6.411 HEAT: -24.42335
 CYCLE:   120 TIME:   0.012 TIME LEFT:  2.00D  GRAD.:     9.260 HEAT: -24.41711
 CYCLE:   121 TIME:   0.008 TIME LEFT:  2.00D  GRAD.:     6.351 HEAT: -24.42587
 CYCLE:   122 TIME:   0.012 TIME LEFT:  2.00D  GRAD.:     9.250 HEAT: -24.41041
 CYCLE:   123 TIME:   0.012 TIME LEFT:  2.00D  GRAD.:     3.628 HEAT: -24.43033
 CYCLE:   124 TIME:   0.008 TIME LEFT:  2.00D  GRAD.:     2.115 HEAT: -24.42902
 CYCLE:   125 TIME:   0.012 TIME LEFT:  2.00D  GRAD.:     2.982 HEAT: -24.43159
 CYCLE:   126 TIME:   0.012 TIME LEFT:  2.00D  GRAD.:     2.158 HEAT: -24.43377
 CYCLE:   127 TIME:   0.012 TIME LEFT:  2.00D  GRAD.:     0.888 HEAT: -24.43461
 CYCLE:   128 TIME:   0.012 TIME LEFT:  2.00D  GRAD.:     0.466 HEAT: -24.43509
 CYCLE:   129 TIME:   0.008 TIME LEFT:  2.00D  GRAD.:     0.664 HEAT: -24.43554
 CYCLE:   130 TIME:   0.008 TIME LEFT:  2.00D  GRAD.:     1.000 HEAT: -24.43637
 CYCLE:   131 TIME:   0.012 TIME LEFT:  2.00D  GRAD.:     0.846 HEAT: -24.43759
 CYCLE:   132 TIME:   0.012 TIME LEFT:  2.00D  GRAD.:     1.017 HEAT: -24.43862
 CYCLE:   133 TIME:   0.012 TIME LEFT:  2.00D  GRAD.:     1.011 HEAT: -24.43986
 CYCLE:   134 TIME:   0.008 TIME LEFT:  2.00D  GRAD.:     1.695 HEAT: -24.44176
 CYCLE:   135 TIME:   0.012 TIME LEFT:  2.00D  GRAD.:     1.165 HEAT: -24.44331
 CYCLE:   136 TIME:   0.012 TIME LEFT:  2.00D  GRAD.:     1.004 HEAT: -24.44446
 CYCLE:   137 TIME:   0.008 TIME LEFT:  2.00D  GRAD.:     1.291 HEAT: -24.44638
 CYCLE:   138 TIME:   0.012 TIME LEFT:  2.00D  GRAD.:     1.747 HEAT: -24.44769
 CYCLE:   139 TIME:   0.012 TIME LEFT:  2.00D  GRAD.:     1.217 HEAT: -24.44919
 CYCLE:   140 TIME:   0.012 TIME LEFT:  2.00D  GRAD.:     0.899 HEAT: -24.45078
 CYCLE:   141 TIME:   0.012 TIME LEFT:  2.00D  GRAD.:     1.083 HEAT: -24.45197
 CYCLE:   142 TIME:   0.012 TIME LEFT:  2.00D  GRAD.:     3.665 HEAT: -24.45294
 CYCLE:   143 TIME:   0.012 TIME LEFT:  2.00D  GRAD.:     1.499 HEAT: -24.45544
 CYCLE:   144 TIME:   0.012 TIME LEFT:  2.00D  GRAD.:     0.909 HEAT: -24.45714
 CYCLE:   145 TIME:   0.008 TIME LEFT:  2.00D  GRAD.:     1.223 HEAT: -24.45823
 CYCLE:   146 TIME:   0.012 TIME LEFT:  2.00D  GRAD.:     1.362 HEAT: -24.46010
 CYCLE:   147 TIME:   0.012 TIME LEFT:  2.00D  GRAD.:     1.561 HEAT: -24.46201
 CYCLE:   148 TIME:   0.012 TIME LEFT:  2.00D  GRAD.:     1.113 HEAT: -24.46382
 CYCLE:   149 TIME:   0.008 TIME LEFT:  2.00D  GRAD.:     1.160 HEAT: -24.46540
 CYCLE:   150 TIME:   0.012 TIME LEFT:  2.00D  GRAD.:     1.587 HEAT: -24.46732
 CYCLE:   151 TIME:   0.012 TIME LEFT:  2.00D  GRAD.:     1.943 HEAT: -24.46853
 CYCLE:   152 TIME:   0.008 TIME LEFT:  2.00D  GRAD.:     0.864 HEAT: -24.46976
 CYCLE:   153 TIME:   0.012 TIME LEFT:  2.00D  GRAD.:     1.229 HEAT: -24.47049
 CYCLE:   154 TIME:   0.012 TIME LEFT:  2.00D  GRAD.:     1.189 HEAT: -24.47145
 CYCLE:   155 TIME:   0.012 TIME LEFT:  2.00D  GRAD.:     1.439 HEAT: -24.47342
 CYCLE:   156 TIME:   0.008 TIME LEFT:  2.00D  GRAD.:     1.476 HEAT: -24.47495
 CYCLE:   157 TIME:   0.012 TIME LEFT:  2.00D  GRAD.:     0.924 HEAT: -24.47590
 CYCLE:   158 TIME:   0.012 TIME LEFT:  2.00D  GRAD.:     0.940 HEAT: -24.47693
 CYCLE:   159 TIME:   0.008 TIME LEFT:  2.00D  GRAD.:     1.012 HEAT: -24.47793
 CYCLE:   160 TIME:   0.012 TIME LEFT:  2.00D  GRAD.:     0.879 HEAT: -24.47898
 CYCLE:   161 TIME:   0.012 TIME LEFT:  2.00D  GRAD.:     1.325 HEAT: -24.48036
 CYCLE:   162 TIME:   0.012 TIME LEFT:  2.00D  GRAD.:     0.997 HEAT: -24.48174
 CYCLE:   163 TIME:   0.008 TIME LEFT:  2.00D  GRAD.:     0.965 HEAT: -24.48299
 CYCLE:   164 TIME:   0.012 TIME LEFT:  2.00D  GRAD.:     1.277 HEAT: -24.48482
 CYCLE:   165 TIME:   0.008 TIME LEFT:  2.00D  GRAD.:     2.163 HEAT: -24.48603
 CYCLE:   166 TIME:   0.012 TIME LEFT:  2.00D  GRAD.:     2.359 HEAT: -24.48702
 CYCLE:   167 TIME:   0.012 TIME LEFT:  2.00D  GRAD.:     0.799 HEAT: -24.48846
 CYCLE:   168 TIME:   0.008 TIME LEFT:  2.00D  GRAD.:     0.816 HEAT: -24.48922
 CYCLE:   169 TIME:   0.012 TIME LEFT:  2.00D  GRAD.:     0.921 HEAT: -24.49006
 CYCLE:   170 TIME:   0.016 TIME LEFT:  2.00D  GRAD.:     1.510 HEAT: -24.49110
 CYCLE:   171 TIME:   0.008 TIME LEFT:  2.00D  GRAD.:     0.842 HEAT: -24.49228
 CYCLE:   172 TIME:   0.012 TIME LEFT:  2.00D  GRAD.:     0.829 HEAT: -24.49315
 CYCLE:   173 TIME:   0.008 TIME LEFT:  2.00D  GRAD.:     1.135 HEAT: -24.49407
 CYCLE:   174 TIME:   0.012 TIME LEFT:  2.00D  GRAD.:     1.339 HEAT: -24.49487
 CYCLE:   175 TIME:   0.012 TIME LEFT:  2.00D  GRAD.:     0.830 HEAT: -24.49577
 CYCLE:   176 TIME:   0.012 TIME LEFT:  2.00D  GRAD.:     0.848 HEAT: -24.49686
 CYCLE:   177 TIME:   0.008 TIME LEFT:  2.00D  GRAD.:     0.932 HEAT: -24.49786
 CYCLE:   178 TIME:   0.012 TIME LEFT:  2.00D  GRAD.:     1.229 HEAT: -24.49891
 CYCLE:   179 TIME:   0.012 TIME LEFT:  2.00D  GRAD.:     0.911 HEAT: -24.50027
 CYCLE:   180 TIME:   0.012 TIME LEFT:  2.00D  GRAD.:     0.890 HEAT: -24.50114
 CYCLE:   181 TIME:   0.012 TIME LEFT:  2.00D  GRAD.:     0.879 HEAT: -24.50216
 CYCLE:   182 TIME:   0.008 TIME LEFT:  2.00D  GRAD.:     0.923 HEAT: -24.50294
 CYCLE:   183 TIME:   0.012 TIME LEFT:  2.00D  GRAD.:     0.864 HEAT: -24.50365
 CYCLE:   184 TIME:   0.012 TIME LEFT:  2.00D  GRAD.:     0.799 HEAT: -24.50456
 CYCLE:   185 TIME:   0.012 TIME LEFT:  2.00D  GRAD.:     1.213 HEAT: -24.50592
 CYCLE:   186 TIME:   0.008 TIME LEFT:  2.00D  GRAD.:     1.670 HEAT: -24.50761
 CYCLE:   187 TIME:   0.012 TIME LEFT:  2.00D  GRAD.:     1.179 HEAT: -24.50951
 CYCLE:   188 TIME:   0.012 TIME LEFT:  2.00D  GRAD.:     1.277 HEAT: -24.51149
 CYCLE:   189 TIME:   0.012 TIME LEFT:  2.00D  GRAD.:     2.296 HEAT: -24.51315
 CYCLE:   190 TIME:   0.008 TIME LEFT:  2.00D  GRAD.:     1.593 HEAT: -24.51482
 CYCLE:   191 TIME:   0.012 TIME LEFT:  2.00D  GRAD.:     1.082 HEAT: -24.51752
 CYCLE:   192 TIME:   0.008 TIME LEFT:  2.00D  GRAD.:     0.977 HEAT: -24.51865
 CYCLE:   193 TIME:   0.012 TIME LEFT:  2.00D  GRAD.:     1.185 HEAT: -24.52041
 CYCLE:   194 TIME:   0.012 TIME LEFT:  2.00D  GRAD.:     1.156 HEAT: -24.52164
 CYCLE:   195 TIME:   0.012 TIME LEFT:  2.00D  GRAD.:     0.675 HEAT: -24.52243
 CYCLE:   196 TIME:   0.008 TIME LEFT:  2.00D  GRAD.:     0.619 HEAT: -24.52299
 CYCLE:   197 TIME:   0.012 TIME LEFT:  2.00D  GRAD.:     0.955 HEAT: -24.52337
 CYCLE:   198 TIME:   0.012 TIME LEFT:  2.00D  GRAD.:     0.593 HEAT: -24.52382
 CYCLE:   199 TIME:   0.012 TIME LEFT:  2.00D  GRAD.:     0.499 HEAT: -24.52431
 CYCLE:   200 TIME:   0.008 TIME LEFT:  2.00D  GRAD.:     0.598 HEAT: -24.52467
 CYCLE:   201 TIME:   0.012 TIME LEFT:  2.00D  GRAD.:     0.677 HEAT: -24.52497
 CYCLE:   202 TIME:   0.012 TIME LEFT:  2.00D  GRAD.:     0.372 HEAT: -24.52519
 CYCLE:   203 TIME:   0.008 TIME LEFT:  2.00D  GRAD.:     0.341 HEAT: -24.52531
 CYCLE:   204 TIME:   0.012 TIME LEFT:  2.00D  GRAD.:     0.399 HEAT: -24.52549
 CYCLE:   205 TIME:   0.012 TIME LEFT:  2.00D  GRAD.:     0.779 HEAT: -24.52565
 CYCLE:   206 TIME:   0.008 TIME LEFT:  2.00D  GRAD.:     0.405 HEAT: -24.52585
 CYCLE:   207 TIME:   0.012 TIME LEFT:  2.00D  GRAD.:     0.326 HEAT: -24.52597
 CYCLE:   208 TIME:   0.012 TIME LEFT:  2.00D  GRAD.:     0.376 HEAT: -24.52614
 CYCLE:   209 TIME:   0.012 TIME LEFT:  2.00D  GRAD.:     0.613 HEAT: -24.52644
 CYCLE:   210 TIME:   0.008 TIME LEFT:  2.00D  GRAD.:     0.387 HEAT: -24.52670
 CYCLE:   211 TIME:   0.012 TIME LEFT:  2.00D  GRAD.:     0.399 HEAT: -24.52694
 CYCLE:   212 TIME:   0.012 TIME LEFT:  2.00D  GRAD.:     0.567 HEAT: -24.52726
 CYCLE:   213 TIME:   0.012 TIME LEFT:  2.00D  GRAD.:     0.924 HEAT: -24.52758
 CYCLE:   214 TIME:   0.012 TIME LEFT:  2.00D  GRAD.:     0.550 HEAT: -24.52795
 CYCLE:   215 TIME:   0.008 TIME LEFT:  2.00D  GRAD.:     0.401 HEAT: -24.52821
 CYCLE:   216 TIME:   0.012 TIME LEFT:  2.00D  GRAD.:     0.516 HEAT: -24.52839
 CYCLE:   217 TIME:   0.012 TIME LEFT:  2.00D  GRAD.:     0.459 HEAT: -24.52863
 CYCLE:   218 TIME:   0.008 TIME LEFT:  2.00D  GRAD.:     0.449 HEAT: -24.52893
 CYCLE:   219 TIME:   0.012 TIME LEFT:  2.00D  GRAD.:     0.925 HEAT: -24.52909
 CYCLE:   220 TIME:   0.008 TIME LEFT:  2.00D  GRAD.:     0.303 HEAT: -24.52935
 CYCLE:   221 TIME:   0.012 TIME LEFT:  2.00D  GRAD.:     0.232 HEAT: -24.52942
 CYCLE:   222 TIME:   0.012 TIME LEFT:  2.00D  GRAD.:     0.406 HEAT: -24.52953
 CYCLE:   223 TIME:   0.008 TIME LEFT:  2.00D  GRAD.:     0.460 HEAT: -24.52962
 CYCLE:   224 TIME:   0.012 TIME LEFT:  2.00D  GRAD.:     0.305 HEAT: -24.52973
 CYCLE:   225 TIME:   0.012 TIME LEFT:  2.00D  GRAD.:     0.271 HEAT: -24.52987
 CYCLE:   226 TIME:   0.008 TIME LEFT:  2.00D  GRAD.:     0.322 HEAT: -24.53002
 CYCLE:   227 TIME:   0.012 TIME LEFT:  2.00D  GRAD.:     0.612 HEAT: -24.53010
 CYCLE:   228 TIME:   0.012 TIME LEFT:  2.00D  GRAD.:     0.259 HEAT: -24.53023
 CYCLE:   229 TIME:   0.012 TIME LEFT:  2.00D  GRAD.:     0.257 HEAT: -24.53030
 CYCLE:   230 TIME:   0.012 TIME LEFT:  2.00D  GRAD.:     0.417 HEAT: -24.53040
 CYCLE:   231 TIME:   0.008 TIME LEFT:  2.00D  GRAD.:     0.506 HEAT: -24.53054
 CYCLE:   232 TIME:   0.012 TIME LEFT:  2.00D  GRAD.:     0.334 HEAT: -24.53071
 CYCLE:   233 TIME:   0.012 TIME LEFT:  2.00D  GRAD.:     0.394 HEAT: -24.53083
 CYCLE:   234 TIME:   0.012 TIME LEFT:  2.00D  GRAD.:     0.333 HEAT: -24.53095
 CYCLE:   235 TIME:   0.008 TIME LEFT:  2.00D  GRAD.:     0.310 HEAT: -24.53110
 CYCLE:   236 TIME:   0.012 TIME LEFT:  2.00D  GRAD.:     0.590 HEAT: -24.53120
 CYCLE:   237 TIME:   0.012 TIME LEFT:  2.00D  GRAD.:     0.385 HEAT: -24.53137
 CYCLE:   238 TIME:   0.012 TIME LEFT:  2.00D  GRAD.:     0.292 HEAT: -24.53149
 CYCLE:   239 TIME:   0.008 TIME LEFT:  2.00D  GRAD.:     0.335 HEAT: -24.53158
 CYCLE:   240 TIME:   0.012 TIME LEFT:  2.00D  GRAD.:     0.315 HEAT: -24.53168
 CYCLE:   241 TIME:   0.008 TIME LEFT:  2.00D  GRAD.:     0.376 HEAT: -24.53179
 CYCLE:   242 TIME:   0.016 TIME LEFT:  2.00D  GRAD.:     0.572 HEAT: -24.53197
 CYCLE:   243 TIME:   0.008 TIME LEFT:  2.00D  GRAD.:     0.472 HEAT: -24.53213
 CYCLE:   244 TIME:   0.012 TIME LEFT:  2.00D  GRAD.:     0.306 HEAT: -24.53225
 CYCLE:   245 TIME:   0.008 TIME LEFT:  2.00D  GRAD.:     0.343 HEAT: -24.53244
 CYCLE:   246 TIME:   0.012 TIME LEFT:  2.00D  GRAD.:     0.414 HEAT: -24.53263
 CYCLE:   247 TIME:   0.012 TIME LEFT:  2.00D  GRAD.:     0.622 HEAT: -24.53286
 CYCLE:   248 TIME:   0.012 TIME LEFT:  2.00D  GRAD.:     0.510 HEAT: -24.53318
 CYCLE:   249 TIME:   0.008 TIME LEFT:  2.00D  GRAD.:     0.561 HEAT: -24.53338
 CYCLE:   250 TIME:   0.012 TIME LEFT:  2.00D  GRAD.:     0.422 HEAT: -24.53358
 CYCLE:   251 TIME:   0.008 TIME LEFT:  2.00D  GRAD.:     0.447 HEAT: -24.53380
 CYCLE:   252 TIME:   0.012 TIME LEFT:  2.00D  GRAD.:     0.449 HEAT: -24.53401
 CYCLE:   253 TIME:   0.012 TIME LEFT:  2.00D  GRAD.:     0.329 HEAT: -24.53418
 CYCLE:   254 TIME:   0.012 TIME LEFT:  2.00D  GRAD.:     0.381 HEAT: -24.53435
 CYCLE:   255 TIME:   0.008 TIME LEFT:  2.00D  GRAD.:     0.390 HEAT: -24.53446
 CYCLE:   256 TIME:   0.012 TIME LEFT:  2.00D  GRAD.:     0.300 HEAT: -24.53455
 CYCLE:   257 TIME:   0.008 TIME LEFT:  2.00D  GRAD.:     0.381 HEAT: -24.53459
 CYCLE:   258 TIME:   0.012 TIME LEFT:  2.00D  GRAD.:     0.282 HEAT: -24.53470
 CYCLE:   259 TIME:   0.008 TIME LEFT:  2.00D  GRAD.:     0.238 HEAT: -24.53479
 CYCLE:   260 TIME:   0.016 TIME LEFT:  2.00D  GRAD.:     0.271 HEAT: -24.53487
 CYCLE:   261 TIME:   0.008 TIME LEFT:  2.00D  GRAD.:     0.534 HEAT: -24.53493
 CYCLE:   262 TIME:   0.012 TIME LEFT:  2.00D  GRAD.:     0.220 HEAT: -24.53501
 CYCLE:   263 TIME:   0.008 TIME LEFT:  2.00D  GRAD.:     0.219 HEAT: -24.53506
 CYCLE:   264 TIME:   0.012 TIME LEFT:  2.00D  GRAD.:     0.422 HEAT: -24.53511
 CYCLE:   265 TIME:   0.012 TIME LEFT:  2.00D  GRAD.:     0.545 HEAT: -24.53519
 CYCLE:   266 TIME:   0.008 TIME LEFT:  2.00D  GRAD.:     0.332 HEAT: -24.53530
 CYCLE:   267 TIME:   0.008 TIME LEFT:  2.00D  GRAD.:     0.288 HEAT: -24.53540
 CYCLE:   268 TIME:   0.012 TIME LEFT:  2.00D  GRAD.:     0.421 HEAT: -24.53550
 CYCLE:   269 TIME:   0.012 TIME LEFT:  2.00D  GRAD.:     0.425 HEAT: -24.53563
 CYCLE:   270 TIME:   0.012 TIME LEFT:  2.00D  GRAD.:     0.439 HEAT: -24.53576
 CYCLE:   271 TIME:   0.008 TIME LEFT:  2.00D  GRAD.:     0.347 HEAT: -24.53589
 CYCLE:   272 TIME:   0.012 TIME LEFT:  2.00D  GRAD.:     0.314 HEAT: -24.53599
 CYCLE:   273 TIME:   0.012 TIME LEFT:  2.00D  GRAD.:     0.335 HEAT: -24.53608
 CYCLE:   274 TIME:   0.008 TIME LEFT:  2.00D  GRAD.:     0.590 HEAT: -24.53618
 CYCLE:   275 TIME:   0.012 TIME LEFT:  2.00D  GRAD.:     0.247 HEAT: -24.53630
 CYCLE:   276 TIME:   0.008 TIME LEFT:  2.00D  GRAD.:     0.225 HEAT: -24.53637
 CYCLE:   277 TIME:   0.012 TIME LEFT:  2.00D  GRAD.:     0.326 HEAT: -24.53642
 CYCLE:   278 TIME:   0.012 TIME LEFT:  2.00D  GRAD.:     0.244 HEAT: -24.53652
 CYCLE:   279 TIME:   0.008 TIME LEFT:  2.00D  GRAD.:     0.285 HEAT: -24.53660
 CYCLE:   280 TIME:   0.012 TIME LEFT:  2.00D  GRAD.:     0.350 HEAT: -24.53667
 CYCLE:   281 TIME:   0.012 TIME LEFT:  2.00D  GRAD.:     0.312 HEAT: -24.53673
 CYCLE:   282 TIME:   0.008 TIME LEFT:  2.00D  GRAD.:     0.674 HEAT: -24.53679
 CYCLE:   283 TIME:   0.012 TIME LEFT:  2.00D  GRAD.:     0.448 HEAT: -24.53691
 CYCLE:   284 TIME:   0.016 TIME LEFT:  2.00D  GRAD.:     0.206 HEAT: -24.53699
 CYCLE:   285 TIME:   0.008 TIME LEFT:  2.00D  GRAD.:     0.164 HEAT: -24.53704

 -------------------------------------------------------------------------------
 pm3  precise nosym THREADS=1
 InChI=1S/C12H22/c1-4-6-8-12-9-11(7-5-2)10(12)3/h6,8,10-12H,4-5,7,9H2,1-3H3



     HERBERTS TEST WAS SATISFIED IN BFGS                      
     SCF FIELD WAS ACHIEVED                                   


                              PM3 CALCULATION
                                                       MOPAC v23.1.2 MacOS
                                                       Tue Jun  3 16:44:55 2025




          FINAL HEAT OF FORMATION =        -24.53704 KCAL/MOL =    -102.66296 KJ/MOL


          COSMO AREA              =        244.23 SQUARE ANGSTROMS
          COSMO VOLUME            =        259.22 CUBIC ANGSTROMS

          GRADIENT NORM           =          0.16431          =       0.02818 PER ATOM
          IONIZATION POTENTIAL    =          9.661046 EV
          HOMO LUMO ENERGIES (EV) =         -9.661  1.127
          NO. OF FILLED LEVELS    =         35
          MOLECULAR WEIGHT        =        166.3058         POINT GROUP:  C1  

          MOLECULAR DIMENSIONS (Angstroms)

            Atom       Atom       Distance
            H    25    H    22     9.43524
            H    29    H    17     6.76078
            H    32    H    16     4.77826


          SCF CALCULATIONS        =        286

          WALL-CLOCK TIME         =      3.051 SECONDS
          COMPUTATION TIME        =      2.117 SECONDS




   ATOM   CHEMICAL          X               Y               Z
  NUMBER   SYMBOL      (ANGSTROMS)     (ANGSTROMS)     (ANGSTROMS)

     1       C          1.54389677  *  -0.40571590  *   0.88065833  *
     2       C          0.36134791  *  -1.08148256  *   0.13031938  *
     3       C         -0.54998442  *  -0.85138158  *   1.37034905  *
     4       C          0.60696442  *  -0.10093333  *   2.07200824  *
     5       C          2.13148278  *   0.81464094  *   0.20506028  *
     6       C          3.00233692  *   0.43046749  *  -0.98111629  *
     7       C         -3.87247469  *   0.48955863  *  -0.06940798  *
     8       C          0.57913528  *  -2.52134738  *  -0.24862592  *
     9       C          3.54032304  *   1.65152999  *  -1.69169926  *
    10       C         -3.99015987  *   0.98831012  *  -1.49375199  *
    11       C         -1.78126576  *  -0.05586000  *   1.14804737  *
    12       C         -2.61546801  *  -0.28008787  *   0.13165090  *
    13       H          0.02852993  *  -0.50100729  *  -0.75873527  *
    14       H          2.35295134  *  -1.12320352  *   1.13873396  *
    15       H         -0.82869739  *  -1.79720937  *   1.88471692  *
    16       H          0.42174582  *   0.97135707  *   2.24573901  *
    17       H          0.92380102  *  -0.53693000  *   3.03071910  *
    18       H          3.84021333  *  -0.21122739  *  -0.64277445  *
    19       H          2.41598240  *  -0.19531176  *  -1.68472516  *
    20       H          2.72563810  *   1.38968417  *   0.94317463  *
    21       H          1.32315167  *   1.49904334  *  -0.12440708  *
    22       H         -4.72839197  *  -0.17088985  *   0.17650498  *
    23       H         -3.93819358  *   1.34109641  *   0.63724253  *
    24       H          4.14726212  *   2.27460437  *  -1.02132890  *
    25       H          4.17405785  *   1.37085834  *  -2.54251600  *
    26       H          2.73104742  *   2.28433366  *  -2.07999441  *
    27       H         -3.97288442  *   0.16193204  *  -2.21674037  *
    28       H         -3.16603325  *   1.66524914  *  -1.75339860  *
    29       H         -4.92779322  *   1.53805345  *  -1.64532434  *
    30       H          0.89813515  *  -3.13201877  *   0.60686592  *
    31       H          1.35395248  *  -2.60720099  *  -1.02202211  *
    32       H         -0.34334699  *  -2.96549430  *  -0.64506188  *
    33       H         -2.40318011  *  -1.06208864  *  -0.60961522  *
    34       H         -1.98408208  *   0.72887132  *   1.88835462  *

                             CARTESIAN COORDINATES

   1    C        1.543896767    -0.405715899     0.880658331
   2    C        0.361347915    -1.081482556     0.130319377
   3    C       -0.549984419    -0.851381578     1.370349047
   4    C        0.606964423    -0.100933333     2.072008238
   5    C        2.131482775     0.814640938     0.205060285
   6    C        3.002336924     0.430467489    -0.981116291
   7    C       -3.872474693     0.489558630    -0.069407979
   8    C        0.579135284    -2.521347376    -0.248625919
   9    C        3.540323035     1.651529994    -1.691699263
  10    C       -3.990159870     0.988310123    -1.493751989
  11    C       -1.781265763    -0.055860000     1.148047367
  12    C       -2.615468009    -0.280087873     0.131650897
  13    H        0.028529933    -0.501007289    -0.758735269
  14    H        2.352951340    -1.123203520     1.138733962
  15    H       -0.828697395    -1.797209370     1.884716922
  16    H        0.421745821     0.971357067     2.245739011
  17    H        0.923801021    -0.536930000     3.030719104
  18    H        3.840213332    -0.211227389    -0.642774447
  19    H        2.415982399    -0.195311761    -1.684725163
  20    H        2.725638103     1.389684174     0.943174629
  21    H        1.323151673     1.499043336    -0.124407077
  22    H       -4.728391974    -0.170889855     0.176504977
  23    H       -3.938193579     1.341096408     0.637242529
  24    H        4.147262120     2.274604374    -1.021328900
  25    H        4.174057853     1.370858341    -2.542516000
  26    H        2.731047421     2.284333661    -2.079994410
  27    H       -3.972884417     0.161932037    -2.216740366
  28    H       -3.166033249     1.665249143    -1.753398597
  29    H       -4.927793216     1.538053455    -1.645324336
  30    H        0.898135151    -3.132018766     0.606865922
  31    H        1.353952480    -2.607200991    -1.022022106
  32    H       -0.343346992    -2.965494303    -0.645061885
  33    H       -2.403180112    -1.062088637    -0.609615222
  34    H       -1.984082082     0.728871322     1.888354619


           Empirical Formula: C12 H22  =    34 atoms



      MOLECULAR POINT GROUP   :   C1  


                  EIGENVALUES  
 -42.10152 -37.12239 -35.28469 -30.65159 -30.06042 -27.06100 -23.73849 -22.52361
 -21.45918 -20.62126 -19.44539 -18.70420 -16.75651 -16.40527 -15.91512 -15.78499
 -15.29558 -14.82275 -14.40457 -14.15755 -13.96944 -13.61245 -13.37442 -13.30675
 -12.96070 -12.64104 -12.53205 -12.22141 -11.99861 -11.82004 -11.69269 -11.53820
 -11.30137 -11.06932  -9.66105   1.12693   3.19851   3.30999   3.32497   3.56210
   3.68384   3.75290   3.82960   3.88051   3.93198   3.94746   4.01277   4.08278
   4.10917   4.15066   4.19138   4.19864   4.26163   4.29964   4.45414   4.53197
   4.61956   4.67760   4.69183   4.77117   4.80202   4.85202   4.89056   5.03505
   5.05316   5.12890   5.43430   5.62234   5.84640   6.01347


              NET ATOMIC CHARGES AND DIPOLE CONTRIBUTIONS

  ATOM NO.   TYPE          CHARGE      No. of ELECS.   s-Pop       p-Pop       
    1          C          -0.093338        4.0933     1.19283     2.90051
    2          C          -0.092905        4.0929     1.19389     2.89902
    3          C          -0.059819        4.0598     1.17925     2.88056
    4          C          -0.106853        4.1069     1.17702     2.92983
    5          C          -0.093873        4.0939     1.16134     2.93253
    6          C          -0.099796        4.0998     1.15869     2.94111
    7          C          -0.059151        4.0592     1.14527     2.91388
    8          C          -0.102794        4.1028     1.13768     2.96511
    9          C          -0.108945        4.1089     1.13824     2.97071
   10          C          -0.106079        4.1061     1.13773     2.96835
   11          C          -0.137859        4.1379     1.19437     2.94349
   12          C          -0.156595        4.1566     1.19632     2.96028
   13          H           0.082391        0.9176     0.91761
   14          H           0.074759        0.9252     0.92524
   15          H           0.079779        0.9202     0.92022
   16          H           0.062890        0.9371     0.93711
   17          H           0.054396        0.9456     0.94560
   18          H           0.048207        0.9518     0.95179
   19          H           0.051487        0.9485     0.94851
   20          H           0.051223        0.9488     0.94878
   21          H           0.055952        0.9440     0.94405
   22          H           0.052328        0.9477     0.94767
   23          H           0.050507        0.9495     0.94949
   24          H           0.037296        0.9627     0.96270
   25          H           0.036682        0.9633     0.96332
   26          H           0.037825        0.9622     0.96217
   27          H           0.037639        0.9624     0.96236
   28          H           0.039829        0.9602     0.96017
   29          H           0.036464        0.9635     0.96354
   30          H           0.040546        0.9595     0.95945
   31          H           0.040768        0.9592     0.95923
   32          H           0.039749        0.9603     0.96025
   33          H           0.104291        0.8957     0.89571
   34          H           0.102995        0.8970     0.89700
 DIPOLE           X         Y         Z       TOTAL
 POINT-CHG.    -0.013    -0.011    -0.079     0.081
 HYBRID         0.000    -0.010     0.004     0.011
 SUM           -0.012    -0.021    -0.075     0.079


          ATOMIC ORBITAL ELECTRON POPULATIONS

     Atom    s        px        py        pz   
    1  C   1.19283   0.96112   0.97680   0.96259
    2  C   1.19389   0.96090   0.96674   0.97138
    3  C   1.17925   0.92435   0.98518   0.97103
    4  C   1.17702   0.96151   1.00388   0.96444
    5  C   1.16134   0.99339   0.96612   0.97302
    6  C   1.15869   0.99179   0.97406   0.97525
    7  C   1.14527   0.95896   0.98690   0.96802
    8  C   1.13768   1.00645   0.95254   1.00613
    9  C   1.13824   1.00133   0.97444   0.99494
   10  C   1.13773   1.00741   1.00304   0.95790
   11  C   1.19437   0.96235   0.99528   0.98586
   12  C   1.19632   0.96791   1.00287   0.98950
   13  H   0.91761
   14  H   0.92524
   15  H   0.92022
   16  H   0.93711
   17  H   0.94560
   18  H   0.95179
   19  H   0.94851
   20  H   0.94878
   21  H   0.94405
   22  H   0.94767
   23  H   0.94949
   24  H   0.96270
   25  H   0.96332
   26  H   0.96217
   27  H   0.96236
   28  H   0.96017
   29  H   0.96354
   30  H   0.95945
   31  H   0.95923
   32  H   0.96025
   33  H   0.89571
   34  H   0.89700
 *******************************************************************************
 **                                                                           **
 **                              MOPAC v23.1.2                                **
 **                                                                           **
 *******************************************************************************
 **          Digital Object Identifier (DOI): 10.5281/zenodo.6511958          **
 **    Visit the DOI location for information on how to cite this program.    **
 *******************************************************************************

                              PM3 CALCULATION RESULTS

 *******************************************************************************
 *  CALCULATION DONE: (MAX THREADS = 1)              Tue Jun  3 16:44:55 2025  *
 *  PM3        - The PM3 Hamiltonian to be used
 *  OLDGEO     - PREVIOUS GEOMETRY TO BE USED
 *  PRECISE    - TIGHTER CRITERIA TO BE USED
 *  NOSYM      - POINT-GROUP SYMMETRY SET TO C1
 *  THREADS=1  - MULTI-THREADING NOT USED
 *  T=         - A TIME OF 172800.0 SECONDS REQUESTED
 *  DUMP=N     - RESTART FILE WRITTEN EVERY 7200.0 SECONDS REQUESTED
 *  THERMO     - THERMODYNAMIC QUANTITIES TO BE CALCULATED
 *******************************************************************************
oldgeo thermo nosym precise THREADS=1  pm3
 InChI=1S/C12H22/c1-4-6-8-12-9-11(7-5-2)10(12)3/h6,8,10-12H,4-5,7,9H2,1-3H3

   ATOM   CHEMICAL          X               Y               Z
  NUMBER   SYMBOL      (ANGSTROMS)     (ANGSTROMS)     (ANGSTROMS)

     1       C          1.54389677  *  -0.40571590  *   0.88065833  *
     2       C          0.36134791  *  -1.08148256  *   0.13031938  *
     3       C         -0.54998442  *  -0.85138158  *   1.37034905  *
     4       C          0.60696442  *  -0.10093333  *   2.07200824  *
     5       C          2.13148278  *   0.81464094  *   0.20506028  *
     6       C          3.00233692  *   0.43046749  *  -0.98111629  *
     7       C         -3.87247469  *   0.48955863  *  -0.06940798  *
     8       C          0.57913528  *  -2.52134738  *  -0.24862592  *
     9       C          3.54032304  *   1.65152999  *  -1.69169926  *
    10       C         -3.99015987  *   0.98831012  *  -1.49375199  *
    11       C         -1.78126576  *  -0.05586000  *   1.14804737  *
    12       C         -2.61546801  *  -0.28008787  *   0.13165090  *
    13       H          0.02852993  *  -0.50100729  *  -0.75873527  *
    14       H          2.35295134  *  -1.12320352  *   1.13873396  *
    15       H         -0.82869739  *  -1.79720937  *   1.88471692  *
    16       H          0.42174582  *   0.97135707  *   2.24573901  *
    17       H          0.92380102  *  -0.53693000  *   3.03071910  *
    18       H          3.84021333  *  -0.21122739  *  -0.64277445  *
    19       H          2.41598240  *  -0.19531176  *  -1.68472516  *
    20       H          2.72563810  *   1.38968417  *   0.94317463  *
    21       H          1.32315167  *   1.49904334  *  -0.12440708  *
    22       H         -4.72839197  *  -0.17088985  *   0.17650498  *
    23       H         -3.93819358  *   1.34109641  *   0.63724253  *
    24       H          4.14726212  *   2.27460437  *  -1.02132890  *
    25       H          4.17405785  *   1.37085834  *  -2.54251600  *
    26       H          2.73104742  *   2.28433366  *  -2.07999441  *
    27       H         -3.97288442  *   0.16193204  *  -2.21674037  *
    28       H         -3.16603325  *   1.66524914  *  -1.75339860  *
    29       H         -4.92779322  *   1.53805345  *  -1.64532434  *
    30       H          0.89813515  *  -3.13201877  *   0.60686592  *
    31       H          1.35395248  *  -2.60720099  *  -1.02202211  *
    32       H         -0.34334699  *  -2.96549430  *  -0.64506188  *
    33       H         -2.40318011  *  -1.06208864  *  -0.60961522  *
    34       H         -1.98408208  *   0.72887132  *   1.88835462  *



          CARTESIAN COORDINATES 

    NO.       ATOM           X           Y           Z

     1         C          1.5439     -0.4057      0.8807
     2         C          0.3613     -1.0815      0.1303
     3         C         -0.5500     -0.8514      1.3703
     4         C          0.6070     -0.1009      2.0720
     5         C          2.1315      0.8146      0.2051
     6         C          3.0023      0.4305     -0.9811
     7         C         -3.8725      0.4896     -0.0694
     8         C          0.5791     -2.5213     -0.2486
     9         C          3.5403      1.6515     -1.6917
    10         C         -3.9902      0.9883     -1.4938
    11         C         -1.7813     -0.0559      1.1480
    12         C         -2.6155     -0.2801      0.1317
    13         H          0.0285     -0.5010     -0.7587
    14         H          2.3530     -1.1232      1.1387
    15         H         -0.8287     -1.7972      1.8847
    16         H          0.4217      0.9714      2.2457
    17         H          0.9238     -0.5369      3.0307
    18         H          3.8402     -0.2112     -0.6428
    19         H          2.4160     -0.1953     -1.6847
    20         H          2.7256      1.3897      0.9432
    21         H          1.3232      1.4990     -0.1244
    22         H         -4.7284     -0.1709      0.1765
    23         H         -3.9382      1.3411      0.6372
    24         H          4.1473      2.2746     -1.0213
    25         H          4.1741      1.3709     -2.5425
    26         H          2.7310      2.2843     -2.0800
    27         H         -3.9729      0.1619     -2.2167
    28         H         -3.1660      1.6652     -1.7534
    29         H         -4.9278      1.5381     -1.6453
    30         H          0.8981     -3.1320      0.6069
    31         H          1.3540     -2.6072     -1.0220
    32         H         -0.3433     -2.9655     -0.6451
    33         H         -2.4032     -1.0621     -0.6096
    34         H         -1.9841      0.7289      1.8884

  H: (PM3): J. J. P. STEWART, J. COMP. CHEM. 10, 209 (1989).
  C: (PM3): J. J. P. STEWART, J. COMP. CHEM. 10, 209 (1989).

           Empirical Formula: C12 H22  =    34 atoms



      MOLECULAR POINT GROUP   :   C1  


      RHF CALCULATION, NO. OF DOUBLY OCCUPIED LEVELS = 35



          HEAT OF FORMATION =     -24.537036 KCALS/MOLE


          CARTESIAN COORDINATE DERIVATIVES

   NUMBER  ATOM         X            Y            Z

     1       C     -0.015596     0.000682     0.003882
     2       C      0.003618     0.011053     0.009459
     3       C     -0.005452     0.021402     0.002689
     4       C     -0.011970     0.017466    -0.016727
     5       C      0.012316    -0.001766     0.014661
     6       C      0.009499    -0.004644    -0.022839
     7       C      0.000328    -0.002801    -0.019403
     8       C      0.000234     0.018283     0.001377
     9       C     -0.001928    -0.001015     0.011582
    10       C      0.008793     0.007485     0.022722
    11       C     -0.014415    -0.003750    -0.020588
    12       C     -0.017293    -0.003166     0.009739
    13       H     -0.008286     0.035798     0.006997
    14       H     -0.007409     0.027430    -0.000233
    15       H     -0.032033     0.003938    -0.018877
    16       H      0.006850     0.038486    -0.023607
    17       H     -0.024008    -0.035164    -0.018087
    18       H      0.010494    -0.025978    -0.008000
    19       H      0.024939     0.018137    -0.028755
    20       H      0.001425    -0.017892     0.007024
    21       H      0.009855    -0.030172     0.009339
    22       H     -0.006219    -0.029304    -0.001600
    23       H     -0.001370    -0.012397    -0.010788
    24       H      0.010445     0.020150    -0.007302
    25       H     -0.009382     0.003098     0.009776
    26       H     -0.002849     0.004596     0.028680
    27       H      0.034812    -0.004143     0.028468
    28       H      0.000512    -0.007211    -0.011754
    29       H     -0.004555     0.000930    -0.001399
    30       H      0.002343    -0.009260    -0.020080
    31       H     -0.008724     0.012995    -0.004791
    32       H     -0.003733    -0.002547     0.023485
    33       H      0.023363    -0.024153     0.036853
    34       H      0.015395    -0.026567     0.008098



          GRADIENT NORM =   0.16450

          MOLECULAR WEIGHT =  166.31



          ROTATIONAL CONSTANTS IN CM(-1)

          A =    0.03839072   B =    0.01443875   C =    0.01265791



           PRINCIPAL MOMENTS OF INERTIA IN UNITS OF 10**(-40)*GRAM-CM**2

          A =      729.1541   B =     1938.7246   C =     2211.4825


          ORIENTATION OF MOLECULE IN FORCE CALCULATION

    NO.       ATOM         X         Y         Z

     1          C      -1.4634   -0.3622   -1.0438
     2          C       0.0917   -0.3622   -1.0438
     3          C       0.0864    1.1938   -1.0438
     4          C      -1.4582    1.1810   -0.9526
     5          C      -2.1145   -1.0665    0.1270
     6          C      -2.0375   -2.5784   -0.0185
     7          C       2.7250    2.1996    1.5898
     8          C       0.7346   -1.0025   -2.2442
     9          C      -2.6344   -3.2813    1.1794
    10          C       3.2850    1.2091    2.5881
    11          C       0.7843    1.8578    0.0833
    12          C       2.0065    1.5074    0.4864
    13          H       0.5215   -0.7885   -0.1102
    14          H      -1.8914   -0.7380   -1.9986
    15          H       0.4611    1.6283   -1.9965
    16          H      -1.8671    1.5852   -0.0125
    17          H      -1.9722    1.6933   -1.7790
    18          H      -2.5591   -2.8962   -0.9433
    19          H      -0.9801   -2.8847   -0.1552
    20          H      -3.1724   -0.7449    0.2038
    21          H      -1.6383   -0.7528    1.0784
    22          H       3.5442    2.8020    1.1480
    23          H       2.0639    2.9249    2.1052
    24          H      -3.6902   -3.0140    1.3202
    25          H      -2.5838   -4.3718    1.0680
    26          H      -2.1066   -3.0214    2.1068
    27          H       3.9799    0.5030    2.1143
    28          H       2.4894    0.6169    3.0583
    29          H       3.8323    1.7206    3.3900
    30          H       0.3446   -0.5992   -3.1885
    31          H       0.5559   -2.0860   -2.2497
    32          H       1.8204   -0.8401   -2.2397
    33          H       2.5426    0.6785    0.0051
    34          H       0.2403    2.6807    0.5647


    FIRST DERIVATIVES WILL BE USED IN THE CALCULATION OF SECOND DERIVATIVES

          ESTIMATED TIME TO COMPLETE CALCULATION =        6.38 SECONDS

    FOR POINT-GROUP C1   THERE ARE   1 UNIQUE SYMMETRY FUNCTIONS.

 STEP:   1 TIME =     0.04 SECS, INTEGRAL =      0.04 TIME LEFT: 172799.95
 STEP:   2 TIME =     0.04 SECS, INTEGRAL =      0.07 TIME LEFT: 172799.91
 STEP:   3 TIME =     0.04 SECS, INTEGRAL =      0.11 TIME LEFT: 172799.87
 STEP:   4 TIME =     0.04 SECS, INTEGRAL =      0.15 TIME LEFT: 172799.83
 STEP:   5 TIME =     0.04 SECS, INTEGRAL =      0.19 TIME LEFT: 172799.80
 STEP:   6 TIME =     0.04 SECS, INTEGRAL =      0.23 TIME LEFT: 172799.76
 STEP:   7 TIME =     0.04 SECS, INTEGRAL =      0.27 TIME LEFT: 172799.72
 STEP:   8 TIME =     0.04 SECS, INTEGRAL =      0.30 TIME LEFT: 172799.68
 STEP:   9 TIME =     0.04 SECS, INTEGRAL =      0.34 TIME LEFT: 172799.64
 STEP:  10 TIME =     0.04 SECS, INTEGRAL =      0.38 TIME LEFT: 172799.61
 STEP:  11 TIME =     0.04 SECS, INTEGRAL =      0.42 TIME LEFT: 172799.57
 STEP:  12 TIME =     0.04 SECS, INTEGRAL =      0.46 TIME LEFT: 172799.52
 STEP:  13 TIME =     0.04 SECS, INTEGRAL =      0.50 TIME LEFT: 172799.48
 STEP:  14 TIME =     0.04 SECS, INTEGRAL =      0.54 TIME LEFT: 172799.45
 STEP:  15 TIME =     0.04 SECS, INTEGRAL =      0.58 TIME LEFT: 172799.41
 STEP:  16 TIME =     0.04 SECS, INTEGRAL =      0.62 TIME LEFT: 172799.37
 STEP:  17 TIME =     0.04 SECS, INTEGRAL =      0.65 TIME LEFT: 172799.33
 STEP:  18 TIME =     0.04 SECS, INTEGRAL =      0.69 TIME LEFT: 172799.29
 STEP:  19 TIME =     0.04 SECS, INTEGRAL =      0.73 TIME LEFT: 172799.25
 STEP:  20 TIME =     0.04 SECS, INTEGRAL =      0.77 TIME LEFT: 172799.21
 STEP:  21 TIME =     0.04 SECS, INTEGRAL =      0.81 TIME LEFT: 172799.17
 STEP:  22 TIME =     0.04 SECS, INTEGRAL =      0.85 TIME LEFT: 172799.13
 STEP:  23 TIME =     0.04 SECS, INTEGRAL =      0.89 TIME LEFT: 172799.09
 STEP:  24 TIME =     0.04 SECS, INTEGRAL =      0.93 TIME LEFT: 172799.05
 STEP:  25 TIME =     0.04 SECS, INTEGRAL =      0.97 TIME LEFT: 172799.02
 STEP:  26 TIME =     0.04 SECS, INTEGRAL =      1.01 TIME LEFT: 172798.98
 STEP:  27 TIME =     0.04 SECS, INTEGRAL =      1.04 TIME LEFT: 172798.94
 STEP:  28 TIME =     0.04 SECS, INTEGRAL =      1.09 TIME LEFT: 172798.90
 STEP:  29 TIME =     0.04 SECS, INTEGRAL =      1.12 TIME LEFT: 172798.86
 STEP:  30 TIME =     0.04 SECS, INTEGRAL =      1.16 TIME LEFT: 172798.82
 STEP:  31 TIME =     0.04 SECS, INTEGRAL =      1.21 TIME LEFT: 172798.78
 STEP:  32 TIME =     0.04 SECS, INTEGRAL =      1.25 TIME LEFT: 172798.73
 STEP:  33 TIME =     0.04 SECS, INTEGRAL =      1.29 TIME LEFT: 172798.70
 STEP:  34 TIME =     0.04 SECS, INTEGRAL =      1.33 TIME LEFT: 172798.66
 STEP:  35 TIME =     0.04 SECS, INTEGRAL =      1.37 TIME LEFT: 172798.62
 STEP:  36 TIME =     0.04 SECS, INTEGRAL =      1.41 TIME LEFT: 172798.57
 STEP:  37 TIME =     0.04 SECS, INTEGRAL =      1.45 TIME LEFT: 172798.54
 STEP:  38 TIME =     0.04 SECS, INTEGRAL =      1.49 TIME LEFT: 172798.50
 STEP:  39 TIME =     0.04 SECS, INTEGRAL =      1.53 TIME LEFT: 172798.46
 STEP:  40 TIME =     0.04 SECS, INTEGRAL =      1.57 TIME LEFT: 172798.42
 STEP:  41 TIME =     0.04 SECS, INTEGRAL =      1.61 TIME LEFT: 172798.38
 STEP:  42 TIME =     0.04 SECS, INTEGRAL =      1.64 TIME LEFT: 172798.34
 STEP:  43 TIME =     0.04 SECS, INTEGRAL =      1.68 TIME LEFT: 172798.30
 STEP:  44 TIME =     0.04 SECS, INTEGRAL =      1.72 TIME LEFT: 172798.26
 STEP:  45 TIME =     0.04 SECS, INTEGRAL =      1.76 TIME LEFT: 172798.22
 STEP:  46 TIME =     0.04 SECS, INTEGRAL =      1.80 TIME LEFT: 172798.18
 STEP:  47 TIME =     0.04 SECS, INTEGRAL =      1.84 TIME LEFT: 172798.14
 STEP:  48 TIME =     0.04 SECS, INTEGRAL =      1.88 TIME LEFT: 172798.11
 STEP:  49 TIME =     0.04 SECS, INTEGRAL =      1.92 TIME LEFT: 172798.07
 STEP:  50 TIME =     0.04 SECS, INTEGRAL =      1.96 TIME LEFT: 172798.03
 STEP:  51 TIME =     0.04 SECS, INTEGRAL =      2.00 TIME LEFT: 172797.98
 STEP:  52 TIME =     0.04 SECS, INTEGRAL =      2.04 TIME LEFT: 172797.95
 STEP:  53 TIME =     0.04 SECS, INTEGRAL =      2.08 TIME LEFT: 172797.91
 STEP:  54 TIME =     0.04 SECS, INTEGRAL =      2.12 TIME LEFT: 172797.87
 STEP:  55 TIME =     0.04 SECS, INTEGRAL =      2.16 TIME LEFT: 172797.83
 STEP:  56 TIME =     0.04 SECS, INTEGRAL =      2.20 TIME LEFT: 172797.79
 STEP:  57 TIME =     0.04 SECS, INTEGRAL =      2.24 TIME LEFT: 172797.74
 STEP:  58 TIME =     0.04 SECS, INTEGRAL =      2.28 TIME LEFT: 172797.70
 STEP:  59 TIME =     0.04 SECS, INTEGRAL =      2.32 TIME LEFT: 172797.66
 STEP:  60 TIME =     0.04 SECS, INTEGRAL =      2.36 TIME LEFT: 172797.62
 STEP:  61 TIME =     0.04 SECS, INTEGRAL =      2.40 TIME LEFT: 172797.58
 STEP:  62 TIME =     0.04 SECS, INTEGRAL =      2.44 TIME LEFT: 172797.54
 STEP:  63 TIME =     0.04 SECS, INTEGRAL =      2.48 TIME LEFT: 172797.50
 STEP:  64 TIME =     0.04 SECS, INTEGRAL =      2.52 TIME LEFT: 172797.46
 STEP:  65 TIME =     0.04 SECS, INTEGRAL =      2.56 TIME LEFT: 172797.43
 STEP:  66 TIME =     0.04 SECS, INTEGRAL =      2.60 TIME LEFT: 172797.38
 STEP:  67 TIME =     0.04 SECS, INTEGRAL =      2.64 TIME LEFT: 172797.34
 STEP:  68 TIME =     0.04 SECS, INTEGRAL =      2.68 TIME LEFT: 172797.30
 STEP:  69 TIME =     0.04 SECS, INTEGRAL =      2.72 TIME LEFT: 172797.26
 STEP:  70 TIME =     0.04 SECS, INTEGRAL =      2.76 TIME LEFT: 172797.23
 STEP:  71 TIME =     0.04 SECS, INTEGRAL =      2.80 TIME LEFT: 172797.19
 STEP:  72 TIME =     0.04 SECS, INTEGRAL =      2.84 TIME LEFT: 172797.14
 STEP:  73 TIME =     0.04 SECS, INTEGRAL =      2.88 TIME LEFT: 172797.10
 STEP:  74 TIME =     0.04 SECS, INTEGRAL =      2.92 TIME LEFT: 172797.06
 STEP:  75 TIME =     0.04 SECS, INTEGRAL =      2.96 TIME LEFT: 172797.02
 STEP:  76 TIME =     0.04 SECS, INTEGRAL =      3.01 TIME LEFT: 172796.98
 STEP:  77 TIME =     0.04 SECS, INTEGRAL =      3.05 TIME LEFT: 172796.93
 STEP:  78 TIME =     0.04 SECS, INTEGRAL =      3.09 TIME LEFT: 172796.89
 STEP:  79 TIME =     0.04 SECS, INTEGRAL =      3.13 TIME LEFT: 172796.86
 STEP:  80 TIME =     0.04 SECS, INTEGRAL =      3.17 TIME LEFT: 172796.82
 STEP:  81 TIME =     0.04 SECS, INTEGRAL =      3.21 TIME LEFT: 172796.78
 STEP:  82 TIME =     0.04 SECS, INTEGRAL =      3.25 TIME LEFT: 172796.74
 STEP:  83 TIME =     0.04 SECS, INTEGRAL =      3.29 TIME LEFT: 172796.70
 STEP:  84 TIME =     0.04 SECS, INTEGRAL =      3.32 TIME LEFT: 172796.66
 STEP:  85 TIME =     0.04 SECS, INTEGRAL =      3.36 TIME LEFT: 172796.62
 STEP:  86 TIME =     0.04 SECS, INTEGRAL =      3.40 TIME LEFT: 172796.58
 STEP:  87 TIME =     0.04 SECS, INTEGRAL =      3.44 TIME LEFT: 172796.54
 STEP:  88 TIME =     0.04 SECS, INTEGRAL =      3.48 TIME LEFT: 172796.50
 STEP:  89 TIME =     0.04 SECS, INTEGRAL =      3.52 TIME LEFT: 172796.46
 STEP:  90 TIME =     0.04 SECS, INTEGRAL =      3.55 TIME LEFT: 172796.43
 STEP:  91 TIME =     0.04 SECS, INTEGRAL =      3.60 TIME LEFT: 172796.39
 STEP:  92 TIME =     0.04 SECS, INTEGRAL =      3.64 TIME LEFT: 172796.35
 STEP:  93 TIME =     0.04 SECS, INTEGRAL =      3.68 TIME LEFT: 172796.30
 STEP:  94 TIME =     0.04 SECS, INTEGRAL =      3.71 TIME LEFT: 172796.27
 STEP:  95 TIME =     0.05 SECS, INTEGRAL =      3.76 TIME LEFT: 172796.22
 STEP:  96 TIME =     0.04 SECS, INTEGRAL =      3.80 TIME LEFT: 172796.18
 STEP:  97 TIME =     0.04 SECS, INTEGRAL =      3.85 TIME LEFT: 172796.14
 STEP:  98 TIME =     0.04 SECS, INTEGRAL =      3.89 TIME LEFT: 172796.10
 STEP:  99 TIME =     0.04 SECS, INTEGRAL =      3.93 TIME LEFT: 172796.05
 STEP: 100 TIME =     0.04 SECS, INTEGRAL =      3.97 TIME LEFT: 172796.01
 STEP: 101 TIME =     0.04 SECS, INTEGRAL =      4.02 TIME LEFT: 172795.97
 STEP: 102 TIME =     0.04 SECS, INTEGRAL =      4.06 TIME LEFT: 172795.93

(To convert to Hartree/Bohr^2, multiply by (10^(-21) x N x a0^2)/(4.184 x 627.51) =  0.0642)


           FORCE MATRIX IN MILLIDYNES/ANGSTROM


                  C  1       C  2       C  3       C  4       C  5       C  6
 ------------------------------------------------------------------------------
     C    1  14.503057
     C    2   3.227502  14.407896
     C    3   1.794347   3.178519  14.810357
     C    4   3.524411   1.804919   3.486714  14.368517
     C    5   4.337027   0.534174   0.041733   0.542829  14.466923
     C    6   0.650199   0.033511   0.004646   0.049613   4.168409  14.370272
     C    7   0.001797   0.008441   0.142011   0.011062   0.000380   0.000205
     C    8   0.541281   4.649088   0.541171   0.042823   0.033996   0.004986
     C    9   0.054822   0.002352   0.000614   0.009618   0.663322   4.483885
     C   10   0.000279   0.000977   0.018664   0.002356   0.000195   0.000160
     C   11   0.040402   0.548602   5.076934   0.571294   0.004808   0.001154
     C   12   0.006145   0.053233   0.824982   0.048548   0.001074   0.000564
     H   13   0.437828   4.359303   0.437000   0.025110   0.032634   0.008991
     H   14   4.383230   0.439378   0.026898   0.428571   0.430094   0.034584
     H   15   0.026302   0.443688   4.357573   0.432774   0.001627   0.000514
     H   16   0.454497   0.027674   0.454525   4.641711   0.029453   0.002996
     H   17   0.441734   0.032590   0.439682   4.711399   0.032581   0.005702
     H   18   0.027778   0.002235   0.000484   0.001281   0.444884   4.448546
     H   19   0.030005   0.008302   0.000605   0.001794   0.444123   4.421003
     H   20   0.433567   0.046018   0.003802   0.018421   4.445082   0.445854
     H   21   0.450272   0.024659   0.001973   0.019675   4.422452   0.444045
     H   22   0.000326   0.001524   0.019534   0.001045   0.000093   0.000100
     H   23   0.000141   0.000277   0.003349   0.000463   0.000143   0.000080
     H   24   0.001938   0.000293   0.000133   0.000493   0.023424   0.463604
     H   25   0.009603   0.000684   0.000112   0.001923   0.051764   0.450266
     H   26   0.001655   0.000320   0.000098   0.000571   0.023774   0.463788
     H   27   0.000100   0.000129   0.000562   0.000069   0.000075   0.000043
     H   28   0.000153   0.000301   0.000773   0.000097   0.000111   0.000086
     H   29   0.000079   0.000259   0.003053   0.000515   0.000069   0.000062
     H   30   0.019862   0.470208   0.020019   0.001839   0.001123   0.000408
     H   31   0.012960   0.451271   0.047685   0.003952   0.001969   0.003957
     H   32   0.047558   0.452505   0.012181   0.003948   0.006013   0.000632
     H   33   0.001612   0.017174   0.086223   0.003333   0.000752   0.000313
     H   34   0.002603   0.034020   0.435048   0.030231   0.001164   0.000383


                  C  7       C  8       C  9       C 10       C 11       C 12
 ------------------------------------------------------------------------------
     C    7  14.689602
     C    8   0.000647  14.515913
     C    9   0.000200   0.000665  14.378325
     C   10   4.407820   0.000557   0.000156  14.343985
     C   11   0.824037   0.033529   0.000752   0.040599  18.266257
     C   12   4.973322   0.005248   0.000289   0.717089  10.668727  18.168602
     H   13   0.001416   0.420675   0.000926   0.000441   0.024910   0.014367
     H   14   0.000204   0.032735   0.001626   0.000108   0.001745   0.000764
     H   15   0.017501   0.031150   0.000224   0.001981   0.391684   0.024951
     H   16   0.000900   0.001931   0.000943   0.000308   0.026525   0.003301
     H   17   0.001286   0.004373   0.001415   0.000497   0.033729   0.005477
     H   18   0.000055   0.000721   0.437254   0.000032   0.000280   0.000134
     H   19   0.000087   0.004798   0.437964   0.000069   0.000407   0.000238
     H   20   0.000075   0.006027   0.023884   0.000067   0.000988   0.000220
     H   21   0.000148   0.001235   0.030863   0.000157   0.001359   0.000609
     H   22   4.421091   0.000320   0.000117   0.446326   0.032331   0.408756
     H   23   4.440091   0.000151   0.000048   0.435347   0.049576   0.460321
     H   24   0.000039   0.000175   4.723006   0.000028   0.000165   0.000054
     H   25   0.000061   0.000249   4.752136   0.000061   0.000227   0.000089
     H   26   0.000047   0.000241   4.721248   0.000036   0.000188   0.000110
     H   27   0.464957   0.000138   0.000031   4.725082   0.002067   0.026532
     H   28   0.461657   0.000188   0.000047   4.745473   0.002527   0.016063
     H   29   0.450079   0.000246   0.000058   4.749553   0.006915   0.052756
     H   30   0.000294   4.714651   0.000234   0.000085   0.001446   0.000785
     H   31   0.000294   4.728119   0.000531   0.000183   0.005888   0.000893
     H   32   0.000614   4.733788   0.000348   0.000172   0.001538   0.003031
     H   33   0.430832   0.004781   0.000233   0.025292   0.471342   4.748426
     H   34   0.086105   0.004588   0.000174   0.008986   4.757628   0.470993


                  H 13       H 14       H 15       H 16       H 17       H 18
 ------------------------------------------------------------------------------
     H   13   4.869635
     H   14   0.030042   4.891469
     H   15   0.030673   0.002396   4.843373
     H   16   0.002538   0.031989   0.032862   5.274720
     H   17   0.001034   0.027044   0.026629   0.551975   5.329351
     H   18   0.000595   0.024706   0.000090   0.000458   0.000299   5.069067
     H   19   0.012825   0.002305   0.000288   0.000415   0.000375   0.573822
     H   20   0.003128   0.024299   0.000563   0.010019   0.001940   0.025780
     H   21   0.027639   0.042647   0.000546   0.016196   0.001276   0.046100
     H   22   0.000263   0.000049   0.002971   0.000207   0.000101   0.000028
     H   23   0.000376   0.000079   0.000709   0.000218   0.000070   0.000030
     H   24   0.000310   0.000387   0.000069   0.000168   0.000054   0.024117
     H   25   0.000174   0.000480   0.000063   0.000187   0.000331   0.030280
     H   26   0.000233   0.000523   0.000043   0.000190   0.000078   0.048087
     H   27   0.000163   0.000053   0.000146   0.000075   0.000062   0.000011
     H   28   0.000373   0.000055   0.000193   0.000078   0.000061   0.000031
     H   29   0.000196   0.000035   0.000270   0.000091   0.000122   0.000016
     H   30   0.044737   0.021142   0.021777   0.000557   0.000599   0.000231
     H   31   0.030264   0.005147   0.003134   0.000517   0.000825   0.000962
     H   32   0.030936   0.002978   0.004787   0.000535   0.000810   0.000176
     H   33   0.022470   0.000497   0.010399   0.000718   0.000722   0.000102
     H   34   0.003044   0.000597   0.014519   0.028932   0.001982   0.000169


                  H 19       H 20       H 21       H 22       H 23       H 24
 ------------------------------------------------------------------------------
     H   19   5.037731
     H   20   0.046989   5.057906
     H   21   0.022481   0.570331   5.042438
     H   22   0.000037   0.000036   0.000111   5.019035
     H   23   0.000034   0.000042   0.000077   0.567042   5.051240
     H   24   0.048215   0.016518   0.001715   0.000022   0.000013   5.466077
     H   25   0.029079   0.001627   0.001900   0.000042   0.000016   0.574867
     H   26   0.024292   0.001426   0.020943   0.000027   0.000022   0.578116
     H   27   0.000031   0.000027   0.000057   0.023982   0.048161   0.000013
     H   28   0.000049   0.000039   0.000080   0.049304   0.024203   0.000014
     H   29   0.000030   0.000024   0.000061   0.028296   0.030342   0.000009
     H   30   0.000364   0.000355   0.000508   0.000082   0.000048   0.000039
     H   31   0.008889   0.000378   0.000269   0.000147   0.000073   0.000180
     H   32   0.000309   0.001251   0.000432   0.000094   0.000155   0.000073
     H   33   0.000213   0.000230   0.000343   0.017238   0.039076   0.000059
     H   34   0.000149   0.000361   0.000423   0.010410   0.030097   0.000058


                  H 25       H 26       H 27       H 28       H 29       H 30
 ------------------------------------------------------------------------------
     H   25   5.489790
     H   26   0.575249   5.465453
     H   27   0.000014   0.000012   5.470587
     H   28   0.000020   0.000026   0.579142   5.484009
     H   29   0.000019   0.000017   0.574020   0.574051   5.487710
     H   30   0.000065   0.000088   0.000039   0.000060   0.000050   5.451499
     H   31   0.000106   0.000126   0.000035   0.000039   0.000074   0.570033
     H   32   0.000109   0.000074   0.000078   0.000059   0.000070   0.570386
     H   33   0.000074   0.000083   0.019281   0.002671   0.002084   0.000824
     H   34   0.000057   0.000092   0.000595   0.000503   0.001758   0.000426


                  H 31       H 32       H 33       H 34
 ------------------------------------------------------
     H   31   5.446034
     H   32   0.561401   5.452517
     H   33   0.000767   0.009206   5.125508
     H   34   0.001006   0.000352   0.108469   5.132397


          HEAT OF FORMATION =     -24.537036 KCALS/MOLE

          ZERO POINT ENERGY     194.358 KCAL/MOL


           NORMAL COORDINATE ANALYSIS (Total motion = 1 Angstrom)


   Root No.       1         2         3         4         5         6         7         8

                 1 A       2 A       3 A       4 A       5 A       6 A       7 A       8 A   

                  24.6      35.9      69.6      71.1      82.2     107.3     132.0     168.3
  
           1    0.0006   -0.0006    0.0025   -0.0108   -0.0098   -0.0073    0.0039    0.0018
           2   -0.0047    0.0008   -0.0021    0.0093    0.0081   -0.0026   -0.0090    0.0019
           3   -0.0005    0.0132    0.0026   -0.0065   -0.0022   -0.0138   -0.0101    0.0033
           4    0.0006   -0.0006    0.0027   -0.0107   -0.0098   -0.0069    0.0039    0.0014
           5   -0.0039   -0.0004   -0.0051   -0.0017    0.0002   -0.0131    0.0054    0.0005
           6    0.0151    0.0102   -0.0131    0.0122    0.0001   -0.0092   -0.0008    0.0011
           7   -0.0005    0.0001    0.0059   -0.0001   -0.0018    0.0041   -0.0103    0.0023
           8   -0.0038   -0.0004   -0.0052   -0.0019   -0.0002   -0.0133    0.0051    0.0009
           9    0.0101    0.0072   -0.0061    0.0023   -0.0025    0.0174    0.0058   -0.0025
          10   -0.0010    0.0011    0.0062   -0.0007   -0.0018    0.0029   -0.0099    0.0014
          11   -0.0047    0.0001   -0.0024    0.0090    0.0076   -0.0032   -0.0084    0.0021
          12   -0.0006    0.0242    0.0030   -0.0029    0.0053   -0.0041   -0.0041   -0.0131
          13   -0.0116   -0.0007    0.0130   -0.0261   -0.0148   -0.0166   -0.0000    0.0109
          14   -0.0054   -0.0096   -0.0008    0.0060    0.0023    0.0004   -0.0066    0.0053
          15   -0.0078    0.0067    0.0093   -0.0172   -0.0087   -0.0173   -0.0107    0.0105
          16   -0.0152   -0.0121   -0.0202   -0.0206    0.0311    0.0002   -0.0079    0.0073
          17   -0.0053   -0.0082   -0.0008    0.0068    0.0029   -0.0003   -0.0077    0.0057
          18   -0.0111   -0.0147   -0.0077   -0.0248    0.0074    0.0010    0.0017    0.0008
          19   -0.0031    0.0288   -0.0114    0.0044    0.0011    0.0150    0.0107   -0.0055
          20    0.0152    0.0120    0.0042   -0.0025   -0.0062    0.0118   -0.0101    0.0017
          21    0.0041   -0.0259    0.0101   -0.0023   -0.0020   -0.0027   -0.0117    0.0055
          22    0.0137   -0.0027   -0.0141    0.0008   -0.0120   -0.0134    0.0271   -0.0098
          23   -0.0076   -0.0040   -0.0000   -0.0175   -0.0071    0.0072    0.0257   -0.0130
          24    0.0241    0.0110   -0.0251    0.0272    0.0029   -0.0242    0.0008    0.0024
          25   -0.0299   -0.0190   -0.0021    0.0511    0.0018    0.0036   -0.0057    0.0016
          26   -0.0066   -0.0212   -0.0013   -0.0028   -0.0031    0.0097    0.0101   -0.0047
          27   -0.0192   -0.0258    0.0010    0.0051   -0.0109    0.0087    0.0138   -0.0087
          28    0.0496   -0.0176    0.0184    0.0049    0.0159    0.0046    0.0097    0.0019
          29    0.0153    0.0233    0.0269    0.0026    0.0120    0.0229    0.0005   -0.0036
          30   -0.0254    0.0113    0.0156    0.0024    0.0075    0.0137   -0.0006   -0.0038
          31   -0.0067    0.0136    0.0073    0.0026    0.0067   -0.0040   -0.0101   -0.0086
          32   -0.0015    0.0056   -0.0019    0.0011    0.0041   -0.0332    0.0056   -0.0002
          33    0.0125   -0.0050   -0.0092   -0.0012   -0.0106    0.0343    0.0055    0.0054
          34    0.0004    0.0146   -0.0071   -0.0013   -0.0090    0.0183   -0.0177   -0.0053
          35    0.0127    0.0025   -0.0177   -0.0068   -0.0221    0.0041   -0.0156    0.0078
          36    0.0035   -0.0108    0.0206    0.0041    0.0144   -0.0007    0.0111    0.0019
          37   -0.0083    0.0003    0.0119   -0.0259   -0.0145   -0.0087   -0.0004    0.0032
          38    0.0001    0.0016   -0.0119    0.0030   -0.0002   -0.0326    0.0029    0.0030
          39    0.0210    0.0107   -0.0207    0.0216    0.0022   -0.0178    0.0001    0.0014
          40    0.0108   -0.0017   -0.0082   -0.0020   -0.0094   -0.0077    0.0122   -0.0003
          41   -0.0044    0.0097   -0.0008    0.0153    0.0155    0.0035   -0.0126   -0.0067
          42   -0.0052    0.0101    0.0070   -0.0128   -0.0054   -0.0159   -0.0120    0.0074
          43    0.0051   -0.0113    0.0021    0.0050   -0.0051    0.0193   -0.0109    0.0108
          44   -0.0067   -0.0037   -0.0025   -0.0111   -0.0047   -0.0005    0.0118    0.0005
          45    0.0110    0.0011   -0.0065    0.0001   -0.0060    0.0291    0.0084    0.0009
          46   -0.0077    0.0127    0.0127   -0.0003    0.0062   -0.0088   -0.0188   -0.0064
          47   -0.0051   -0.0071   -0.0018    0.0091    0.0049   -0.0053   -0.0151    0.0131
          48   -0.0033    0.0323    0.0056   -0.0027    0.0099   -0.0083   -0.0051   -0.0214
          49    0.0042   -0.0084    0.0023    0.0053   -0.0038    0.0191   -0.0091    0.0082
          50   -0.0049    0.0069   -0.0012    0.0150    0.0147    0.0052   -0.0097   -0.0077
          51   -0.0040    0.0344    0.0062   -0.0028    0.0111   -0.0091   -0.0054   -0.0236
          52   -0.0069   -0.0136   -0.0510   -0.0660    0.0769    0.0072   -0.0149    0.0095
          53   -0.0011    0.0090    0.0185    0.0052   -0.0189   -0.0174   -0.0140    0.0146
          54   -0.0173   -0.0198    0.0030    0.0015   -0.0109    0.0030    0.0079   -0.0037
          55   -0.0148   -0.0142   -0.0297   -0.0248    0.0447    0.0039   -0.0105    0.0070
          56   -0.0084   -0.0140   -0.0197    0.0165    0.0296    0.0089   -0.0149    0.0041
          57   -0.0013   -0.0181   -0.0388   -0.0812    0.0523    0.0092   -0.0007    0.0013
          58   -0.0113    0.0019    0.0208   -0.0272   -0.0252   -0.0209    0.0008    0.0127
          59   -0.0023   -0.0031    0.0192    0.0041   -0.0261   -0.0093   -0.0022    0.0079
          60   -0.0162    0.0152    0.0344   -0.0271   -0.0339   -0.0351   -0.0150    0.0228
          61   -0.0189    0.0052    0.0387   -0.0367   -0.0430   -0.0326   -0.0016    0.0219
          62   -0.0094   -0.0259   -0.0195    0.0028    0.0244    0.0148   -0.0034    0.0009
          63   -0.0029    0.0091    0.0026   -0.0107   -0.0019   -0.0139   -0.0107    0.0063
          64   -0.0319    0.0551   -0.0273    0.0048   -0.0054    0.0204    0.0153   -0.0084
          65    0.0519   -0.0320    0.0165   -0.0080   -0.0107    0.0025   -0.0355    0.0055
          66    0.0007   -0.0370   -0.0029   -0.0091   -0.0204   -0.0056   -0.0383    0.0049
          67   -0.0186    0.0502   -0.0214    0.0084    0.0048    0.0160    0.0335   -0.0041
          68   -0.0176    0.0526   -0.0040    0.0030   -0.0001    0.0217    0.0135   -0.0025
          69    0.0303   -0.0555    0.0088   -0.0049   -0.0058   -0.0152   -0.0160    0.0129
          70   -0.0299   -0.0170    0.0080    0.0581   -0.0143   -0.0012   -0.0013    0.0054
          71   -0.0018   -0.0148    0.0214   -0.0080   -0.0394   -0.0039    0.0242    0.0069
          72   -0.0281   -0.0229    0.0345    0.0672   -0.0626   -0.0018    0.0209   -0.0017
          73   -0.0342   -0.0277   -0.0305    0.0494    0.0462    0.0207   -0.0200   -0.0131
          74   -0.0064   -0.0200   -0.0011   -0.0019   -0.0027    0.0087    0.0085   -0.0036
          75   -0.0226   -0.0421   -0.0134   -0.0044    0.0054    0.0266    0.0238   -0.0263
          76   -0.0372   -0.0178    0.0304    0.1033   -0.0501   -0.0058    0.0058    0.0076
          77   -0.0125   -0.0394   -0.0245   -0.0063    0.0279    0.0326    0.0125   -0.0262
          78   -0.0134   -0.0214   -0.0110   -0.0236    0.0099    0.0077    0.0066   -0.0062
          79    0.0662   -0.0405    0.0302    0.0004    0.0118   -0.0053   -0.0487   -0.0838
          80    0.0491   -0.0186    0.0373   -0.0033    0.0056    0.0057   -0.0530   -0.0687
          81   -0.0515    0.0402    0.0175    0.0046    0.0109    0.0249   -0.0065   -0.0327
          82    0.0788   -0.0442    0.0354    0.0047    0.0234   -0.0018    0.0030   -0.0034
          83   -0.0220    0.0690    0.0143    0.0088    0.0180    0.0415    0.0590    0.0682
          84   -0.0230    0.0238    0.0284    0.0099    0.0277    0.0261    0.0616    0.0777
          85    0.0458   -0.0050    0.0136    0.0100    0.0248    0.0126    0.0745    0.0993
          86    0.0188    0.0287    0.0475    0.0064    0.0270    0.0308    0.0045   -0.0148
          87   -0.0250   -0.0007    0.0057   -0.0035   -0.0081    0.0032   -0.0473   -0.0632
          88    0.0225   -0.0026   -0.0223    0.0191   -0.0057   -0.0115    0.0165    0.0488
          89   -0.0119   -0.0051    0.0093   -0.0214   -0.0051    0.0311    0.0131    0.0426
          90    0.0186    0.0105   -0.0178    0.0180    0.0012   -0.0149   -0.0002    0.0019
          91    0.0155   -0.0049   -0.0209   -0.0101   -0.0218   -0.0224    0.0644   -0.0933
          92   -0.0079   -0.0036    0.0011   -0.0158   -0.0055    0.0089    0.0198    0.0007
          93    0.0265    0.0134   -0.0312    0.0338    0.0042   -0.0477   -0.0007   -0.0320
          94    0.0134   -0.0024   -0.0131    0.0024   -0.0105   -0.0121    0.0217    0.0024
          95   -0.0057   -0.0061   -0.0070   -0.0284   -0.0171   -0.0018    0.0630   -0.0971
          96    0.0345    0.0099   -0.0365    0.0423    0.0057   -0.0225    0.0048    0.0383
          97    0.0091    0.0050   -0.0149   -0.0086   -0.0281    0.0408   -0.0393    0.0003
          98    0.0240   -0.0075   -0.0413   -0.0163   -0.0526    0.0375   -0.0368    0.0172
          99   -0.0064   -0.0042    0.0527    0.0124    0.0456   -0.0324    0.0227   -0.0085
         100   -0.0165    0.0230    0.0190    0.0090    0.0268   -0.0268    0.0036   -0.0179
         101   -0.0135    0.0150    0.0227    0.0102    0.0349   -0.0710    0.0230   -0.0110
         102    0.0218   -0.0103   -0.0376   -0.0097   -0.0404    0.0737   -0.0095    0.0131


   Root No.       9        10        11        12        13        14        15        16

                 9 A      10 A      11 A      12 A      13 A      14 A      15 A      16 A   

                 176.8     189.2     209.6     268.4     280.2     340.6     378.3     382.4
  
           1    0.0030    0.0050    0.0030    0.0101   -0.0041    0.0000    0.0363   -0.0037
           2   -0.0044   -0.0026   -0.0013   -0.0082   -0.0031    0.0029   -0.0031   -0.0045
           3   -0.0046    0.0038   -0.0025    0.0042    0.0116   -0.0002    0.0239    0.0119
           4    0.0030    0.0055    0.0035    0.0102   -0.0019   -0.0027    0.0355   -0.0067
           5    0.0035    0.0002   -0.0025   -0.0042   -0.0071    0.0267    0.0133   -0.0119
           6   -0.0009   -0.0006   -0.0040    0.0115    0.0077    0.0039    0.0156    0.0339
           7   -0.0047    0.0028    0.0055    0.0110    0.0060   -0.0073    0.0065    0.0010
           8    0.0036    0.0006   -0.0014   -0.0020   -0.0086    0.0255    0.0141   -0.0152
           9    0.0034   -0.0020   -0.0033    0.0082   -0.0057   -0.0119   -0.0051    0.0140
          10   -0.0041    0.0032    0.0071    0.0094    0.0058   -0.0129    0.0120   -0.0004
          11   -0.0047   -0.0027   -0.0028   -0.0067   -0.0008    0.0090   -0.0051   -0.0042
          12    0.0095    0.0042    0.0304   -0.0215   -0.0140   -0.0268    0.0111   -0.0102
          13   -0.0014    0.0052   -0.0158   -0.0133   -0.0278    0.0033   -0.0143    0.0075
          14   -0.0081   -0.0019   -0.0131   -0.0048    0.0119   -0.0200    0.0050   -0.0112
          15   -0.0093    0.0047   -0.0209   -0.0062    0.0131   -0.0092   -0.0040    0.0048
          16   -0.0029   -0.0266   -0.0020   -0.0057   -0.0124   -0.0035   -0.0045    0.0146
          17   -0.0088   -0.0022   -0.0140   -0.0066    0.0111   -0.0254    0.0070   -0.0077
          18    0.0012   -0.0097   -0.0008    0.0030    0.0191    0.0018   -0.0039   -0.0244
          19    0.0057   -0.0030   -0.0117    0.0225   -0.0092    0.0050   -0.0200   -0.0109
          20   -0.0015    0.0024    0.0089    0.0126   -0.0017   -0.0185   -0.0166    0.0023
          21   -0.0067    0.0045    0.0166    0.0041    0.0029    0.0084   -0.0181   -0.0037
          22    0.0095    0.0023   -0.0035   -0.0247    0.0154   -0.0174   -0.0107   -0.0176
          23    0.0100    0.0015   -0.0029    0.0006    0.0329    0.0045   -0.0006    0.0245
          24   -0.0009   -0.0032   -0.0082   -0.0117   -0.0053    0.0107   -0.0026    0.0120
          25   -0.0041    0.0024   -0.0043   -0.0011    0.0002   -0.0067    0.0023    0.0049
          26    0.0061   -0.0022    0.0082   -0.0106   -0.0309   -0.0107    0.0043    0.0306
          27    0.0101    0.0049    0.0125    0.0035    0.0005    0.0127   -0.0035   -0.0098
          28   -0.0017   -0.0005   -0.0033    0.0014   -0.0015    0.0150   -0.0059   -0.0075
          29   -0.0002   -0.0030   -0.0064   -0.0120    0.0014    0.0041    0.0083    0.0013
[...]
 REDUCED MASS        0.2493         C  6 -- H 18         +17.6% ( 43.4%)     95.9%
 EFFECTIVE MASS      1.5254
 FORCE CONSTANT      1.2824

 VIBRATION         81   81A           ATOM PAIR      ENERGY CONTRIBUTION    RADIAL
 FREQUENCY          3024.08         C  7 -- H 23         +49.1% ( 69.2%)     98.0%
 TRANSITION DIPOLE   0.0428         C  7 -- H 22         +44.0% ( 65.5%)     97.4%
 TRAVEL (Ang.)       0.2258         C 12 -- H 33          +4.1% ( 20.0%)     99.9%
 REDUCED MASS        0.4374         C 11 -- H 34          +0.8% (  8.9%)     99.6%
 EFFECTIVE MASS      1.2942
 FORCE CONSTANT      2.3567

 VIBRATION         82   82A           ATOM PAIR      ENERGY CONTRIBUTION    RADIAL
 FREQUENCY          3027.21         C  5 -- H 20         +39.2% ( 61.7%)     98.3%
 TRANSITION DIPOLE   0.0141         C  5 -- H 21         +32.1% ( 55.9%)     97.2%
 TRAVEL (Ang.)       0.2760         C  6 -- H 18         +15.5% ( 38.8%)     98.5%
 REDUCED MASS        0.2924         C  6 -- H 19         +11.6% ( 33.6%)     96.9%
 EFFECTIVE MASS      1.2765
 FORCE CONSTANT      1.5789

 VIBRATION         83   83A           ATOM PAIR      ENERGY CONTRIBUTION    RADIAL
 FREQUENCY          3030.22         C  6 -- H 18         +39.3% ( 61.7%)     98.3%
 TRANSITION DIPOLE   0.0281         C  6 -- H 19         +31.7% ( 55.4%)     97.1%
 TRAVEL (Ang.)       0.2774         C  5 -- H 20         +14.5% ( 37.5%)     98.0%
 REDUCED MASS        0.2892         C  5 -- H 21         +12.8% ( 35.2%)     97.2%
 EFFECTIVE MASS      1.2709
 FORCE CONSTANT      1.5645

 VIBRATION         84   84A           ATOM PAIR      ENERGY CONTRIBUTION    RADIAL
 FREQUENCY          3031.65         C 12 -- H 33         +67.1% ( 83.1%)    100.0%
 TRANSITION DIPOLE   0.3157         C 11 -- H 34         +14.5% ( 38.6%)    100.0%
 TRAVEL (Ang.)       0.2162         C  4 -- H 16          +9.1% ( 30.5%)     98.2%
 REDUCED MASS        0.4760         C  4 -- H 17          +5.0% ( 22.7%)     94.7%
 EFFECTIVE MASS      1.4590
 FORCE CONSTANT      2.5777

 VIBRATION         85   85A           ATOM PAIR      ENERGY CONTRIBUTION    RADIAL
 FREQUENCY          3032.57         C  4 -- H 16         +48.3% ( 72.0%)     98.1%
 TRANSITION DIPOLE   0.0758         C  4 -- H 17         +28.1% ( 54.9%)     94.9%
 TRAVEL (Ang.)       0.2448         C 12 -- H 33         +17.5% ( 43.3%)    100.0%
 REDUCED MASS        0.3709         C 11 -- H 34          +1.2% ( 11.4%)     99.6%
 EFFECTIVE MASS      1.5396
 FORCE CONSTANT      2.0098

 VIBRATION         86   86A           ATOM PAIR      ENERGY CONTRIBUTION    RADIAL
 FREQUENCY          3034.33         C 11 -- H 34         +80.0% ( 91.0%)    100.0%
 TRANSITION DIPOLE   0.1574         C 12 -- H 33          +7.4% ( 27.8%)     99.7%
 TRAVEL (Ang.)       0.1852         C  4 -- H 16          +4.3% ( 21.2%)     97.7%
 REDUCED MASS        0.6482         C  4 -- H 17          +3.0% ( 17.7%)     95.7%
 EFFECTIVE MASS      1.5501
 FORCE CONSTANT      3.5163

 VIBRATION         87   87A           ATOM PAIR      ENERGY CONTRIBUTION    RADIAL
 FREQUENCY          3075.17         C  8 -- H 30         +63.2% ( 82.0%)     98.8%
 TRANSITION DIPOLE   0.0116         C  8 -- H 31         +25.8% ( 52.4%)     90.7%
 TRAVEL (Ang.)       0.2084         C  8 -- H 32          +9.8% ( 32.3%)     72.9%
 REDUCED MASS        0.5048         C  2 -- C  8          +1.0% ( 10.4%)      0.0%
 EFFECTIVE MASS      1.5057
 FORCE CONSTANT      2.8127

 VIBRATION         88   88A           ATOM PAIR      ENERGY CONTRIBUTION    RADIAL
 FREQUENCY          3078.09         C  9 -- H 26         +50.2% ( 73.1%)     97.2%
 TRANSITION DIPOLE   0.0100         C  9 -- H 24         +47.5% ( 71.1%)     96.8%
 TRAVEL (Ang.)       0.2082         C  6 -- C  9          +1.0% ( 10.2%)      0.0%
 REDUCED MASS        0.5054         C  9 -- H 25          +1.0% ( 10.1%)      0.8%
 EFFECTIVE MASS      1.5009
 FORCE CONSTANT      2.8214

 VIBRATION         89   89A           ATOM PAIR      ENERGY CONTRIBUTION    RADIAL
 FREQUENCY          3079.19         C  8 -- H 32         +55.6% ( 76.9%)     98.0%
 TRANSITION DIPOLE   0.0152         C  8 -- H 31         +40.8% ( 65.9%)     95.6%
 TRAVEL (Ang.)       0.2081         C  8 -- H 30          +2.4% ( 16.0%)     28.4%
 REDUCED MASS        0.5057         C  2 -- C  8          +1.0% ( 10.4%)      0.0%
 EFFECTIVE MASS      1.5088
 FORCE CONSTANT      2.8251

 VIBRATION         90   90A           ATOM PAIR      ENERGY CONTRIBUTION    RADIAL
 FREQUENCY          3081.21         C 10 -- H 27         +63.7% ( 82.3%)     98.7%
 TRANSITION DIPOLE   0.0110         C 10 -- H 28         +28.9% ( 55.5%)     92.4%
 TRAVEL (Ang.)       0.2050         C 10 -- H 29          +6.2% ( 25.6%)     61.1%
 REDUCED MASS        0.5206         C  7 -- C 10          +1.0% ( 10.2%)      0.0%
 EFFECTIVE MASS      1.5010
 FORCE CONSTANT      2.9121

 VIBRATION         91   91A           ATOM PAIR      ENERGY CONTRIBUTION    RADIAL
 FREQUENCY          3084.38         C  9 -- H 25         +61.7% ( 81.0%)     98.8%
 TRANSITION DIPOLE   0.0051         C  9 -- H 24         +19.8% ( 45.9%)     87.0%
 TRAVEL (Ang.)       0.2141         C  9 -- H 26         +17.0% ( 42.6%)     84.5%
 REDUCED MASS        0.4770         C  6 -- C  9          +1.0% ( 10.3%)      0.0%
 EFFECTIVE MASS      1.5030
 FORCE CONSTANT      2.6734

 VIBRATION         92   92A           ATOM PAIR      ENERGY CONTRIBUTION    RADIAL
 FREQUENCY          3085.99         C 10 -- H 29         +58.5% ( 78.9%)     98.3%
 TRANSITION DIPOLE   0.0116         C 10 -- H 28         +36.1% ( 61.9%)     94.5%
 TRAVEL (Ang.)       0.2086         C 10 -- H 27          +4.0% ( 20.7%)     46.8%
 REDUCED MASS        0.5022         C  7 -- C 10          +1.0% ( 10.3%)      0.1%
 EFFECTIVE MASS      1.5040
 FORCE CONSTANT      2.8181

 VIBRATION         93   93A           ATOM PAIR      ENERGY CONTRIBUTION    RADIAL
 FREQUENCY          3100.18         C  4 -- H 17         +62.8% ( 78.6%)     98.6%
 TRANSITION DIPOLE   0.0736         C  4 -- H 16         +35.1% ( 58.8%)     94.6%
 TRAVEL (Ang.)       0.2051         C  2 -- C  4          +0.7% (  8.3%)     97.7%
 REDUCED MASS        0.5169         C  1 -- C  4          +0.7% (  8.3%)     47.6%
 EFFECTIVE MASS      1.2877
 FORCE CONSTANT      2.9269

 VIBRATION         94   94A           ATOM PAIR      ENERGY CONTRIBUTION    RADIAL
 FREQUENCY          3171.97         C  8 -- H 32         +33.8% ( 56.0%)     97.1%
 TRANSITION DIPOLE   0.0241         C  8 -- H 30         +33.5% ( 55.7%)     97.1%
 TRAVEL (Ang.)       0.2549         C  8 -- H 31         +32.4% ( 54.8%)     96.9%
 REDUCED MASS        0.3271         C  2 -- C  8          +0.3% (  5.2%)    100.0%
 EFFECTIVE MASS      1.1362
 FORCE CONSTANT      1.9390

 VIBRATION         95   95A           ATOM PAIR      ENERGY CONTRIBUTION    RADIAL
 FREQUENCY          3181.22         C  9 -- H 25         +36.6% ( 58.2%)     97.6%
 TRANSITION DIPOLE   0.0156         C  9 -- H 24         +31.6% ( 54.1%)     96.8%
 TRAVEL (Ang.)       0.2541         C  9 -- H 26         +31.5% ( 54.0%)     96.8%
 REDUCED MASS        0.3284         C  6 -- C  9          +0.3% (  5.1%)     99.6%
 EFFECTIVE MASS      1.1369
 FORCE CONSTANT      1.9581

 VIBRATION         96   96A           ATOM PAIR      ENERGY CONTRIBUTION    RADIAL
 FREQUENCY          3183.08         C 10 -- H 29         +34.4% ( 56.4%)     97.3%
 TRANSITION DIPOLE   0.0177         C 10 -- H 28         +34.3% ( 56.3%)     97.3%
 TRAVEL (Ang.)       0.2543         C 10 -- H 27         +31.0% ( 53.6%)     96.7%
 REDUCED MASS        0.3276         C  7 -- C 10          +0.3% (  5.1%)     99.8%
 EFFECTIVE MASS      1.1359
 FORCE CONSTANT      1.9557

      SYMMETRY NUMBER FOR POINT-GROUP C1  =  1


          SYSTEM IS A GROUND STATE



 InChI=1S/C12H22/c1-4-6-8-12-9-11(7-5-2)10(12)3/h6,8,10-12H,4-5,7,9H2,1-3H3


          MOLECULE IS NOT LINEAR

          THERE ARE 96 GENUINE VIBRATIONS IN THIS SYSTEM
          THIS THERMODYNAMICS CALCULATION IS LIMITED TO
          MOLECULES WHICH HAVE NO INTERNAL ROTATIONS




                    CALCULATED THERMODYNAMIC PROPERTIES
                                          *
   TEMP. (K)   PARTITION FUNCTION   H.O.F.    ENTHALPY  HEAT CAPACITY ENTROPY
                                   KCAL/MOL   CAL/MOLE    CAL/K/MOL  CAL/K/MOL


 298.00  VIB.     0.5732D+06                  7530.1888    48.1001    51.6175
         ROT.     0.1995D+07                   888.2803     2.9808    31.8071
         INT.     0.1143D+13                  8418.4691    51.0809    83.4246
         TRA.     0.2073D+28                  1480.4672     4.9680    41.2320
         TOT.                      -24.537    9898.9363    56.0489   124.6566

 200.00  VIB.     0.7826D+04                  3616.8096    32.4720    35.8998
         ROT.     0.1097D+07                   596.1613     2.9808    30.6184
         INT.     0.8583D+10                  4212.9708    35.4528    66.5182
         TRA.     0.1140D+28                   993.6021     4.9680    39.2509
         TOT.                      -29.229    5206.5730    40.4208   105.7691

 210.00  VIB.     0.1231D+05                  3948.4229    33.8588    37.5175
         ROT.     0.1180D+07                   625.9693     2.9808    30.7638
         INT.     0.1452D+11                  4574.3922    36.8396    68.2813
         TRA.     0.1227D+28                  1043.2822     4.9680    39.4932
         TOT.                      -28.818    5617.6744    41.8076   107.7746

 220.00  VIB.     0.1927D+05                  4294.1522    35.2956    39.1256
         ROT.     0.1265D+07                   655.7774     2.9808    30.9025
         INT.     0.2438D+11                  4949.9296    38.2764    70.0281
         TRA.     0.1315D+28                  1092.9623     4.9680    39.7244
         TOT.                      -28.393    6042.8920    43.2444   109.7524

 230.00  VIB.     0.3006D+05                  4654.5065    36.7839    40.7272
         ROT.     0.1352D+07                   685.5855     2.9808    31.0350
         INT.     0.4066D+11                  5340.0920    39.7647    71.7622
         TRA.     0.1406D+28                  1142.6424     4.9680    39.9452
         TOT.                      -27.953    6482.7344    44.7327   111.7074

 240.00  VIB.     0.4673D+05                  5030.0001    38.3233    42.3250
         ROT.     0.1442D+07                   715.3935     2.9808    31.1619
         INT.     0.6736D+11                  5745.3936    41.3041    73.4869
         TRA.     0.1499D+28                  1192.3226     4.9680    40.1566
         TOT.                      -27.498    6937.7162    46.2721   113.6435

 250.00  VIB.     0.7241D+05                  5421.1359    39.9119    43.9215
         ROT.     0.1533D+07                   745.2016     2.9808    31.2835
         INT.     0.1110D+12                  6166.3375    42.8927    75.2050
         TRA.     0.1593D+28                  1242.0027     4.9680    40.3594
         TOT.                      -27.028    7408.3401    47.8607   115.5645

 260.00  VIB.     0.1119D+06                  5828.3915    41.5466    45.5186
         ROT.     0.1625D+07                   775.0097     2.9808    31.4005
         INT.     0.1819D+12                  6603.4012    44.5274    76.9190
         TRA.     0.1690D+28                  1291.6828     4.9680    40.5543
         TOT.                      -26.541    7895.0839    49.4954   117.4733

 270.00  VIB.     0.1725D+06                  6252.2084    43.2234    47.1179
         ROT.     0.1720D+07                   804.8177     2.9808    31.5130
         INT.     0.2967D+12                  7057.0261    46.2042    78.6308
         TRA.     0.1788D+28                  1341.3629     4.9680    40.7418
         TOT.                      -26.038    8398.3890    51.1722   119.3726

 280.00  VIB.     0.2653D+06                  6692.9835    44.9374    48.7207
         ROT.     0.1817D+07                   834.6258     2.9808    31.6214
         INT.     0.4819D+12                  7527.6093    47.9183    80.3420
         TRA.     0.1888D+28                  1391.0430     4.9680    40.9225
         TOT.                      -25.517    8918.6523    52.8863   121.2645

 290.00  VIB.     0.4073D+06                  7151.0644    46.6836    50.3280
         ROT.     0.1915D+07                   864.4339     2.9808    31.7260
         INT.     0.7798D+12                  8015.4982    49.6644    82.0539
         TRA.     0.1990D+28                  1440.7231     4.9680    41.0968
         TOT.                      -24.980    9456.2213    54.6324   123.1507

 300.00  VIB.     0.6243D+06                  7626.7453    48.4566    51.9404
         ROT.     0.2015D+07                   894.2419     2.9808    31.8270
         INT.     0.1258D+13                  8520.9872    51.4374    83.7674
         TRA.     0.2094D+28                  1490.4032     4.9680    41.2652
         TOT.                      -24.425   10011.3904    56.4054   125.0327

 310.00  VIB.     0.9557D+06                  8120.2663    50.2508    53.5585
         ROT.     0.2116D+07                   924.0500     2.9808    31.9248
         INT.     0.2022D+13                  9044.3163    53.2316    85.4833
         TRA.     0.2200D+28                  1540.0833     4.9680    41.4281
         TOT.                      -23.852   10584.3996    58.1996   126.9114

 320.00  VIB.     0.1461D+07                  8631.8134    52.0609    55.1824
         ROT.     0.2219D+07                   953.8580     2.9808    32.0194
         INT.     0.3243D+13                  9585.6714    55.0417    87.2018
         TRA.     0.2307D+28                  1589.7634     4.9680    41.5859
         TOT.                      -23.261   11175.4348    60.0097   128.7877

 330.00  VIB.     0.2232D+07                  9161.5196    53.8817    56.8123
         ROT.     0.2324D+07                   983.6661     2.9808    32.1111
         INT.     0.5189D+13                 10145.1857    56.8625    88.9234
         TRA.     0.2416D+28                  1639.4435     4.9680    41.7387
         TOT.                      -22.651   11784.6292    61.8306   130.6621

 340.00  VIB.     0.3408D+07                  9709.4676    55.7084    58.4479
         ROT.     0.2431D+07                  1013.4742     2.9808    32.2001
         INT.     0.8284D+13                 10722.9417    58.6892    90.6481
         TRA.     0.2527D+28                  1689.1236     4.9680    41.8870
         TOT.                      -22.024   12412.0654    63.6573   132.5351

 350.00  VIB.     0.5199D+07                 10275.6926    57.5364    60.0892
         ROT.     0.2539D+07                  1043.2822     2.9808    32.2865
         INT.     0.1320D+14                 11318.9748    60.5172    92.3757
         TRA.     0.2639D+28                  1738.8037     4.9680    42.0310
         TOT.                      -21.378   13057.7785    65.4852   134.4067

 360.00  VIB.     0.7928D+07                 10860.1859    59.3614    61.7356
         ROT.     0.2648D+07                  1073.0903     2.9808    32.3705
         INT.     0.2100D+14                 11933.2762    62.3422    94.1061
         TRA.     0.2753D+28                  1788.4838     4.9680    42.1710
         TOT.                      -20.714   13721.7600    67.3102   136.2771

 370.00  VIB.     0.1208D+08                 11462.8986    61.1797    63.3869
         ROT.     0.2759D+07                  1102.8984     2.9808    32.4521
         INT.     0.3334D+14                 12565.7969    64.1605    95.8390
         TRA.     0.2869D+28                  1838.1639     4.9680    42.3071
         TOT.                      -20.032   14403.9609    69.1285   138.1461

 380.00  VIB.     0.1841D+08                 12083.7454    62.9877    65.0425
         ROT.     0.2872D+07                  1132.7064     2.9808    32.5316
         INT.     0.5289D+14                 13216.4518    65.9685    97.5741
         TRA.     0.2986D+28                  1887.8440     4.9680    42.4396
         TOT.                      -19.332   15104.2959    70.9365   140.0137

 390.00  VIB.     0.2805D+08                 12722.6088    64.7825    66.7018
         ROT.     0.2986D+07                  1162.5145     2.9808    32.6091
         INT.     0.8377D+14                 13885.1233    67.7633    99.3109
         TRA.     0.3104D+28                  1937.5242     4.9680    42.5687
         TOT.                      -18.613   15822.6474    72.7313   141.8796

 400.00  VIB.     0.4273D+08                 13379.3426    66.5614    68.3644
         ROT.     0.3102D+07                  1192.3226     2.9808    32.6845
         INT.     0.1325D+15                 14571.6651    69.5422   101.0490
         TRA.     0.3224D+28                  1987.2043     4.9680    42.6944
         TOT.                      -17.877   16558.8694    74.5102   143.7434

   *: NOTE: HEATS OF FORMATION ARE RELATIVE TO THE
            ELEMENTS IN THEIR STANDARD STATE AT 298K
              (=  Standard Enthalpy of Formation).

            Hvib:  Zero-point energy is not included.
                   frequencies of less than zero cm-1 are not included.
            Hrot = (3/2)RT
            Htra = (3/2)RT + pV = (5/2)RT

            Heat capacity is Cp, not Cv

          For more information, see: HTTP://OpenMOPAC.net/Manual/thermochemistry.html


           FORCE CONSTANT IN CARTESIAN COORDINATES (Millidynes/A)

    ATOM   CHEMICAL       X               Y               Z
   NUMBER   SYMBOL  FORCE CONSTANT  FORCE CONSTANT  FORCE CONSTANT

      1       C        7.783792        8.260079        8.693941
      2       C        7.867208        7.803171        8.879658
      3       C        8.392862        7.912389        8.896640
      4       C        7.897929        7.913796        8.630523
      5       C        8.330140        8.321946        8.402368
      6       C        8.239340        8.173802        8.469570
      7       C        8.365776        8.451433        8.596685
      8       C        8.388319        8.371501        8.380917
      9       C        8.199378        8.464250        8.237595
     10       C        8.261267        8.221535        8.359380
     11       C       13.378425        6.848633        7.097197
     12       C       13.229590        6.805022        7.119018
     13       H        1.360993        1.333150        3.538836
     14       H        1.348187        1.193806        3.701742
     15       H        1.161075        1.333066        3.612179
     16       H        1.310702        1.294192        4.004799
     17       H        1.654600        1.647410        3.329558
     18       H        1.732280        1.068310        3.608029
     19       H        4.586056        1.037638        0.745464
     20       H        4.610358        1.058978        0.701973
     21       H        1.567389        1.055506        3.771224
     22       H        3.052152        1.842231        1.381856
     23       H        2.301150        2.410226        1.683814
     24       H        5.013533        0.995560        0.763765
     25       H        0.692613        5.318336        0.782342
     26       H        1.838534        0.983004        3.954050
     27       H        2.545942        2.568203        1.667434
     28       H        3.276607        2.002901        1.501393
     29       H        1.825185        1.823183        3.142043
     30       H        1.324340        1.367818        4.071242
     31       H        0.799141        5.220998        0.698749
     32       H        5.248579        0.775888        0.700690
     33       H        1.723842        3.038118        1.426609
     34       H        1.763972        3.013118        1.416066

 **********************
 *                    *
 * JOB ENDED NORMALLY *
 *                    *
 **********************



 TOTAL JOB TIME:            10.42 SECONDS

 == MOPAC DONE ==
