 *******************************************************************************
 **                                                                           **
 **                              MOPAC v23.1.2                                **
 **                                                                           **
 *******************************************************************************
 **          Digital Object Identifier (DOI): 10.5281/zenodo.6511958          **
 **    Visit the DOI location for information on how to cite this program.    **
 *******************************************************************************

                              PM3 CALCULATION RESULTS

 *******************************************************************************
 *  CALCULATION DONE: (MAX THREADS = 1)              Tue Jun  3 16:34:15 2025  *
 *  PM3        - The PM3 Hamiltonian to be used
 *  PRECISE    - TIGHTER CRITERIA TO BE USED
 *  NOSYM      - POINT-GROUP SYMMETRY SET TO C1
 *  THREADS=1  - MULTI-THREADING NOT USED
 *  T=         - A TIME OF 172800.0 SECONDS REQUESTED
 *  DUMP=N     - RESTART FILE WRITTEN EVERY 7200.0 SECONDS REQUESTED
 *******************************************************************************
pm3  precise nosym THREADS=1
 InChI=1S/C9H10/c1-2-5-9-7-3-6-8(9)4-1/h1,3-5,7-8H,2,6H2

   ATOM   CHEMICAL          X               Y               Z
  NUMBER   SYMBOL      (ANGSTROMS)     (ANGSTROMS)     (ANGSTROMS)

     1       C         -0.31750000  *  -0.37030000  *   0.75980000  *
     2       C         -1.76490000  *  -0.83060000  *   0.51400000  *
     3       C          2.21530000  *   0.53730000  *  -0.23700000  *
     4       C         -0.21140000  *   0.84890000  *  -0.09560000  *
     5       C          0.74280000  *  -1.37720000  *   0.37010000  *
     6       C          0.95320000  *   1.28970000  *  -0.58030000  *
     7       C         -2.39990000  *   0.32430000  *  -0.20500000  *
     8       C          1.93530000  *  -0.94690000  *  -0.08730000  *
     9       C         -1.52220000  *   1.24810000  *  -0.55630000  *
    10       H         -0.17960000  *  -0.08010000  *   1.82440000  *
    11       H         -1.81010000  *  -1.73380000  *  -0.13280000  *
    12       H         -2.28990000  *  -1.02450000  *   1.47360000  *
    13       H          2.61110000  *   0.92330000  *   0.72610000  *
    14       H          2.97910000  *   0.70060000  *  -1.02610000  *
    15       H         -3.44700000  *   0.36740000  *  -0.47410000  *
    16       H          0.56490000  *  -2.43990000  *   0.50460000  *
    17       H          0.98240000  *   2.10570000  *  -1.29190000  *
    18       H          2.70890000  *  -1.66630000  *  -0.33670000  *
    19       H         -1.75070000  *   2.12420000  *  -1.14940000  *



          CARTESIAN COORDINATES 

    NO.       ATOM           X           Y           Z

     1         C         -0.3175     -0.3703      0.7598
     2         C         -1.7649     -0.8306      0.5140
     3         C          2.2153      0.5373     -0.2370
     4         C         -0.2114      0.8489     -0.0956
     5         C          0.7428     -1.3772      0.3701
     6         C          0.9532      1.2897     -0.5803
     7         C         -2.3999      0.3243     -0.2050
     8         C          1.9353     -0.9469     -0.0873
     9         C         -1.5222      1.2481     -0.5563
    10         H         -0.1796     -0.0801      1.8244
    11         H         -1.8101     -1.7338     -0.1328
    12         H         -2.2899     -1.0245      1.4736
    13         H          2.6111      0.9233      0.7261
    14         H          2.9791      0.7006     -1.0261
    15         H         -3.4470      0.3674     -0.4741
    16         H          0.5649     -2.4399      0.5046
    17         H          0.9824      2.1057     -1.2919
    18         H          2.7089     -1.6663     -0.3367
    19         H         -1.7507      2.1242     -1.1494

  H: (PM3): J. J. P. STEWART, J. COMP. CHEM. 10, 209 (1989).
  C: (PM3): J. J. P. STEWART, J. COMP. CHEM. 10, 209 (1989).

           Empirical Formula: C9 H10  =    19 atoms



      MOLECULAR POINT GROUP   :   C1  


      RHF CALCULATION, NO. OF DOUBLY OCCUPIED LEVELS = 23


          Geometry optimization using EF

          DIAGONAL MATRIX USED AS START HESSIAN

 CYCLE:     1 TIME:   0.008 TIME LEFT:  2.00D  GRAD.:    83.124 HEAT:  43.93737
 CYCLE:     2 TIME:   0.012 TIME LEFT:  2.00D  GRAD.:    59.280 HEAT:  42.64062
 CYCLE:     3 TIME:   0.008 TIME LEFT:  2.00D  GRAD.:    41.324 HEAT:  41.93890
 CYCLE:     4 TIME:   0.004 TIME LEFT:  2.00D  GRAD.:    38.466 HEAT:  41.48786
 CYCLE:     5 TIME:   0.012 TIME LEFT:  2.00D  GRAD.:    34.533 HEAT:  41.15860
 CYCLE:     6 TIME:   0.008 TIME LEFT:  2.00D  GRAD.:    37.735 HEAT:  40.98122
 CYCLE:     7 TIME:   0.004 TIME LEFT:  2.00D  GRAD.:    41.753 HEAT:  40.86254
 CYCLE:     8 TIME:   0.008 TIME LEFT:  2.00D  GRAD.:    41.075 HEAT:  40.78000
 CYCLE:     9 TIME:   0.008 TIME LEFT:  2.00D  GRAD.:    42.509 HEAT:  40.71492
 CYCLE:    10 TIME:   0.012 TIME LEFT:  2.00D  GRAD.:    18.434 HEAT:  40.32765
 CYCLE:    11 TIME:   0.008 TIME LEFT:  2.00D  GRAD.:    17.779 HEAT:  40.27604
 CYCLE:    12 TIME:   0.008 TIME LEFT:  2.00D  GRAD.:    14.044 HEAT:  40.22888
 CYCLE:    13 TIME:   0.004 TIME LEFT:  2.00D  GRAD.:    11.745 HEAT:  40.19028
 CYCLE:    14 TIME:   0.008 TIME LEFT:  2.00D  GRAD.:    11.195 HEAT:  40.16012
 CYCLE:    15 TIME:   0.008 TIME LEFT:  2.00D  GRAD.:     9.051 HEAT:  40.12046
 CYCLE:    16 TIME:   0.008 TIME LEFT:  2.00D  GRAD.:     7.500 HEAT:  40.09970
 CYCLE:    17 TIME:   0.004 TIME LEFT:  2.00D  GRAD.:    10.713 HEAT:  40.09406
 CYCLE:    18 TIME:   0.008 TIME LEFT:  2.00D  GRAD.:     4.708 HEAT:  40.05019
 CYCLE:    19 TIME:   0.008 TIME LEFT:  2.00D  GRAD.:     5.153 HEAT:  40.03044
 CYCLE:    20 TIME:   0.004 TIME LEFT:  2.00D  GRAD.:     5.636 HEAT:  40.01410
 CYCLE:    21 TIME:   0.008 TIME LEFT:  2.00D  GRAD.:     5.052 HEAT:  39.99956
 CYCLE:    22 TIME:   0.004 TIME LEFT:  2.00D  GRAD.:     3.757 HEAT:  39.98665
 CYCLE:    23 TIME:   0.008 TIME LEFT:  2.00D  GRAD.:     4.070 HEAT:  39.98100
 CYCLE:    24 TIME:   0.004 TIME LEFT:  2.00D  GRAD.:     2.851 HEAT:  39.97397
 CYCLE:    25 TIME:   0.008 TIME LEFT:  2.00D  GRAD.:     3.946 HEAT:  39.97249
 CYCLE:    26 TIME:   0.004 TIME LEFT:  2.00D  GRAD.:     1.655 HEAT:  39.96591
 CYCLE:    27 TIME:   0.008 TIME LEFT:  2.00D  GRAD.:     2.758 HEAT:  39.96234
 CYCLE:    28 TIME:   0.008 TIME LEFT:  2.00D  GRAD.:     3.314 HEAT:  39.95756
 CYCLE:    29 TIME:   0.004 TIME LEFT:  2.00D  GRAD.:     1.579 HEAT:  39.95251
 CYCLE:    30 TIME:   0.008 TIME LEFT:  2.00D  GRAD.:     1.585 HEAT:  39.94796
 CYCLE:    31 TIME:   0.004 TIME LEFT:  2.00D  GRAD.:     2.746 HEAT:  39.94234
 CYCLE:    32 TIME:   0.008 TIME LEFT:  2.00D  GRAD.:     3.496 HEAT:  39.93486
 CYCLE:    33 TIME:   0.008 TIME LEFT:  2.00D  GRAD.:     2.245 HEAT:  39.92786
 CYCLE:    34 TIME:   0.004 TIME LEFT:  2.00D  GRAD.:     1.603 HEAT:  39.92186
 CYCLE:    35 TIME:   0.008 TIME LEFT:  2.00D  GRAD.:     1.732 HEAT:  39.91757
 CYCLE:    36 TIME:   0.004 TIME LEFT:  2.00D  GRAD.:     1.588 HEAT:  39.91361
 CYCLE:    37 TIME:   0.008 TIME LEFT:  2.00D  GRAD.:     0.953 HEAT:  39.91083
 CYCLE:    38 TIME:   0.008 TIME LEFT:  2.00D  GRAD.:     0.761 HEAT:  39.90920
 CYCLE:    39 TIME:   0.004 TIME LEFT:  2.00D  GRAD.:     0.962 HEAT:  39.90763
 CYCLE:    40 TIME:   0.008 TIME LEFT:  2.00D  GRAD.:     0.980 HEAT:  39.90583
 CYCLE:    41 TIME:   0.004 TIME LEFT:  2.00D  GRAD.:     0.768 HEAT:  39.90445
 CYCLE:    42 TIME:   0.008 TIME LEFT:  2.00D  GRAD.:     0.620 HEAT:  39.90356
 CYCLE:    43 TIME:   0.004 TIME LEFT:  2.00D  GRAD.:     0.585 HEAT:  39.90292
 CYCLE:    44 TIME:   0.008 TIME LEFT:  2.00D  GRAD.:     0.557 HEAT:  39.90222
 CYCLE:    45 TIME:   0.008 TIME LEFT:  2.00D  GRAD.:     0.413 HEAT:  39.90170
 CYCLE:    46 TIME:   0.004 TIME LEFT:  2.00D  GRAD.:     0.285 HEAT:  39.90137
 CYCLE:    47 TIME:   0.008 TIME LEFT:  2.00D  GRAD.:     0.221 HEAT:  39.90123
 CYCLE:    48 TIME:   0.004 TIME LEFT:  2.00D  GRAD.:     0.192 HEAT:  39.90112
 CYCLE:    49 TIME:   0.008 TIME LEFT:  2.00D  GRAD.:     0.191 HEAT:  39.90102
 CYCLE:    50 TIME:   0.004 TIME LEFT:  2.00D  GRAD.:     0.159 HEAT:  39.90094
 CYCLE:    51 TIME:   0.004 TIME LEFT:  2.00D  GRAD.:     0.105 HEAT:  39.90089
 CYCLE:    52 TIME:   0.008 TIME LEFT:  2.00D  GRAD.:     0.100 HEAT:  39.90087
 CYCLE:    53 TIME:   0.008 TIME LEFT:  2.00D  GRAD.:     0.079 HEAT:  39.90086
 CYCLE:    54 TIME:   0.004 TIME LEFT:  2.00D  GRAD.:     0.070 HEAT:  39.90084
 CYCLE:    55 TIME:   0.008 TIME LEFT:  2.00D  GRAD.:     0.064 HEAT:  39.90083
 CYCLE:    56 TIME:   0.004 TIME LEFT:  2.00D  GRAD.:     0.056 HEAT:  39.90082
 CYCLE:    57 TIME:   0.004 TIME LEFT:  2.00D  GRAD.:     0.074 HEAT:  39.90080
 CYCLE:    58 TIME:   0.008 TIME LEFT:  2.00D  GRAD.:     0.055 HEAT:  39.90080
 CYCLE:    59 TIME:   0.004 TIME LEFT:  2.00D  GRAD.:     0.044 HEAT:  39.90079

     GRADIENT =  0.04449 IS LESS THAN CUTOFF =  0.05000



 -------------------------------------------------------------------------------
 pm3  precise nosym THREADS=1
 InChI=1S/C9H10/c1-2-5-9-7-3-6-8(9)4-1/h1,3-5,7-8H,2,6H2



     GEOMETRY OPTIMISED USING EIGENVECTOR FOLLOWING (EF).     
     SCF FIELD WAS ACHIEVED                                   


                              PM3 CALCULATION
                                                       MOPAC v23.1.2 MacOS
                                                       Tue Jun  3 16:34:16 2025




          FINAL HEAT OF FORMATION =         39.90079 KCAL/MOL =     166.94490 KJ/MOL


          COSMO AREA              =        159.48 SQUARE ANGSTROMS
          COSMO VOLUME            =        158.43 CUBIC ANGSTROMS

          GRADIENT NORM           =          0.04449          =       0.01021 PER ATOM
          IONIZATION POTENTIAL    =          8.821033 EV
          HOMO LUMO ENERGIES (EV) =         -8.821  0.298
          NO. OF FILLED LEVELS    =         23
          MOLECULAR WEIGHT        =        118.1780         POINT GROUP:  C1  

          MOLECULAR DIMENSIONS (Angstroms)

            Atom       Atom       Distance
            H    18    H    15     6.57337
            H    17    H    12     4.95585
            H    11    H    10     2.76103


          SCF CALCULATIONS        =         66

          WALL-CLOCK TIME         =      0.398 SECONDS
          COMPUTATION TIME        =      0.238 SECONDS




   ATOM   CHEMICAL          X               Y               Z
  NUMBER   SYMBOL      (ANGSTROMS)     (ANGSTROMS)     (ANGSTROMS)

     1       C         -0.32994784  *  -0.38200046  *   0.71705273  *
     2       C         -1.77660971  *  -0.85653861  *   0.46718606  *
     3       C          2.21907070  *   0.51560624  *  -0.27716003  *
     4       C         -0.19858949  *   0.84585255  *  -0.15262697  *
     5       C          0.75268036  *  -1.35848088  *   0.41737828  *
     6       C          0.98228064  *   1.28387399  *  -0.59765979  *
     7       C         -2.43454119  *   0.31928141  *  -0.19489022  *
     8       C          1.93994522  *  -0.92873066  *  -0.02043866  *
     9       C         -1.54729154  *   1.27665902  *  -0.52002888  *
    10       H         -0.21425951  *  -0.07854050  *   1.78687327  *
    11       H         -1.81449437  *  -1.74585372  *  -0.18919161  *
    12       H         -2.29212869  *  -1.13673290  *   1.40289730  *
    13       H          2.71145032  *   0.95537431  *   0.61486373  *
    14       H          2.94433124  *   0.61520076  *  -1.10814018  *
    15       H         -3.50890046  *   0.34084815  *  -0.37275338  *
    16       H          0.53961394  *  -2.41815662  *   0.58785098  *
    17       H          1.07392215  *   2.17166155  *  -1.22981686  *
    18       H          2.76084009  *  -1.62733573  *  -0.21197709  *
    19       H         -1.74945055  *   2.22698292  *  -1.01243873  *

                             CARTESIAN COORDINATES

   1    C       -0.329947841    -0.382000462     0.717052734
   2    C       -1.776609713    -0.856538613     0.467186061
   3    C        2.219070703     0.515606244    -0.277160028
   4    C       -0.198589489     0.845852550    -0.152626971
   5    C        0.752680364    -1.358480876     0.417378279
   6    C        0.982280638     1.283873995    -0.597659792
   7    C       -2.434541194     0.319281405    -0.194890217
   8    C        1.939945216    -0.928730664    -0.020438660
   9    C       -1.547291542     1.276659021    -0.520028875
  10    H       -0.214259513    -0.078540503     1.786873273
  11    H       -1.814494367    -1.745853718    -0.189191611
  12    H       -2.292128686    -1.136732905     1.402897304
  13    H        2.711450323     0.955374309     0.614863726
  14    H        2.944331238     0.615200759    -1.108140178
  15    H       -3.508900458     0.340848152    -0.372753377
  16    H        0.539613936    -2.418156621     0.587850978
  17    H        1.073922153     2.171661546    -1.229816860
  18    H        2.760840088    -1.627335734    -0.211977091
  19    H       -1.749450550     2.226982921    -1.012438731


           Empirical Formula: C9 H10  =    19 atoms



      MOLECULAR POINT GROUP   :   C1  


                  EIGENVALUES  
 -41.44763 -35.14731 -30.78894 -27.23694 -26.04285 -21.70331 -20.23146 -19.30045
 -17.35350 -16.77837 -15.95817 -15.67966 -14.75488 -14.44017 -14.06357 -13.30798
 -12.97123 -12.77392 -12.37440 -11.81349 -11.09128  -9.83434  -8.82103   0.29783
   1.07324   1.94964   3.23224   3.31493   3.46760   3.58772   3.65547   3.72177
   3.93982   4.01663   4.11250   4.19367   4.45800   4.48872   4.75038   4.81069
   5.03683   5.40027   5.61964   5.82767   6.07332   6.29287


              NET ATOMIC CHARGES AND DIPOLE CONTRIBUTIONS

  ATOM NO.   TYPE          CHARGE      No. of ELECS.   s-Pop       p-Pop       
    1          C          -0.011882        4.0119     1.15713     2.85475
    2          C          -0.061510        4.0615     1.15558     2.90594
    3          C          -0.019574        4.0196     1.13318     2.88639
    4          C          -0.098614        4.0986     1.19233     2.90629
    5          C          -0.139032        4.1390     1.19397     2.94507
    6          C          -0.135562        4.1356     1.18886     2.94670
    7          C          -0.141564        4.1416     1.20555     2.93602
    8          C          -0.148401        4.1484     1.19594     2.95246
    9          C          -0.100911        4.1009     1.18418     2.91673
   10          H           0.079741        0.9203     0.92026
   11          H           0.063809        0.9362     0.93619
   12          H           0.056485        0.9435     0.94351
   13          H           0.064181        0.9358     0.93582
   14          H           0.056066        0.9439     0.94393
   15          H           0.110875        0.8891     0.88913
   16          H           0.104668        0.8953     0.89533
   17          H           0.106658        0.8933     0.89334
   18          H           0.099858        0.9001     0.90014
   19          H           0.114710        0.8853     0.88529
 DIPOLE           X         Y         Z       TOTAL
 POINT-CHG.    -0.009    -0.165     0.135     0.214
 HYBRID         0.005    -0.033    -0.053     0.063
 SUM           -0.004    -0.199     0.082     0.215


          ATOMIC ORBITAL ELECTRON POPULATIONS

     Atom    s        px        py        pz   
    1  C   1.15713   0.93392   0.93351   0.98732
    2  C   1.15558   0.94145   0.96765   0.99684
    3  C   1.13318   0.95519   0.92823   1.00297
    4  C   1.19233   0.94257   0.97023   0.99349
    5  C   1.19397   0.95440   0.98214   1.00852
    6  C   1.18886   0.94482   0.99638   1.00550
    7  C   1.20555   0.98066   0.96164   0.99372
    8  C   1.19594   0.97500   0.96923   1.00822
    9  C   1.18418   0.92969   0.98225   1.00479
   10  H   0.92026
   11  H   0.93619
   12  H   0.94351
   13  H   0.93582
   14  H   0.94393
   15  H   0.88913
   16  H   0.89533
   17  H   0.89334
   18  H   0.90014
   19  H   0.88529
 *******************************************************************************
 **                                                                           **
 **                              MOPAC v23.1.2                                **
 **                                                                           **
 *******************************************************************************
 **          Digital Object Identifier (DOI): 10.5281/zenodo.6511958          **
 **    Visit the DOI location for information on how to cite this program.    **
 *******************************************************************************

                              PM3 CALCULATION RESULTS

 *******************************************************************************
 *  CALCULATION DONE: (MAX THREADS = 1)              Tue Jun  3 16:34:16 2025  *
 *  PM3        - The PM3 Hamiltonian to be used
 *  OLDGEO     - PREVIOUS GEOMETRY TO BE USED
 *  PRECISE    - TIGHTER CRITERIA TO BE USED
 *  NOSYM      - POINT-GROUP SYMMETRY SET TO C1
 *  THREADS=1  - MULTI-THREADING NOT USED
 *  T=         - A TIME OF 172800.0 SECONDS REQUESTED
 *  DUMP=N     - RESTART FILE WRITTEN EVERY 7200.0 SECONDS REQUESTED
 *  THERMO     - THERMODYNAMIC QUANTITIES TO BE CALCULATED
 *******************************************************************************
oldgeo thermo nosym precise THREADS=1  pm3
 InChI=1S/C9H10/c1-2-5-9-7-3-6-8(9)4-1/h1,3-5,7-8H,2,6H2

   ATOM   CHEMICAL          X               Y               Z
  NUMBER   SYMBOL      (ANGSTROMS)     (ANGSTROMS)     (ANGSTROMS)

     1       C         -0.32994784  *  -0.38200046  *   0.71705273  *
     2       C         -1.77660971  *  -0.85653861  *   0.46718606  *
     3       C          2.21907070  *   0.51560624  *  -0.27716003  *
     4       C         -0.19858949  *   0.84585255  *  -0.15262697  *
     5       C          0.75268036  *  -1.35848088  *   0.41737828  *
     6       C          0.98228064  *   1.28387399  *  -0.59765979  *
     7       C         -2.43454119  *   0.31928141  *  -0.19489022  *
     8       C          1.93994522  *  -0.92873066  *  -0.02043866  *
     9       C         -1.54729154  *   1.27665902  *  -0.52002888  *
    10       H         -0.21425951  *  -0.07854050  *   1.78687327  *
    11       H         -1.81449437  *  -1.74585372  *  -0.18919161  *
    12       H         -2.29212869  *  -1.13673290  *   1.40289730  *
    13       H          2.71145032  *   0.95537431  *   0.61486373  *
    14       H          2.94433124  *   0.61520076  *  -1.10814018  *
    15       H         -3.50890046  *   0.34084815  *  -0.37275338  *
    16       H          0.53961394  *  -2.41815662  *   0.58785098  *
    17       H          1.07392215  *   2.17166155  *  -1.22981686  *
    18       H          2.76084009  *  -1.62733573  *  -0.21197709  *
    19       H         -1.74945055  *   2.22698292  *  -1.01243873  *



          CARTESIAN COORDINATES 

    NO.       ATOM           X           Y           Z

     1         C         -0.3299     -0.3820      0.7171
     2         C         -1.7766     -0.8565      0.4672
     3         C          2.2191      0.5156     -0.2772
     4         C         -0.1986      0.8459     -0.1526
     5         C          0.7527     -1.3585      0.4174
     6         C          0.9823      1.2839     -0.5977
     7         C         -2.4345      0.3193     -0.1949
     8         C          1.9399     -0.9287     -0.0204
     9         C         -1.5473      1.2767     -0.5200
    10         H         -0.2143     -0.0785      1.7869
    11         H         -1.8145     -1.7459     -0.1892
    12         H         -2.2921     -1.1367      1.4029
    13         H          2.7115      0.9554      0.6149
    14         H          2.9443      0.6152     -1.1081
    15         H         -3.5089      0.3408     -0.3728
    16         H          0.5396     -2.4182      0.5879
    17         H          1.0739      2.1717     -1.2298
    18         H          2.7608     -1.6273     -0.2120
    19         H         -1.7495      2.2270     -1.0124

  H: (PM3): J. J. P. STEWART, J. COMP. CHEM. 10, 209 (1989).
  C: (PM3): J. J. P. STEWART, J. COMP. CHEM. 10, 209 (1989).

           Empirical Formula: C9 H10  =    19 atoms



      MOLECULAR POINT GROUP   :   C1  


      RHF CALCULATION, NO. OF DOUBLY OCCUPIED LEVELS = 23



          HEAT OF FORMATION =      39.900788 KCALS/MOLE


          CARTESIAN COORDINATE DERIVATIVES

   NUMBER  ATOM         X            Y            Z

     1       C     -0.000692    -0.001421    -0.005171
     2       C      0.006111    -0.002033    -0.003233
     3       C      0.001910    -0.002470     0.003190
     4       C      0.010443     0.000988    -0.001643
     5       C     -0.011919     0.003568    -0.004802
     6       C      0.002049    -0.002918    -0.000790
     7       C      0.003408    -0.008726    -0.008172
     8       C     -0.009699     0.001081     0.004591
     9       C      0.008294     0.003891     0.003463
    10       H      0.010860    -0.000086    -0.009965
    11       H     -0.005068     0.000984    -0.004056
    12       H     -0.007076     0.001135     0.009997
    13       H      0.001739    -0.006742     0.005478
    14       H      0.006797    -0.002776     0.004446
    15       H     -0.004943    -0.001539     0.003843
    16       H      0.004943     0.004423    -0.011659
    17       H      0.003015    -0.001786     0.006773
    18       H     -0.012972     0.010450     0.008030
    19       H     -0.007200     0.003977    -0.000320



          GRADIENT NORM =   0.04500

          MOLECULAR WEIGHT =  118.18



          ROTATIONAL CONSTANTS IN CM(-1)

          A =    0.11457482   B =    0.05188887   C =    0.03750515



           PRINCIPAL MOMENTS OF INERTIA IN UNITS OF 10**(-40)*GRAM-CM**2

          A =      244.3185   B =      539.4750   C =      746.3710


          ORIENTATION OF MOLECULE IN FORCE CALCULATION

    NO.       ATOM         X         Y         Z

     1          C       0.2951   -0.8025    0.3021
     2          C       1.8380   -0.8025    0.3021
     3          C      -2.2100    0.6174    0.3021
     4          C      -0.0648    0.1834   -0.7840
     5          C      -0.3711   -0.4418    1.5833
     6          C      -1.2347    0.8278   -0.8057
     7          C       2.2005   -0.1372   -0.9940
     8          C      -1.5456    0.1956    1.5712
     9          C       1.1268    0.3942   -1.6058
    10          H      -0.0799   -1.8138    0.0079
    11          H       2.2534   -0.2403    1.1591
    12          H       2.2560   -1.8228    0.3657
    13          H      -2.9514   -0.1534    0.0057
    14          H      -2.7861    1.5478    0.4719
    15          H       3.2300   -0.1113   -1.3485
    16          H       0.1270   -0.7348    2.5125
    17          H      -1.4913    1.5435   -1.5919
    18          H      -2.0694    0.4376    2.5016
    19          H       1.1038    0.9363   -2.5503


    FIRST DERIVATIVES WILL BE USED IN THE CALCULATION OF SECOND DERIVATIVES

          ESTIMATED TIME TO COMPLETE CALCULATION =        0.89 SECONDS

    FOR POINT-GROUP C1   THERE ARE   1 UNIQUE SYMMETRY FUNCTIONS.

 STEP:   1 TIME =     0.02 SECS, INTEGRAL =      0.02 TIME LEFT: 172799.98
 STEP:   2 TIME =     0.02 SECS, INTEGRAL =      0.04 TIME LEFT: 172799.96
 STEP:   3 TIME =     0.02 SECS, INTEGRAL =      0.05 TIME LEFT: 172799.95
 STEP:   4 TIME =     0.02 SECS, INTEGRAL =      0.07 TIME LEFT: 172799.93
 STEP:   5 TIME =     0.02 SECS, INTEGRAL =      0.08 TIME LEFT: 172799.91
 STEP:   6 TIME =     0.02 SECS, INTEGRAL =      0.10 TIME LEFT: 172799.90
 STEP:   7 TIME =     0.02 SECS, INTEGRAL =      0.12 TIME LEFT: 172799.88
 STEP:   8 TIME =     0.02 SECS, INTEGRAL =      0.14 TIME LEFT: 172799.86
 STEP:   9 TIME =     0.02 SECS, INTEGRAL =      0.15 TIME LEFT: 172799.84
 STEP:  10 TIME =     0.02 SECS, INTEGRAL =      0.17 TIME LEFT: 172799.83
 STEP:  11 TIME =     0.02 SECS, INTEGRAL =      0.18 TIME LEFT: 172799.81
 STEP:  12 TIME =     0.02 SECS, INTEGRAL =      0.20 TIME LEFT: 172799.80
 STEP:  13 TIME =     0.02 SECS, INTEGRAL =      0.22 TIME LEFT: 172799.78
 STEP:  14 TIME =     0.02 SECS, INTEGRAL =      0.24 TIME LEFT: 172799.76
 STEP:  15 TIME =     0.02 SECS, INTEGRAL =      0.26 TIME LEFT: 172799.74
 STEP:  16 TIME =     0.02 SECS, INTEGRAL =      0.27 TIME LEFT: 172799.72
 STEP:  17 TIME =     0.02 SECS, INTEGRAL =      0.29 TIME LEFT: 172799.71
 STEP:  18 TIME =     0.02 SECS, INTEGRAL =      0.30 TIME LEFT: 172799.69
 STEP:  19 TIME =     0.02 SECS, INTEGRAL =      0.32 TIME LEFT: 172799.67
 STEP:  20 TIME =     0.02 SECS, INTEGRAL =      0.34 TIME LEFT: 172799.65
 STEP:  21 TIME =     0.02 SECS, INTEGRAL =      0.36 TIME LEFT: 172799.64
 STEP:  22 TIME =     0.02 SECS, INTEGRAL =      0.38 TIME LEFT: 172799.62
 STEP:  23 TIME =     0.02 SECS, INTEGRAL =      0.39 TIME LEFT: 172799.61
 STEP:  24 TIME =     0.02 SECS, INTEGRAL =      0.41 TIME LEFT: 172799.59
 STEP:  25 TIME =     0.02 SECS, INTEGRAL =      0.43 TIME LEFT: 172799.57
 STEP:  26 TIME =     0.02 SECS, INTEGRAL =      0.45 TIME LEFT: 172799.55
 STEP:  27 TIME =     0.02 SECS, INTEGRAL =      0.46 TIME LEFT: 172799.53
 STEP:  28 TIME =     0.02 SECS, INTEGRAL =      0.48 TIME LEFT: 172799.51
 STEP:  29 TIME =     0.02 SECS, INTEGRAL =      0.50 TIME LEFT: 172799.50
 STEP:  30 TIME =     0.02 SECS, INTEGRAL =      0.52 TIME LEFT: 172799.48
 STEP:  31 TIME =     0.02 SECS, INTEGRAL =      0.53 TIME LEFT: 172799.46
 STEP:  32 TIME =     0.02 SECS, INTEGRAL =      0.55 TIME LEFT: 172799.45
 STEP:  33 TIME =     0.02 SECS, INTEGRAL =      0.57 TIME LEFT: 172799.43
 STEP:  34 TIME =     0.02 SECS, INTEGRAL =      0.59 TIME LEFT: 172799.41
 STEP:  35 TIME =     0.02 SECS, INTEGRAL =      0.60 TIME LEFT: 172799.39
 STEP:  36 TIME =     0.02 SECS, INTEGRAL =      0.62 TIME LEFT: 172799.38
 STEP:  37 TIME =     0.02 SECS, INTEGRAL =      0.64 TIME LEFT: 172799.36
 STEP:  38 TIME =     0.02 SECS, INTEGRAL =      0.66 TIME LEFT: 172799.34
 STEP:  39 TIME =     0.02 SECS, INTEGRAL =      0.68 TIME LEFT: 172799.32
 STEP:  40 TIME =     0.02 SECS, INTEGRAL =      0.70 TIME LEFT: 172799.30
 STEP:  41 TIME =     0.02 SECS, INTEGRAL =      0.71 TIME LEFT: 172799.29
 STEP:  42 TIME =     0.02 SECS, INTEGRAL =      0.73 TIME LEFT: 172799.27
 STEP:  43 TIME =     0.02 SECS, INTEGRAL =      0.74 TIME LEFT: 172799.25
 STEP:  44 TIME =     0.02 SECS, INTEGRAL =      0.76 TIME LEFT: 172799.23
 STEP:  45 TIME =     0.02 SECS, INTEGRAL =      0.78 TIME LEFT: 172799.21
 STEP:  46 TIME =     0.02 SECS, INTEGRAL =      0.80 TIME LEFT: 172799.20
 STEP:  47 TIME =     0.02 SECS, INTEGRAL =      0.82 TIME LEFT: 172799.18
 STEP:  48 TIME =     0.02 SECS, INTEGRAL =      0.84 TIME LEFT: 172799.16
 STEP:  49 TIME =     0.02 SECS, INTEGRAL =      0.86 TIME LEFT: 172799.14
 STEP:  50 TIME =     0.02 SECS, INTEGRAL =      0.88 TIME LEFT: 172799.12
 STEP:  51 TIME =     0.02 SECS, INTEGRAL =      0.89 TIME LEFT: 172799.10
 STEP:  52 TIME =     0.02 SECS, INTEGRAL =      0.91 TIME LEFT: 172799.08
 STEP:  53 TIME =     0.02 SECS, INTEGRAL =      0.93 TIME LEFT: 172799.06
 STEP:  54 TIME =     0.02 SECS, INTEGRAL =      0.95 TIME LEFT: 172799.04
 STEP:  55 TIME =     0.02 SECS, INTEGRAL =      0.97 TIME LEFT: 172799.02
 STEP:  56 TIME =     0.02 SECS, INTEGRAL =      0.99 TIME LEFT: 172799.01
 STEP:  57 TIME =     0.02 SECS, INTEGRAL =      1.00 TIME LEFT: 172798.99

(To convert to Hartree/Bohr^2, multiply by (10^(-21) x N x a0^2)/(4.184 x 627.51) =  0.0642)


           FORCE MATRIX IN MILLIDYNES/ANGSTROM


                  C  1       C  2       C  3       C  4       C  5       C  6
 ------------------------------------------------------------------------------
     C    1  15.111104
     C    2   3.521867  14.545497
     C    3   0.198405   0.014999  14.902823
     C    4   4.152891   0.858943   0.944203  19.553408
     C    5   4.886052   0.544945   0.853710   0.748762  18.151399
     C    6   0.768882   0.051703   4.809894  10.334719   0.081673  18.081285
     C    7   0.916141   4.519560   0.017272   1.505887   0.041070   0.105299
     C    8   0.912542   0.048653   4.742861   0.101991  10.543012   0.749108
     C    9   0.896776   1.145532   0.132584   5.293696   0.044786   0.845931
     H   10   4.174343   0.430504   0.019088   0.412874   0.394515   0.024802
     H   11   0.450534   4.504802   0.001263   0.018990   0.027509   0.002993
     H   12   0.432380   4.556157   0.000868   0.043993   0.021100   0.005828
     H   13   0.020777   0.002774   4.360546   0.029334   0.028200   0.419223
     H   14   0.012956   0.001502   4.469425   0.046719   0.047342   0.427270
     H   15   0.042254   0.411003   0.009312   0.114882   0.006264   0.009432
     H   16   0.435166   0.017708   0.121641   0.038625   4.868363   0.006188
     H   17   0.110148   0.011338   0.429232   0.460863   0.009811   4.887323
     H   18   0.120548   0.011503   0.429146   0.006298   0.445242   0.041316
     H   19   0.040104   0.115011   0.003569   0.430681   0.005470   0.011532


                  C  7       C  8       C  9       H 10       H 11       H 12
 ------------------------------------------------------------------------------
     C    7  18.074303
     C    8   0.008573  18.022713
     C    9  10.137744   0.005598  18.500025
     H   10   0.017689   0.031843   0.018344   4.624794
     H   11   0.425238   0.003850   0.034985   0.034027   5.117610
     H   12   0.435665   0.003273   0.042217   0.031926   0.563963   5.163138
     H   13   0.001997   0.419620   0.018865   0.007938   0.000445   0.000298
     H   14   0.002411   0.429450   0.014227   0.002263   0.000264   0.000160
     H   15   5.033350   0.001889   0.445169   0.001809   0.010957   0.015998
     H   16   0.002639   0.447527   0.005616   0.012640   0.018478   0.001523
     H   17   0.008712   0.041272   0.072375   0.014856   0.001775   0.001225
     H   18   0.001875   4.854336   0.002255   0.015825   0.000688   0.000790
     H   19   0.446586   0.000922   5.031278   0.000990   0.015663   0.014823


                  H 13       H 14       H 15       H 16       H 17       H 18
 ------------------------------------------------------------------------------
     H   13   4.955037
     H   14   0.564413   5.044178
     H   15   0.001454   0.001002   5.426404
     H   16   0.017356   0.012367   0.000636   5.248614
     H   17   0.012751   0.035392   0.003996   0.002049   5.265016
     H   18   0.013521   0.036666   0.000607   0.068133   0.005428   5.227453
     H   19   0.000667   0.000657   0.046343   0.001180   0.006852   0.000345


                  H 19
 ------------------
     H   19   5.425100


          HEAT OF FORMATION =      39.900788 KCALS/MOLE

          ZERO POINT ENERGY     101.516 KCAL/MOL


           NORMAL COORDINATE ANALYSIS (Total motion = 1 Angstrom)


   Root No.       1         2         3         4         5         6         7         8

                 1 A       2 A       3 A       4 A       5 A       6 A       7 A       8 A   

                 112.8     185.4     284.5     347.0     398.5     454.2     524.3     540.5
  
           1    0.0078   -0.0083   -0.0178    0.0077    0.0181   -0.0028   -0.0238   -0.0240
           2   -0.0049   -0.0311   -0.0235   -0.0064   -0.0321   -0.0285    0.0034    0.0002
           3   -0.0006   -0.0120   -0.0204    0.0177    0.0225   -0.0165    0.0259    0.0014
           4    0.0088   -0.0074   -0.0175    0.0118    0.0273   -0.0048   -0.0381   -0.0209
           5    0.0475   -0.0172    0.0193   -0.0137    0.0034    0.0056    0.0079    0.0139
           6    0.0199   -0.0040    0.0155   -0.0165   -0.0124    0.0106    0.0011   -0.0285
           7    0.0123    0.0095    0.0057   -0.0026   -0.0105   -0.0120    0.0646    0.0143
           8    0.0442    0.0282   -0.0241    0.0048    0.0089    0.0062   -0.0073   -0.0080
           9    0.0121    0.0097   -0.0013   -0.0119   -0.0227    0.0023   -0.0260    0.0222
          10   -0.0030   -0.0151   -0.0081   -0.0036    0.0013   -0.0129   -0.0049    0.0258
          11   -0.0148   -0.0399   -0.0100   -0.0287   -0.0223   -0.0266   -0.0136   -0.0420
          12   -0.0051   -0.0173   -0.0144    0.0034    0.0376   -0.0116   -0.0041   -0.0415
          13   -0.0176    0.0058    0.0007    0.0004   -0.0238    0.0291    0.0241   -0.0453
          14   -0.0396   -0.0084   -0.0164    0.0256   -0.0206    0.0366   -0.0087    0.0141
          15   -0.0055   -0.0104   -0.0121    0.0088    0.0029   -0.0209    0.0543    0.0118
          16    0.0081   -0.0129    0.0152    0.0276    0.0135    0.0015    0.0205    0.0317
          17    0.0047   -0.0354    0.0337    0.0276   -0.0041    0.0032    0.0140   -0.0350
          18    0.0022   -0.0206    0.0173    0.0223    0.0066    0.0128   -0.0472    0.0238
          19   -0.0010    0.0016   -0.0052   -0.0003   -0.0095   -0.0056   -0.0360    0.0257
          20    0.0053    0.0518    0.0084    0.0350   -0.0055   -0.0192    0.0010    0.0005
          21   -0.0051    0.0350    0.0143    0.0037   -0.0317    0.0009   -0.0041   -0.0301
          22   -0.0079    0.0267    0.0252   -0.0241    0.0021   -0.0027    0.0192   -0.0451
          23   -0.0226    0.0295    0.0271   -0.0171    0.0332   -0.0236   -0.0244    0.0166
          24   -0.0007    0.0010    0.0055   -0.0082   -0.0202   -0.0138    0.0006    0.0559
          25   -0.0100   -0.0048   -0.0036   -0.0189   -0.0224    0.0015   -0.0220    0.0393
          26   -0.0311    0.0108   -0.0162   -0.0284    0.0288    0.0196    0.0253    0.0285
          27   -0.0211    0.0114   -0.0100   -0.0157    0.0256    0.0211   -0.0007   -0.0259
          28    0.0471   -0.0055   -0.0020    0.0015    0.0455    0.0048   -0.0478   -0.0270
          29   -0.0162   -0.0354   -0.0260   -0.0156   -0.0424   -0.0400    0.0048   -0.0128
          30   -0.0120    0.0022   -0.0269    0.0576    0.0255    0.0199    0.0506    0.0501
          31   -0.0236   -0.0163   -0.0595    0.0385    0.0299   -0.0453   -0.0352   -0.0304
          32    0.1020   -0.0658    0.0534   -0.0750    0.0393    0.0753    0.0312    0.0466
          33   -0.0001    0.0321    0.0144    0.0092   -0.0374   -0.0130   -0.0144   -0.0452
          34    0.0444   -0.0005    0.0144    0.0010    0.0567    0.0326   -0.0321   -0.0162
          35    0.0657   -0.0184    0.0352   -0.0239    0.0173    0.0270    0.0123    0.0191
          36    0.0722   -0.0621    0.0506   -0.0932    0.0052    0.0846    0.0205    0.0037
          37   -0.0446   -0.0371    0.0841    0.0117    0.0088   -0.0525    0.0721    0.0220
          38    0.1016    0.0569   -0.0971    0.0082   -0.0119    0.0531   -0.0085   -0.0167
          39    0.0057    0.0531   -0.0107   -0.0565   -0.0174   -0.0137   -0.0420    0.0243
          40    0.0782    0.0599   -0.0850   -0.0143   -0.0319    0.0355    0.0638    0.0124
          41    0.0810    0.0609   -0.0783   -0.0044    0.0001    0.0308   -0.0111    0.0002
          42    0.0375    0.0043   -0.0209   -0.0021   -0.0496    0.0347   -0.0122   -0.0313
          43   -0.0022    0.0131    0.0003    0.0045   -0.0247   -0.0081   -0.0335    0.0390
          44    0.0061    0.1209    0.0181    0.0967   -0.0203   -0.0366   -0.0035   -0.0000
          45   -0.0080    0.0734    0.0312    0.0221   -0.0761   -0.0073    0.0048    0.0081
          46   -0.0418    0.0063    0.0118    0.0024   -0.0631    0.0785    0.0180   -0.0427
          47   -0.0841   -0.0164   -0.0218    0.0607   -0.0342    0.1262   -0.0223   -0.0159
          48   -0.0063   -0.0127   -0.0196    0.0188    0.0195   -0.0187    0.0526    0.0011
          49    0.0137   -0.0133    0.0382    0.0717    0.0623    0.0364    0.0265    0.0385
          50   -0.0016   -0.0520    0.0879    0.0714    0.0089    0.0527    0.0054    0.0014
          51   -0.0058   -0.0359    0.0597    0.0477    0.0023    0.0461   -0.0561    0.0542
          52   -0.0191    0.0526    0.0612   -0.0512    0.0194    0.0030   -0.0481   -0.0643
          53   -0.0561    0.0586    0.0830   -0.0478    0.0846   -0.0450   -0.0529    0.0064
          54    0.0021    0.0081    0.0105   -0.0154   -0.0236   -0.0049   -0.0301    0.0476
          55   -0.0214   -0.0009    0.0007   -0.0432   -0.0569    0.0167   -0.0272    0.0511
          56   -0.0655    0.0306   -0.0360   -0.0556    0.0791    0.0748    0.0743    0.1049
          57   -0.0404    0.0225   -0.0212   -0.0308    0.0551    0.0524    0.0275    0.0174


   Root No.       9        10        11        12        13        14        15        16

                 9 A      10 A      11 A      12 A      13 A      14 A      15 A      16 A   

                 659.4     747.7     754.7     777.9     785.5     855.6     887.0     929.3
  
           1   -0.0220   -0.0034   -0.0222    0.0183    0.0011   -0.0007    0.0077    0.0019
           2   -0.0333    0.0183   -0.0062    0.0169   -0.0044    0.0031   -0.0335   -0.0016
           3   -0.0037    0.0139    0.0034    0.0083   -0.0068   -0.0116    0.0117    0.0034
           4   -0.0290   -0.0042   -0.0017    0.0054    0.0293    0.0173    0.0245   -0.0050
           5    0.0052    0.0142    0.0014   -0.0177    0.0015   -0.0167   -0.0389    0.0089
           6   -0.0114   -0.0025   -0.0434    0.0161    0.0068    0.0002   -0.0046    0.0053
           7   -0.0001   -0.0187   -0.0120   -0.0064    0.0322    0.0211   -0.0106   -0.0061
           8   -0.0105   -0.0182    0.0075   -0.0060    0.0004   -0.0328    0.0085    0.0316
           9   -0.0073   -0.0087   -0.0014   -0.0011    0.0062   -0.0074    0.0045    0.0060
          10    0.0387   -0.0107   -0.0205    0.0124   -0.0166    0.0017   -0.0012    0.0075
          11    0.0317   -0.0084    0.0064    0.0082   -0.0036    0.0175    0.0162    0.0075
          12    0.0450   -0.0210    0.0141   -0.0087   -0.0113    0.0124   -0.0240    0.0097
          13   -0.0016    0.0001    0.0044   -0.0055   -0.0286   -0.0086   -0.0029   -0.0071
          14   -0.0023   -0.0238   -0.0086   -0.0117   -0.0135    0.0149   -0.0041   -0.0270
          15    0.0043    0.0294    0.0290   -0.0001   -0.0105   -0.0124    0.0321    0.0071
          16    0.0201   -0.0096   -0.0211    0.0098   -0.0025   -0.0067   -0.0164   -0.0114
          17   -0.0185   -0.0003    0.0238    0.0005    0.0239   -0.0105    0.0132   -0.0257
          18    0.0136   -0.0027   -0.0171    0.0164   -0.0272   -0.0251   -0.0139   -0.0202
          19    0.0007    0.0119    0.0589   -0.0344    0.0022   -0.0055   -0.0148   -0.0031
          20    0.0191    0.0008   -0.0068   -0.0197    0.0000   -0.0039    0.0073   -0.0074
          21   -0.0061   -0.0016   -0.0220   -0.0002    0.0021   -0.0007    0.0107   -0.0054
          22   -0.0057    0.0094    0.0030   -0.0026   -0.0312   -0.0084   -0.0038    0.0064
          23   -0.0085   -0.0091   -0.0063   -0.0068   -0.0161    0.0137    0.0026    0.0033
          24   -0.0039   -0.0143   -0.0030   -0.0075    0.0363    0.0234    0.0014   -0.0016
          25    0.0013    0.0139    0.0140   -0.0091   -0.0077   -0.0142    0.0169    0.0038
          26    0.0018    0.0050   -0.0404   -0.0058   -0.0027   -0.0058    0.0310    0.0007
          27   -0.0167   -0.0006    0.0300   -0.0378    0.0176    0.0129   -0.0258   -0.0106
          28   -0.0497    0.0117   -0.0441    0.0197    0.0490   -0.0123   -0.0036    0.0254
          29   -0.0084    0.0086    0.0010    0.0261   -0.0120    0.0176   -0.0399    0.0068
          30   -0.0495    0.0279    0.0095   -0.0268   -0.0394   -0.0440    0.0580   -0.0573
          31   -0.0732    0.0344   -0.0460    0.0338    0.0516   -0.0049   -0.0382    0.0265
          32    0.0259   -0.0360    0.0998    0.0239   -0.0293    0.0326    0.0636   -0.0199
          33   -0.0028    0.0100   -0.0844   -0.0229    0.0148   -0.0201   -0.0374    0.0081
          34    0.0103   -0.0445    0.0229   -0.0000    0.0249    0.0406    0.1511   -0.0295
          35    0.0231   -0.0068    0.0216   -0.0167   -0.0037   -0.0023    0.0189   -0.0039
          36   -0.0055   -0.0492    0.0571    0.0673   -0.0286    0.0541    0.0651   -0.0225
          37   -0.0525   -0.1016    0.0001   -0.0266    0.0597   -0.0593   -0.0022    0.0502
          38    0.0483    0.0605   -0.0019    0.0245   -0.0062    0.0240   -0.0068   -0.0573
          39   -0.0222    0.0029   -0.0087   -0.0278   -0.0445    0.0564    0.0206    0.0895
          40    0.0673    0.0682   -0.0335    0.0182    0.0159    0.1214   -0.0349   -0.0854
          41    0.0321    0.0309   -0.0108    0.0082   -0.0127    0.0324   -0.0083   -0.0091
          42   -0.0031    0.0336    0.0262    0.0107    0.0146   -0.0184    0.0192   -0.0496
          43    0.0039    0.0073    0.0837    0.0014   -0.0177   -0.0066   -0.0133    0.0114
          44   -0.0070   -0.0639    0.1670    0.1745   -0.0294    0.0911   -0.0104    0.0264
          45    0.0028   -0.0214    0.0607    0.1189   -0.0586    0.0041    0.0106    0.0392
          46    0.0628    0.0139    0.0142    0.0105    0.0906   -0.0172   -0.0372    0.0838
          47    0.1262    0.0250    0.0198    0.0406    0.1697   -0.0458    0.0322    0.1510
          48    0.0101    0.0375    0.0325    0.0079   -0.0165   -0.0276    0.0625    0.0150
          49    0.0072    0.0435   -0.0425   -0.0190   -0.0535    0.0699   -0.0590    0.1037
          50   -0.0707    0.1191   -0.0054   -0.0326   -0.0283    0.1431    0.0265    0.0997
          51   -0.0293    0.0878   -0.0369   -0.0044   -0.0585    0.0891    0.0104    0.0564
          52    0.0426    0.0733    0.0012    0.0571    0.0427   -0.0433   -0.0355   -0.0360
          53    0.0929    0.1393    0.0158    0.0967    0.1269   -0.0095   -0.0048   -0.0941
          54   -0.0031   -0.0164   -0.0091   -0.0008    0.0411    0.0101   -0.0129   -0.0002
          55   -0.0487    0.0278    0.0113    0.0477   -0.0029   -0.0403    0.0802    0.0055
          56   -0.0800   -0.0211    0.0436    0.1551   -0.0029   -0.0374   -0.0985    0.0158
          57   -0.0620   -0.0160    0.0782    0.0524    0.0172   -0.0045   -0.1026   -0.0022


   Root No.      17        18        19        20        21        22        23        24

                17 A      18 A      19 A      20 A      21 A      22 A      23 A      24 A   

                 942.8     979.1     989.0    1018.7    1034.1    1049.5    1055.7    1068.2
  
           1   -0.0069    0.0046    0.0018    0.0108    0.0022   -0.0097   -0.0045    0.0192
           2   -0.0327   -0.0138   -0.0126    0.0123    0.0091   -0.0021   -0.0013   -0.0119
           3   -0.0001    0.0096    0.0045    0.0097    0.0064   -0.0061    0.0033    0.0017
           4    0.0058   -0.0168   -0.0040   -0.0106   -0.0033    0.0115    0.0067   -0.0145
           5    0.0206    0.0222    0.0072   -0.0139   -0.0112    0.0035   -0.0096   -0.0119
           6    0.0075   -0.0024    0.0010   -0.0082   -0.0113    0.0217    0.0276    0.0026
           7    0.0015    0.0126   -0.0126    0.0307   -0.0214   -0.0123   -0.0085   -0.0093
           8   -0.0199   -0.0124    0.0197    0.0033   -0.0128    0.0003   -0.0042   -0.0055
           9   -0.0014    0.0044    0.0025    0.0175   -0.0109   -0.0019    0.0013    0.0049
          10    0.0022   -0.0024    0.0092    0.0035    0.0007    0.0005    0.0076   -0.0022
          11    0.0200    0.0053    0.0156    0.0067   -0.0003   -0.0073    0.0040   -0.0073
          12    0.0054    0.0052    0.0166    0.0049    0.0038   -0.0112   -0.0036    0.0018
          13   -0.0038   -0.0089    0.0145   -0.0131   -0.0052    0.0073   -0.0082    0.0042
          14    0.0043   -0.0005    0.0203    0.0002   -0.0175    0.0044   -0.0124    0.0154
          15    0.0061   -0.0225   -0.0104   -0.0252   -0.0104    0.0099   -0.0055    0.0096
          16   -0.0058   -0.0016   -0.0079   -0.0043    0.0118    0.0155   -0.0022    0.0015
          17    0.0161    0.0123   -0.0088   -0.0058    0.0208    0.0243   -0.0008    0.0169
          18   -0.0055   -0.0018   -0.0341    0.0019   -0.0075    0.0011   -0.0113   -0.0194
          19    0.0004   -0.0061   -0.0049    0.0076   -0.0025    0.0046    0.0163    0.0129
          20    0.0002   -0.0303   -0.0039    0.0199    0.0193   -0.0127    0.0051    0.0121
          21    0.0006   -0.0126   -0.0000    0.0073    0.0165   -0.0192   -0.0222   -0.0075
          22    0.0045    0.0022   -0.0158   -0.0065    0.0065   -0.0076    0.0101   -0.0061
          23    0.0178    0.0059   -0.0309   -0.0144    0.0094   -0.0199    0.0149   -0.0018
          24    0.0007   -0.0068    0.0216   -0.0348    0.0184   -0.0032    0.0039    0.0085
          25    0.0020    0.0086    0.0030   -0.0051   -0.0017    0.0027    0.0037    0.0037
          26   -0.0265    0.0231   -0.0054   -0.0147   -0.0084    0.0120    0.0064    0.0050
          27   -0.0217    0.0123   -0.0125   -0.0040   -0.0070    0.0029   -0.0117   -0.0149
          28    0.0353    0.0936   -0.0025   -0.0330    0.0071   -0.0547   -0.0522    0.1505
          29   -0.0504   -0.0836   -0.0418   -0.0018   -0.0216    0.0134   -0.0139   -0.0244
          30    0.0123    0.1344    0.1128    0.1134    0.1051    0.0008    0.1094   -0.1291
          31   -0.0101    0.0719   -0.0226   -0.0459    0.0524   -0.0455   -0.0504   -0.0129
          32   -0.0601   -0.0159   -0.0155    0.0280    0.0528   -0.0573   -0.0547   -0.0122
          33    0.0658   -0.0228    0.0246   -0.0170   -0.0793    0.0893    0.0862    0.0027
          34    0.0539   -0.0717    0.0372   -0.0113   -0.0321    0.0106   -0.0484   -0.0761
          35    0.0307   -0.0056    0.0203   -0.0092   -0.0181    0.0011   -0.0298   -0.0349
          36   -0.1146   -0.0526   -0.0518    0.0519    0.0556   -0.0037    0.0780    0.0745
          37   -0.0480   -0.0055    0.0279    0.0485   -0.0704   -0.0497   -0.0088   -0.0273
          38    0.0107   -0.0063   -0.0076   -0.0607    0.0049   -0.0528    0.0310   -0.0032
          39    0.0473    0.0371   -0.0295    0.1387    0.0681    0.2290   -0.0894    0.0452
          40    0.0521    0.0367   -0.0659    0.0151    0.0167   -0.0018   -0.0131   -0.0123
          41    0.0091   -0.0027   -0.0149   -0.0108    0.0193    0.0252   -0.0234   -0.0190
          42    0.0199    0.0324    0.0022    0.0337   -0.0559   -0.1005    0.0929    0.0708
          43   -0.0028    0.0371    0.0077   -0.0038   -0.0070   -0.0112   -0.0062    0.0423
          44   -0.0493    0.0879   -0.0122   -0.0600   -0.0712    0.0918    0.0620   -0.0720
          45   -0.0146    0.1211    0.0355   -0.0309   -0.0031   -0.0570   -0.0834    0.0706
          46   -0.0266   -0.0153   -0.0116   -0.0767    0.0928   -0.0007    0.0222   -0.0740
          47    0.0170    0.0229   -0.1176    0.0579    0.0102   -0.0212    0.0296   -0.0056
          48    0.0222   -0.0123   -0.0384    0.0247   -0.0529    0.0066   -0.0079    0.0449
          49   -0.0585   -0.0555    0.0890   -0.0491    0.0537    0.0251   -0.0162    0.0230
          50    0.0089   -0.0112    0.0569    0.0343   -0.0345   -0.0496    0.0156    0.0021
          51    0.0041   -0.0059   -0.0066    0.0536   -0.0720   -0.0697    0.0076   -0.0406
          52   -0.0659    0.0013    0.1201    0.0294    0.0230    0.0157    0.0166    0.0032
          53   -0.0587   -0.0249    0.0798    0.0518   -0.0692    0.0417   -0.0633    0.0111
          54   -0.0181    0.0005    0.0691   -0.0323    0.0473   -0.0063    0.0279    0.0123
          55    0.0708    0.0002    0.0195   -0.0282    0.0170   -0.0381   -0.0943   -0.1289
          56    0.1434   -0.1026    0.0384    0.0475    0.0251   -0.0212    0.0210    0.0274
          57    0.0737   -0.0589    0.0121    0.0321    0.0118   -0.0162   -0.0032   -0.0004


   Root No.      25        26        27        28        29        30        31        32

                25 A      26 A      27 A      28 A      29 A      30 A      31 A      32 A   

                1083.6    1092.1    1107.3    1144.3    1187.8    1202.0    1247.0    1285.0
  
           1   -0.0246   -0.0098    0.0163    0.0071    0.0152    0.0265    0.0466   -0.0128
           2   -0.0345    0.0009    0.0108   -0.0109   -0.0083   -0.0094   -0.0120    0.0086
           3   -0.0031    0.0085    0.0020    0.0145   -0.0127    0.0322   -0.0006   -0.0374
           4    0.0103    0.0084   -0.0225   -0.0047    0.0153   -0.0058   -0.0259    0.0412
           5    0.0085    0.0089   -0.0047    0.0048    0.0078    0.0015    0.0090    0.0189
           6    0.0154   -0.0002   -0.0139    0.0014   -0.0005   -0.0003   -0.0019   -0.0338
           7    0.0028   -0.0055   -0.0007   -0.0015    0.0056    0.0013   -0.0152   -0.0063
           8    0.0073   -0.0113   -0.0051   -0.0029   -0.0060    0.0018    0.0021    0.0091
           9    0.0031    0.0121    0.0027   -0.0065    0.0060   -0.0104    0.0057   -0.0166
          10    0.0062    0.0043   -0.0017   -0.0023   -0.0189   -0.0052    0.0130    0.0224
          11    0.0086   -0.0130    0.0005   -0.0017    0.0021   -0.0238   -0.0011   -0.0022
          12    0.0043    0.0019    0.0049   -0.0056    0.0090    0.0223   -0.0090    0.0016
          13    0.0084   -0.0110   -0.0022    0.0010    0.0048   -0.0055    0.0131    0.0023
          14    0.0152    0.0036    0.0010    0.0017   -0.0057    0.0040   -0.0108   -0.0035
          15    0.0066   -0.0107   -0.0020   -0.0071   -0.0077   -0.0084   -0.0141    0.0178
          16   -0.0029    0.0131    0.0037    0.0017   -0.0178    0.0036    0.0111    0.0312
          17   -0.0047    0.0056   -0.0011    0.0057    0.0036    0.0097    0.0066   -0.0105
          18   -0.0028   -0.0161   -0.0018   -0.0040    0.0082   -0.0123   -0.0185   -0.0101
          19    0.0022   -0.0091   -0.0043    0.0022    0.0041    0.0032   -0.0065   -0.0226
          20    0.0157   -0.0053    0.0015    0.0010    0.0055    0.0092   -0.0083   -0.0061
          21    0.0016    0.0045   -0.0001   -0.0028   -0.0136   -0.0209    0.0160    0.0148
          22   -0.0051    0.0027    0.0015    0.0035    0.0044   -0.0091    0.0053   -0.0022
          23   -0.0093    0.0065    0.0025   -0.0029   -0.0016    0.0040   -0.0024    0.0005
          24   -0.0060   -0.0106    0.0032    0.0069    0.0112   -0.0006    0.0280    0.0086
          25    0.0028    0.0022   -0.0044   -0.0002   -0.0086   -0.0054    0.0059   -0.0214
          26   -0.0037    0.0038   -0.0052   -0.0004    0.0043    0.0076   -0.0056   -0.0045
          27   -0.0089    0.0030    0.0106    0.0031   -0.0066   -0.0061    0.0091    0.0163
          28   -0.0175   -0.1283    0.1320   -0.0604   -0.0997   -0.0764   -0.0915    0.0086
          29   -0.0300    0.0644   -0.0282    0.0339    0.0194    0.0590    0.0350   -0.0221
          30   -0.0322   -0.0585   -0.0140   -0.0549    0.0391   -0.0762    0.0126    0.0458
          31    0.1925    0.0584   -0.1191    0.0164   -0.0190   -0.0630   -0.0032   -0.0712
          32    0.0154    0.0245   -0.0103    0.0064   -0.0330   -0.0201    0.0461   -0.0272
          33   -0.0803   -0.0358    0.0367   -0.0106    0.0444    0.0432   -0.0400    0.0509
          34   -0.1664    0.0436   -0.0346   -0.0204   -0.0709   -0.0419   -0.0395   -0.0956
          35   -0.0602    0.0214   -0.0071   -0.0017   -0.0250   -0.0113    0.0025   -0.0313
          36    0.0852   -0.0550    0.0185   -0.0076    0.0577    0.0301   -0.0639    0.0576
          37    0.0154   -0.0194   -0.0028   -0.0020    0.0148   -0.0117   -0.0544   -0.0520
          38   -0.0110   -0.0088    0.0010    0.0122    0.0043   -0.0048    0.0403    0.0247
          39    0.0178    0.0425   -0.0059   -0.0423   -0.0412    0.0384   -0.0078    0.0441
          40   -0.0159   -0.0112    0.0045    0.0293    0.0308   -0.0050   -0.0631   -0.0739
          41   -0.0054   -0.0500   -0.0088    0.0438    0.0186   -0.0092   -0.0179   -0.0410
          42    0.0104    0.1976    0.0347   -0.1653   -0.0511    0.0342   -0.0153    0.0576
          43   -0.0407   -0.0053   -0.0576    0.0017    0.0420    0.0263   -0.0379   -0.0040
          44    0.0486    0.0006    0.0882    0.0024   -0.0527   -0.0271    0.0425   -0.0359
          45   -0.1196    0.0157   -0.1436   -0.0043    0.0886    0.0422   -0.0656    0.0717
          46   -0.0217   -0.0646   -0.0498   -0.1461   -0.0727    0.1201   -0.0491   -0.0332
          47   -0.0461    0.0317    0.0315    0.0705    0.0415   -0.0606    0.0302    0.0209
          48    0.0028    0.0252    0.0332    0.0936    0.0477   -0.0947    0.0323    0.0450
          49   -0.0246    0.0965    0.0835   -0.0977    0.1089   -0.1257   -0.0529   -0.0969
          50    0.0134   -0.0217   -0.0171    0.0276   -0.0223    0.0366    0.0214    0.0109
          51    0.0207   -0.0658   -0.0410    0.0458   -0.0565    0.0530    0.0138    0.0523
          52   -0.0135    0.0540    0.0258    0.1957   -0.0610    0.0028   -0.1188    0.0167
          53    0.0335   -0.0448   -0.0193   -0.1258    0.0349    0.0003    0.0672   -0.0090
          54   -0.0216    0.0322    0.0230    0.1451   -0.0342    0.0068   -0.0570    0.0230
          55    0.0919    0.0311    0.1872    0.0020    0.0798    0.1325   -0.0551    0.0231
          56    0.0044   -0.0144   -0.0330   -0.0032   -0.0046   -0.0176    0.0009   -0.0131
          57   -0.0070   -0.0076   -0.0086    0.0015   -0.0144   -0.0238    0.0156    0.0129


   Root No.      33        34        35        36        37        38        39        40

                33 A      34 A      35 A      36 A      37 A      38 A      39 A      40 A   

                1341.1    1375.4    1387.3    1398.5    1412.1    1458.2    1794.5    1856.4
  
           1    0.0299   -0.0233    0.0313   -0.0156    0.0044   -0.0423    0.0048   -0.0214
           2   -0.0221   -0.0025   -0.0208    0.0155   -0.0119   -0.0148    0.0038    0.0082
           3    0.0002    0.0365   -0.0068   -0.0178    0.0056    0.0974   -0.0101    0.0232
           4    0.0140    0.0346   -0.0125    0.0268    0.0023    0.0228    0.0088    0.0007
           5    0.0144    0.0088   -0.0015   -0.0275   -0.0132    0.0018   -0.0096   -0.0013
           6   -0.0194   -0.0239    0.0103    0.0497    0.0266   -0.0141    0.0137    0.0041
           7   -0.0079    0.0183    0.0516    0.0066   -0.0292   -0.0049    0.0040    0.0167
           8    0.0022   -0.0174   -0.0009    0.0060   -0.0109    0.0187    0.0006   -0.0116
           9   -0.0103    0.0525   -0.0216   -0.0266    0.0619   -0.0574   -0.0034    0.0202
          10   -0.0035   -0.0040   -0.0055   -0.0117    0.0345    0.0112   -0.0057   -0.0409
          11    0.0127   -0.0052    0.0276   -0.0150    0.0274    0.0380   -0.0017    0.0175
          12   -0.0161    0.0060   -0.0311    0.0253   -0.0504   -0.0602    0.0004    0.0004
          13   -0.0093   -0.0066   -0.0138    0.0051   -0.0072    0.0218    0.0017    0.1955
          14    0.0040    0.0059    0.0069   -0.0021    0.0034   -0.0071   -0.0009   -0.1047
          15    0.0204   -0.0138    0.0226   -0.0029    0.0146   -0.0571    0.0023   -0.0322
          16   -0.0145   -0.0052   -0.0178   -0.0079    0.0333   -0.0064   -0.0160    0.0319
          17    0.0003    0.0096   -0.0095    0.0002   -0.0030   -0.0142    0.0032   -0.0146
          18    0.0117   -0.0131    0.0273    0.0076   -0.0255    0.0285    0.0074   -0.0047
          19   -0.0086   -0.0109    0.0083    0.0083    0.0033    0.0002   -0.1772    0.0043
          20   -0.0139   -0.0115    0.0039    0.0057    0.0199    0.0053    0.1016   -0.0006
          21    0.0260    0.0231   -0.0089   -0.0132   -0.0358   -0.0074   -0.1257   -0.0003
          22   -0.0144    0.0044   -0.0162    0.0046   -0.0036    0.0254   -0.0033   -0.1945
          23    0.0081   -0.0006    0.0076   -0.0040    0.0054   -0.0175    0.0017    0.1075
          24   -0.0084   -0.0243   -0.0103    0.0127   -0.0266    0.0417   -0.0006   -0.0338
          25    0.0123    0.0215   -0.0150    0.0042   -0.0517   -0.0166    0.2013    0.0052
          26   -0.0017    0.0057   -0.0066    0.0083   -0.0130   -0.0073   -0.0874    0.0024
          27   -0.0029   -0.0154    0.0138   -0.0164    0.0421    0.0195    0.0887   -0.0056
          28   -0.0452    0.0195   -0.0333    0.0317    0.0117    0.0389    0.0017    0.0087
          29    0.0085    0.0041    0.0001   -0.0125   -0.0126    0.0024    0.0019   -0.0056
          30   -0.0063   -0.0418    0.0076    0.0167    0.0037   -0.0659    0.0050    0.0116
          31   -0.0736   -0.0994    0.0116   -0.1276   -0.0388   -0.0654   -0.0182   -0.0025
          32    0.0397    0.0339    0.0150    0.2387    0.0774    0.0039   -0.0115    0.0036
          33    0.0020    0.0197   -0.0134   -0.0774   -0.0226    0.0254    0.0220    0.0044
          34   -0.1048   -0.0806   -0.0139   -0.1191   -0.0465   -0.0329   -0.0208    0.0027
          35   -0.0309   -0.0331   -0.0035   -0.0831   -0.0319   -0.0174   -0.0154    0.0000
          36   -0.0310   -0.0149   -0.0205   -0.2369   -0.0744    0.0136    0.0382   -0.0018
          37    0.0945   -0.0767   -0.1345   -0.0092    0.0437    0.0063    0.0009   -0.0017
          38   -0.0876    0.0981    0.1273    0.0008   -0.0286   -0.0277    0.0018    0.0002
          39    0.0022   -0.0476    0.0478    0.0237   -0.0560    0.0436    0.0003    0.0164
          40    0.1126   -0.0842   -0.1551   -0.0090    0.0423   -0.0011    0.0005    0.0139
          41    0.0548   -0.0390   -0.1154   -0.0126    0.0489   -0.0039   -0.0019   -0.0150
          42    0.0486   -0.1188   -0.0005    0.0261   -0.0488    0.0702    0.0002    0.0422
          43   -0.0282   -0.0255    0.0161    0.0175    0.0420    0.0142   -0.1395    0.0055
          44    0.0205    0.0147   -0.0090   -0.0063   -0.0478   -0.0180   -0.0335    0.0013
          45   -0.0255   -0.0170    0.0117    0.0069    0.0727    0.0291    0.1052   -0.0033
          46    0.0600    0.0244    0.0498   -0.0312    0.0429   -0.0526    0.0010    0.0197
          47   -0.0319   -0.0155   -0.0249    0.0193   -0.0258    0.0237   -0.0001   -0.0188
          48   -0.0259   -0.0389   -0.0198    0.0227   -0.0203   -0.0085    0.0037    0.1319
          49    0.0388    0.0324    0.0717   -0.0214    0.0146    0.0382    0.0052    0.0097
          50   -0.0112    0.0085   -0.0285    0.0000    0.0055   -0.0253   -0.0025   -0.0122
          51   -0.0170   -0.0269   -0.0174    0.0121   -0.0118    0.0046   -0.0057    0.0147
          52    0.0420   -0.0044    0.0667   -0.0004   -0.0030   -0.0640    0.0025   -0.0241
          53   -0.0236   -0.0012   -0.0347    0.0023   -0.0042    0.0342   -0.0010    0.0074
          54    0.0322   -0.0318    0.0467    0.0082   -0.0239   -0.0228    0.0037    0.1311
          55   -0.0717   -0.0473   -0.0036    0.0254    0.0569   -0.0146   -0.0528   -0.0030
          56    0.0117    0.0141   -0.0052    0.0067   -0.0300   -0.0074   -0.0717    0.0054
          57    0.0067   -0.0102    0.0146   -0.0202    0.0326    0.0194    0.1516   -0.0064


   Root No.      41        42        43        44        45        46        47        48

                41 A      42 A      43 A      44 A      45 A      46 A      47 A      48 A   

                1925.3    2863.5    2938.2    2981.8    3019.1    3057.5    3058.2    3077.2
  
           1   -0.0176   -0.0233    0.0002   -0.0010   -0.0000    0.0005   -0.0003    0.0000
           2    0.0168   -0.0625    0.0006   -0.0023   -0.0003   -0.0002    0.0002   -0.0001
           3   -0.0077   -0.0176    0.0002   -0.0007   -0.0001    0.0001    0.0002    0.0001
           4   -0.0041   -0.0010    0.0000   -0.0024   -0.0000    0.0197   -0.0061    0.0002
           5    0.0041    0.0034   -0.0001   -0.0514   -0.0000   -0.0149    0.0045   -0.0001
           6   -0.0047    0.0017   -0.0000   -0.0290   -0.0000    0.0200   -0.0061    0.0001
           7    0.0201   -0.0001   -0.0113   -0.0000    0.0380    0.0005    0.0015   -0.0010
           8   -0.0043   -0.0005   -0.0561    0.0000   -0.0134   -0.0004   -0.0011    0.0010
           9   -0.0084   -0.0001   -0.0161   -0.0000    0.0013   -0.0001   -0.0003    0.0001
          10    0.2377    0.0006    0.0001   -0.0001   -0.0005   -0.0003    0.0002    0.0034
          11   -0.1083   -0.0009   -0.0004    0.0001    0.0001    0.0002   -0.0001   -0.0017
          12   -0.0070    0.0007    0.0000   -0.0000    0.0002   -0.0002   -0.0001   -0.0000
          13    0.0363    0.0009    0.0001   -0.0004   -0.0001    0.0034    0.0096   -0.0110
          14   -0.0204   -0.0005   -0.0003    0.0001    0.0001   -0.0020   -0.0057    0.0064
          15   -0.0042   -0.0007   -0.0002   -0.0000    0.0000    0.0066    0.0195   -0.0165
          16   -0.1944   -0.0006   -0.0009    0.0000   -0.0003   -0.0001   -0.0005   -0.0131
          17    0.0885    0.0000    0.0008   -0.0000    0.0020    0.0002    0.0010    0.0296
          18    0.0215   -0.0000   -0.0006   -0.0000   -0.0025   -0.0002   -0.0009   -0.0308
          19   -0.0108    0.0002    0.0000   -0.0003    0.0000   -0.0011    0.0003   -0.0001
          20    0.0016   -0.0000   -0.0000    0.0000    0.0000   -0.0003    0.0001    0.0000
          21    0.0001   -0.0001    0.0000   -0.0002   -0.0000    0.0008   -0.0003    0.0000
          22   -0.0364   -0.0007   -0.0010    0.0000   -0.0018    0.0050    0.0159    0.0079
          23    0.0192    0.0001    0.0005   -0.0000    0.0008   -0.0023   -0.0074   -0.0040
          24   -0.0050   -0.0002    0.0006    0.0001    0.0038   -0.0086   -0.0272   -0.0098
          25   -0.0365   -0.0000   -0.0001    0.0001    0.0001   -0.0002    0.0000   -0.0002
          26   -0.0027   -0.0000   -0.0000   -0.0002    0.0000   -0.0001    0.0001    0.0001
          27    0.0205   -0.0002   -0.0000   -0.0001   -0.0000    0.0003   -0.0001   -0.0001
          28    0.0131    0.2847   -0.0025    0.0147    0.0011    0.0018   -0.0007   -0.0000
          29   -0.0019    0.7637   -0.0054    0.0264    0.0023    0.0024   -0.0016    0.0005
          30   -0.0077    0.2182   -0.0016    0.0075    0.0007    0.0011   -0.0001    0.0000
          31   -0.0001   -0.0072    0.0001    0.1895    0.0002   -0.1073    0.0328   -0.0007
          32   -0.0049   -0.0147    0.0002    0.2472    0.0002   -0.1766    0.0545   -0.0016
          33   -0.0013   -0.0226    0.0003    0.3833    0.0002   -0.2347    0.0731   -0.0025
          34   -0.0029    0.0065   -0.0001   -0.1588   -0.0001   -0.1323    0.0404   -0.0009
          35    0.0082   -0.0289    0.0004    0.3709    0.0002    0.3537   -0.1084    0.0026
          36    0.0019    0.0023   -0.0000   -0.0323   -0.0000   -0.0042    0.0013   -0.0000
          37    0.0006    0.0064    0.3519    0.0001   -0.2217   -0.0018   -0.0057    0.0020
          38    0.0037    0.0057    0.3641    0.0001   -0.2734   -0.0025   -0.0080    0.0038
          39   -0.0094    0.0023    0.1402    0.0001   -0.0998   -0.0011   -0.0034    0.0007
          40    0.0269   -0.0015   -0.2064    0.0003   -0.2336   -0.0041   -0.0130    0.0101
          41    0.0068    0.0013    0.3113   -0.0006    0.4308    0.0072    0.0226   -0.0141
          42   -0.0214    0.0001    0.0549   -0.0001    0.0827    0.0005    0.0016   -0.0065
          43   -0.0150    0.0013    0.0001    0.0031   -0.0002    0.0135   -0.0042   -0.0000
          44   -0.0059    0.0001    0.0000   -0.0013   -0.0000   -0.0003    0.0001   -0.0000
          45    0.0100   -0.0008   -0.0000   -0.0013    0.0001   -0.0034    0.0011    0.0000
          46   -0.0012   -0.0012   -0.0003   -0.0003   -0.0020   -0.0408   -0.1216    0.1048
          47    0.0022   -0.0018   -0.0006   -0.0006    0.0013    0.0245    0.0718   -0.0617
          48    0.0319    0.0003    0.0004    0.0012   -0.0029   -0.0794   -0.2331    0.1965
          49    0.0161   -0.0009    0.0044    0.0001    0.0104    0.0011    0.0043    0.1180
          50    0.0803    0.0004   -0.0097   -0.0001   -0.0225   -0.0031   -0.0122   -0.3328
          51   -0.1122   -0.0018    0.0073    0.0002    0.0240    0.0034    0.0135    0.3677
          52    0.0028   -0.0016    0.0068    0.0001    0.0242   -0.0571   -0.1800   -0.0685
          53    0.0000   -0.0004   -0.0049   -0.0001   -0.0109    0.0263    0.0829    0.0317
          54    0.0305    0.0019   -0.0094   -0.0003   -0.0379    0.1034    0.3259    0.1209
          55    0.0259    0.0002    0.0000   -0.0002   -0.0000   -0.0004    0.0001   -0.0004
          56   -0.0216    0.0007    0.0000   -0.0006    0.0001    0.0046   -0.0015   -0.0012
          57    0.0168   -0.0015   -0.0000   -0.0004   -0.0002   -0.0079    0.0026    0.0023


   Root No.      49        50        51

                49 A      50 A      51 A   

                3079.3    3119.5    3137.5
  
           1   -0.0004    0.0001    0.0006
           2    0.0004   -0.0000    0.0005
           3    0.0000    0.0000   -0.0007
           4    0.0003   -0.0002   -0.0012
           5   -0.0001    0.0002    0.0012
           6    0.0001    0.0001   -0.0014
           7    0.0025    0.0000   -0.0000
           8   -0.0017   -0.0000    0.0000
           9   -0.0001    0.0000    0.0000
          10   -0.0018    0.0001    0.0018
          11    0.0007   -0.0001   -0.0004
          12    0.0004    0.0001   -0.0002
          13   -0.0175    0.0000   -0.0000
          14    0.0101   -0.0000    0.0000
          15   -0.0258    0.0000    0.0000
          16    0.0062    0.0000   -0.0004
          17   -0.0139   -0.0001    0.0003
          18    0.0146    0.0000   -0.0000
          19    0.0001   -0.0371   -0.0400
          20   -0.0000   -0.0009    0.0016
          21    0.0000    0.0127    0.0092
          22    0.0145   -0.0000    0.0000
          23   -0.0070    0.0000   -0.0000
          24   -0.0191    0.0000   -0.0000
          25    0.0001   -0.0003    0.0053
          26   -0.0001    0.0187   -0.0216
          27    0.0000   -0.0329    0.0365
          28   -0.0008    0.0000   -0.0004
          29   -0.0004   -0.0001   -0.0011
          30   -0.0005    0.0000   -0.0004
          31   -0.0004   -0.0002    0.0032
          32   -0.0013    0.0009    0.0062
          33   -0.0024    0.0019    0.0089
          34   -0.0007    0.0009    0.0052
          35    0.0025   -0.0058   -0.0163
          36   -0.0000    0.0015    0.0014
          37   -0.0074   -0.0001   -0.0000
          38   -0.0110   -0.0002   -0.0000
          39   -0.0038   -0.0001   -0.0001
          40   -0.0179   -0.0002    0.0000
          41    0.0293    0.0003   -0.0000
          42    0.0052    0.0000   -0.0000
          43   -0.0001    0.4378    0.4070
          44    0.0000    0.0127    0.0104
          45    0.0001   -0.1534   -0.1404
          46    0.1626    0.0000    0.0001
          47   -0.0957    0.0000   -0.0001
          48    0.3043   -0.0000    0.0003
          49   -0.0548   -0.0002    0.0000
          50    0.1543    0.0015   -0.0011
          51   -0.1705   -0.0018    0.0014
          52   -0.1270    0.0000   -0.0002
          53    0.0587   -0.0000    0.0001
          54    0.2246   -0.0001    0.0003
          55    0.0002    0.0070   -0.0095
          56    0.0004   -0.2213    0.2220
          57   -0.0009    0.3880   -0.3884


           MASS-WEIGHTED COORDINATE ANALYSIS (NORMAL COORDINATES)


   Root No.       1         2         3         4         5         6         7         8

                 1 A       2 A       3 A       4 A       5 A       6 A       7 A       8 A   

                 112.8     185.4     284.5     347.0     398.5     454.2     524.3     540.5
  
           1    0.0631   -0.0633   -0.1548    0.0664    0.1447   -0.0243   -0.1629   -0.1502
           2   -0.0392   -0.2358   -0.2042   -0.0547   -0.2560   -0.2498    0.0234    0.0010
           3   -0.0050   -0.0910   -0.1774    0.1526    0.1793   -0.1446    0.1778    0.0088
           4    0.0709   -0.0560   -0.1524    0.1015    0.2180   -0.0422   -0.2616   -0.1308
           5    0.3831   -0.1305    0.1681   -0.1178    0.0273    0.0489    0.0539    0.0870
           6    0.1608   -0.0303    0.1345   -0.1423   -0.0990    0.0927    0.0077   -0.1787
           7    0.0991    0.0721    0.0494   -0.0224   -0.0835   -0.1049    0.4432    0.0896
           8    0.3564    0.2138   -0.2098    0.0415    0.0713    0.0540   -0.0498   -0.0500
           9    0.0974    0.0739   -0.0117   -0.1021   -0.1810    0.0202   -0.1782    0.1391
          10   -0.0241   -0.1146   -0.0705   -0.0310    0.0100   -0.1130   -0.0338    0.1615
          11   -0.1192   -0.3031   -0.0869   -0.2469   -0.1779   -0.2329   -0.0936   -0.2627
          12   -0.0409   -0.1316   -0.1249    0.0293    0.3003   -0.1021   -0.0282   -0.2600
          13   -0.1422    0.0442    0.0064    0.0039   -0.1897    0.2554    0.1653   -0.2835
          14   -0.3190   -0.0639   -0.1426    0.2202   -0.1643    0.3211   -0.0599    0.0884
          15   -0.0442   -0.0785   -0.1052    0.0761    0.0228   -0.1832    0.3724    0.0741
          16    0.0651   -0.0978    0.1325    0.2379    0.1078    0.0133    0.1405    0.1983
          17    0.0378   -0.2686    0.2934    0.2378   -0.0324    0.0280    0.0957   -0.2190
          18    0.0175   -0.1562    0.1507    0.1916    0.0524    0.1124   -0.3235    0.1488
          19   -0.0084    0.0120   -0.0454   -0.0025   -0.0760   -0.0491   -0.2468    0.1607
          20    0.0429    0.3931    0.0734    0.3008   -0.0437   -0.1685    0.0070    0.0034
          21   -0.0407    0.2658    0.1240    0.0316   -0.2533    0.0080   -0.0280   -0.1882
          22   -0.0639    0.2029    0.2189   -0.2070    0.0171   -0.0234    0.1318   -0.2824
          23   -0.1823    0.2238    0.2360   -0.1469    0.2651   -0.2064   -0.1674    0.1038
          24   -0.0055    0.0077    0.0475   -0.0709   -0.1615   -0.1207    0.0041    0.3502
          25   -0.0806   -0.0365   -0.0309   -0.1630   -0.1792    0.0136   -0.1508    0.2460
          26   -0.2505    0.0820   -0.1409   -0.2445    0.2299    0.1716    0.1736    0.1783
          27   -0.1697    0.0861   -0.0865   -0.1351    0.2045    0.1849   -0.0048   -0.1623
          28    0.1100   -0.0120   -0.0049    0.0038    0.1052    0.0121   -0.0949   -0.0490
          29   -0.0378   -0.0779   -0.0656   -0.0389   -0.0981   -0.1015    0.0095   -0.0232
          30   -0.0280    0.0047   -0.0677    0.1437    0.0590    0.0506    0.1006    0.0909
          31   -0.0550   -0.0359   -0.1499    0.0960    0.0691   -0.1151   -0.0699   -0.0552
          32    0.2383   -0.1446    0.1344   -0.1870    0.0909    0.1913    0.0619    0.0845
          33   -0.0001    0.0705    0.0363    0.0229   -0.0865   -0.0331   -0.0286   -0.0819
          34    0.1037   -0.0010    0.0363    0.0025    0.1310    0.0827   -0.0638   -0.0294
          35    0.1534   -0.0404    0.0886   -0.0596    0.0400    0.0685    0.0244    0.0346
          36    0.1687   -0.1364    0.1276   -0.2324    0.0121    0.2147    0.0408    0.0067
          37   -0.1042   -0.0816    0.2118    0.0291    0.0202   -0.1333    0.1432    0.0400
          38    0.2374    0.1250   -0.2446    0.0204   -0.0275    0.1348   -0.0170   -0.0302
          39    0.0132    0.1168   -0.0270   -0.1409   -0.0403   -0.0347   -0.0833    0.0441
          40    0.1826    0.1317   -0.2140   -0.0356   -0.0738    0.0900    0.1268    0.0225
          41    0.1891    0.1337   -0.1973   -0.0109    0.0002    0.0781   -0.0221    0.0004
          42    0.0876    0.0094   -0.0526   -0.0051   -0.1148    0.0880   -0.0242   -0.0568
          43   -0.0050    0.0288    0.0007    0.0112   -0.0571   -0.0206   -0.0665    0.0708
          44    0.0143    0.2657    0.0457    0.2410   -0.0469   -0.0930   -0.0069   -0.0001
          45   -0.0188    0.1613    0.0785    0.0550   -0.1759   -0.0184    0.0096    0.0147
          46   -0.0977    0.0137    0.0297    0.0060   -0.1458    0.1993    0.0358   -0.0774
          47   -0.1964   -0.0359   -0.0550    0.1513   -0.0791    0.3204   -0.0444   -0.0288
          48   -0.0147   -0.0280   -0.0493    0.0468    0.0451   -0.0475    0.1045    0.0019
          49    0.0321   -0.0292    0.0961    0.1787    0.1440    0.0924    0.0527    0.0699
          50   -0.0037   -0.1142    0.2213    0.1781    0.0205    0.1338    0.0107    0.0025
          51   -0.0136   -0.0788    0.1505    0.1190    0.0053    0.1171   -0.1114    0.0983
          52   -0.0446    0.1156    0.1541   -0.1277    0.0449    0.0076   -0.0956   -0.1166
          53   -0.1311    0.1288    0.2089   -0.1192    0.1956   -0.1142   -0.1050    0.0115
          54    0.0050    0.0179    0.0266   -0.0383   -0.0545   -0.0124   -0.0597    0.0864
          55   -0.0500   -0.0020    0.0017   -0.1076   -0.1315    0.0424   -0.0540    0.0927
          56   -0.1530    0.0672   -0.0906   -0.1387    0.1830    0.1899    0.1476    0.1903
          57   -0.0944    0.0494   -0.0535   -0.0767    0.1274    0.1330    0.0546    0.0316


   Root No.       9        10        11        12        13        14        15        16

                 9 A      10 A      11 A      12 A      13 A      14 A      15 A      16 A   

                 659.4     747.7     754.7     777.9     785.5     855.6     887.0     929.3
  
           1   -0.1789   -0.0313   -0.1609    0.1557    0.0090   -0.0060    0.0623    0.0170
           2   -0.2714    0.1701   -0.0452    0.1434   -0.0360    0.0280   -0.2710   -0.0147
           3   -0.0303    0.1293    0.0246    0.0702   -0.0557   -0.1058    0.0949    0.0314
           4   -0.2357   -0.0393   -0.0124    0.0457    0.2401    0.1572    0.1982   -0.0458
           5    0.0424    0.1320    0.0100   -0.1498    0.0122   -0.1520   -0.3146    0.0821
           6   -0.0925   -0.0228   -0.3150    0.1363    0.0557    0.0018   -0.0375    0.0484
           7   -0.0006   -0.1731   -0.0869   -0.0543    0.2637    0.1913   -0.0860   -0.0559
           8   -0.0851   -0.1691    0.0542   -0.0506    0.0033   -0.2984    0.0687    0.2900
           9   -0.0595   -0.0810   -0.0103   -0.0094    0.0511   -0.0676    0.0367    0.0549
          10    0.3151   -0.0992   -0.1491    0.1048   -0.1363    0.0153   -0.0096    0.0691
          11    0.2579   -0.0777    0.0462    0.0695   -0.0298    0.1591    0.1314    0.0690
          12    0.3664   -0.1944    0.1026   -0.0739   -0.0923    0.1126   -0.1943    0.0887
          13   -0.0133    0.0013    0.0318   -0.0465   -0.2346   -0.0784   -0.0237   -0.0653
          14   -0.0186   -0.2207   -0.0627   -0.0989   -0.1109    0.1353   -0.0335   -0.2483
          15    0.0352    0.2723    0.2102   -0.0005   -0.0858   -0.1123    0.2599    0.0651
          16    0.1638   -0.0891   -0.1535    0.0835   -0.0203   -0.0605   -0.1325   -0.1043
          17   -0.1508   -0.0026    0.1729    0.0039    0.1960   -0.0957    0.1064   -0.2361
          18    0.1108   -0.0255   -0.1242    0.1392   -0.2225   -0.2280   -0.1125   -0.1858
          19    0.0054    0.1102    0.4273   -0.2918    0.0178   -0.0498   -0.1201   -0.0288
          20    0.1553    0.0070   -0.0497   -0.1669    0.0003   -0.0354    0.0591   -0.0680
          21   -0.0500   -0.0151   -0.1599   -0.0017    0.0169   -0.0064    0.0864   -0.0498
          22   -0.0461    0.0868    0.0216   -0.0218   -0.2553   -0.0767   -0.0304    0.0592
          23   -0.0691   -0.0842   -0.0459   -0.0576   -0.1315    0.1242    0.0210    0.0304
          24   -0.0314   -0.1323   -0.0215   -0.0634    0.2971    0.2126    0.0115   -0.0147
          25    0.0109    0.1293    0.1019   -0.0769   -0.0630   -0.1289    0.1367    0.0349
          26    0.0147    0.0463   -0.2933   -0.0492   -0.0219   -0.0524    0.2510    0.0068
          27   -0.1362   -0.0058    0.2175   -0.3209    0.1442    0.1175   -0.2087   -0.0970
          28   -0.1173    0.0313   -0.0928    0.0484    0.1162   -0.0324   -0.0085    0.0675
          29   -0.0198    0.0231    0.0021    0.0641   -0.0284    0.0462   -0.0934    0.0180
          30   -0.1167    0.0749    0.0199   -0.0659   -0.0935   -0.1159    0.1360   -0.1524
          31   -0.1727    0.0924   -0.0967    0.0831    0.1223   -0.0130   -0.0895    0.0703
          32    0.0610   -0.0969    0.2098    0.0587   -0.0696    0.0858    0.1490   -0.0530
          33   -0.0067    0.0268   -0.1774   -0.0563    0.0351   -0.0528   -0.0876    0.0215
          34    0.0243   -0.1197    0.0482   -0.0000    0.0591    0.1069    0.3541   -0.0783
          35    0.0546   -0.0182    0.0453   -0.0409   -0.0087   -0.0062    0.0443   -0.0104
          36   -0.0130   -0.1323    0.1202    0.1654   -0.0677    0.1424    0.1527   -0.0598
          37   -0.1237   -0.2731    0.0001   -0.0653    0.1416   -0.1562   -0.0050    0.1336
          38    0.1139    0.1626   -0.0040    0.0603   -0.0146    0.0632   -0.0158   -0.1523
          39   -0.0523    0.0078   -0.0182   -0.0684   -0.1055    0.1483    0.0484    0.2380
          40    0.1586    0.1833   -0.0704    0.0448    0.0377    0.3194   -0.0817   -0.2271
          41    0.0756    0.0831   -0.0227    0.0201   -0.0302    0.0852   -0.0194   -0.0241
          42   -0.0074    0.0903    0.0551    0.0263    0.0347   -0.0483    0.0451   -0.1319
          43    0.0092    0.0195    0.1761    0.0035   -0.0420   -0.0174   -0.0312    0.0304
          44   -0.0164   -0.1717    0.3513    0.4288   -0.0698    0.2398   -0.0244    0.0702
          45    0.0066   -0.0574    0.1276    0.2922   -0.1390    0.0109    0.0248    0.1043
          46    0.1481    0.0373    0.0299    0.0258    0.2148   -0.0452   -0.0872    0.2227
          47    0.2976    0.0671    0.0417    0.0998    0.4026   -0.1205    0.0755    0.4015
          48    0.0237    0.1007    0.0683    0.0195   -0.0392   -0.0726    0.1465    0.0399
          49    0.0171    0.1169   -0.0893   -0.0466   -0.1270    0.1839   -0.1383    0.2757
          50   -0.1668    0.3201   -0.0113   -0.0802   -0.0672    0.3765    0.0621    0.2652
          51   -0.0690    0.2360   -0.0777   -0.0108   -0.1387    0.2346    0.0244    0.1498
          52    0.1005    0.1969    0.0025    0.1403    0.1014   -0.1140   -0.0833   -0.0956
          53    0.2190    0.3742    0.0331    0.2377    0.3009   -0.0250   -0.0112   -0.2503
          54   -0.0072   -0.0440   -0.0192   -0.0019    0.0974    0.0266   -0.0303   -0.0005
          55   -0.1149    0.0747    0.0237    0.1171   -0.0069   -0.1059    0.1879    0.0145
          56   -0.1886   -0.0568    0.0917    0.3813   -0.0069   -0.0984   -0.2308    0.0421
          57   -0.1462   -0.0431    0.1644    0.1287    0.0408   -0.0118   -0.2405   -0.0059


   Root No.      17        18        19        20        21        22        23        24

                17 A      18 A      19 A      20 A      21 A      22 A      23 A      24 A   

                 942.8     979.1     989.0    1018.7    1034.1    1049.5    1055.7    1068.2
  
           1   -0.0643    0.0421    0.0161    0.1007    0.0217   -0.0870   -0.0452    0.1810
           2   -0.3064   -0.1254   -0.1135    0.1142    0.0923   -0.0191   -0.0135   -0.1122
           3   -0.0005    0.0878    0.0408    0.0903    0.0642   -0.0547    0.0331    0.0165
           4    0.0546   -0.1525   -0.0364   -0.0982   -0.0331    0.1034    0.0676   -0.1366
           5    0.1931    0.2024    0.0647   -0.1296   -0.1131    0.0316   -0.0974   -0.1122
           6    0.0704   -0.0219    0.0086   -0.0761   -0.1143    0.1942    0.2791    0.0245
           7    0.0139    0.1150   -0.1135    0.2852   -0.2156   -0.1103   -0.0862   -0.0876
           8   -0.1867   -0.1125    0.1778    0.0303   -0.1294    0.0024   -0.0427   -0.0519
           9   -0.0128    0.0398    0.0228    0.1626   -0.1097   -0.0169    0.0134    0.0460
          10    0.0203   -0.0221    0.0834    0.0321    0.0074    0.0043    0.0772   -0.0207
          11    0.1878    0.0483    0.1405    0.0622   -0.0027   -0.0654    0.0406   -0.0686
          12    0.0508    0.0478    0.1501    0.0451    0.0384   -0.1000   -0.0369    0.0174
          13   -0.0355   -0.0812    0.1309   -0.1220   -0.0524    0.0658   -0.0832    0.0398
[...]
 FORCE CONSTANT      0.4654

 VIBRATION         34   34A           ATOM PAIR      ENERGY CONTRIBUTION    RADIAL
 FREQUENCY          1375.36         C  3 -- H 14         +12.0% ( 50.1%)      2.1%
 TRANSITION DIPOLE   0.0942         C  3 -- H 13         +10.7% ( 47.2%)      2.1%
 TRAVEL (Ang.)       0.2219         C  3 -- C  8         +10.4% ( 46.6%)     91.1%
 REDUCED MASS        0.9959         C  1 -- C  2          +8.9% ( 43.1%)     47.0%
 EFFECTIVE MASS      7.6812
 FORCE CONSTANT      1.1099

 VIBRATION         35   35A           ATOM PAIR      ENERGY CONTRIBUTION    RADIAL
 FREQUENCY          1387.31         C  3 -- H 13         +13.1% ( 49.8%)      5.7%
 TRANSITION DIPOLE   0.0373         C  3 -- H 14         +13.0% ( 49.7%)      6.3%
 TRAVEL (Ang.)       0.2548         C  3 -- C  6         +12.1% ( 47.8%)     94.5%
 REDUCED MASS        0.7489         C  3 -- C  8          +8.0% ( 38.9%)     11.0%
 EFFECTIVE MASS      6.8278
 FORCE CONSTANT      0.8492

 VIBRATION         36   36A           ATOM PAIR      ENERGY CONTRIBUTION    RADIAL
 FREQUENCY          1398.50         C  2 -- H 11         +23.9% ( 59.5%)      5.1%
 TRANSITION DIPOLE   0.0701         C  2 -- H 12         +23.0% ( 58.4%)      6.2%
 TRAVEL (Ang.)       0.2673         C  1 -- C  2         +11.5% ( 41.3%)     22.0%
 REDUCED MASS        0.6746         C  2 -- C  7         +10.7% ( 39.9%)     77.1%
 EFFECTIVE MASS      4.7598
 FORCE CONSTANT      0.7774

 VIBRATION         37   37A           ATOM PAIR      ENERGY CONTRIBUTION    RADIAL
 FREQUENCY          1412.09         C  4 -- C  9         +16.7% ( 63.9%)     93.0%
 TRANSITION DIPOLE   0.0406         C  3 -- C  6         +10.8% ( 51.5%)     98.6%
 TRAVEL (Ang.)       0.1744         C  7 -- C  9          +7.9% ( 44.1%)      0.2%
 REDUCED MASS        1.5707         C  4 -- C  7          +7.7% ( 43.6%)     77.6%
 EFFECTIVE MASS     10.1341
 FORCE CONSTANT      1.8453

 VIBRATION         38   38A           ATOM PAIR      ENERGY CONTRIBUTION    RADIAL
 FREQUENCY          1458.16         C  1 -- C  5         +16.8% ( 65.8%)     91.1%
 TRANSITION DIPOLE   0.0099         C  1 -- C  4         +16.1% ( 64.6%)     59.8%
 TRAVEL (Ang.)       0.1425         C  1 -- C  2         +10.3% ( 51.6%)     25.0%
 REDUCED MASS        2.2760         C  1 -- H 10         +10.2% ( 51.3%)      0.0%
 EFFECTIVE MASS     11.0108
 FORCE CONSTANT      2.8513

 VIBRATION         39   39A           ATOM PAIR      ENERGY CONTRIBUTION    RADIAL
 FREQUENCY          1794.51         C  7 -- C  9         +40.3% (100.4%)    100.0%
 TRANSITION DIPOLE   0.2562         C  2 -- C  7         +12.5% ( 55.9%)     23.4%
 TRAVEL (Ang.)       0.0836         C  4 -- C  7         +12.1% ( 55.0%)     52.9%
 REDUCED MASS        5.3814         C  4 -- C  9         +11.9% ( 54.6%)     19.6%
 EFFECTIVE MASS     11.9045         C  7 -- H 15         +11.6% ( 53.8%)     10.4%
 FORCE CONSTANT     10.2103         C  9 -- H 19         +11.2% ( 53.0%)     11.0%

 VIBRATION         40   40A           ATOM PAIR      ENERGY CONTRIBUTION    RADIAL
 FREQUENCY          1856.40         C  5 -- C  8         +42.9% ( 97.2%)    100.0%
 TRANSITION DIPOLE   0.1271         C  1 -- C  5         +13.6% ( 54.8%)     47.1%
 TRAVEL (Ang.)       0.0843         C  3 -- C  8         +13.6% ( 54.7%)     48.8%
 REDUCED MASS        5.1137         C  8 -- H 18         +12.6% ( 52.7%)      5.3%
 EFFECTIVE MASS     11.8871         C  5 -- H 16         +12.5% ( 52.5%)      5.6%
 FORCE CONSTANT     10.3832

 VIBRATION         41   41A           ATOM PAIR      ENERGY CONTRIBUTION    RADIAL
 FREQUENCY          1925.27         C  4 -- C  6         +36.0% ( 96.1%)     98.8%
 TRANSITION DIPOLE   0.2008         C  4 -- C  9         +15.2% ( 62.6%)     57.4%
 TRAVEL (Ang.)       0.0806         C  1 -- C  4         +14.5% ( 61.0%)     25.3%
 REDUCED MASS        5.3967         C  4 -- C  7         +14.2% ( 60.5%)     92.2%
 EFFECTIVE MASS     11.9190
 FORCE CONSTANT     11.7860

 VIBRATION         42   42A           ATOM PAIR      ENERGY CONTRIBUTION    RADIAL
 FREQUENCY          2863.55         C  1 -- H 10         +96.8% ( 99.9%)    100.0%
 TRANSITION DIPOLE   0.1076         C  1 -- C  2          +1.0% ( 10.1%)      9.5%
 TRAVEL (Ang.)       0.1595         C  1 -- C  5          +1.0% ( 10.0%)      7.5%
 REDUCED MASS        0.9252         C  1 -- C  4          +1.0% ( 10.0%)      9.7%
 EFFECTIVE MASS      1.4345
 FORCE CONSTANT      4.4699

 VIBRATION         43   43A           ATOM PAIR      ENERGY CONTRIBUTION    RADIAL
 FREQUENCY          2938.21         C  3 -- H 13         +63.2% ( 82.4%)     97.8%
 TRANSITION DIPOLE   0.0447         C  3 -- H 14         +34.5% ( 60.9%)     94.5%
 TRAVEL (Ang.)       0.2028         C  3 -- C  6          +1.1% ( 10.8%)      0.3%
 REDUCED MASS        0.5578         C  3 -- C  8          +1.1% ( 10.8%)      0.2%
 EFFECTIVE MASS      1.5315
 FORCE CONSTANT      2.8373

 VIBRATION         44   44A           ATOM PAIR      ENERGY CONTRIBUTION    RADIAL
 FREQUENCY          2981.84         C  2 -- H 11         +57.6% ( 78.7%)     97.5%
 TRANSITION DIPOLE   0.0638         C  2 -- H 12         +40.0% ( 65.5%)     95.5%
 TRAVEL (Ang.)       0.2063         C  2 -- C  7          +1.1% ( 10.9%)      0.1%
 REDUCED MASS        0.5312         C  1 -- C  2          +1.1% ( 10.9%)      0.1%
 EFFECTIVE MASS      1.5360
 FORCE CONSTANT      2.7826

 VIBRATION         45   45A           ATOM PAIR      ENERGY CONTRIBUTION    RADIAL
 FREQUENCY          3019.08         C  3 -- H 14         +64.2% ( 79.1%)     99.0%
 TRANSITION DIPOLE   0.0980         C  3 -- H 13         +33.5% ( 57.1%)     94.9%
 TRAVEL (Ang.)       0.2082         C  3 -- C  8          +0.7% (  8.3%)     21.4%
 REDUCED MASS        0.5153         C  3 -- C  6          +0.7% (  8.2%)     23.4%
 EFFECTIVE MASS      1.2906
 FORCE CONSTANT      2.7673

 VIBRATION         46   46A           ATOM PAIR      ENERGY CONTRIBUTION    RADIAL
 FREQUENCY          3057.49         C  2 -- H 12         +53.3% ( 72.3%)     98.5%
 TRANSITION DIPOLE   0.1750         C  2 -- H 11         +35.8% ( 59.2%)     96.0%
 TRAVEL (Ang.)       0.2301         C  8 -- H 18          +5.9% ( 24.0%)    100.0%
 REDUCED MASS        0.4164         C  5 -- H 16          +3.4% ( 18.3%)    100.0%
 EFFECTIVE MASS      1.3011
 FORCE CONSTANT      2.2937

 VIBRATION         47   47A           ATOM PAIR      ENERGY CONTRIBUTION    RADIAL
 FREQUENCY          3058.18         C  8 -- H 18         +58.8% ( 77.6%)    100.0%
 TRANSITION DIPOLE   0.2574         C  5 -- H 16         +30.0% ( 55.4%)    100.0%
 TRAVEL (Ang.)       0.2278         C  2 -- H 12          +5.0% ( 22.7%)     98.5%
 REDUCED MASS        0.4250         C  2 -- H 11          +3.5% ( 18.8%)     96.1%
 EFFECTIVE MASS      1.4438
 FORCE CONSTANT      2.3420

 VIBRATION         48   48A           ATOM PAIR      ENERGY CONTRIBUTION    RADIAL
 FREQUENCY          3077.18         C  6 -- H 17         +75.3% ( 88.1%)    100.0%
 TRANSITION DIPOLE   0.4289         C  5 -- H 16         +15.5% ( 40.0%)    100.0%
 TRAVEL (Ang.)       0.1929         C  8 -- H 18          +5.9% ( 24.6%)     99.8%
 REDUCED MASS        0.5887         C  4 -- C  6          +1.2% ( 11.3%)     41.2%
 EFFECTIVE MASS      1.5342
 FORCE CONSTANT      3.2845

 VIBRATION         49   49A           ATOM PAIR      ENERGY CONTRIBUTION    RADIAL
 FREQUENCY          3079.35         C  5 -- H 16         +48.4% ( 70.6%)     99.9%
 TRANSITION DIPOLE   0.2077         C  8 -- H 18         +26.5% ( 52.2%)     99.9%
 TRAVEL (Ang.)       0.2504         C  6 -- H 17         +21.1% ( 46.6%)    100.0%
 REDUCED MASS        0.3493         C  5 -- C  8          +1.6% ( 12.9%)     97.1%
 EFFECTIVE MASS      1.5856
 FORCE CONSTANT      1.9514

 VIBRATION         50   50A           ATOM PAIR      ENERGY CONTRIBUTION    RADIAL
 FREQUENCY          3119.51         C  7 -- H 15         +50.1% ( 72.2%)    100.0%
 TRANSITION DIPOLE   0.3888         C  9 -- H 19         +46.5% ( 69.5%)    100.0%
 TRAVEL (Ang.)       0.2155         C  7 -- C  9          +1.1% ( 10.9%)      0.0%
 REDUCED MASS        0.4655         C  4 -- C  7          +0.7% (  8.8%)     92.2%
 EFFECTIVE MASS      1.4690
 FORCE CONSTANT      2.6690

 VIBRATION         51   51A           ATOM PAIR      ENERGY CONTRIBUTION    RADIAL
 FREQUENCY          3137.48         C  9 -- H 19         +49.2% ( 71.8%)     99.9%
 TRANSITION DIPOLE   0.3834         C  7 -- H 15         +45.5% ( 69.0%)     99.9%
 TRAVEL (Ang.)       0.2145         C  7 -- C  9          +2.4% ( 16.0%)     99.9%
 REDUCED MASS        0.4672         C  4 -- C  9          +1.0% ( 10.2%)     24.0%
 EFFECTIVE MASS      1.6500
 FORCE CONSTANT      2.7096

      SYMMETRY NUMBER FOR POINT-GROUP C1  =  1


          SYSTEM IS A GROUND STATE



 InChI=1S/C9H10/c1-2-5-9-7-3-6-8(9)4-1/h1,3-5,7-8H,2,6H2


          MOLECULE IS NOT LINEAR

          THERE ARE 51 GENUINE VIBRATIONS IN THIS SYSTEM
          THIS THERMODYNAMICS CALCULATION IS LIMITED TO
          MOLECULES WHICH HAVE NO INTERNAL ROTATIONS




                    CALCULATED THERMODYNAMIC PROPERTIES
                                          *
   TEMP. (K)   PARTITION FUNCTION   H.O.F.    ENTHALPY  HEAT CAPACITY ENTROPY
                                   KCAL/MOL   CAL/MOLE    CAL/K/MOL  CAL/K/MOL


 298.00  VIB.     0.1359D+02                  2639.8539    22.9776    14.0442
         ROT.     0.3538D+06                   888.2803     2.9808    28.3704
         INT.     0.4809D+07                  3528.1342    25.9584    42.4146
         TRA.     0.1242D+28                  1480.4672     4.9680    40.2136
         TOT.                       39.901    5008.6014    30.9264    82.6282

 200.00  VIB.     0.3657D+01                   933.4715    12.1602     7.2441
         ROT.     0.1945D+06                   596.1613     2.9808    27.1817
         INT.     0.7114D+06                  1529.6328    15.1410    34.4258
         TRA.     0.6829D+27                   993.6021     4.9680    38.2325
         TOT.                       37.415    2523.2350    20.1090    72.6583

 210.00  VIB.     0.4120D+01                  1060.0295    13.1571     7.8613
         ROT.     0.2093D+06                   625.9693     2.9808    27.3272
         INT.     0.8623D+06                  1685.9989    16.1380    35.1885
         TRA.     0.7347D+27                  1043.2822     4.9680    38.4749
         TOT.                       37.621    2729.2811    21.1060    73.6634

 220.00  VIB.     0.4658D+01                  1196.7251    14.1873     8.4971
         ROT.     0.2244D+06                   655.7774     2.9808    27.4658
         INT.     0.1045D+07                  1852.5025    17.1681    35.9629
         TRA.     0.7878D+27                  1092.9623     4.9680    38.7060
         TOT.                       37.838    2945.4648    22.1361    74.6689

 230.00  VIB.     0.5284D+01                  1343.8757    15.2476     9.1510
         ROT.     0.2399D+06                   685.5855     2.9808    27.5983
         INT.     0.1268D+07                  2029.4611    18.2284    36.7493
         TRA.     0.8422D+27                  1142.6424     4.9680    38.9268
         TOT.                       38.064    3172.1036    23.1964    75.6762

 240.00  VIB.     0.6015D+01                  1501.7671    16.3348     9.8228
         ROT.     0.2557D+06                   715.3935     2.9808    27.7252
         INT.     0.1538D+07                  2217.1606    19.3156    37.5480
         TRA.     0.8977D+27                  1192.3226     4.9680    39.1383
         TOT.                       38.302    3409.4831    24.2837    76.6863

 250.00  VIB.     0.6869D+01                  1670.6498    17.4453    10.5121
         ROT.     0.2719D+06                   745.2016     2.9808    27.8469
         INT.     0.1868D+07                  2415.8514    20.4261    38.3589
         TRA.     0.9544D+27                  1242.0027     4.9680    39.3411
         TOT.                       38.550    3657.8541    25.3941    77.7000

 260.00  VIB.     0.7871D+01                  1850.7369    18.5751    11.2182
         ROT.     0.2883D+06                   775.0097     2.9808    27.9638
         INT.     0.2270D+07                  2625.7466    21.5559    39.1820
         TRA.     0.1012D+28                  1291.6828     4.9680    39.5359
         TOT.                       38.810    3917.4294    26.5239    78.7180

 270.00  VIB.     0.9048D+01                  2042.2027    19.7204    11.9407
         ROT.     0.3051D+06                   804.8177     2.9808    28.0763
         INT.     0.2761D+07                  2847.0205    22.7012    40.0170
         TRA.     0.1071D+28                  1341.3629     4.9680    39.7234
         TOT.                       39.081    4188.3833    27.6692    79.7404

 280.00  VIB.     0.1043D+02                  2245.1830    20.8773    12.6788
         ROT.     0.3223D+06                   834.6258     2.9808    28.1847
         INT.     0.3363D+07                  3079.8088    23.8581    40.8635
         TRA.     0.1131D+28                  1391.0430     4.9680    39.9041
         TOT.                       39.363    4470.8518    28.8261    80.7676

 290.00  VIB.     0.1207D+02                  2459.7758    22.0423    13.4317
         ROT.     0.3397D+06                   864.4339     2.9808    28.2893
         INT.     0.4100D+07                  3324.2096    25.0231    41.7210
         TRA.     0.1192D+28                  1440.7231     4.9680    40.0784
         TOT.                       39.657    4764.9327    29.9911    81.7994

 300.00  VIB.     0.1401D+02                  2686.0432    23.2117    14.1986
         ROT.     0.3574D+06                   894.2419     2.9808    28.3903
         INT.     0.5006D+07                  3580.2851    26.1925    42.5890
         TRA.     0.1255D+28                  1490.4032     4.9680    40.2469
         TOT.                       39.963    5070.6883    31.1605    82.8359

 310.00  VIB.     0.1630D+02                  2924.0132    24.3823    14.9788
         ROT.     0.3754D+06                   924.0500     2.9808    28.4881
         INT.     0.6119D+07                  3848.0632    27.3631    43.4669
         TRA.     0.1318D+28                  1540.0833     4.9680    40.4098
         TOT.                       40.280    5388.1465    32.3311    83.8767

 320.00  VIB.     0.1902D+02                  3173.6824    25.5510    15.7714
         ROT.     0.3937D+06                   953.8580     2.9808    28.5827
         INT.     0.7490D+07                  4127.5404    28.5318    44.3541
         TRA.     0.1382D+28                  1589.7634     4.9680    40.5675
         TOT.                       40.609    5717.3038    33.4998    84.9216

 330.00  VIB.     0.2227D+02                  3435.0184    26.7152    16.5755
         ROT.     0.4123D+06                   983.6661     2.9808    28.6744
         INT.     0.9180D+07                  4418.6845    29.6960    45.2499
         TRA.     0.1447D+28                  1639.4435     4.9680    40.7204
         TOT.                       40.950    6058.1280    34.6640    85.9703

 340.00  VIB.     0.2613D+02                  3707.9629    27.8723    17.3902
         ROT.     0.4312D+06                  1013.4742     2.9808    28.7634
         INT.     0.1127D+08                  4721.4370    30.8531    46.1537
         TRA.     0.1514D+28                  1689.1236     4.9680    40.8687
         TOT.                       41.303    6410.5606    35.8211    87.0223

 350.00  VIB.     0.3075D+02                  3992.4340    29.0202    18.2148
         ROT.     0.4504D+06                  1043.2822     2.9808    28.8498
         INT.     0.1385D+08                  5035.7163    32.0010    47.0646
         TRA.     0.1581D+28                  1738.8037     4.9680    41.0127
         TOT.                       41.667    6774.5200    36.9690    88.0773

 360.00  VIB.     0.3627D+02                  4288.3296    30.1569    19.0482
         ROT.     0.4698D+06                  1073.0903     2.9808    28.9338
         INT.     0.1704D+08                  5361.4199    33.1377    47.9821
         TRA.     0.1649D+28                  1788.4838     4.9680    41.1526
         TOT.                       42.042    7149.9038    38.1057    89.1347

 370.00  VIB.     0.4290D+02                  4595.5295    31.2808    19.8899
         ROT.     0.4895D+06                  1102.8984     2.9808    29.0155
         INT.     0.2100D+08                  5698.4279    34.2616    48.9054
         TRA.     0.1718D+28                  1838.1639     4.9680    41.2888
         TOT.                       42.429    7536.5918    39.2296    90.1941

 380.00  VIB.     0.5085D+02                  4913.8983    32.3905    20.7388
         ROT.     0.5095D+06                  1132.7064     2.9808    29.0950
         INT.     0.2591D+08                  6046.6047    35.3713    49.8338
         TRA.     0.1788D+28                  1887.8440     4.9680    41.4213
         TOT.                       42.827    7934.4487    40.3393    91.2551

 390.00  VIB.     0.6042D+02                  5243.2873    33.4847    21.5944
         ROT.     0.5297D+06                  1162.5145     2.9808    29.1724
         INT.     0.3200D+08                  6405.8018    36.4655    50.7668
         TRA.     0.1860D+28                  1937.5242     4.9680    41.5503
         TOT.                       43.236    8343.3259    41.4335    92.3171

 400.00  VIB.     0.7194D+02                  5583.5373    34.5625    22.4558
         ROT.     0.5502D+06                  1192.3226     2.9808    29.2479
         INT.     0.3958D+08                  6775.8598    37.5433    51.7036
         TRA.     0.1932D+28                  1987.2043     4.9680    41.6761
         TOT.                       43.655    8763.0641    42.5113    93.3797

   *: NOTE: HEATS OF FORMATION ARE RELATIVE TO THE
            ELEMENTS IN THEIR STANDARD STATE AT 298K
              (=  Standard Enthalpy of Formation).

            Hvib:  Zero-point energy is not included.
                   frequencies of less than zero cm-1 are not included.
            Hrot = (3/2)RT
            Htra = (3/2)RT + pV = (5/2)RT

            Heat capacity is Cp, not Cv

          For more information, see: HTTP://OpenMOPAC.net/Manual/thermochemistry.html


           FORCE CONSTANT IN CARTESIAN COORDINATES (Millidynes/A)

    ATOM   CHEMICAL       X               Y               Z
   NUMBER   SYMBOL  FORCE CONSTANT  FORCE CONSTANT  FORCE CONSTANT

      1       C        8.551343        8.197121        9.229884
      2       C        7.721419        8.491176        8.805697
      3       C        8.916067        8.079395        8.746154
      4       C       15.208114        6.676438        6.922970
      5       C       12.245235        5.310693        9.708266
      6       C       12.438793        6.976535        7.689782
      7       C       14.324368        4.668853        8.005189
      8       C       12.249678        5.296001        9.472569
      9       C       11.731654        5.453881       10.527093
     10       H        1.125769        3.828723        0.860650
     11       H        1.292204        1.860752        3.224584
     12       H        1.302457        4.472995        0.654934
     13       H        2.421896        2.777363        0.920238
     14       H        1.710774        3.774608        0.821738
     15       H        4.855592        0.441906        1.125041
     16       H        1.563454        0.745208        3.966852
     17       H        0.897853        2.424300        2.951129
     18       H        1.652235        0.655884        3.956977
     19       H        0.687161        1.590020        4.138514

 **********************
 *                    *
 * JOB ENDED NORMALLY *
 *                    *
 **********************



 TOTAL JOB TIME:             1.91 SECONDS

 == MOPAC DONE ==
