 *******************************************************************************
 **                                                                           **
 **                              MOPAC v23.1.2                                **
 **                                                                           **
 *******************************************************************************
 **          Digital Object Identifier (DOI): 10.5281/zenodo.6511958          **
 **    Visit the DOI location for information on how to cite this program.    **
 *******************************************************************************

                              PM3 CALCULATION RESULTS

 *******************************************************************************
 *  CALCULATION DONE: (MAX THREADS = 1)              Tue Jun  3 16:42:18 2025  *
 *  PM3        - The PM3 Hamiltonian to be used
 *  PRECISE    - TIGHTER CRITERIA TO BE USED
 *  NOSYM      - POINT-GROUP SYMMETRY SET TO C1
 *  THREADS=1  - MULTI-THREADING NOT USED
 *  T=         - A TIME OF 172800.0 SECONDS REQUESTED
 *  DUMP=N     - RESTART FILE WRITTEN EVERY 7200.0 SECONDS REQUESTED
 *******************************************************************************
pm3  precise nosym THREADS=1
 InChI=1S/C12H20/c1-4-6-7-10(3)12-8-11(5-2)9-12/h4,6,8,10,12H,5,7,9H2,1-3H3

   ATOM   CHEMICAL          X               Y               Z
  NUMBER   SYMBOL      (ANGSTROMS)     (ANGSTROMS)     (ANGSTROMS)

     1       C          0.59780000  *  -0.79030000  *  -0.02840000  *
     2       C         -0.72940000  *  -1.19940000  *   0.66200000  *
     3       C         -1.40690000  *  -0.13620000  *   1.36140000  *
     4       C          1.69250000  *  -0.53380000  *   1.03470000  *
     5       C         -3.86060000  *   0.44610000  *   0.25060000  *
     6       C          1.04830000  *  -1.88870000  *  -1.00770000  *
     7       C         -3.92240000  *   1.18990000  *  -1.07780000  *
     8       C          4.23490000  *   1.87710000  *  -0.61320000  *
     9       C         -2.54700000  *  -0.25220000  *   0.40400000  *
    10       C         -1.89110000  *  -1.27300000  *  -0.28360000  *
    11       C          2.94540000  *   0.05140000  *   0.43800000  *
    12       C          2.97940000  *   1.30650000  *  -0.03100000  *
    13       H          0.43070000  *   0.14260000  *  -0.61410000  *
    14       H         -0.63930000  *  -2.13010000  *   1.26730000  *
    15       H          1.94810000  *  -1.49000000  *   1.54170000  *
    16       H          1.32210000  *   0.16130000  *   1.81860000  *
    17       H         -3.98900000  *   1.16900000  *   1.08390000  *
    18       H         -4.67960000  *  -0.30240000  *   0.29900000  *
    19       H         -0.92890000  *   0.86620000  *   1.29130000  *
    20       H         -1.70990000  *  -0.41460000  *   2.39470000  *
    21       H          0.28580000  *  -2.04150000  *  -1.79970000  *
    22       H          1.20670000  *  -2.84960000  *  -0.47270000  *
    23       H          1.99430000  *  -1.59890000  *  -1.51170000  *
    24       H         -4.89850000  *   1.71180000  *  -1.16620000  *
    25       H         -3.82230000  *   0.47730000  *  -1.92440000  *
    26       H         -3.10840000  *   1.94420000  *  -1.13470000  *
    27       H          4.05430000  *   2.92200000  *  -0.94150000  *
    28       H          5.04180000  *   1.87460000  *   0.14980000  *
    29       H          4.55310000  *   1.27490000  *  -1.49030000  *
    30       H          2.08890000  *   1.92800000  *   0.00800000  *
    31       H          3.84440000  *  -0.55900000  *   0.41450000  *
    32       H         -2.13520000  *  -1.88340000  *  -1.14620000  *



          CARTESIAN COORDINATES 

    NO.       ATOM           X           Y           Z

     1         C          0.5978     -0.7903     -0.0284
     2         C         -0.7294     -1.1994      0.6620
     3         C         -1.4069     -0.1362      1.3614
     4         C          1.6925     -0.5338      1.0347
     5         C         -3.8606      0.4461      0.2506
     6         C          1.0483     -1.8887     -1.0077
     7         C         -3.9224      1.1899     -1.0778
     8         C          4.2349      1.8771     -0.6132
     9         C         -2.5470     -0.2522      0.4040
    10         C         -1.8911     -1.2730     -0.2836
    11         C          2.9454      0.0514      0.4380
    12         C          2.9794      1.3065     -0.0310
    13         H          0.4307      0.1426     -0.6141
    14         H         -0.6393     -2.1301      1.2673
    15         H          1.9481     -1.4900      1.5417
    16         H          1.3221      0.1613      1.8186
    17         H         -3.9890      1.1690      1.0839
    18         H         -4.6796     -0.3024      0.2990
    19         H         -0.9289      0.8662      1.2913
    20         H         -1.7099     -0.4146      2.3947
    21         H          0.2858     -2.0415     -1.7997
    22         H          1.2067     -2.8496     -0.4727
    23         H          1.9943     -1.5989     -1.5117
    24         H         -4.8985      1.7118     -1.1662
    25         H         -3.8223      0.4773     -1.9244
    26         H         -3.1084      1.9442     -1.1347
    27         H          4.0543      2.9220     -0.9415
    28         H          5.0418      1.8746      0.1498
    29         H          4.5531      1.2749     -1.4903
    30         H          2.0889      1.9280      0.0080
    31         H          3.8444     -0.5590      0.4145
    32         H         -2.1352     -1.8834     -1.1462

  H: (PM3): J. J. P. STEWART, J. COMP. CHEM. 10, 209 (1989).
  C: (PM3): J. J. P. STEWART, J. COMP. CHEM. 10, 209 (1989).

           Empirical Formula: C12 H20  =    32 atoms



      MOLECULAR POINT GROUP   :   C1  


      RHF CALCULATION, NO. OF DOUBLY OCCUPIED LEVELS = 34


          Geometry optimization using EF

          DIAGONAL MATRIX USED AS START HESSIAN

 CYCLE:     1 TIME:   0.012 TIME LEFT:  2.00D  GRAD.:   213.127 HEAT:  30.50429
 CYCLE:     2 TIME:   0.020 TIME LEFT:  2.00D  GRAD.:    65.070 HEAT:  20.96918
 CYCLE:     3 TIME:   0.016 TIME LEFT:  2.00D  GRAD.:    67.570 HEAT:  19.58162
 CYCLE:     4 TIME:   0.020 TIME LEFT:  2.00D  GRAD.:    42.400 HEAT:  18.71782
 CYCLE:     5 TIME:   0.012 TIME LEFT:  2.00D  GRAD.:    48.843 HEAT:  18.48038
 CYCLE:     6 TIME:   0.012 TIME LEFT:  2.00D  GRAD.:    35.035 HEAT:  17.81348
 CYCLE:     7 TIME:   0.016 TIME LEFT:  2.00D  GRAD.:    43.792 HEAT:  17.70722
 CYCLE:     8 TIME:   0.020 TIME LEFT:  2.00D  GRAD.:    23.454 HEAT:  17.42104
 CYCLE:     9 TIME:   0.016 TIME LEFT:  2.00D  GRAD.:    24.134 HEAT:  17.38353
 CYCLE:    10 TIME:   0.012 TIME LEFT:  2.00D  GRAD.:    17.750 HEAT:  17.22836
 CYCLE:    11 TIME:   0.020 TIME LEFT:  2.00D  GRAD.:    16.690 HEAT:  17.18359
 CYCLE:    12 TIME:   0.008 TIME LEFT:  2.00D  GRAD.:    15.148 HEAT:  17.13927
 CYCLE:    13 TIME:   0.016 TIME LEFT:  2.00D  GRAD.:    16.583 HEAT:  17.11380
 CYCLE:    14 TIME:   0.012 TIME LEFT:  2.00D  GRAD.:    13.869 HEAT:  17.08749
 CYCLE:    15 TIME:   0.016 TIME LEFT:  2.00D  GRAD.:     6.537 HEAT:  17.03416
 CYCLE:    16 TIME:   0.020 TIME LEFT:  2.00D  GRAD.:     5.661 HEAT:  17.02385
 CYCLE:    17 TIME:   0.012 TIME LEFT:  2.00D  GRAD.:     4.723 HEAT:  17.01056
 CYCLE:    18 TIME:   0.012 TIME LEFT:  2.00D  GRAD.:     4.634 HEAT:  16.99706
 CYCLE:    19 TIME:   0.012 TIME LEFT:  2.00D  GRAD.:     6.969 HEAT:  16.98973
 CYCLE:    20 TIME:   0.012 TIME LEFT:  2.00D  GRAD.:     4.889 HEAT:  16.97264
 CYCLE:    21 TIME:   0.008 TIME LEFT:  2.00D  GRAD.:     5.632 HEAT:  16.96854
 CYCLE:    22 TIME:   0.012 TIME LEFT:  2.00D  GRAD.:     4.090 HEAT:  16.96081
 CYCLE:    23 TIME:   0.012 TIME LEFT:  2.00D  GRAD.:     4.558 HEAT:  16.95953
 CYCLE:    24 TIME:   0.012 TIME LEFT:  2.00D  GRAD.:     3.782 HEAT:  16.95500
 CYCLE:    25 TIME:   0.008 TIME LEFT:  2.00D  GRAD.:     6.048 HEAT:  16.95988
 CYCLE:    26 TIME:   0.012 TIME LEFT:  2.00D  GRAD.:     5.030 HEAT:  16.95376
 CYCLE:    27 TIME:   0.020 TIME LEFT:  2.00D  GRAD.:     2.956 HEAT:  16.94826
 CYCLE:    28 TIME:   0.012 TIME LEFT:  2.00D  GRAD.:     2.822 HEAT:  16.94655
 CYCLE:    29 TIME:   0.012 TIME LEFT:  2.00D  GRAD.:     2.901 HEAT:  16.94324
 CYCLE:    30 TIME:   0.012 TIME LEFT:  2.00D  GRAD.:     1.983 HEAT:  16.93937
 CYCLE:    31 TIME:   0.012 TIME LEFT:  2.00D  GRAD.:     3.225 HEAT:  16.93509
 CYCLE:    32 TIME:   0.008 TIME LEFT:  2.00D  GRAD.:     3.449 HEAT:  16.92896
 CYCLE:    33 TIME:   0.012 TIME LEFT:  2.00D  GRAD.:     2.737 HEAT:  16.92340
 CYCLE:    34 TIME:   0.012 TIME LEFT:  2.00D  GRAD.:     2.718 HEAT:  16.91829
 CYCLE:    35 TIME:   0.012 TIME LEFT:  2.00D  GRAD.:     3.161 HEAT:  16.90925
 CYCLE:    36 TIME:   0.012 TIME LEFT:  2.00D  GRAD.:     4.645 HEAT:  16.89252
 CYCLE:    37 TIME:   0.008 TIME LEFT:  2.00D  GRAD.:     3.843 HEAT:  16.87742
 CYCLE:    38 TIME:   0.012 TIME LEFT:  2.00D  GRAD.:     4.115 HEAT:  16.86667
 CYCLE:    39 TIME:   0.012 TIME LEFT:  2.00D  GRAD.:     5.030 HEAT:  16.85634
 CYCLE:    40 TIME:   0.008 TIME LEFT:  2.00D  GRAD.:     3.731 HEAT:  16.83816
 CYCLE:    41 TIME:   0.016 TIME LEFT:  2.00D  GRAD.:     4.965 HEAT:  16.81646
 CYCLE:    42 TIME:   0.008 TIME LEFT:  2.00D  GRAD.:     5.836 HEAT:  16.79227
 CYCLE:    43 TIME:   0.012 TIME LEFT:  2.00D  GRAD.:     5.854 HEAT:  16.76206
 CYCLE:    44 TIME:   0.012 TIME LEFT:  2.00D  GRAD.:     5.700 HEAT:  16.72510
 CYCLE:    45 TIME:   0.012 TIME LEFT:  2.00D  GRAD.:     7.269 HEAT:  16.72023
 CYCLE:    46 TIME:   0.012 TIME LEFT:  2.00D  GRAD.:     4.415 HEAT:  16.68843
 CYCLE:    47 TIME:   0.012 TIME LEFT:  2.00D  GRAD.:     5.583 HEAT:  16.67045
 CYCLE:    48 TIME:   0.012 TIME LEFT:  2.00D  GRAD.:     4.905 HEAT:  16.64651
 CYCLE:    49 TIME:   0.008 TIME LEFT:  2.00D  GRAD.:     4.715 HEAT:  16.61367
 CYCLE:    50 TIME:   0.020 TIME LEFT:  2.00D  GRAD.:     4.891 HEAT:  16.59484
 CYCLE:    51 TIME:   0.012 TIME LEFT:  2.00D  GRAD.:     8.422 HEAT:  16.58532
 CYCLE:    52 TIME:   0.012 TIME LEFT:  2.00D  GRAD.:    10.293 HEAT:  16.56480
 CYCLE:    53 TIME:   0.012 TIME LEFT:  2.00D  GRAD.:     4.205 HEAT:  16.52267
 CYCLE:    54 TIME:   0.008 TIME LEFT:  2.00D  GRAD.:     3.814 HEAT:  16.49550
 CYCLE:    55 TIME:   0.016 TIME LEFT:  2.00D  GRAD.:     6.713 HEAT:  16.41362
 CYCLE:    56 TIME:   0.012 TIME LEFT:  2.00D  GRAD.:     8.278 HEAT:  16.35178
 CYCLE:    57 TIME:   0.008 TIME LEFT:  2.00D  GRAD.:     7.588 HEAT:  16.26895
 CYCLE:    58 TIME:   0.020 TIME LEFT:  2.00D  GRAD.:    11.761 HEAT:  16.23494
 CYCLE:    59 TIME:   0.016 TIME LEFT:  2.00D  GRAD.:    15.010 HEAT:  16.19159
 CYCLE:    60 TIME:   0.008 TIME LEFT:  2.00D  GRAD.:     9.399 HEAT:  16.06492
 CYCLE:    61 TIME:   0.016 TIME LEFT:  2.00D  GRAD.:     6.150 HEAT:  15.99748
 CYCLE:    62 TIME:   0.008 TIME LEFT:  2.00D  GRAD.:     5.883 HEAT:  15.94156
 CYCLE:    63 TIME:   0.012 TIME LEFT:  2.00D  GRAD.:     5.787 HEAT:  15.90639
 CYCLE:    64 TIME:   0.012 TIME LEFT:  2.00D  GRAD.:     4.634 HEAT:  15.88262
 CYCLE:    65 TIME:   0.008 TIME LEFT:  2.00D  GRAD.:     3.679 HEAT:  15.86671
 CYCLE:    66 TIME:   0.012 TIME LEFT:  2.00D  GRAD.:     2.507 HEAT:  15.84052
 CYCLE:    67 TIME:   0.012 TIME LEFT:  2.00D  GRAD.:     2.825 HEAT:  15.82627
 CYCLE:    68 TIME:   0.012 TIME LEFT:  2.00D  GRAD.:     2.902 HEAT:  15.80936
 CYCLE:    69 TIME:   0.008 TIME LEFT:  2.00D  GRAD.:     3.299 HEAT:  15.79378
 CYCLE:    70 TIME:   0.012 TIME LEFT:  2.00D  GRAD.:     2.766 HEAT:  15.77580
 CYCLE:    71 TIME:   0.012 TIME LEFT:  2.00D  GRAD.:     2.817 HEAT:  15.75426
 CYCLE:    72 TIME:   0.012 TIME LEFT:  2.00D  GRAD.:     3.303 HEAT:  15.73639
 CYCLE:    73 TIME:   0.012 TIME LEFT:  2.00D  GRAD.:     2.631 HEAT:  15.72008
 CYCLE:    74 TIME:   0.012 TIME LEFT:  2.00D  GRAD.:     3.047 HEAT:  15.70757
 CYCLE:    75 TIME:   0.012 TIME LEFT:  2.00D  GRAD.:     1.852 HEAT:  15.69795
 CYCLE:    76 TIME:   0.008 TIME LEFT:  2.00D  GRAD.:     1.517 HEAT:  15.69157
 CYCLE:    77 TIME:   0.012 TIME LEFT:  2.00D  GRAD.:     1.449 HEAT:  15.68603
 CYCLE:    78 TIME:   0.012 TIME LEFT:  2.00D  GRAD.:     1.453 HEAT:  15.68120
 CYCLE:    79 TIME:   0.012 TIME LEFT:  2.00D  GRAD.:     1.356 HEAT:  15.67674
 CYCLE:    80 TIME:   0.012 TIME LEFT:  2.00D  GRAD.:     1.329 HEAT:  15.67248
 CYCLE:    81 TIME:   0.008 TIME LEFT:  2.00D  GRAD.:     1.279 HEAT:  15.66890
 CYCLE:    82 TIME:   0.012 TIME LEFT:  2.00D  GRAD.:     1.361 HEAT:  15.66451
 CYCLE:    83 TIME:   0.012 TIME LEFT:  2.00D  GRAD.:     1.291 HEAT:  15.65999
 CYCLE:    84 TIME:   0.012 TIME LEFT:  2.00D  GRAD.:     1.198 HEAT:  15.65556
 CYCLE:    85 TIME:   0.012 TIME LEFT:  2.00D  GRAD.:     1.162 HEAT:  15.65229
 CYCLE:    86 TIME:   0.008 TIME LEFT:  2.00D  GRAD.:     1.147 HEAT:  15.64936
 CYCLE:    87 TIME:   0.012 TIME LEFT:  2.00D  GRAD.:     1.219 HEAT:  15.64642
 CYCLE:    88 TIME:   0.012 TIME LEFT:  2.00D  GRAD.:     1.288 HEAT:  15.64286
 CYCLE:    89 TIME:   0.012 TIME LEFT:  2.00D  GRAD.:     1.232 HEAT:  15.63919
 CYCLE:    90 TIME:   0.008 TIME LEFT:  2.00D  GRAD.:     1.158 HEAT:  15.63582
 CYCLE:    91 TIME:   0.012 TIME LEFT:  2.00D  GRAD.:     1.150 HEAT:  15.63265
 CYCLE:    92 TIME:   0.012 TIME LEFT:  2.00D  GRAD.:     1.209 HEAT:  15.62894
 CYCLE:    93 TIME:   0.012 TIME LEFT:  2.00D  GRAD.:     1.352 HEAT:  15.62474
 CYCLE:    94 TIME:   0.012 TIME LEFT:  2.00D  GRAD.:     1.444 HEAT:  15.61997
 CYCLE:    95 TIME:   0.008 TIME LEFT:  2.00D  GRAD.:     1.357 HEAT:  15.61592
 CYCLE:    96 TIME:   0.012 TIME LEFT:  2.00D  GRAD.:     1.258 HEAT:  15.61214
 CYCLE:    97 TIME:   0.012 TIME LEFT:  2.00D  GRAD.:     1.145 HEAT:  15.60896
 CYCLE:    98 TIME:   0.012 TIME LEFT:  2.00D  GRAD.:     1.212 HEAT:  15.60591
 CYCLE:    99 TIME:   0.008 TIME LEFT:  2.00D  GRAD.:     1.038 HEAT:  15.60344
 CYCLE:   100 TIME:   0.016 TIME LEFT:  2.00D  GRAD.:     0.855 HEAT:  15.60146
 CYCLE:   101 TIME:   0.008 TIME LEFT:  2.00D  GRAD.:     0.722 HEAT:  15.60007
 CYCLE:   102 TIME:   0.012 TIME LEFT:  2.00D  GRAD.:     0.825 HEAT:  15.59868
 CYCLE:   103 TIME:   0.012 TIME LEFT:  2.00D  GRAD.:     0.840 HEAT:  15.59750
 CYCLE:   104 TIME:   0.012 TIME LEFT:  2.00D  GRAD.:     0.926 HEAT:  15.59613
 CYCLE:   105 TIME:   0.012 TIME LEFT:  2.00D  GRAD.:     0.871 HEAT:  15.59485
 CYCLE:   106 TIME:   0.008 TIME LEFT:  2.00D  GRAD.:     0.824 HEAT:  15.59321
 CYCLE:   107 TIME:   0.012 TIME LEFT:  2.00D  GRAD.:     0.838 HEAT:  15.59154
 CYCLE:   108 TIME:   0.012 TIME LEFT:  2.00D  GRAD.:     0.713 HEAT:  15.59001
 CYCLE:   109 TIME:   0.008 TIME LEFT:  2.00D  GRAD.:     0.692 HEAT:  15.58868
 CYCLE:   110 TIME:   0.012 TIME LEFT:  2.00D  GRAD.:     0.785 HEAT:  15.58742
 CYCLE:   111 TIME:   0.016 TIME LEFT:  2.00D  GRAD.:     1.023 HEAT:  15.58550
 CYCLE:   112 TIME:   0.008 TIME LEFT:  2.00D  GRAD.:     1.401 HEAT:  15.58251
 CYCLE:   113 TIME:   0.012 TIME LEFT:  2.00D  GRAD.:     1.906 HEAT:  15.57712
 CYCLE:   114 TIME:   0.016 TIME LEFT:  2.00D  GRAD.:     2.039 HEAT:  15.57209
 CYCLE:   115 TIME:   0.012 TIME LEFT:  2.00D  GRAD.:     2.986 HEAT:  15.55886
 CYCLE:   116 TIME:   0.008 TIME LEFT:  2.00D  GRAD.:     2.626 HEAT:  15.55063
 CYCLE:   117 TIME:   0.012 TIME LEFT:  2.00D  GRAD.:     3.841 HEAT:  15.52507
 CYCLE:   118 TIME:   0.020 TIME LEFT:  2.00D  GRAD.:     5.139 HEAT:  15.52490
 CYCLE:   119 TIME:   0.008 TIME LEFT:  2.00D  GRAD.:     1.834 HEAT:  15.50375
 CYCLE:   120 TIME:   0.012 TIME LEFT:  2.00D  GRAD.:     1.952 HEAT:  15.49315
 CYCLE:   121 TIME:   0.008 TIME LEFT:  2.00D  GRAD.:     2.655 HEAT:  15.47891
 CYCLE:   122 TIME:   0.012 TIME LEFT:  2.00D  GRAD.:     3.553 HEAT:  15.46443
 CYCLE:   123 TIME:   0.012 TIME LEFT:  2.00D  GRAD.:     2.344 HEAT:  15.45185
 CYCLE:   124 TIME:   0.008 TIME LEFT:  2.00D  GRAD.:     5.892 HEAT:  15.45206
 CYCLE:   125 TIME:   0.012 TIME LEFT:  2.00D  GRAD.:     2.608 HEAT:  15.43855
 CYCLE:   126 TIME:   0.012 TIME LEFT:  2.00D  GRAD.:     1.379 HEAT:  15.43196
 CYCLE:   127 TIME:   0.012 TIME LEFT:  2.00D  GRAD.:     1.956 HEAT:  15.42091
 CYCLE:   128 TIME:   0.008 TIME LEFT:  2.00D  GRAD.:     3.847 HEAT:  15.41238
 CYCLE:   129 TIME:   0.012 TIME LEFT:  2.00D  GRAD.:     1.775 HEAT:  15.40652
 CYCLE:   130 TIME:   0.008 TIME LEFT:  2.00D  GRAD.:     2.227 HEAT:  15.40222
 CYCLE:   131 TIME:   0.012 TIME LEFT:  2.00D  GRAD.:     2.065 HEAT:  15.39456
 CYCLE:   132 TIME:   0.012 TIME LEFT:  2.00D  GRAD.:     2.083 HEAT:  15.38728
 CYCLE:   133 TIME:   0.008 TIME LEFT:  2.00D  GRAD.:     2.020 HEAT:  15.38182
 CYCLE:   134 TIME:   0.012 TIME LEFT:  2.00D  GRAD.:     3.910 HEAT:  15.37761
 CYCLE:   135 TIME:   0.008 TIME LEFT:  2.00D  GRAD.:     3.565 HEAT:  15.37189
 CYCLE:   136 TIME:   0.012 TIME LEFT:  2.00D  GRAD.:     2.079 HEAT:  15.36326
 CYCLE:   137 TIME:   0.008 TIME LEFT:  2.00D  GRAD.:     1.974 HEAT:  15.35923
 CYCLE:   138 TIME:   0.012 TIME LEFT:  2.00D  GRAD.:     1.278 HEAT:  15.35481
 CYCLE:   139 TIME:   0.012 TIME LEFT:  2.00D  GRAD.:     1.279 HEAT:  15.34906
 CYCLE:   140 TIME:   0.008 TIME LEFT:  2.00D  GRAD.:     1.138 HEAT:  15.34677
 CYCLE:   141 TIME:   0.012 TIME LEFT:  2.00D  GRAD.:     1.039 HEAT:  15.34348
 CYCLE:   142 TIME:   0.012 TIME LEFT:  2.00D  GRAD.:     1.948 HEAT:  15.34332
 CYCLE:   143 TIME:   0.008 TIME LEFT:  2.00D  GRAD.:     1.263 HEAT:  15.33959
 CYCLE:   144 TIME:   0.012 TIME LEFT:  2.00D  GRAD.:     1.136 HEAT:  15.33791
 CYCLE:   145 TIME:   0.012 TIME LEFT:  2.00D  GRAD.:     1.137 HEAT:  15.33405
 CYCLE:   146 TIME:   0.008 TIME LEFT:  2.00D  GRAD.:     0.978 HEAT:  15.33188
 CYCLE:   147 TIME:   0.012 TIME LEFT:  2.00D  GRAD.:     1.193 HEAT:  15.32936
 CYCLE:   148 TIME:   0.012 TIME LEFT:  2.00D  GRAD.:     1.492 HEAT:  15.32653
 CYCLE:   149 TIME:   0.012 TIME LEFT:  2.00D  GRAD.:     1.999 HEAT:  15.32394
 CYCLE:   150 TIME:   0.012 TIME LEFT:  2.00D  GRAD.:     1.570 HEAT:  15.32219
 CYCLE:   151 TIME:   0.008 TIME LEFT:  2.00D  GRAD.:     1.263 HEAT:  15.32009
 CYCLE:   152 TIME:   0.012 TIME LEFT:  2.00D  GRAD.:     1.339 HEAT:  15.31767
 CYCLE:   153 TIME:   0.016 TIME LEFT:  2.00D  GRAD.:     1.709 HEAT:  15.31423
 CYCLE:   154 TIME:   0.008 TIME LEFT:  2.00D  GRAD.:     1.498 HEAT:  15.31108
 CYCLE:   155 TIME:   0.012 TIME LEFT:  2.00D  GRAD.:     1.273 HEAT:  15.30758
 CYCLE:   156 TIME:   0.008 TIME LEFT:  2.00D  GRAD.:     1.339 HEAT:  15.30529
 CYCLE:   157 TIME:   0.012 TIME LEFT:  2.00D  GRAD.:     1.231 HEAT:  15.30311
 CYCLE:   158 TIME:   0.012 TIME LEFT:  2.00D  GRAD.:     1.244 HEAT:  15.30138
 CYCLE:   159 TIME:   0.008 TIME LEFT:  2.00D  GRAD.:     1.028 HEAT:  15.29954
 CYCLE:   160 TIME:   0.012 TIME LEFT:  2.00D  GRAD.:     0.862 HEAT:  15.29795
 CYCLE:   161 TIME:   0.008 TIME LEFT:  2.00D  GRAD.:     0.879 HEAT:  15.29652
 CYCLE:   162 TIME:   0.012 TIME LEFT:  2.00D  GRAD.:     0.916 HEAT:  15.29553
 CYCLE:   163 TIME:   0.008 TIME LEFT:  2.00D  GRAD.:     0.812 HEAT:  15.29424
 CYCLE:   164 TIME:   0.012 TIME LEFT:  2.00D  GRAD.:     0.878 HEAT:  15.29271
 CYCLE:   165 TIME:   0.008 TIME LEFT:  2.00D  GRAD.:     1.055 HEAT:  15.29134
 CYCLE:   166 TIME:   0.012 TIME LEFT:  2.00D  GRAD.:     1.181 HEAT:  15.28987
 CYCLE:   167 TIME:   0.012 TIME LEFT:  2.00D  GRAD.:     0.899 HEAT:  15.28872
 CYCLE:   168 TIME:   0.008 TIME LEFT:  2.00D  GRAD.:     0.838 HEAT:  15.28788
 CYCLE:   169 TIME:   0.012 TIME LEFT:  2.00D  GRAD.:     0.757 HEAT:  15.28708
 CYCLE:   170 TIME:   0.008 TIME LEFT:  2.00D  GRAD.:     0.613 HEAT:  15.28635
 CYCLE:   171 TIME:   0.012 TIME LEFT:  2.00D  GRAD.:     0.535 HEAT:  15.28573
 CYCLE:   172 TIME:   0.008 TIME LEFT:  2.00D  GRAD.:     0.524 HEAT:  15.28528
 CYCLE:   173 TIME:   0.012 TIME LEFT:  2.00D  GRAD.:     0.542 HEAT:  15.28482
 CYCLE:   174 TIME:   0.008 TIME LEFT:  2.00D  GRAD.:     0.736 HEAT:  15.28429
 CYCLE:   175 TIME:   0.012 TIME LEFT:  2.00D  GRAD.:     0.873 HEAT:  15.28349
 CYCLE:   176 TIME:   0.008 TIME LEFT:  2.00D  GRAD.:     0.976 HEAT:  15.28229
 CYCLE:   177 TIME:   0.012 TIME LEFT:  2.00D  GRAD.:     1.520 HEAT:  15.28080
 CYCLE:   178 TIME:   0.012 TIME LEFT:  2.00D  GRAD.:     0.889 HEAT:  15.27944
 CYCLE:   179 TIME:   0.008 TIME LEFT:  2.00D  GRAD.:     0.774 HEAT:  15.27813
 CYCLE:   180 TIME:   0.012 TIME LEFT:  2.00D  GRAD.:     0.811 HEAT:  15.27706
 CYCLE:   181 TIME:   0.012 TIME LEFT:  2.00D  GRAD.:     1.059 HEAT:  15.27621
 CYCLE:   182 TIME:   0.012 TIME LEFT:  2.00D  GRAD.:     1.008 HEAT:  15.27468
 CYCLE:   183 TIME:   0.012 TIME LEFT:  2.00D  GRAD.:     1.045 HEAT:  15.27278
 CYCLE:   184 TIME:   0.012 TIME LEFT:  2.00D  GRAD.:     0.896 HEAT:  15.27098
 CYCLE:   185 TIME:   0.012 TIME LEFT:  2.00D  GRAD.:     1.186 HEAT:  15.26899
 CYCLE:   186 TIME:   0.012 TIME LEFT:  2.00D  GRAD.:     1.140 HEAT:  15.26757
 CYCLE:   187 TIME:   0.012 TIME LEFT:  2.00D  GRAD.:     1.163 HEAT:  15.26512
 CYCLE:   188 TIME:   0.012 TIME LEFT:  2.00D  GRAD.:     1.270 HEAT:  15.26186
 CYCLE:   189 TIME:   0.012 TIME LEFT:  2.00D  GRAD.:     2.032 HEAT:  15.25750
 CYCLE:   190 TIME:   0.012 TIME LEFT:  2.00D  GRAD.:     1.814 HEAT:  15.25355
 CYCLE:   191 TIME:   0.012 TIME LEFT:  2.00D  GRAD.:     3.164 HEAT:  15.24867
 CYCLE:   192 TIME:   0.008 TIME LEFT:  2.00D  GRAD.:     2.255 HEAT:  15.24453
 CYCLE:   193 TIME:   0.016 TIME LEFT:  2.00D  GRAD.:     4.266 HEAT:  15.24120
 CYCLE:   194 TIME:   0.008 TIME LEFT:  2.00D  GRAD.:     4.983 HEAT:  15.23508
 CYCLE:   195 TIME:   0.012 TIME LEFT:  2.00D  GRAD.:     3.074 HEAT:  15.21915
 CYCLE:   196 TIME:   0.012 TIME LEFT:  2.00D  GRAD.:     4.937 HEAT:  15.20751
 CYCLE:   197 TIME:   0.020 TIME LEFT:  2.00D  GRAD.:     2.742 HEAT:  15.19875
 CYCLE:   198 TIME:   0.012 TIME LEFT:  2.00D  GRAD.:     3.418 HEAT:  15.19416
 CYCLE:   199 TIME:   0.012 TIME LEFT:  2.00D  GRAD.:     1.953 HEAT:  15.18387
 CYCLE:   200 TIME:   0.012 TIME LEFT:  2.00D  GRAD.:     2.400 HEAT:  15.17670
 CYCLE:   201 TIME:   0.012 TIME LEFT:  2.00D  GRAD.:     3.079 HEAT:  15.16970
 CYCLE:   202 TIME:   0.008 TIME LEFT:  2.00D  GRAD.:     2.101 HEAT:  15.16252
 CYCLE:   203 TIME:   0.012 TIME LEFT:  2.00D  GRAD.:     1.870 HEAT:  15.15866
 CYCLE:   204 TIME:   0.012 TIME LEFT:  2.00D  GRAD.:     1.721 HEAT:  15.15393
 CYCLE:   205 TIME:   0.012 TIME LEFT:  2.00D  GRAD.:     1.315 HEAT:  15.14795
 CYCLE:   206 TIME:   0.012 TIME LEFT:  2.00D  GRAD.:     1.604 HEAT:  15.14064
 CYCLE:   207 TIME:   0.012 TIME LEFT:  2.00D  GRAD.:     1.265 HEAT:  15.13781
 CYCLE:   208 TIME:   0.012 TIME LEFT:  2.00D  GRAD.:     1.197 HEAT:  15.13484
 CYCLE:   209 TIME:   0.012 TIME LEFT:  2.00D  GRAD.:     1.107 HEAT:  15.13296
 CYCLE:   210 TIME:   0.012 TIME LEFT:  2.00D  GRAD.:     1.016 HEAT:  15.13116
 CYCLE:   211 TIME:   0.012 TIME LEFT:  2.00D  GRAD.:     1.131 HEAT:  15.12814
 CYCLE:   212 TIME:   0.012 TIME LEFT:  2.00D  GRAD.:     1.307 HEAT:  15.12486
 CYCLE:   213 TIME:   0.008 TIME LEFT:  2.00D  GRAD.:     1.470 HEAT:  15.12195
 CYCLE:   214 TIME:   0.012 TIME LEFT:  2.00D  GRAD.:     1.568 HEAT:  15.11872
 CYCLE:   215 TIME:   0.012 TIME LEFT:  2.00D  GRAD.:     1.484 HEAT:  15.11533
 CYCLE:   216 TIME:   0.012 TIME LEFT:  2.00D  GRAD.:     1.205 HEAT:  15.11239
 CYCLE:   217 TIME:   0.008 TIME LEFT:  2.00D  GRAD.:     1.395 HEAT:  15.10923
 CYCLE:   218 TIME:   0.016 TIME LEFT:  2.00D  GRAD.:     1.427 HEAT:  15.10543
 CYCLE:   219 TIME:   0.012 TIME LEFT:  2.00D  GRAD.:     1.631 HEAT:  15.09948
 CYCLE:   220 TIME:   0.012 TIME LEFT:  2.00D  GRAD.:     1.435 HEAT:  15.09342
 CYCLE:   221 TIME:   0.012 TIME LEFT:  2.00D  GRAD.:     1.096 HEAT:  15.08996
 CYCLE:   222 TIME:   0.012 TIME LEFT:  2.00D  GRAD.:     0.703 HEAT:  15.08867
 CYCLE:   223 TIME:   0.008 TIME LEFT:  2.00D  GRAD.:     0.558 HEAT:  15.08808
 CYCLE:   224 TIME:   0.012 TIME LEFT:  2.00D  GRAD.:     0.516 HEAT:  15.08756
 CYCLE:   225 TIME:   0.012 TIME LEFT:  2.00D  GRAD.:     0.727 HEAT:  15.08678
 CYCLE:   226 TIME:   0.012 TIME LEFT:  2.00D  GRAD.:     0.959 HEAT:  15.08596
 CYCLE:   227 TIME:   0.012 TIME LEFT:  2.00D  GRAD.:     1.771 HEAT:  15.08278
 CYCLE:   228 TIME:   0.012 TIME LEFT:  2.00D  GRAD.:     2.422 HEAT:  15.07585
 CYCLE:   229 TIME:   0.012 TIME LEFT:  2.00D  GRAD.:     3.317 HEAT:  15.06648
 CYCLE:   230 TIME:   0.008 TIME LEFT:  2.00D  GRAD.:     2.669 HEAT:  15.05512
 CYCLE:   231 TIME:   0.012 TIME LEFT:  2.00D  GRAD.:     1.061 HEAT:  15.05044
 CYCLE:   232 TIME:   0.012 TIME LEFT:  2.00D  GRAD.:     0.842 HEAT:  15.04675
 CYCLE:   233 TIME:   0.012 TIME LEFT:  2.00D  GRAD.:     0.860 HEAT:  15.04408
 CYCLE:   234 TIME:   0.012 TIME LEFT:  2.00D  GRAD.:     0.864 HEAT:  15.04253
 CYCLE:   235 TIME:   0.012 TIME LEFT:  2.00D  GRAD.:     0.936 HEAT:  15.04103
 CYCLE:   236 TIME:   0.012 TIME LEFT:  2.00D  GRAD.:     1.071 HEAT:  15.03965
 CYCLE:   237 TIME:   0.012 TIME LEFT:  2.00D  GRAD.:     1.408 HEAT:  15.03683
 CYCLE:   238 TIME:   0.012 TIME LEFT:  2.00D  GRAD.:     1.400 HEAT:  15.03442
 CYCLE:   239 TIME:   0.012 TIME LEFT:  2.00D  GRAD.:     1.753 HEAT:  15.02983
 CYCLE:   240 TIME:   0.012 TIME LEFT:  2.00D  GRAD.:     1.057 HEAT:  15.02657
 CYCLE:   241 TIME:   0.008 TIME LEFT:  2.00D  GRAD.:     0.786 HEAT:  15.02552
 CYCLE:   242 TIME:   0.012 TIME LEFT:  2.00D  GRAD.:     0.775 HEAT:  15.02413
 CYCLE:   243 TIME:   0.012 TIME LEFT:  2.00D  GRAD.:     1.059 HEAT:  15.02211
 CYCLE:   244 TIME:   0.012 TIME LEFT:  2.00D  GRAD.:     1.335 HEAT:  15.01975
 CYCLE:   245 TIME:   0.012 TIME LEFT:  2.00D  GRAD.:     2.057 HEAT:  15.01360
 CYCLE:   246 TIME:   0.012 TIME LEFT:  2.00D  GRAD.:     2.373 HEAT:  15.00704
 CYCLE:   247 TIME:   0.008 TIME LEFT:  2.00D  GRAD.:     1.645 HEAT:  14.99928
 CYCLE:   248 TIME:   0.016 TIME LEFT:  2.00D  GRAD.:     1.157 HEAT:  14.99718
 CYCLE:   249 TIME:   0.012 TIME LEFT:  2.00D  GRAD.:     1.210 HEAT:  14.99602
 CYCLE:   250 TIME:   0.008 TIME LEFT:  2.00D  GRAD.:     0.480 HEAT:  14.99529
 CYCLE:   251 TIME:   0.012 TIME LEFT:  2.00D  GRAD.:     0.387 HEAT:  14.99511
 CYCLE:   252 TIME:   0.012 TIME LEFT:  2.00D  GRAD.:     0.364 HEAT:  14.99495
 CYCLE:   253 TIME:   0.012 TIME LEFT:  2.00D  GRAD.:     0.360 HEAT:  14.99478
 CYCLE:   254 TIME:   0.008 TIME LEFT:  2.00D  GRAD.:     0.750 HEAT:  14.99397
 CYCLE:   255 TIME:   0.012 TIME LEFT:  2.00D  GRAD.:     0.667 HEAT:  14.99344
 CYCLE:   256 TIME:   0.012 TIME LEFT:  2.00D  GRAD.:     0.971 HEAT:  14.99206
 CYCLE:   257 TIME:   0.012 TIME LEFT:  2.00D  GRAD.:     0.788 HEAT:  14.99074
 CYCLE:   258 TIME:   0.012 TIME LEFT:  2.00D  GRAD.:     0.570 HEAT:  14.99017
 CYCLE:   259 TIME:   0.012 TIME LEFT:  2.00D  GRAD.:     0.780 HEAT:  14.98948
 CYCLE:   260 TIME:   0.012 TIME LEFT:  2.00D  GRAD.:     0.928 HEAT:  14.98853
 CYCLE:   261 TIME:   0.012 TIME LEFT:  2.00D  GRAD.:     0.972 HEAT:  14.98705
 CYCLE:   262 TIME:   0.012 TIME LEFT:  2.00D  GRAD.:     0.844 HEAT:  14.98595
 CYCLE:   263 TIME:   0.012 TIME LEFT:  2.00D  GRAD.:     1.811 HEAT:  14.98781
 CYCLE:   264 TIME:   0.012 TIME LEFT:  2.00D  GRAD.:     0.557 HEAT:  14.98464
 CYCLE:   265 TIME:   0.008 TIME LEFT:  2.00D  GRAD.:     0.211 HEAT:  14.98444
 CYCLE:   266 TIME:   0.012 TIME LEFT:  2.00D  GRAD.:     0.204 HEAT:  14.98433
 CYCLE:   267 TIME:   0.012 TIME LEFT:  2.00D  GRAD.:     0.131 HEAT:  14.98429
 CYCLE:   268 TIME:   0.012 TIME LEFT:  2.00D  GRAD.:     0.112 HEAT:  14.98426
 CYCLE:   269 TIME:   0.008 TIME LEFT:  2.00D  GRAD.:     0.147 HEAT:  14.98423
 CYCLE:   270 TIME:   0.012 TIME LEFT:  2.00D  GRAD.:     0.277 HEAT:  14.98417
 CYCLE:   271 TIME:   0.012 TIME LEFT:  2.00D  GRAD.:     0.314 HEAT:  14.98406
 CYCLE:   272 TIME:   0.012 TIME LEFT:  2.00D  GRAD.:     0.526 HEAT:  14.98372
 CYCLE:   273 TIME:   0.012 TIME LEFT:  2.00D  GRAD.:     0.501 HEAT:  14.98332
 CYCLE:   274 TIME:   0.012 TIME LEFT:  2.00D  GRAD.:     1.639 HEAT:  14.98380
 CYCLE:   275 TIME:   0.012 TIME LEFT:  2.00D  GRAD.:     0.680 HEAT:  14.98105
 CYCLE:   276 TIME:   0.012 TIME LEFT:  2.00D  GRAD.:     0.396 HEAT:  14.98072
 CYCLE:   277 TIME:   0.012 TIME LEFT:  2.00D  GRAD.:     0.357 HEAT:  14.98046
 CYCLE:   278 TIME:   0.008 TIME LEFT:  2.00D  GRAD.:     0.206 HEAT:  14.98040
 CYCLE:   279 TIME:   0.012 TIME LEFT:  2.00D  GRAD.:     0.121 HEAT:  14.98038
 CYCLE:   280 TIME:   0.012 TIME LEFT:  2.00D  GRAD.:     0.045 HEAT:  14.98036

     GRADIENT =  0.04528 IS LESS THAN CUTOFF =  0.05000



 -------------------------------------------------------------------------------
 pm3  precise nosym THREADS=1
 InChI=1S/C12H20/c1-4-6-7-10(3)12-8-11(5-2)9-12/h4,6,8,10,12H,5,7,9H2,1-3H3



     GEOMETRY OPTIMISED USING EIGENVECTOR FOLLOWING (EF).     
     SCF FIELD WAS ACHIEVED                                   


                              PM3 CALCULATION
                                                       MOPAC v23.1.2 MacOS
                                                       Tue Jun  3 16:42:21 2025




          FINAL HEAT OF FORMATION =         14.98036 KCAL/MOL =      62.67783 KJ/MOL


          COSMO AREA              =        241.53 SQUARE ANGSTROMS
          COSMO VOLUME            =        250.00 CUBIC ANGSTROMS

          GRADIENT NORM           =          0.04528          =       0.00800 PER ATOM
          IONIZATION POTENTIAL    =          9.529465 EV
          HOMO LUMO ENERGIES (EV) =         -9.529  0.979
          NO. OF FILLED LEVELS    =         34
          MOLECULAR WEIGHT        =        164.2900         POINT GROUP:  C1  

          MOLECULAR DIMENSIONS (Angstroms)

            Atom       Atom       Distance
            H    28    H    24    10.64496
            H    22    H    27     5.71802
            H    20    H    21     4.38372


          SCF CALCULATIONS        =        294

          WALL-CLOCK TIME         =      3.191 SECONDS
          COMPUTATION TIME        =      2.468 SECONDS




   ATOM   CHEMICAL          X               Y               Z
  NUMBER   SYMBOL      (ANGSTROMS)     (ANGSTROMS)     (ANGSTROMS)

     1       C          0.52621743  *  -0.81256838  *  -0.12681517  *
     2       C         -0.73090733  *  -1.11990128  *   0.67026964  *
     3       C         -1.58319370  *   0.12630376  *   1.12233872  *
     4       C          1.58879098  *  -0.19176356  *   0.78648520  *
     5       C         -4.04963687  *   0.03505981  *  -0.00034841  *
     6       C          1.05855135  *  -2.07629269  *  -0.78456470  *
     7       C         -4.04471034  *   1.39353810  *  -0.67048292  *
     8       C          4.66688893  *   1.75967249  *  -0.48527015  *
     9       C         -2.68643738  *  -0.44989205  *   0.24855105  *
    10       C         -1.95425072  *  -1.51023713  *  -0.15400886  *
    11       C          2.78652389  *   0.23260494  *   0.01291276  *
    12       C          3.46374713  *   1.35131689  *   0.27255166  *
    13       H          0.27348912  *  -0.07308503  *  -0.92594582  *
    14       H         -0.51097273  *  -1.82885929  *   1.49585250  *
    15       H          1.90609251  *  -0.92651854  *   1.55488147  *
    16       H          1.14848171  *   0.65975126  *   1.34425298  *
    17       H         -4.58927133  *   0.08502215  *   0.96663352  *
    18       H         -4.59992723  *  -0.69861214  *  -0.62134245  *
    19       H         -1.19812925  *   1.10609918  *   0.80184873  *
    20       H         -1.80933960  *   0.17785952  *   2.19642305  *
    21       H          0.35495644  *  -2.46791959  *  -1.52974674  *
    22       H          1.24193703  *  -2.87226875  *  -0.05067733  *
    23       H          2.01527879  *  -1.86702205  *  -1.29162138  *
    24       H         -5.06594832  *   1.77148424  *  -0.80554674  *
    25       H         -3.57357895  *   1.35388529  *  -1.66105654  *
    26       H         -3.49228706  *   2.13413100  *  -0.07680137  *
    27       H          4.51167645  *   2.74031585  *  -0.95495003  *
    28       H          5.53254912  *   1.84782893  *   0.18500764  *
    29       H          4.93382336  *   1.05018899  *  -1.27985909  *
    30       H          3.14926536  *   2.02725439  *   1.07756606  *
    31       H          3.08290181  *  -0.45534579  *  -0.79716580  *
    32       H         -2.10904829  *  -2.35618688  *  -0.81003538  *

                             CARTESIAN COORDINATES

   1    C        0.526217434    -0.812568381    -0.126815174
   2    C       -0.730907327    -1.119901281     0.670269637
   3    C       -1.583193704     0.126303756     1.122338717
   4    C        1.588790977    -0.191763556     0.786485201
   5    C       -4.049636868     0.035059805    -0.000348411
   6    C        1.058551354    -2.076292685    -0.784564698
   7    C       -4.044710337     1.393538101    -0.670482919
   8    C        4.666888930     1.759672489    -0.485270154
   9    C       -2.686437380    -0.449892049     0.248551053
  10    C       -1.954250720    -1.510237126    -0.154008857
  11    C        2.786523887     0.232604943     0.012912764
  12    C        3.463747133     1.351316891     0.272551657
  13    H        0.273489125    -0.073085029    -0.925945821
  14    H       -0.510972732    -1.828859285     1.495852496
  15    H        1.906092514    -0.926518538     1.554881469
  16    H        1.148481709     0.659751257     1.344252978
  17    H       -4.589271328     0.085022150     0.966633516
  18    H       -4.599927230    -0.698612140    -0.621342448
  19    H       -1.198129250     1.106099183     0.801848732
  20    H       -1.809339596     0.177859523     2.196423049
  21    H        0.354956437    -2.467919588    -1.529746735
  22    H        1.241937026    -2.872268749    -0.050677332
  23    H        2.015278793    -1.867022052    -1.291621382
  24    H       -5.065948323     1.771484243    -0.805546739
  25    H       -3.573578949     1.353885291    -1.661056542
  26    H       -3.492287062     2.134130997    -0.076801367
  27    H        4.511676449     2.740315851    -0.954950033
  28    H        5.532549121     1.847828931     0.185007636
  29    H        4.933823357     1.050188986    -1.279859091
  30    H        3.149265363     2.027254389     1.077566063
  31    H        3.082901814    -0.455345787    -0.797165800
  32    H       -2.109048294    -2.356186879    -0.810035382


           Empirical Formula: C12 H20  =    32 atoms



      MOLECULAR POINT GROUP   :   C1  


                  EIGENVALUES  
 -41.62252 -37.52235 -34.51687 -32.12234 -28.45440 -25.80030 -24.11707 -23.73241
 -21.59748 -19.77036 -19.34251 -17.62465 -16.92028 -16.23882 -16.02372 -15.47307
 -15.16599 -14.94756 -14.32891 -14.27955 -14.03250 -13.42642 -13.32333 -13.04667
 -12.81998 -12.65753 -12.40493 -12.25709 -11.83370 -11.66322 -11.61616 -11.40696
  -9.69370  -9.52946   0.97853   1.13260   3.13989   3.24447   3.29414   3.47011
   3.70189   3.77694   3.82921   3.85826   3.90078   3.94891   3.98306   4.10669
   4.16348   4.18903   4.32705   4.36906   4.39526   4.50928   4.52372   4.56883
   4.61827   4.65670   4.71128   4.80026   4.87232   5.00835   5.14014   5.25853
   5.39274   5.72799   6.00867   6.26168


              NET ATOMIC CHARGES AND DIPOLE CONTRIBUTIONS

  ATOM NO.   TYPE          CHARGE      No. of ELECS.   s-Pop       p-Pop       
    1          C          -0.064426        4.0644     1.17346     2.89096
    2          C          -0.064056        4.0641     1.18981     2.87425
    3          C          -0.073899        4.0739     1.17158     2.90232
    4          C          -0.067578        4.0676     1.15237     2.91521
    5          C          -0.023412        4.0234     1.13184     2.89158
    6          C          -0.118503        4.1185     1.14354     2.97497
    7          C          -0.105230        4.1052     1.13705     2.96818
    8          C          -0.072524        4.0725     1.12489     2.94764
    9          C          -0.143062        4.1431     1.22155     2.92152
   10          C          -0.164145        4.1641     1.21947     2.94468
   11          C          -0.161172        4.1612     1.19942     2.96176
   12          C          -0.149231        4.1492     1.19243     2.95680
   13          H           0.071301        0.9287     0.92870
   14          H           0.078062        0.9219     0.92194
   15          H           0.057745        0.9423     0.94225
   16          H           0.056502        0.9435     0.94350
   17          H           0.053950        0.9461     0.94605
   18          H           0.052181        0.9478     0.94782
   19          H           0.067401        0.9326     0.93260
   20          H           0.060706        0.9393     0.93929
   21          H           0.043187        0.9568     0.95681
   22          H           0.040736        0.9593     0.95926
   23          H           0.045187        0.9548     0.95481
   24          H           0.037027        0.9630     0.96297
   25          H           0.040919        0.9591     0.95908
   26          H           0.039753        0.9602     0.96025
   27          H           0.043272        0.9567     0.95673
   28          H           0.043046        0.9570     0.95695
   29          H           0.040239        0.9598     0.95976
   30          H           0.097976        0.9020     0.90202
   31          H           0.110128        0.8899     0.88987
   32          H           0.127920        0.8721     0.87208
 DIPOLE           X         Y         Z       TOTAL
 POINT-CHG.    -0.052     0.223     0.002     0.229
 HYBRID         0.021    -0.040     0.022     0.050
 SUM           -0.032     0.183     0.023     0.187


          ATOMIC ORBITAL ELECTRON POPULATIONS

     Atom    s        px        py        pz   
    1  C   1.17346   0.93957   0.97540   0.97599
    2  C   1.18981   0.92951   0.96943   0.97531
    3  C   1.17158   0.94763   0.97162   0.98308
    4  C   1.15237   0.94158   1.00500   0.96863
    5  C   1.13184   0.92607   0.96605   0.99947
    6  C   1.14354   1.00450   0.96894   1.00153
    7  C   1.13705   1.00696   0.96040   1.00082
    8  C   1.12489   0.95820   1.00323   0.98620
    9  C   1.22155   0.95740   0.97573   0.98839
   10  C   1.21947   0.95950   0.98236   1.00282
   11  C   1.19942   0.97732   0.97886   1.00557
   12  C   1.19243   0.97969   0.97688   1.00023
   13  H   0.92870
   14  H   0.92194
   15  H   0.94225
   16  H   0.94350
   17  H   0.94605
   18  H   0.94782
   19  H   0.93260
   20  H   0.93929
   21  H   0.95681
   22  H   0.95926
   23  H   0.95481
   24  H   0.96297
   25  H   0.95908
   26  H   0.96025
   27  H   0.95673
   28  H   0.95695
   29  H   0.95976
   30  H   0.90202
   31  H   0.88987
   32  H   0.87208
 *******************************************************************************
 **                                                                           **
 **                              MOPAC v23.1.2                                **
 **                                                                           **
 *******************************************************************************
 **          Digital Object Identifier (DOI): 10.5281/zenodo.6511958          **
 **    Visit the DOI location for information on how to cite this program.    **
 *******************************************************************************

                              PM3 CALCULATION RESULTS

 *******************************************************************************
 *  CALCULATION DONE: (MAX THREADS = 1)              Tue Jun  3 16:42:21 2025  *
 *  PM3        - The PM3 Hamiltonian to be used
 *  OLDGEO     - PREVIOUS GEOMETRY TO BE USED
 *  PRECISE    - TIGHTER CRITERIA TO BE USED
 *  NOSYM      - POINT-GROUP SYMMETRY SET TO C1
 *  THREADS=1  - MULTI-THREADING NOT USED
 *  T=         - A TIME OF 172800.0 SECONDS REQUESTED
 *  DUMP=N     - RESTART FILE WRITTEN EVERY 7200.0 SECONDS REQUESTED
 *  THERMO     - THERMODYNAMIC QUANTITIES TO BE CALCULATED
 *******************************************************************************
oldgeo thermo nosym precise THREADS=1  pm3
 InChI=1S/C12H20/c1-4-6-7-10(3)12-8-11(5-2)9-12/h4,6,8,10,12H,5,7,9H2,1-3H3

   ATOM   CHEMICAL          X               Y               Z
  NUMBER   SYMBOL      (ANGSTROMS)     (ANGSTROMS)     (ANGSTROMS)

     1       C          0.52621743  *  -0.81256838  *  -0.12681517  *
     2       C         -0.73090733  *  -1.11990128  *   0.67026964  *
     3       C         -1.58319370  *   0.12630376  *   1.12233872  *
     4       C          1.58879098  *  -0.19176356  *   0.78648520  *
     5       C         -4.04963687  *   0.03505981  *  -0.00034841  *
     6       C          1.05855135  *  -2.07629269  *  -0.78456470  *
     7       C         -4.04471034  *   1.39353810  *  -0.67048292  *
     8       C          4.66688893  *   1.75967249  *  -0.48527015  *
     9       C         -2.68643738  *  -0.44989205  *   0.24855105  *
    10       C         -1.95425072  *  -1.51023713  *  -0.15400886  *
    11       C          2.78652389  *   0.23260494  *   0.01291276  *
    12       C          3.46374713  *   1.35131689  *   0.27255166  *
    13       H          0.27348912  *  -0.07308503  *  -0.92594582  *
    14       H         -0.51097273  *  -1.82885929  *   1.49585250  *
    15       H          1.90609251  *  -0.92651854  *   1.55488147  *
    16       H          1.14848171  *   0.65975126  *   1.34425298  *
    17       H         -4.58927133  *   0.08502215  *   0.96663352  *
    18       H         -4.59992723  *  -0.69861214  *  -0.62134245  *
    19       H         -1.19812925  *   1.10609918  *   0.80184873  *
    20       H         -1.80933960  *   0.17785952  *   2.19642305  *
    21       H          0.35495644  *  -2.46791959  *  -1.52974674  *
    22       H          1.24193703  *  -2.87226875  *  -0.05067733  *
    23       H          2.01527879  *  -1.86702205  *  -1.29162138  *
    24       H         -5.06594832  *   1.77148424  *  -0.80554674  *
    25       H         -3.57357895  *   1.35388529  *  -1.66105654  *
    26       H         -3.49228706  *   2.13413100  *  -0.07680137  *
    27       H          4.51167645  *   2.74031585  *  -0.95495003  *
    28       H          5.53254912  *   1.84782893  *   0.18500764  *
    29       H          4.93382336  *   1.05018899  *  -1.27985909  *
    30       H          3.14926536  *   2.02725439  *   1.07756606  *
    31       H          3.08290181  *  -0.45534579  *  -0.79716580  *
    32       H         -2.10904829  *  -2.35618688  *  -0.81003538  *



          CARTESIAN COORDINATES 

    NO.       ATOM           X           Y           Z

     1         C          0.5262     -0.8126     -0.1268
     2         C         -0.7309     -1.1199      0.6703
     3         C         -1.5832      0.1263      1.1223
     4         C          1.5888     -0.1918      0.7865
     5         C         -4.0496      0.0351     -0.0003
     6         C          1.0586     -2.0763     -0.7846
     7         C         -4.0447      1.3935     -0.6705
     8         C          4.6669      1.7597     -0.4853
     9         C         -2.6864     -0.4499      0.2486
    10         C         -1.9543     -1.5102     -0.1540
    11         C          2.7865      0.2326      0.0129
    12         C          3.4637      1.3513      0.2726
    13         H          0.2735     -0.0731     -0.9259
    14         H         -0.5110     -1.8289      1.4959
    15         H          1.9061     -0.9265      1.5549
    16         H          1.1485      0.6598      1.3443
    17         H         -4.5893      0.0850      0.9666
    18         H         -4.5999     -0.6986     -0.6213
    19         H         -1.1981      1.1061      0.8018
    20         H         -1.8093      0.1779      2.1964
    21         H          0.3550     -2.4679     -1.5297
    22         H          1.2419     -2.8723     -0.0507
    23         H          2.0153     -1.8670     -1.2916
    24         H         -5.0659      1.7715     -0.8055
    25         H         -3.5736      1.3539     -1.6611
    26         H         -3.4923      2.1341     -0.0768
    27         H          4.5117      2.7403     -0.9550
    28         H          5.5325      1.8478      0.1850
    29         H          4.9338      1.0502     -1.2799
    30         H          3.1493      2.0273      1.0776
    31         H          3.0829     -0.4553     -0.7972
    32         H         -2.1090     -2.3562     -0.8100

  H: (PM3): J. J. P. STEWART, J. COMP. CHEM. 10, 209 (1989).
  C: (PM3): J. J. P. STEWART, J. COMP. CHEM. 10, 209 (1989).

           Empirical Formula: C12 H20  =    32 atoms



      MOLECULAR POINT GROUP   :   C1  


      RHF CALCULATION, NO. OF DOUBLY OCCUPIED LEVELS = 34



          HEAT OF FORMATION =      14.980361 KCALS/MOLE


          CARTESIAN COORDINATE DERIVATIVES

   NUMBER  ATOM         X            Y            Z

     1       C     -0.001651     0.000121    -0.000796
     2       C     -0.002839    -0.002736    -0.001922
     3       C      0.000277    -0.003049     0.002930
     4       C     -0.001630     0.002255     0.002691
     5       C     -0.006528     0.006669     0.002606
     6       C     -0.002920    -0.002040     0.000678
     7       C      0.010418    -0.004324    -0.008692
     8       C     -0.007775    -0.005153    -0.001713
     9       C      0.001751    -0.000576    -0.001088
    10       C      0.002319     0.002135    -0.004561
    11       C     -0.006602     0.004307     0.004034
    12       C      0.007381     0.005562    -0.004772
    13       H     -0.000269    -0.001343    -0.000168
    14       H      0.000900     0.002784     0.002130
    15       H      0.003098    -0.005015    -0.002935
    16       H      0.001528     0.001531     0.000756
    17       H     -0.002801    -0.002905     0.006254
    18       H      0.003462    -0.002044    -0.003746
    19       H     -0.000549     0.000843    -0.003871
    20       H     -0.000454     0.002667     0.001161
    21       H      0.000360     0.000592    -0.003519
    22       H      0.000582    -0.000063     0.001401
    23       H      0.002143     0.002784    -0.000006
    24       H      0.009480     0.003897     0.005893
    25       H     -0.018393    -0.010325     0.014244
    26       H      0.002024     0.006815    -0.015909
    27       H      0.002182    -0.004121     0.001078
    28       H      0.005209     0.001904     0.002869
    29       H      0.000827     0.001193     0.001278
    30       H     -0.002870    -0.005278     0.000487
    31       H      0.001113     0.003185     0.000684
    32       H      0.000223    -0.000271     0.002522



          GRADIENT NORM =   0.04572

          MOLECULAR WEIGHT =  164.29



          ROTATIONAL CONSTANTS IN CM(-1)

          A =    0.05601555   B =    0.01201193   C =    0.01080085



           PRINCIPAL MOMENTS OF INERTIA IN UNITS OF 10**(-40)*GRAM-CM**2

          A =      499.7318   B =     2330.4117   C =     2591.7183


          ORIENTATION OF MOLECULE IN FORCE CALCULATION

    NO.       ATOM         X         Y         Z

     1          C      -0.4366   -0.8417   -0.1152
     2          C       1.0833   -0.8417   -0.1152
     3          C       1.7734    0.5752   -0.1152
     4          C      -0.9620   -0.3876   -1.4813
     5          C       3.2430    0.9047    2.1395
     6          C      -0.9663   -2.2252    0.2286
     7          C       2.6128    2.1896    2.6359
     8          C      -4.5694    0.8283   -2.1204
     9          C       2.3441    0.1753    1.2365
    10          C       1.7418   -1.0328    1.2480
    11          C      -2.4441   -0.2598   -1.4761
    12          C      -3.0943    0.7162   -2.1103
    13          H      -0.7962   -0.1191    0.6581
    14          H       1.4777   -1.5262   -0.8952
    15          H      -0.6729   -1.1203   -2.2627
    16          H      -0.4775    0.5682   -1.7673
    17          H       4.1864    1.1223    1.5996
    18          H       3.5209    0.2570    2.9939
    19          H       1.0887    1.4365   -0.0960
    20          H       2.5133    0.7390   -0.9109
    21          H      -0.6959   -2.5159    1.2514
    22          H      -0.5721   -2.9934   -0.4499
    23          H      -2.0658   -2.2430    0.1453
    24          H       3.3102    2.7536    3.2680
    25          H       1.7117    1.9941    3.2313
    26          H       2.3175    2.8419    1.8032
    27          H      -4.8856    1.7883   -1.6906
    28          H      -4.9517    0.7851   -3.1492
    29          H      -5.0634    0.0308   -1.5495
    30          H      -2.5487    1.4910   -2.6633
    31          H      -2.9750   -1.0431   -0.9086
    32          H       1.6969   -1.8711    1.9300


    FIRST DERIVATIVES WILL BE USED IN THE CALCULATION OF SECOND DERIVATIVES

          ESTIMATED TIME TO COMPLETE CALCULATION =        4.50 SECONDS

    FOR POINT-GROUP C1   THERE ARE   1 UNIQUE SYMMETRY FUNCTIONS.

 STEP:   1 TIME =     0.04 SECS, INTEGRAL =      0.04 TIME LEFT: 172799.95
 STEP:   2 TIME =     0.04 SECS, INTEGRAL =      0.07 TIME LEFT: 172799.92
 STEP:   3 TIME =     0.04 SECS, INTEGRAL =      0.11 TIME LEFT: 172799.88
 STEP:   4 TIME =     0.04 SECS, INTEGRAL =      0.14 TIME LEFT: 172799.84
 STEP:   5 TIME =     0.04 SECS, INTEGRAL =      0.18 TIME LEFT: 172799.81
 STEP:   6 TIME =     0.04 SECS, INTEGRAL =      0.21 TIME LEFT: 172799.77
 STEP:   7 TIME =     0.04 SECS, INTEGRAL =      0.25 TIME LEFT: 172799.74
 STEP:   8 TIME =     0.04 SECS, INTEGRAL =      0.29 TIME LEFT: 172799.70
 STEP:   9 TIME =     0.04 SECS, INTEGRAL =      0.32 TIME LEFT: 172799.67
 STEP:  10 TIME =     0.04 SECS, INTEGRAL =      0.36 TIME LEFT: 172799.63
 STEP:  11 TIME =     0.04 SECS, INTEGRAL =      0.39 TIME LEFT: 172799.59
 STEP:  12 TIME =     0.04 SECS, INTEGRAL =      0.43 TIME LEFT: 172799.56
 STEP:  13 TIME =     0.04 SECS, INTEGRAL =      0.46 TIME LEFT: 172799.52
 STEP:  14 TIME =     0.04 SECS, INTEGRAL =      0.50 TIME LEFT: 172799.49
 STEP:  15 TIME =     0.04 SECS, INTEGRAL =      0.54 TIME LEFT: 172799.45
 STEP:  16 TIME =     0.04 SECS, INTEGRAL =      0.57 TIME LEFT: 172799.42
 STEP:  17 TIME =     0.04 SECS, INTEGRAL =      0.61 TIME LEFT: 172799.38
 STEP:  18 TIME =     0.04 SECS, INTEGRAL =      0.64 TIME LEFT: 172799.34
 STEP:  19 TIME =     0.04 SECS, INTEGRAL =      0.68 TIME LEFT: 172799.30
 STEP:  20 TIME =     0.04 SECS, INTEGRAL =      0.72 TIME LEFT: 172799.27
 STEP:  21 TIME =     0.04 SECS, INTEGRAL =      0.76 TIME LEFT: 172799.23
 STEP:  22 TIME =     0.04 SECS, INTEGRAL =      0.80 TIME LEFT: 172799.19
 STEP:  23 TIME =     0.04 SECS, INTEGRAL =      0.84 TIME LEFT: 172799.15
 STEP:  24 TIME =     0.04 SECS, INTEGRAL =      0.88 TIME LEFT: 172799.11
 STEP:  25 TIME =     0.04 SECS, INTEGRAL =      0.92 TIME LEFT: 172799.07
 STEP:  26 TIME =     0.04 SECS, INTEGRAL =      0.95 TIME LEFT: 172799.04
 STEP:  27 TIME =     0.04 SECS, INTEGRAL =      0.99 TIME LEFT: 172799.00
 STEP:  28 TIME =     0.04 SECS, INTEGRAL =      1.03 TIME LEFT: 172798.96
 STEP:  29 TIME =     0.04 SECS, INTEGRAL =      1.07 TIME LEFT: 172798.92
 STEP:  30 TIME =     0.04 SECS, INTEGRAL =      1.11 TIME LEFT: 172798.88
 STEP:  31 TIME =     0.04 SECS, INTEGRAL =      1.15 TIME LEFT: 172798.84
 STEP:  32 TIME =     0.04 SECS, INTEGRAL =      1.18 TIME LEFT: 172798.80
 STEP:  33 TIME =     0.04 SECS, INTEGRAL =      1.22 TIME LEFT: 172798.77
 STEP:  34 TIME =     0.04 SECS, INTEGRAL =      1.26 TIME LEFT: 172798.73
 STEP:  35 TIME =     0.04 SECS, INTEGRAL =      1.29 TIME LEFT: 172798.70
 STEP:  36 TIME =     0.04 SECS, INTEGRAL =      1.33 TIME LEFT: 172798.66
 STEP:  37 TIME =     0.04 SECS, INTEGRAL =      1.37 TIME LEFT: 172798.62
 STEP:  38 TIME =     0.04 SECS, INTEGRAL =      1.41 TIME LEFT: 172798.58
 STEP:  39 TIME =     0.04 SECS, INTEGRAL =      1.45 TIME LEFT: 172798.54
 STEP:  40 TIME =     0.04 SECS, INTEGRAL =      1.49 TIME LEFT: 172798.50
 STEP:  41 TIME =     0.04 SECS, INTEGRAL =      1.53 TIME LEFT: 172798.46
 STEP:  42 TIME =     0.04 SECS, INTEGRAL =      1.56 TIME LEFT: 172798.43
 STEP:  43 TIME =     0.04 SECS, INTEGRAL =      1.60 TIME LEFT: 172798.39
 STEP:  44 TIME =     0.04 SECS, INTEGRAL =      1.64 TIME LEFT: 172798.35
 STEP:  45 TIME =     0.04 SECS, INTEGRAL =      1.68 TIME LEFT: 172798.31
 STEP:  46 TIME =     0.04 SECS, INTEGRAL =      1.72 TIME LEFT: 172798.27
 STEP:  47 TIME =     0.04 SECS, INTEGRAL =      1.75 TIME LEFT: 172798.23
 STEP:  48 TIME =     0.04 SECS, INTEGRAL =      1.79 TIME LEFT: 172798.20
 STEP:  49 TIME =     0.04 SECS, INTEGRAL =      1.83 TIME LEFT: 172798.16
 STEP:  50 TIME =     0.04 SECS, INTEGRAL =      1.87 TIME LEFT: 172798.12
 STEP:  51 TIME =     0.04 SECS, INTEGRAL =      1.91 TIME LEFT: 172798.08
 STEP:  52 TIME =     0.04 SECS, INTEGRAL =      1.95 TIME LEFT: 172798.04
 STEP:  53 TIME =     0.04 SECS, INTEGRAL =      1.98 TIME LEFT: 172798.00
 STEP:  54 TIME =     0.04 SECS, INTEGRAL =      2.02 TIME LEFT: 172797.97
 STEP:  55 TIME =     0.04 SECS, INTEGRAL =      2.06 TIME LEFT: 172797.93
 STEP:  56 TIME =     0.04 SECS, INTEGRAL =      2.10 TIME LEFT: 172797.89
 STEP:  57 TIME =     0.04 SECS, INTEGRAL =      2.14 TIME LEFT: 172797.85
 STEP:  58 TIME =     0.04 SECS, INTEGRAL =      2.18 TIME LEFT: 172797.81
 STEP:  59 TIME =     0.04 SECS, INTEGRAL =      2.21 TIME LEFT: 172797.77
 STEP:  60 TIME =     0.04 SECS, INTEGRAL =      2.25 TIME LEFT: 172797.74
 STEP:  61 TIME =     0.04 SECS, INTEGRAL =      2.29 TIME LEFT: 172797.70
 STEP:  62 TIME =     0.04 SECS, INTEGRAL =      2.33 TIME LEFT: 172797.66
 STEP:  63 TIME =     0.04 SECS, INTEGRAL =      2.36 TIME LEFT: 172797.62
 STEP:  64 TIME =     0.04 SECS, INTEGRAL =      2.40 TIME LEFT: 172797.59
 STEP:  65 TIME =     0.04 SECS, INTEGRAL =      2.44 TIME LEFT: 172797.55
 STEP:  66 TIME =     0.04 SECS, INTEGRAL =      2.48 TIME LEFT: 172797.51
 STEP:  67 TIME =     0.04 SECS, INTEGRAL =      2.51 TIME LEFT: 172797.48
 STEP:  68 TIME =     0.04 SECS, INTEGRAL =      2.55 TIME LEFT: 172797.43
 STEP:  69 TIME =     0.04 SECS, INTEGRAL =      2.60 TIME LEFT: 172797.39
 STEP:  70 TIME =     0.04 SECS, INTEGRAL =      2.64 TIME LEFT: 172797.35
 STEP:  71 TIME =     0.04 SECS, INTEGRAL =      2.67 TIME LEFT: 172797.32
 STEP:  72 TIME =     0.04 SECS, INTEGRAL =      2.71 TIME LEFT: 172797.28
 STEP:  73 TIME =     0.04 SECS, INTEGRAL =      2.75 TIME LEFT: 172797.24
 STEP:  74 TIME =     0.04 SECS, INTEGRAL =      2.79 TIME LEFT: 172797.20
 STEP:  75 TIME =     0.04 SECS, INTEGRAL =      2.82 TIME LEFT: 172797.17
 STEP:  76 TIME =     0.04 SECS, INTEGRAL =      2.86 TIME LEFT: 172797.13
 STEP:  77 TIME =     0.04 SECS, INTEGRAL =      2.89 TIME LEFT: 172797.09
 STEP:  78 TIME =     0.04 SECS, INTEGRAL =      2.93 TIME LEFT: 172797.06
 STEP:  79 TIME =     0.04 SECS, INTEGRAL =      2.96 TIME LEFT: 172797.02
 STEP:  80 TIME =     0.04 SECS, INTEGRAL =      3.00 TIME LEFT: 172796.99
 STEP:  81 TIME =     0.04 SECS, INTEGRAL =      3.04 TIME LEFT: 172796.95
 STEP:  82 TIME =     0.04 SECS, INTEGRAL =      3.08 TIME LEFT: 172796.91
 STEP:  83 TIME =     0.04 SECS, INTEGRAL =      3.12 TIME LEFT: 172796.87
 STEP:  84 TIME =     0.04 SECS, INTEGRAL =      3.16 TIME LEFT: 172796.83
 STEP:  85 TIME =     0.04 SECS, INTEGRAL =      3.20 TIME LEFT: 172796.79
 STEP:  86 TIME =     0.04 SECS, INTEGRAL =      3.23 TIME LEFT: 172796.76
 STEP:  87 TIME =     0.04 SECS, INTEGRAL =      3.27 TIME LEFT: 172796.72
 STEP:  88 TIME =     0.04 SECS, INTEGRAL =      3.30 TIME LEFT: 172796.69
 STEP:  89 TIME =     0.04 SECS, INTEGRAL =      3.34 TIME LEFT: 172796.65
 STEP:  90 TIME =     0.04 SECS, INTEGRAL =      3.38 TIME LEFT: 172796.61
 STEP:  91 TIME =     0.04 SECS, INTEGRAL =      3.41 TIME LEFT: 172796.57
 STEP:  92 TIME =     0.04 SECS, INTEGRAL =      3.45 TIME LEFT: 172796.54
 STEP:  93 TIME =     0.04 SECS, INTEGRAL =      3.49 TIME LEFT: 172796.50
 STEP:  94 TIME =     0.04 SECS, INTEGRAL =      3.54 TIME LEFT: 172796.45
 STEP:  95 TIME =     0.04 SECS, INTEGRAL =      3.57 TIME LEFT: 172796.41
 STEP:  96 TIME =     0.04 SECS, INTEGRAL =      3.61 TIME LEFT: 172796.38

(To convert to Hartree/Bohr^2, multiply by (10^(-21) x N x a0^2)/(4.184 x 627.51) =  0.0642)


           FORCE MATRIX IN MILLIDYNES/ANGSTROM


                  C  1       C  2       C  3       C  4       C  5       C  6
 ------------------------------------------------------------------------------
     C    1  14.404217
     C    2   4.095711  14.375900
     C    3   0.477440   2.849746  14.171195
     C    4   3.781444   0.647673   0.041821  14.605135
     C    5   0.019585   0.130874   0.367418   0.002996  14.936574
     C    6   4.163666   0.659425   0.047762   0.648328   0.001616  14.325192
     C    7   0.003597   0.018326   0.026824   0.001086   4.366851   0.000655
     C    8   0.017387   0.003558   0.000287   0.147522   0.000141   0.000695
     C    9   0.048966   2.238477   3.984123   0.007669   5.591170   0.006460
     C   10   0.529895   3.862925   2.236737   0.047574   0.562638   0.045017
     C   11   0.676954   0.054207   0.001995   4.951769   0.001027   0.091452
     C   12   0.045782   0.008411   0.000938   0.821620   0.000169   0.007487
     H   13   4.218165   0.432463   0.022418   0.424736   0.001367   0.419093
     H   14   0.440746   4.409664   0.414411   0.025360   0.017175   0.022416
     H   15   0.456849   0.022921   0.002341   4.392862   0.000194   0.023881
     H   16   0.438227   0.039874   0.012666   4.418922   0.000812   0.049851
     H   17   0.002186   0.016473   0.009012   0.000182   4.429149   0.000266
     H   18   0.000980   0.004821   0.033946   0.000278   4.471130   0.000378
     H   19   0.021086   0.432537   4.669053   0.012213   0.005939   0.002355
     H   20   0.026911   0.421532   4.720018   0.001828   0.007243   0.005838
     H   21   0.455616   0.020884   0.002065   0.051345   0.000649   4.756641
     H   22   0.469142   0.027283   0.001770   0.018124   0.000296   4.723985
     H   23   0.456669   0.051168   0.008443   0.033662   0.000354   4.567878
     H   24   0.000748   0.003222   0.001469   0.000319   0.450553   0.000250
     H   25   0.000363   0.000801   0.002494   0.000139   0.461157   0.000160
     H   26   0.000328   0.000969   0.005743   0.000135   0.463677   0.000181
     H   27   0.003034   0.000828   0.000089   0.019734   0.000050   0.000250
     H   28   0.001973   0.000208   0.000073   0.020284   0.000038   0.000257
     H   29   0.000584   0.000163   0.000073   0.002390   0.000040   0.000194
     H   30   0.006844   0.001682   0.000300   0.084866   0.000173   0.001047
     H   31   0.043070   0.002538   0.000817   0.433863   0.000320   0.085903
     H   32   0.009588   0.337382   0.110478   0.002195   0.036613   0.007971


                  C  7       C  8       C  9       C 10       C 11       C 12
 ------------------------------------------------------------------------------
     C    7  14.334830
     C    8   0.000185  14.721087
     C    9   0.741243   0.000131  19.116285
     C   10   0.033863   0.001087  10.095023  18.229703
     C   11   0.000682   0.850747   0.001141   0.011049  18.208558
     C   12   0.000067   5.271091   0.000469   0.001241  10.696298  18.195947
     H   13   0.000434   0.000869   0.003855   0.015682   0.025308   0.002288
     H   14   0.002062   0.000205   0.043038   0.414284   0.001701   0.000651
     H   15   0.000087   0.020819   0.000649   0.001483   0.408240   0.028201
     H   16   0.000126   0.005297   0.001447   0.001887   0.455896   0.045215
     H   17   0.446701   0.000068   0.426985   0.030607   0.000198   0.000037
     H   18   0.439757   0.000052   0.451305   0.013844   0.000159   0.000041
     H   19   0.006247   0.000230   0.438976   0.040183   0.001047   0.000346
     H   20   0.001368   0.000102   0.439511   0.040049   0.000451   0.000144
     H   21   0.000324   0.000245   0.000469   0.007045   0.006085   0.000970
     H   22   0.000144   0.000250   0.000558   0.003064   0.003997   0.000713
     H   23   0.000213   0.000564   0.000687   0.003126   0.094121   0.002461
     H   24   4.754439   0.000058   0.054913   0.005758   0.000188   0.000041
     H   25   4.748568   0.000055   0.015732   0.002585   0.000191   0.000040
     H   26   4.725104   0.000058   0.026076   0.001900   0.000185   0.000059
     H   27   0.000066   4.706048   0.000074   0.000320   0.036234   0.438817
     H   28   0.000056   4.705821   0.000030   0.000169   0.034700   0.439409
     H   29   0.000028   4.723790   0.000038   0.000158   0.041322   0.480681
     H   30   0.000133   0.424870   0.000327   0.000665   0.472358   4.776371
     H   31   0.000124   0.085152   0.000316   0.001335   4.578950   0.464923
     H   32   0.004863   0.000220   0.429384   5.271558   0.001155   0.000442


                  H 13       H 14       H 15       H 16       H 17       H 18
 ------------------------------------------------------------------------------
     H   13   4.691266
     H   14   0.041325   4.926603
     H   15   0.043939   0.016555   4.994108
     H   16   0.025218   0.002251   0.559015   5.032866
     H   17   0.000235   0.002966   0.000052   0.000115   5.013738
     H   18   0.000214   0.000945   0.000050   0.000197   0.557904   5.053971
     H   19   0.018853   0.024807   0.000539   0.022430   0.000711   0.001308
     H   20   0.001406   0.026063   0.000361   0.001251   0.003134   0.001287
     H   21   0.032398   0.001562   0.002387   0.008730   0.000181   0.000144
     H   22   0.045458   0.018723   0.014497   0.001894   0.000092   0.000038
     H   23   0.027339   0.001659   0.002528   0.002521   0.000089   0.000116
     H   24   0.000159   0.000304   0.000037   0.000054   0.029564   0.027426
     H   25   0.000232   0.000161   0.000057   0.000049   0.049009   0.025425
     H   26   0.000144   0.000279   0.000039   0.000106   0.022465   0.048605
     H   27   0.000250   0.000075   0.002511   0.000412   0.000026   0.000020
     H   28   0.000198   0.000063   0.003367   0.001092   0.000020   0.000017
     H   29   0.000157   0.000049   0.000450   0.000452   0.000013   0.000009
     H   30   0.000565   0.000203   0.010919   0.029221   0.000054   0.000045
     H   31   0.005124   0.000786   0.013440   0.037517   0.000066   0.000072
     H   32   0.002389   0.005481   0.000673   0.000682   0.003511   0.005867


                  H 19       H 20       H 21       H 22       H 23       H 24
 ------------------------------------------------------------------------------
     H   19   5.289688
     H   20   0.527884   5.334627
     H   21   0.000379   0.000308   5.474280
     H   22   0.000516   0.000356   0.569409   5.458746
     H   23   0.000563   0.001175   0.541369   0.561637   5.315314
     H   24   0.000487   0.000167   0.000118   0.000073   0.000073   5.487774
     H   25   0.000550   0.000241   0.000071   0.000054   0.000054   0.572148
     H   26   0.007811   0.000403   0.000061   0.000040   0.000075   0.568466
     H   27   0.000086   0.000036   0.000082   0.000101   0.000204   0.000020
     H   28   0.000074   0.000025   0.000073   0.000078   0.000178   0.000015
     H   29   0.000059   0.000031   0.000062   0.000061   0.000275   0.000010
     H   30   0.000311   0.000154   0.000358   0.000211   0.000671   0.000044
     H   31   0.000450   0.000272   0.002586   0.001452   0.077154   0.000039
     H   32   0.014964   0.014608   0.013366   0.000652   0.000751   0.001125


                  H 25       H 26       H 27       H 28       H 29       H 30
 ------------------------------------------------------------------------------
     H   25   5.486232
     H   26   0.579331   5.463402
     H   27   0.000021   0.000023   5.425316
     H   28   0.000021   0.000025   0.576218   5.424572
     H   29   0.000011   0.000010   0.565852   0.565072   5.450340
     H   30   0.000051   0.000062   0.023718   0.023311   0.042080   5.155226
     H   31   0.000067   0.000061   0.009764   0.009705   0.029071   0.106730
     H   32   0.000555   0.000515   0.000075   0.000068   0.000056   0.000213


                  H 31       H 32
 ------------------------------
     H   31   4.995695
     H   32   0.000633   5.662416


          HEAT OF FORMATION =      14.980361 KCALS/MOLE

          ZERO POINT ENERGY     179.967 KCAL/MOL


           NORMAL COORDINATE ANALYSIS (Total motion = 1 Angstrom)


   Root No.       1         2         3         4         5         6         7         8

                 1 A       2 A       3 A       4 A       5 A       6 A       7 A       8 A   

                  32.2      36.3      74.9      79.1      90.5     118.8     138.3     161.7
  
           1   -0.0035   -0.0036    0.0078   -0.0041    0.0083    0.0001    0.0031   -0.0023
           2    0.0176    0.0048   -0.0057   -0.0063    0.0200   -0.0045   -0.0004   -0.0055
           3    0.0075    0.0008    0.0070    0.0086   -0.0028    0.0156   -0.0101    0.0037
           4   -0.0034   -0.0036    0.0080   -0.0040    0.0090    0.0005    0.0027   -0.0021
           5    0.0119    0.0101   -0.0083   -0.0117   -0.0046    0.0007   -0.0016   -0.0011
           6   -0.0013    0.0027   -0.0037    0.0159   -0.0077   -0.0034    0.0020    0.0019
           7    0.0024   -0.0061    0.0062    0.0064    0.0306   -0.0145    0.0132    0.0024
           8    0.0091    0.0113   -0.0075   -0.0171   -0.0155    0.0081   -0.0067   -0.0023
           9   -0.0009    0.0203   -0.0028   -0.0081   -0.0122    0.0072   -0.0063   -0.0144
          10   -0.0078   -0.0030   -0.0029    0.0036    0.0066   -0.0066   -0.0009   -0.0052
          11    0.0097    0.0193    0.0155    0.0242    0.0192    0.0020   -0.0020   -0.0043
          12    0.0066    0.0053    0.0185    0.0158   -0.0023    0.0207   -0.0093    0.0057
          13    0.0220    0.0029   -0.0095    0.0119   -0.0107   -0.0009   -0.0003    0.0036
          14   -0.0068   -0.0203    0.0025    0.0125   -0.0079    0.0010    0.0005    0.0036
          15   -0.0112    0.0201    0.0048   -0.0183    0.0138   -0.0031    0.0049   -0.0056
          16   -0.0063    0.0025    0.0070   -0.0064   -0.0067    0.0024    0.0042    0.0029
          17    0.0220   -0.0020   -0.0094   -0.0137    0.0295   -0.0054   -0.0022   -0.0089
          18    0.0206   -0.0167   -0.0096   -0.0238    0.0131    0.0134   -0.0137   -0.0009
          19    0.0130    0.0429   -0.0225    0.0012   -0.0238   -0.0122    0.0106    0.0045
          20   -0.0290    0.0148    0.0034   -0.0000   -0.0043   -0.0009    0.0033   -0.0033
          21    0.0350   -0.0206   -0.0134    0.0009   -0.0115   -0.0118    0.0107    0.0120
          22   -0.0126   -0.0139   -0.0017   -0.0033   -0.0106    0.0058   -0.0064    0.0007
          23   -0.0235   -0.0235    0.0040   -0.0122   -0.0235    0.0083    0.0035    0.0043
          24   -0.0278   -0.0141   -0.0073   -0.0132    0.0079   -0.0266    0.0217   -0.0086
          25    0.0114   -0.0033    0.0045    0.0031    0.0082    0.0064   -0.0048    0.0024
          26    0.0011   -0.0054   -0.0064    0.0021   -0.0120   -0.0046    0.0053    0.0108
          27   -0.0071    0.0143   -0.0019   -0.0013   -0.0016   -0.0056    0.0051   -0.0106
          28    0.0057   -0.0032    0.0119   -0.0094   -0.0009    0.0234   -0.0161   -0.0033
          29    0.0040   -0.0056   -0.0101    0.0086   -0.0073   -0.0133    0.0110    0.0136
          30   -0.0068    0.0003   -0.0056    0.0216   -0.0030   -0.0168    0.0134    0.0037
          31   -0.0082   -0.0044   -0.0021    0.0022    0.0051   -0.0061   -0.0002   -0.0052
          32    0.0046    0.0025    0.0253    0.0069    0.0024    0.0049    0.0118   -0.0036
          33    0.0050   -0.0017    0.0320    0.0004   -0.0062    0.0165    0.0100    0.0052
          34   -0.0121   -0.0126   -0.0023   -0.0017   -0.0083    0.0046   -0.0076    0.0002
          35   -0.0165   -0.0049   -0.0049    0.0100    0.0032   -0.0005   -0.0217    0.0012
          36   -0.0236   -0.0049   -0.0145    0.0091    0.0090   -0.0032   -0.0338    0.0069
          37    0.0030   -0.0077    0.0156   -0.0060    0.0226    0.0060    0.0002   -0.0036
          38    0.0244   -0.0062   -0.0166   -0.0222    0.0309   -0.0086   -0.0015   -0.0090
          39    0.0041    0.0090    0.0208    0.0223   -0.0062    0.0221   -0.0102    0.0062
          40   -0.0109   -0.0008    0.0030   -0.0040   -0.0026   -0.0062    0.0083   -0.0021
          41    0.0130    0.0208   -0.0065   -0.0278   -0.0151    0.0152   -0.0127   -0.0100
          42   -0.0062   -0.0054   -0.0075    0.0298   -0.0040   -0.0194    0.0147    0.0096
          43   -0.0057    0.0092   -0.0139    0.0206    0.0159   -0.0088   -0.0141   -0.0063
          44    0.0073    0.0343    0.0241    0.0482    0.0249    0.0050   -0.0083   -0.0038
          45    0.0095   -0.0042    0.0062   -0.0005   -0.0041    0.0168   -0.0081    0.0047
          46   -0.0113   -0.0123   -0.0007   -0.0048   -0.0027   -0.0054    0.0039   -0.0050
          47    0.0102    0.0291    0.0167    0.0374    0.0253    0.0025   -0.0074   -0.0043
          48    0.0022    0.0221    0.0259    0.0455    0.0024    0.0237   -0.0183    0.0057
          49    0.0057    0.0236   -0.0030   -0.0041    0.0028    0.0009   -0.0001    0.0069
          50    0.0213   -0.0685    0.0027    0.0306   -0.0122    0.0046   -0.0042    0.0090
          51   -0.0282    0.0366    0.0161   -0.0388    0.0357    0.0015    0.0032    0.0028
          52    0.0524   -0.0412   -0.0184    0.0419   -0.0324   -0.0022   -0.0022   -0.0025
          53   -0.0231   -0.0135    0.0098    0.0138   -0.0020    0.0053   -0.0033   -0.0091
          54   -0.0334    0.0397    0.0131   -0.0272    0.0253    0.0004    0.0028   -0.0128
          55    0.0057   -0.0079    0.0059    0.0132    0.0445   -0.0230    0.0191    0.0052
          56    0.0116    0.0096   -0.0077   -0.0113   -0.0042    0.0010   -0.0017   -0.0002
          57    0.0080    0.0329   -0.0044   -0.0215   -0.0301    0.0279   -0.0248   -0.0227
          58   -0.0033   -0.0079    0.0078    0.0073    0.0439   -0.0263    0.0238    0.0017
          59    0.0095    0.0234   -0.0074   -0.0358   -0.0357    0.0271   -0.0219   -0.0138
          60   -0.0060    0.0212   -0.0014   -0.0112   -0.0041    0.0002    0.0003   -0.0175
          61   -0.0004    0.0040    0.0240   -0.0068   -0.0031    0.0054    0.0225    0.0010
          62    0.0281   -0.0137   -0.0304   -0.0377    0.0359   -0.0081   -0.0139   -0.0104
          63    0.0208   -0.0204   -0.0201   -0.0305    0.0140    0.0118   -0.0218   -0.0009
          64   -0.0135    0.0058   -0.0099   -0.0073   -0.0198    0.0006   -0.0121    0.0081
          65    0.0159    0.0085    0.0013    0.0015    0.0189   -0.0035    0.0033   -0.0057
          66    0.0233   -0.0265   -0.0315   -0.0417    0.0175    0.0102   -0.0294   -0.0016
          67   -0.0069    0.0025    0.0054   -0.0064   -0.0074    0.0022    0.0025    0.0032
          68    0.0251   -0.0063   -0.0007   -0.0113    0.0389   -0.0041    0.0036   -0.0129
          69    0.0284   -0.0165    0.0102   -0.0245    0.0213    0.0158    0.0078   -0.0046
          70    0.0185    0.0512   -0.0344    0.0073   -0.0423   -0.0207    0.0167   -0.0639
          71   -0.0336   -0.0001    0.0110    0.0115   -0.0021    0.0050   -0.0043   -0.1104
          72    0.0330   -0.0164   -0.0071   -0.0162    0.0068   -0.0077    0.0108    0.1832
          73    0.0296    0.0217   -0.0304    0.0204   -0.0422   -0.0160    0.0107   -0.1080
          74   -0.0579    0.0630    0.0035   -0.0180   -0.0002   -0.0044    0.0083   -0.0018
          75    0.0506   -0.0369   -0.0253    0.0241   -0.0379   -0.0186    0.0125   -0.1577
          76   -0.0161    0.0877   -0.0132   -0.0327    0.0022   -0.0092    0.0135    0.1870
          77   -0.0132    0.0096   -0.0038   -0.0038   -0.0081   -0.0050    0.0084    0.0961
          78    0.0577   -0.0405   -0.0223    0.0100   -0.0237   -0.0161    0.0137    0.0257
          79   -0.0173   -0.0288    0.0088   -0.0257   -0.0299    0.0025    0.0291   -0.0025
          80   -0.0128   -0.0271    0.0412   -0.0277   -0.0452   -0.0466   -0.0273    0.0059
          81   -0.0552   -0.0170   -0.0827    0.0049    0.0421    0.0942    0.1174   -0.0145
          82   -0.0118   -0.0070   -0.0128    0.0152   -0.0064    0.0298   -0.0453    0.0123
          83   -0.0544   -0.0295   -0.0779    0.0071    0.0071    0.1486    0.1011    0.0025
          84   -0.0269   -0.0164    0.0002   -0.0209    0.0050   -0.0412    0.0324   -0.0129
          85   -0.0094   -0.0074   -0.0005   -0.0008    0.0019   -0.0130   -0.0018   -0.0069
          86   -0.0096   -0.0292    0.0539   -0.0339   -0.0536   -0.0645   -0.0359    0.0064
          87   -0.0056   -0.0163    0.0633   -0.0414   -0.0232   -0.1448   -0.0294   -0.0123
          88   -0.0152   -0.0188   -0.0025   -0.0043   -0.0203    0.0159   -0.0160    0.0064
          89   -0.0302    0.0022   -0.0391    0.0285    0.0224   -0.0076   -0.0635    0.0035
          90   -0.0457   -0.0010   -0.0625    0.0325    0.0243   -0.0024   -0.1003    0.0159
          91   -0.0057    0.0010   -0.0011    0.0035    0.0114   -0.0104    0.0034   -0.0070
          92    0.0184   -0.0043    0.0569   -0.0100   -0.0125    0.0114    0.0510   -0.0067
          93    0.0264   -0.0059    0.0764   -0.0217   -0.0206    0.0210    0.0680   -0.0010
          94    0.0073   -0.0024    0.0159   -0.0192   -0.0149    0.0439   -0.0314   -0.0071
          95    0.0016   -0.0138   -0.0121    0.0220   -0.0038   -0.0248    0.0203    0.0227
          96   -0.0096   -0.0097   -0.0078    0.0375    0.0004   -0.0296    0.0239    0.0147


   Root No.       9        10        11        12        13        14        15        16

                 9 A      10 A      11 A      12 A      13 A      14 A      15 A      16 A   

                 199.0     222.5     242.3     270.5     306.1     327.0     370.6     411.5
  
           1   -0.0068    0.0039    0.0048    0.0035    0.0117   -0.0112    0.0079   -0.0196
           2    0.0020   -0.0028   -0.0108   -0.0014   -0.0061   -0.0097    0.0123    0.0180
           3    0.0052   -0.0020   -0.0007   -0.0161   -0.0134    0.0097   -0.0108    0.0242
           4   -0.0079    0.0034    0.0035    0.0021    0.0186   -0.0062    0.0056   -0.0181
           5   -0.0019   -0.0070   -0.0175    0.0041   -0.0217    0.0043    0.0080    0.0181
           6    0.0130   -0.0077   -0.0124    0.0053    0.0025    0.0143   -0.0095   -0.0022
           7   -0.0235   -0.0071   -0.0173   -0.0002    0.0096    0.0068    0.0059    0.0222
           8    0.0049   -0.0004   -0.0061    0.0036   -0.0181    0.0049    0.0107   -0.0034
           9    0.0200   -0.0080   -0.0155    0.0177    0.0153   -0.0144    0.0061    0.0005
          10    0.0175    0.0033    0.0125   -0.0025   -0.0096   -0.0049    0.0024   -0.0093
          11    0.0110   -0.0056    0.0047   -0.0253   -0.0040   -0.0196   -0.0012   -0.0131
          12   -0.0031   -0.0015    0.0023   -0.0225   -0.0109    0.0002   -0.0038    0.0120
          13    0.0110   -0.0120   -0.0224    0.0138    0.0014    0.0081    0.0033   -0.0082
          14    0.0058    0.0016    0.0016    0.0023    0.0265   -0.0036    0.0012    0.0093
          15   -0.0143    0.0025   -0.0033   -0.0058    0.0009    0.0280   -0.0035   -0.0058
          16   -0.0240   -0.0149   -0.0133    0.0051   -0.0157   -0.0342   -0.0461    0.0032
          17    0.0072    0.0063   -0.0011    0.0008    0.0068   -0.0096    0.0254   -0.0016
          18   -0.0033    0.0016    0.0095   -0.0044   -0.0068   -0.0151   -0.0388   -0.0119
          19   -0.0099    0.0108    0.0157   -0.0064    0.0094   -0.0022   -0.0009    0.0028
          20   -0.0046    0.0082    0.0111   -0.0053    0.0259    0.0003   -0.0009    0.0120
          21   -0.0129    0.0132    0.0180   -0.0107    0.0171    0.0068   -0.0031    0.0059
          22    0.0069    0.0081    0.0073   -0.0066   -0.0242   -0.0041    0.0236    0.0123
          23   -0.0109   -0.0040   -0.0229   -0.0196    0.0147   -0.0061   -0.0025   -0.0099
          24    0.0252   -0.0046    0.0055   -0.0090   -0.0074    0.0031   -0.0038    0.0069
          25    0.0054   -0.0125   -0.0250    0.0046    0.0046    0.0386   -0.0037   -0.0058
          26   -0.0078    0.0085    0.0101   -0.0078   -0.0075    0.0151   -0.0013   -0.0129
          27    0.0029   -0.0031   -0.0076    0.0118    0.0200   -0.0223    0.0059    0.0091
          28    0.0113    0.0035    0.0039   -0.0083    0.0347    0.0299   -0.0094    0.0011
          29   -0.0110    0.0002   -0.0048   -0.0012   -0.0245    0.0192    0.0014   -0.0174
          30    0.0028   -0.0075   -0.0129    0.0120    0.0014   -0.0029   -0.0043   -0.0174
          31    0.0185    0.0039    0.0172    0.0026   -0.0155   -0.0028    0.0011   -0.0033
          32    0.0044   -0.0067    0.0270    0.0329   -0.0036    0.0071   -0.0276    0.0002
          33   -0.0188    0.0039    0.0111    0.0181   -0.0124   -0.0068    0.0484   -0.0047
          34    0.0082    0.0078    0.0108   -0.0019   -0.0235   -0.0015    0.0158    0.0128
          35   -0.0036    0.0014    0.0152    0.0267   -0.0006    0.0092   -0.0337    0.0080
          36   -0.0198    0.0128    0.0004    0.0134   -0.0023   -0.0052    0.0309   -0.0080
          37   -0.0105    0.0138    0.0157   -0.0055    0.0232   -0.0188    0.0175   -0.0279
          38    0.0027    0.0019   -0.0061    0.0075    0.0024   -0.0126    0.0172    0.0093
          39    0.0029   -0.0013    0.0007   -0.0283   -0.0159    0.0077   -0.0102    0.0260
          40   -0.0071    0.0023    0.0027    0.0144    0.0181   -0.0132    0.0107   -0.0474
          41    0.0074   -0.0072   -0.0168    0.0079   -0.0171   -0.0034    0.0143    0.0233
          42    0.0050   -0.0073   -0.0127    0.0081   -0.0011    0.0166   -0.0119   -0.0228
          43    0.0346    0.0007   -0.0034   -0.0617   -0.0143   -0.0207   -0.0047   -0.0159
          44    0.0186   -0.0070    0.0024   -0.0713   -0.0032   -0.0425   -0.0010   -0.0462
          45   -0.0038   -0.0013   -0.0014   -0.0016   -0.0131    0.0153   -0.0066    0.0393
          46    0.0169    0.0028    0.0266    0.0339   -0.0132    0.0142   -0.0173    0.0055
          47    0.0159   -0.0064   -0.0022   -0.0604   -0.0034   -0.0360    0.0039   -0.0306
          48    0.0125   -0.0056    0.0033   -0.0750   -0.0136   -0.0199   -0.0202   -0.0201
          49   -0.0015   -0.0086   -0.0203    0.0011   -0.0170    0.0475   -0.0052   -0.0245
          50    0.0217   -0.0079   -0.0120    0.0146    0.0401   -0.0157    0.0057    0.0183
          51   -0.0298    0.0044   -0.0056   -0.0231   -0.0269    0.0933   -0.0167   -0.0318
          52    0.0361   -0.0207   -0.0305    0.0384    0.0377   -0.0593    0.0184    0.0220
          53    0.0144   -0.0066   -0.0112    0.0134    0.0391   -0.0185    0.0059    0.0201
          54   -0.0162   -0.0006   -0.0100   -0.0059   -0.0015    0.0396   -0.0052   -0.0080
          55   -0.0334   -0.0135   -0.0291   -0.0037    0.0036    0.0124    0.0049    0.0586
          56   -0.0031   -0.0053   -0.0152    0.0007   -0.0228    0.0088    0.0099    0.0246
          57    0.0487   -0.0168   -0.0295    0.0310    0.0047   -0.0052    0.0096   -0.0297
          58   -0.0422   -0.0026   -0.0111   -0.0042    0.0194   -0.0155    0.0118    0.0506
          59    0.0277    0.0016   -0.0020    0.0167   -0.0135   -0.0105    0.0195   -0.0471
          60    0.0075   -0.0034   -0.0088    0.0168    0.0250   -0.0382    0.0136    0.0163
          61   -0.0137    0.1351   -0.0709    0.0220   -0.0380   -0.0596   -0.1171    0.0042
          62   -0.0083   -0.0717    0.0317    0.0009    0.0145   -0.0284    0.0184   -0.0314
          63   -0.0104   -0.0603    0.0341   -0.0089    0.0012   -0.0143   -0.0226   -0.0212
          64   -0.0459   -0.1684    0.0253   -0.0103   -0.0172   -0.0328   -0.0247    0.0218
          65    0.0088    0.0268   -0.0224   -0.0017   -0.0076   -0.0058    0.0169    0.0287
          66   -0.0178   -0.1111    0.0565   -0.0106    0.0089   -0.0186   -0.0165   -0.0365
[...]
 TRANSITION DIPOLE   0.0959         C  2 -- C  3          +1.0% ( 10.4%)     14.2%
 TRAVEL (Ang.)       0.1576         C  2 -- C  9          +1.0% ( 10.3%)     32.2%
 REDUCED MASS        0.9189         C  2 -- C 10          +1.0% ( 10.3%)     16.2%
 EFFECTIVE MASS      1.4385
 FORCE CONSTANT      4.7241

 VIBRATION         75   75A           ATOM PAIR      ENERGY CONTRIBUTION    RADIAL
 FREQUENCY          2983.27         C 11 -- H 31         +92.6% ( 97.8%)    100.0%
 TRANSITION DIPOLE   0.3097         C  6 -- H 23          +3.1% ( 18.0%)     99.6%
 TRAVEL (Ang.)       0.1630         C 11 -- C 12          +1.5% ( 12.4%)     42.2%
 REDUCED MASS        0.8511         C  4 -- C 11          +1.4% ( 11.9%)     14.5%
 EFFECTIVE MASS      1.5159
 FORCE CONSTANT      4.4627

 VIBRATION         76   76A           ATOM PAIR      ENERGY CONTRIBUTION    RADIAL
 FREQUENCY          3016.23         C  4 -- H 16         +54.6% ( 72.8%)     98.3%
 TRANSITION DIPOLE   0.0583         C  4 -- H 15         +43.4% ( 65.0%)     96.9%
 TRAVEL (Ang.)       0.2152         C  1 -- C  4          +0.6% (  7.7%)     29.3%
 REDUCED MASS        0.4826         C  4 -- C 11          +0.6% (  7.7%)     32.4%
 EFFECTIVE MASS      1.2740
 FORCE CONSTANT      2.5866

 VIBRATION         77   77A           ATOM PAIR      ENERGY CONTRIBUTION    RADIAL
 FREQUENCY          3024.73         C  5 -- H 18         +56.7% ( 74.3%)     98.4%
 TRANSITION DIPOLE   0.0463         C  5 -- H 17         +41.5% ( 63.6%)     96.6%
 TRAVEL (Ang.)       0.2135         C  5 -- C  7          +0.7% (  8.0%)     26.3%
 REDUCED MASS        0.4892         C  5 -- C  9          +0.6% (  7.9%)     30.4%
 EFFECTIVE MASS      1.2794
 FORCE CONSTANT      2.6371

 VIBRATION         78   78A           ATOM PAIR      ENERGY CONTRIBUTION    RADIAL
 FREQUENCY          3039.75         C 12 -- H 30         +94.5% ( 98.7%)    100.0%
 TRANSITION DIPOLE   0.2322         C  8 -- H 29          +1.5% ( 12.6%)     98.1%
 TRAVEL (Ang.)       0.1585         C 11 -- C 12          +1.5% ( 12.3%)     38.8%
 REDUCED MASS        0.8827         C  8 -- C 12          +1.4% ( 12.0%)     11.2%
 EFFECTIVE MASS      1.5158
 FORCE CONSTANT      4.8055

 VIBRATION         79   79A           ATOM PAIR      ENERGY CONTRIBUTION    RADIAL
 FREQUENCY          3043.84         C  3 -- H 19         +59.9% ( 80.4%)     98.1%
 TRANSITION DIPOLE   0.0823         C  3 -- H 20         +36.4% ( 62.7%)     95.3%
 TRAVEL (Ang.)       0.2023         C  3 -- C 10          +1.1% ( 10.9%)      0.7%
 REDUCED MASS        0.5413         C  3 -- C  9          +1.1% ( 10.8%)      0.4%
 EFFECTIVE MASS      1.5359
 FORCE CONSTANT      2.9550

 VIBRATION         80   80A           ATOM PAIR      ENERGY CONTRIBUTION    RADIAL
 FREQUENCY          3046.99         C  6 -- H 23         +77.8% ( 90.6%)     99.4%
 TRANSITION DIPOLE   0.0689         C  6 -- H 22         +13.3% ( 37.4%)     83.5%
 TRAVEL (Ang.)       0.1850         C  6 -- H 21          +4.7% ( 22.4%)     58.6%
 REDUCED MASS        0.6466         C 11 -- H 31          +3.0% ( 17.7%)    100.0%
 EFFECTIVE MASS      1.4919
 FORCE CONSTANT      3.5371

 VIBRATION         81   81A           ATOM PAIR      ENERGY CONTRIBUTION    RADIAL
 FREQUENCY          3069.85         C  8 -- H 28         +49.6% ( 72.7%)     97.1%
 TRANSITION DIPOLE   0.0173         C  8 -- H 27         +48.5% ( 71.8%)     97.0%
 TRAVEL (Ang.)       0.2077         C  8 -- C 12          +1.0% ( 10.2%)      0.0%
 REDUCED MASS        0.5094         C  8 -- H 29          +0.9% (  9.9%)      0.1%
 EFFECTIVE MASS      1.5013
 FORCE CONSTANT      2.8285

 VIBRATION         82   82A           ATOM PAIR      ENERGY CONTRIBUTION    RADIAL
 FREQUENCY          3075.67         C  8 -- H 29         +62.5% ( 81.5%)     98.9%
 TRANSITION DIPOLE   0.0572         C  8 -- H 27         +17.6% ( 43.3%)     85.4%
 TRAVEL (Ang.)       0.2144         C  8 -- H 28         +16.6% ( 42.1%)     84.4%
 REDUCED MASS        0.4768         C 12 -- H 30          +2.2% ( 15.2%)    100.0%
 EFFECTIVE MASS      1.5082
 FORCE CONSTANT      2.6573

 VIBRATION         83   83A           ATOM PAIR      ENERGY CONTRIBUTION    RADIAL
 FREQUENCY          3080.65         C  7 -- H 26         +62.7% ( 81.7%)     98.6%
 TRANSITION DIPOLE   0.0165         C  7 -- H 25         +31.8% ( 58.2%)     93.5%
 TRAVEL (Ang.)       0.2044         C  7 -- H 24          +4.1% ( 20.9%)     48.3%
 REDUCED MASS        0.5237         C  5 -- C  7          +1.0% ( 10.2%)      0.0%
 EFFECTIVE MASS      1.5014
 FORCE CONSTANT      2.9285

 VIBRATION         84   84A           ATOM PAIR      ENERGY CONTRIBUTION    RADIAL
 FREQUENCY          3081.45         C  6 -- H 21         +50.9% ( 73.6%)     97.6%
 TRANSITION DIPOLE   0.0219         C  6 -- H 22         +45.9% ( 69.9%)     96.3%
 TRAVEL (Ang.)       0.2091         C  6 -- H 23          +2.1% ( 14.9%)     23.2%
 REDUCED MASS        0.5003         C  1 -- C  6          +1.0% ( 10.4%)      0.0%
 EFFECTIVE MASS      1.5085
 FORCE CONSTANT      2.7988

 VIBRATION         85   85A           ATOM PAIR      ENERGY CONTRIBUTION    RADIAL
 FREQUENCY          3087.05         C  7 -- H 24         +60.6% ( 80.3%)     98.5%
 TRANSITION DIPOLE   0.0142         C  7 -- H 25         +32.3% ( 58.6%)     93.4%
 TRAVEL (Ang.)       0.2083         C  7 -- H 26          +5.7% ( 24.7%)     58.4%
 REDUCED MASS        0.5034         C  5 -- C  7          +1.0% ( 10.4%)      0.1%
 EFFECTIVE MASS      1.5052
 FORCE CONSTANT      2.8268

 VIBRATION         86   86A           ATOM PAIR      ENERGY CONTRIBUTION    RADIAL
 FREQUENCY          3099.98         C  3 -- H 20         +61.7% ( 78.1%)     98.3%
 TRANSITION DIPOLE   0.1111         C  3 -- H 19         +36.0% ( 59.7%)     94.6%
 TRAVEL (Ang.)       0.2062         C  3 -- C 10          +0.7% (  8.3%)     96.7%
 REDUCED MASS        0.5114         C  2 -- C  3          +0.7% (  8.3%)     50.7%
 EFFECTIVE MASS      1.2839
 FORCE CONSTANT      2.8954

 VIBRATION         87   87A           ATOM PAIR      ENERGY CONTRIBUTION    RADIAL
 FREQUENCY          3162.46         C  6 -- H 21         +44.7% ( 64.6%)     98.2%
 TRANSITION DIPOLE   0.0317         C  6 -- H 22         +40.6% ( 61.6%)     97.7%
 TRAVEL (Ang.)       0.2394         C  6 -- H 23         +14.3% ( 36.5%)     89.4%
 REDUCED MASS        0.3722         C  1 -- C  6          +0.3% (  5.4%)     84.0%
 EFFECTIVE MASS      1.1518
 FORCE CONSTANT      2.1929

 VIBRATION         88   88A           ATOM PAIR      ENERGY CONTRIBUTION    RADIAL
 FREQUENCY          3169.44         C  8 -- H 29         +34.6% ( 56.6%)     97.2%
 TRANSITION DIPOLE   0.0615         C  8 -- H 27         +32.6% ( 55.0%)     97.1%
 TRAVEL (Ang.)       0.2550         C  8 -- H 28         +32.4% ( 54.8%)     97.0%
 REDUCED MASS        0.3272         C  8 -- C 12          +0.3% (  5.4%)    100.0%
 EFFECTIVE MASS      1.1393
 FORCE CONSTANT      1.9367

 VIBRATION         89   89A           ATOM PAIR      ENERGY CONTRIBUTION    RADIAL
 FREQUENCY          3182.04         C  7 -- H 25         +35.3% ( 57.2%)     97.4%
 TRANSITION DIPOLE   0.0204         C  7 -- H 24         +34.3% ( 56.4%)     97.3%
 TRAVEL (Ang.)       0.2541         C  7 -- H 26         +30.1% ( 52.8%)     96.5%
 REDUCED MASS        0.3283         C  5 -- C  7          +0.3% (  5.1%)     99.6%
 EFFECTIVE MASS      1.1357
 FORCE CONSTANT      1.9584

 VIBRATION         90   90A           ATOM PAIR      ENERGY CONTRIBUTION    RADIAL
 FREQUENCY          3203.40         C 10 -- H 32         +94.1% ( 99.8%)    100.0%
 TRANSITION DIPOLE   0.4366         C  9 -- C 10          +2.1% ( 14.7%)     65.1%
 TRAVEL (Ang.)       0.1506         C  3 -- C 10          +1.9% ( 14.1%)     99.2%
 REDUCED MASS        0.9286         C  2 -- C 10          +1.8% ( 14.0%)     37.1%
 EFFECTIVE MASS      1.6014
 FORCE CONSTANT      5.6145

      SYMMETRY NUMBER FOR POINT-GROUP C1  =  1


          SYSTEM IS A GROUND STATE



 InChI=1S/C12H20/c1-4-6-7-10(3)12-8-11(5-2)9-12/h4,6,8,10,12H,5,7,9H2,1-3H3


          MOLECULE IS NOT LINEAR

          THERE ARE 90 GENUINE VIBRATIONS IN THIS SYSTEM
          THIS THERMODYNAMICS CALCULATION IS LIMITED TO
          MOLECULES WHICH HAVE NO INTERNAL ROTATIONS




                    CALCULATED THERMODYNAMIC PROPERTIES
                                          *
   TEMP. (K)   PARTITION FUNCTION   H.O.F.    ENTHALPY  HEAT CAPACITY ENTROPY
                                   KCAL/MOL   CAL/MOLE    CAL/K/MOL  CAL/K/MOL


 298.00  VIB.     0.2294D+06                  7288.8874    46.8528    48.9882
         ROT.     0.1960D+07                   888.2803     2.9808    31.7722
         INT.     0.4497D+12                  8177.1677    49.8336    80.7604
         TRA.     0.2036D+28                  1480.4672     4.9680    41.1956
         TOT.                       14.980    9657.6349    54.8016   121.9560

 200.00  VIB.     0.3655D+04                  3464.9275    31.7483    33.6276
         ROT.     0.1078D+07                   596.1613     2.9808    30.5835
         INT.     0.3939D+10                  4061.0888    34.7291    64.2110
         TRA.     0.1119D+28                   993.6021     4.9680    39.2145
         TOT.                       10.377    5054.6909    39.6971   103.4255

 210.00  VIB.     0.5642D+04                  3789.2528    33.1232    35.2097
         ROT.     0.1159D+07                   625.9693     2.9808    30.7289
         INT.     0.6542D+10                  4415.2221    36.1041    65.9386
         TRA.     0.1204D+28                  1043.2822     4.9680    39.4569
         TOT.                       10.781    5458.5044    41.0721   105.3955

 220.00  VIB.     0.8680D+04                  4127.5272    34.5385    36.7831
         ROT.     0.1243D+07                   655.7774     2.9808    30.8676
         INT.     0.1079D+11                  4783.3046    37.5193    67.6507
         TRA.     0.1291D+28                  1092.9623     4.9680    39.6880
         TOT.                       11.199    5876.2670    42.4873   107.3387

 230.00  VIB.     0.1331D+05                  4480.1621    35.9954    38.3504
         ROT.     0.1329D+07                   685.5855     2.9808    31.0001
         INT.     0.1769D+11                  5165.7476    38.9762    69.3504
         TRA.     0.1380D+28                  1142.6424     4.9680    39.9088
         TOT.                       11.631    6308.3900    43.9442   109.2593

 240.00  VIB.     0.2036D+05                  4847.5728    37.4935    39.9138
         ROT.     0.1416D+07                   715.3935     2.9808    31.1269
         INT.     0.2884D+11                  5562.9664    40.4743    71.0408
         TRA.     0.1471D+28                  1192.3226     4.9680    40.1203
         TOT.                       12.078    6755.2889    45.4423   111.1610

 250.00  VIB.     0.3106D+05                  5230.1639    39.0311    41.4754
         ROT.     0.1506D+07                   745.2016     2.9808    31.2486
         INT.     0.4677D+11                  5975.3655    42.0119    72.7240
         TRA.     0.1564D+28                  1242.0027     4.9680    40.3231
         TOT.                       12.540    7217.3682    46.9799   113.0471

 260.00  VIB.     0.4727D+05                  5628.3171    40.6054    43.0368
         ROT.     0.1597D+07                   775.0097     2.9808    31.3655
         INT.     0.7549D+11                  6403.3267    43.5862    74.4023
         TRA.     0.1659D+28                  1291.6828     4.9680    40.5179
         TOT.                       13.018    7695.0095    48.5542   114.9203

 270.00  VIB.     0.7180D+05                  6042.3818    42.2128    44.5993
         ROT.     0.1690D+07                   804.8177     2.9808    31.4780
         INT.     0.1214D+12                  6847.1995    45.1936    76.0773
         TRA.     0.1756D+28                  1341.3629     4.9680    40.7054
         TOT.                       13.511    8188.5624    50.1616   116.7828

 280.00  VIB.     0.1089D+06                  6472.6686    43.8491    46.1640
         ROT.     0.1785D+07                   834.6258     2.9808    31.5864
         INT.     0.1943D+12                  7307.2944    46.8299    77.7504
         TRA.     0.1854D+28                  1391.0430     4.9680    40.8861
         TOT.                       14.021    8698.3374    51.7979   118.6365

 290.00  VIB.     0.1648D+06                  6919.4445    45.5098    47.7316
         ROT.     0.1881D+07                   864.4339     2.9808    31.6910
         INT.     0.3101D+12                  7783.8784    48.4906    79.4226
         TRA.     0.1954D+28                  1440.7231     4.9680    41.0604
         TOT.                       14.547    9224.6015    53.4586   120.4831

 300.00  VIB.     0.2492D+06                  7382.9304    47.1903    49.3027
         ROT.     0.1980D+07                   894.2419     2.9808    31.7921
         INT.     0.4933D+12                  8277.1724    50.1711    81.0948
         TRA.     0.2056D+28                  1490.4032     4.9680    41.2289
         TOT.                       15.090    9767.5755    55.1391   122.3237

 310.00  VIB.     0.3763D+06                  7863.3002    48.8858    50.8777
         ROT.     0.2079D+07                   924.0500     2.9808    31.8898
         INT.     0.7826D+12                  8787.3501    51.8666    82.7675
         TRA.     0.2160D+28                  1540.0833     4.9680    41.3918
         TOT.                       15.650   10327.4334    56.8346   124.1593

 320.00  VIB.     0.5678D+06                  8360.6808    50.5917    52.4567
         ROT.     0.2181D+07                   953.8580     2.9808    31.9845
         INT.     0.1238D+13                  9314.5388    53.5725    84.4411
         TRA.     0.2265D+28                  1589.7634     4.9680    41.5495
         TOT.                       16.227   10904.3022    58.5405   125.9906

 330.00  VIB.     0.8560D+06                  8875.1539    52.3036    54.0397
         ROT.     0.2284D+07                   983.6661     2.9808    32.0762
         INT.     0.1955D+13                  9858.8200    55.2844    86.1159
         TRA.     0.2372D+28                  1639.4435     4.9680    41.7024
         TOT.                       16.821   11498.2635    60.2524   127.8182

 340.00  VIB.     0.1290D+07                  9406.7581    54.0172    55.6265
         ROT.     0.2388D+07                  1013.4742     2.9808    32.1652
         INT.     0.3080D+13                 10420.2322    56.9980    87.7917
         TRA.     0.2481D+28                  1689.1236     4.9680    41.8507
         TOT.                       17.432   12109.3558    61.9660   129.6424

 350.00  VIB.     0.1942D+07                  9955.4912    55.7287    57.2170
         ROT.     0.2495D+07                  1043.2822     2.9808    32.2516
         INT.     0.4843D+13                 10998.7734    58.7096    89.4686
         TRA.     0.2591D+28                  1738.8037     4.9680    41.9947
         TOT.                       18.060   12737.5772    63.6776   131.4633

 360.00  VIB.     0.2922D+07                 10521.3140    57.4346    58.8109
         ROT.     0.2602D+07                  1073.0903     2.9808    32.3356
         INT.     0.7604D+13                 11594.4043    60.4154    91.1465
         TRA.     0.2703D+28                  1788.4838     4.9680    42.1347
         TOT.                       18.706   13382.8881    65.3834   133.2811

 370.00  VIB.     0.4396D+07                 11104.1529    59.1315    60.4077
         ROT.     0.2711D+07                  1102.8984     2.9808    32.4172
         INT.     0.1192D+14                 12207.0512    62.1123    92.8250
         TRA.     0.2817D+28                  1838.1639     4.9680    42.2708
         TOT.                       19.368   14045.2152    67.0803   135.0957

 380.00  VIB.     0.6610D+07                 11703.9039    60.8165    62.0071
         ROT.     0.2822D+07                  1132.7064     2.9808    32.4967
         INT.     0.1865D+14                 12836.6103    63.7973    94.5038
         TRA.     0.2932D+28                  1887.8440     4.9680    42.4033
         TOT.                       20.047   14724.4544    68.7654   136.9070

 390.00  VIB.     0.9938D+07                 12320.4357    62.4872    63.6084
         ROT.     0.2934D+07                  1162.5145     2.9808    32.5742
         INT.     0.2916D+14                 13482.9502    65.4680    96.1826
         TRA.     0.3048D+28                  1937.5242     4.9680    42.5323
         TOT.                       20.743   15420.4744    70.4361   138.7149

 400.00  VIB.     0.1494D+08                 12953.5933    64.1413    65.2114
         ROT.     0.3048D+07                  1192.3226     2.9808    32.6496
         INT.     0.4553D+14                 14145.9159    67.1222    97.8610
         TRA.     0.3166D+28                  1987.2043     4.9680    42.6581
         TOT.                       21.456   16133.1201    72.0902   140.5191

   *: NOTE: HEATS OF FORMATION ARE RELATIVE TO THE
            ELEMENTS IN THEIR STANDARD STATE AT 298K
              (=  Standard Enthalpy of Formation).

            Hvib:  Zero-point energy is not included.
                   frequencies of less than zero cm-1 are not included.
            Hrot = (3/2)RT
            Htra = (3/2)RT + pV = (5/2)RT

            Heat capacity is Cp, not Cv

          For more information, see: HTTP://OpenMOPAC.net/Manual/thermochemistry.html


           FORCE CONSTANT IN CARTESIAN COORDINATES (Millidynes/A)

    ATOM   CHEMICAL       X               Y               Z
   NUMBER   SYMBOL  FORCE CONSTANT  FORCE CONSTANT  FORCE CONSTANT

      1       C        8.506431        8.325069        8.109678
      2       C        8.918547        7.059014        8.364418
      3       C        7.350746        8.308607        8.194738
      4       C        9.122582        8.296991        7.819303
      5       C        8.570541        8.527407        8.708435
      6       C        8.269915        8.110026        8.424302
      7       C        8.256947        8.263601        8.305245
      8       C        9.119585        8.252739        8.083782
      9       C        7.487511       12.326452        8.191959
     10       C        4.890936       13.773401        7.689997
     11       C       10.865477       10.183019        6.015107
     12       C       11.122212       10.197113        5.849591
     13       H        1.120757        2.331555        2.572257
     14       H        1.261150        2.247032        2.701254
     15       H        0.905392        2.604481        2.743113
     16       H        1.515425        3.915671        0.952991
     17       H        3.649886        0.868062        1.739740
     18       H        0.892966        2.175264        3.265660
     19       H        2.447508        3.442768        0.657697
     20       H        2.747331        0.796256        3.028720
     21       H        0.964131        1.004732        4.796113
     22       H        1.322684        2.917460        2.525121
     23       H        5.181402        0.785704        0.738782
     24       H        2.693070        1.872762        2.219963
     25       H        3.833361        0.904162        2.047098
     26       H        0.993064        2.283724        3.486329
     27       H        0.996564        4.282856        1.383705
     28       H        1.164761        0.656611        4.841653
     29       H        1.609800        3.202763        1.953812
     30       H        1.851640        2.782893        1.581937
     31       H        1.837203        2.720020        1.599361
     32       H        0.447544        3.579364        2.550299

 **********************
 *                    *
 * JOB ENDED NORMALLY *
 *                    *
 **********************



 TOTAL JOB TIME:            10.18 SECONDS

 == MOPAC DONE ==
