 *******************************************************************************
 **                                                                           **
 **                              MOPAC v23.1.2                                **
 **                                                                           **
 *******************************************************************************
 **          Digital Object Identifier (DOI): 10.5281/zenodo.6511958          **
 **    Visit the DOI location for information on how to cite this program.    **
 *******************************************************************************

                              PM3 CALCULATION RESULTS

 *******************************************************************************
 *  CALCULATION DONE: (MAX THREADS = 1)              Tue Jun  3 16:33:49 2025  *
 *  PM3        - The PM3 Hamiltonian to be used
 *  PRECISE    - TIGHTER CRITERIA TO BE USED
 *  NOSYM      - POINT-GROUP SYMMETRY SET TO C1
 *  THREADS=1  - MULTI-THREADING NOT USED
 *  T=         - A TIME OF 172800.0 SECONDS REQUESTED
 *  DUMP=N     - RESTART FILE WRITTEN EVERY 7200.0 SECONDS REQUESTED
 *******************************************************************************
pm3  precise nosym THREADS=1
 InChI=1S/C10H10/c1-8-6-9-4-2-3-5-10(9)7-8/h2-7,9H,1H3

   ATOM   CHEMICAL          X               Y               Z
  NUMBER   SYMBOL      (ANGSTROMS)     (ANGSTROMS)     (ANGSTROMS)

     1       C         -0.44160000  *  -1.00130000  *  -0.10370000  *
     2       C          3.13360000  *   0.15330000  *  -0.24970000  *
     3       C         -0.35130000  *   0.08610000  *   0.91840000  *
     4       C          1.70690000  *  -0.16580000  *   0.05690000  *
     5       C          0.94530000  *  -0.98710000  *  -0.65760000  *
     6       C         -1.51810000  *  -0.68480000  *  -1.11210000  *
     7       C          0.88820000  *   0.53380000  *   1.03750000  *
     8       C         -1.54900000  *   0.82030000  *   1.33990000  *
     9       C         -2.56960000  *   0.08180000  *  -0.77160000  *
    10       C         -2.61690000  *   0.79540000  *   0.53210000  *
    11       H         -0.65120000  *  -1.97590000  *   0.38680000  *
    12       H          3.17790000  *   0.93520000  *  -1.03620000  *
    13       H          3.64240000  *   0.52670000  *   0.66370000  *
    14       H          3.66340000  *  -0.75570000  *  -0.60560000  *
    15       H          1.29470000  *  -1.58760000  *  -1.48800000  *
    16       H         -1.51350000  *  -1.18810000  *  -2.07090000  *
    17       H          1.18720000  *   1.40580000  *   1.60520000  *
    18       H         -3.38380000  *   0.21310000  *  -1.47260000  *
    19       H         -1.54470000  *   1.43080000  *   2.23410000  *
    20       H         -3.49990000  *   1.36400000  *   0.79350000  *



          CARTESIAN COORDINATES 

    NO.       ATOM           X           Y           Z

     1         C         -0.4416     -1.0013     -0.1037
     2         C          3.1336      0.1533     -0.2497
     3         C         -0.3513      0.0861      0.9184
     4         C          1.7069     -0.1658      0.0569
     5         C          0.9453     -0.9871     -0.6576
     6         C         -1.5181     -0.6848     -1.1121
     7         C          0.8882      0.5338      1.0375
     8         C         -1.5490      0.8203      1.3399
     9         C         -2.5696      0.0818     -0.7716
    10         C         -2.6169      0.7954      0.5321
    11         H         -0.6512     -1.9759      0.3868
    12         H          3.1779      0.9352     -1.0362
    13         H          3.6424      0.5267      0.6637
    14         H          3.6634     -0.7557     -0.6056
    15         H          1.2947     -1.5876     -1.4880
    16         H         -1.5135     -1.1881     -2.0709
    17         H          1.1872      1.4058      1.6052
    18         H         -3.3838      0.2131     -1.4726
    19         H         -1.5447      1.4308      2.2341
    20         H         -3.4999      1.3640      0.7935

  H: (PM3): J. J. P. STEWART, J. COMP. CHEM. 10, 209 (1989).
  C: (PM3): J. J. P. STEWART, J. COMP. CHEM. 10, 209 (1989).

           Empirical Formula: C10 H10  =    20 atoms



      MOLECULAR POINT GROUP   :   C1  


      RHF CALCULATION, NO. OF DOUBLY OCCUPIED LEVELS = 25


          Geometry optimization using EF

          DIAGONAL MATRIX USED AS START HESSIAN

 CYCLE:     1 TIME:   0.008 TIME LEFT:  2.00D  GRAD.:   145.462 HEAT:  66.21539
 CYCLE:     2 TIME:   0.012 TIME LEFT:  2.00D  GRAD.:   153.972 HEAT:  65.51976
 CYCLE:     3 TIME:   0.008 TIME LEFT:  2.00D  GRAD.:   120.431 HEAT:  64.15331
 CYCLE:     4 TIME:   0.012 TIME LEFT:  2.00D  GRAD.:    54.342 HEAT:  61.38844
 CYCLE:     5 TIME:   0.012 TIME LEFT:  2.00D  GRAD.:    36.629 HEAT:  60.82953
 CYCLE:     6 TIME:   0.004 TIME LEFT:  2.00D  GRAD.:    43.756 HEAT:  60.74517
 CYCLE:     7 TIME:   0.008 TIME LEFT:  2.00D  GRAD.:    31.366 HEAT:  60.28777
 CYCLE:     8 TIME:   0.008 TIME LEFT:  2.00D  GRAD.:    34.410 HEAT:  60.15403
 CYCLE:     9 TIME:   0.008 TIME LEFT:  2.00D  GRAD.:    38.338 HEAT:  60.05119
 CYCLE:    10 TIME:   0.008 TIME LEFT:  2.00D  GRAD.:    26.501 HEAT:  59.78709
 CYCLE:    11 TIME:   0.004 TIME LEFT:  2.00D  GRAD.:    29.768 HEAT:  59.65068
 CYCLE:    12 TIME:   0.008 TIME LEFT:  2.00D  GRAD.:    40.361 HEAT:  59.57781
 CYCLE:    13 TIME:   0.008 TIME LEFT:  2.00D  GRAD.:    26.306 HEAT:  59.38418
 CYCLE:    14 TIME:   0.008 TIME LEFT:  2.00D  GRAD.:    29.048 HEAT:  59.35887
 CYCLE:    15 TIME:   0.008 TIME LEFT:  2.00D  GRAD.:    15.529 HEAT:  59.16379
 CYCLE:    16 TIME:   0.008 TIME LEFT:  2.00D  GRAD.:    22.874 HEAT:  59.15667
 CYCLE:    17 TIME:   0.008 TIME LEFT:  2.00D  GRAD.:     7.663 HEAT:  59.02384
 CYCLE:    18 TIME:   0.012 TIME LEFT:  2.00D  GRAD.:    13.708 HEAT:  59.00388
 CYCLE:    19 TIME:   0.004 TIME LEFT:  2.00D  GRAD.:     8.574 HEAT:  58.92271
 CYCLE:    20 TIME:   0.008 TIME LEFT:  2.00D  GRAD.:    17.493 HEAT:  58.89232
 CYCLE:    21 TIME:   0.008 TIME LEFT:  2.00D  GRAD.:    13.458 HEAT:  58.81005
 CYCLE:    22 TIME:   0.016 TIME LEFT:  2.00D  GRAD.:    12.051 HEAT:  58.77716
 CYCLE:    23 TIME:   0.004 TIME LEFT:  2.00D  GRAD.:     5.364 HEAT:  58.73426
 CYCLE:    24 TIME:   0.008 TIME LEFT:  2.00D  GRAD.:     9.309 HEAT:  58.71273
 CYCLE:    25 TIME:   0.004 TIME LEFT:  2.00D  GRAD.:     5.314 HEAT:  58.67152
 CYCLE:    26 TIME:   0.008 TIME LEFT:  2.00D  GRAD.:     6.936 HEAT:  58.64961
 CYCLE:    27 TIME:   0.008 TIME LEFT:  2.00D  GRAD.:     6.331 HEAT:  58.62548
 CYCLE:    28 TIME:   0.008 TIME LEFT:  2.00D  GRAD.:     6.602 HEAT:  58.60292
 CYCLE:    29 TIME:   0.004 TIME LEFT:  2.00D  GRAD.:     5.094 HEAT:  58.57660
 CYCLE:    30 TIME:   0.008 TIME LEFT:  2.00D  GRAD.:     8.646 HEAT:  58.53413
 CYCLE:    31 TIME:   0.004 TIME LEFT:  2.00D  GRAD.:     7.772 HEAT:  58.48870
 CYCLE:    32 TIME:   0.008 TIME LEFT:  2.00D  GRAD.:     7.263 HEAT:  58.43762
 CYCLE:    33 TIME:   0.008 TIME LEFT:  2.00D  GRAD.:     9.073 HEAT:  58.41260
 CYCLE:    34 TIME:   0.008 TIME LEFT:  2.00D  GRAD.:     4.249 HEAT:  58.37686
 CYCLE:    35 TIME:   0.004 TIME LEFT:  2.00D  GRAD.:     2.911 HEAT:  58.35960
 CYCLE:    36 TIME:   0.008 TIME LEFT:  2.00D  GRAD.:     3.872 HEAT:  58.34313
 CYCLE:    37 TIME:   0.008 TIME LEFT:  2.00D  GRAD.:     2.937 HEAT:  58.32904
 CYCLE:    38 TIME:   0.008 TIME LEFT:  2.00D  GRAD.:     2.275 HEAT:  58.31835
 CYCLE:    39 TIME:   0.004 TIME LEFT:  2.00D  GRAD.:     1.740 HEAT:  58.31042
 CYCLE:    40 TIME:   0.008 TIME LEFT:  2.00D  GRAD.:     1.299 HEAT:  58.30570
 CYCLE:    41 TIME:   0.008 TIME LEFT:  2.00D  GRAD.:     1.151 HEAT:  58.30162
 CYCLE:    42 TIME:   0.008 TIME LEFT:  2.00D  GRAD.:     1.148 HEAT:  58.29856
 CYCLE:    43 TIME:   0.004 TIME LEFT:  2.00D  GRAD.:     1.188 HEAT:  58.29488
 CYCLE:    44 TIME:   0.008 TIME LEFT:  2.00D  GRAD.:     1.209 HEAT:  58.29141
 CYCLE:    45 TIME:   0.008 TIME LEFT:  2.00D  GRAD.:     1.200 HEAT:  58.28798
 CYCLE:    46 TIME:   0.008 TIME LEFT:  2.00D  GRAD.:     1.204 HEAT:  58.28516
 CYCLE:    47 TIME:   0.004 TIME LEFT:  2.00D  GRAD.:     1.216 HEAT:  58.28168
 CYCLE:    48 TIME:   0.008 TIME LEFT:  2.00D  GRAD.:     1.256 HEAT:  58.27834
 CYCLE:    49 TIME:   0.008 TIME LEFT:  2.00D  GRAD.:     1.234 HEAT:  58.27410
 CYCLE:    50 TIME:   0.008 TIME LEFT:  2.00D  GRAD.:     1.121 HEAT:  58.27023
 CYCLE:    51 TIME:   0.008 TIME LEFT:  2.00D  GRAD.:     0.925 HEAT:  58.26703
 CYCLE:    52 TIME:   0.008 TIME LEFT:  2.00D  GRAD.:     0.923 HEAT:  58.26440
 CYCLE:    53 TIME:   0.004 TIME LEFT:  2.00D  GRAD.:     1.033 HEAT:  58.26181
 CYCLE:    54 TIME:   0.008 TIME LEFT:  2.00D  GRAD.:     1.044 HEAT:  58.25887
 CYCLE:    55 TIME:   0.008 TIME LEFT:  2.00D  GRAD.:     1.041 HEAT:  58.25581
 CYCLE:    56 TIME:   0.008 TIME LEFT:  2.00D  GRAD.:     0.970 HEAT:  58.25340
 CYCLE:    57 TIME:   0.008 TIME LEFT:  2.00D  GRAD.:     1.015 HEAT:  58.25071
 CYCLE:    58 TIME:   0.008 TIME LEFT:  2.00D  GRAD.:     1.340 HEAT:  58.24751
 CYCLE:    59 TIME:   0.008 TIME LEFT:  2.00D  GRAD.:     1.313 HEAT:  58.24346
 CYCLE:    60 TIME:   0.008 TIME LEFT:  2.00D  GRAD.:     2.010 HEAT:  58.23914
 CYCLE:    61 TIME:   0.004 TIME LEFT:  2.00D  GRAD.:     1.287 HEAT:  58.23496
 CYCLE:    62 TIME:   0.008 TIME LEFT:  2.00D  GRAD.:     1.360 HEAT:  58.22995
 CYCLE:    63 TIME:   0.008 TIME LEFT:  2.00D  GRAD.:     1.678 HEAT:  58.22494
 CYCLE:    64 TIME:   0.008 TIME LEFT:  2.00D  GRAD.:     1.423 HEAT:  58.21967
 CYCLE:    65 TIME:   0.008 TIME LEFT:  2.00D  GRAD.:     4.476 HEAT:  58.22089
 CYCLE:    66 TIME:   0.008 TIME LEFT:  2.00D  GRAD.:     1.468 HEAT:  58.20932
 CYCLE:    67 TIME:   0.004 TIME LEFT:  2.00D  GRAD.:     1.376 HEAT:  58.20424
 CYCLE:    68 TIME:   0.012 TIME LEFT:  2.00D  GRAD.:     4.530 HEAT:  58.20083
 CYCLE:    69 TIME:   0.008 TIME LEFT:  2.00D  GRAD.:     1.236 HEAT:  58.19190
 CYCLE:    70 TIME:   0.004 TIME LEFT:  2.00D  GRAD.:     1.242 HEAT:  58.18801
 CYCLE:    71 TIME:   0.008 TIME LEFT:  2.00D  GRAD.:     2.845 HEAT:  58.17808
 CYCLE:    72 TIME:   0.008 TIME LEFT:  2.00D  GRAD.:     1.540 HEAT:  58.17292
 CYCLE:    73 TIME:   0.008 TIME LEFT:  2.00D  GRAD.:     1.227 HEAT:  58.16616
 CYCLE:    74 TIME:   0.008 TIME LEFT:  2.00D  GRAD.:     1.450 HEAT:  58.16182
 CYCLE:    75 TIME:   0.004 TIME LEFT:  2.00D  GRAD.:     1.011 HEAT:  58.15838
 CYCLE:    76 TIME:   0.008 TIME LEFT:  2.00D  GRAD.:     0.900 HEAT:  58.15536
 CYCLE:    77 TIME:   0.008 TIME LEFT:  2.00D  GRAD.:     0.786 HEAT:  58.15367
 CYCLE:    78 TIME:   0.008 TIME LEFT:  2.00D  GRAD.:     0.827 HEAT:  58.15297
 CYCLE:    79 TIME:   0.004 TIME LEFT:  2.00D  GRAD.:     0.881 HEAT:  58.15215
 CYCLE:    80 TIME:   0.008 TIME LEFT:  2.00D  GRAD.:     0.714 HEAT:  58.15143
 CYCLE:    81 TIME:   0.008 TIME LEFT:  2.00D  GRAD.:     0.883 HEAT:  58.15073
 CYCLE:    82 TIME:   0.008 TIME LEFT:  2.00D  GRAD.:     0.556 HEAT:  58.15021
 CYCLE:    83 TIME:   0.008 TIME LEFT:  2.00D  GRAD.:     0.434 HEAT:  58.14916
 CYCLE:    84 TIME:   0.004 TIME LEFT:  2.00D  GRAD.:     0.755 HEAT:  58.14881
 CYCLE:    85 TIME:   0.008 TIME LEFT:  2.00D  GRAD.:     0.527 HEAT:  58.14823
 CYCLE:    86 TIME:   0.008 TIME LEFT:  2.00D  GRAD.:     0.590 HEAT:  58.14713
 CYCLE:    87 TIME:   0.008 TIME LEFT:  2.00D  GRAD.:     0.723 HEAT:  58.14546
 CYCLE:    88 TIME:   0.008 TIME LEFT:  2.00D  GRAD.:     0.435 HEAT:  58.14492
 CYCLE:    89 TIME:   0.004 TIME LEFT:  2.00D  GRAD.:     0.433 HEAT:  58.14449
 CYCLE:    90 TIME:   0.008 TIME LEFT:  2.00D  GRAD.:     0.502 HEAT:  58.14435
 CYCLE:    91 TIME:   0.008 TIME LEFT:  2.00D  GRAD.:     0.303 HEAT:  58.14417
 CYCLE:    92 TIME:   0.008 TIME LEFT:  2.00D  GRAD.:     0.177 HEAT:  58.14408
 CYCLE:    93 TIME:   0.004 TIME LEFT:  2.00D  GRAD.:     0.308 HEAT:  58.14415
 CYCLE:    94 TIME:   0.008 TIME LEFT:  2.00D  GRAD.:     0.071 HEAT:  58.14404
 CYCLE:    95 TIME:   0.008 TIME LEFT:  2.00D  GRAD.:     0.083 HEAT:  58.14401
 CYCLE:    96 TIME:   0.004 TIME LEFT:  2.00D  GRAD.:     0.040 HEAT:  58.14401

     GRADIENT =  0.03964 IS LESS THAN CUTOFF =  0.05000



 -------------------------------------------------------------------------------
 pm3  precise nosym THREADS=1
 InChI=1S/C10H10/c1-8-6-9-4-2-3-5-10(9)7-8/h2-7,9H,1H3



     GEOMETRY OPTIMISED USING EIGENVECTOR FOLLOWING (EF).     
     SCF FIELD WAS ACHIEVED                                   


                              PM3 CALCULATION
                                                       MOPAC v23.1.2 MacOS
                                                       Tue Jun  3 16:33:49 2025




          FINAL HEAT OF FORMATION =         58.14401 KCAL/MOL =     243.27453 KJ/MOL


          COSMO AREA              =        174.84 SQUARE ANGSTROMS
          COSMO VOLUME            =        174.65 CUBIC ANGSTROMS

          GRADIENT NORM           =          0.03964          =       0.00886 PER ATOM
          IONIZATION POTENTIAL    =          8.489402 EV
          HOMO LUMO ENERGIES (EV) =         -8.489 -0.412
          NO. OF FILLED LEVELS    =         25
          MOLECULAR WEIGHT        =        130.1890         POINT GROUP:  C1  

          MOLECULAR DIMENSIONS (Angstroms)

            Atom       Atom       Distance
            H    20    H    14     7.66783
            H    17    H    16     5.19952
            H    11    H    12     2.98842


          SCF CALCULATIONS        =        106

          WALL-CLOCK TIME         =      0.711 SECONDS
          COMPUTATION TIME        =      0.451 SECONDS




   ATOM   CHEMICAL          X               Y               Z
  NUMBER   SYMBOL      (ANGSTROMS)     (ANGSTROMS)     (ANGSTROMS)

     1       C         -0.44391170  *  -0.90201118  *  -0.14474977  *
     2       C          3.20422411  *   0.06557367  *  -0.15607852  *
     3       C         -0.34966132  *   0.25487077  *   0.82634401  *
     4       C          1.75227587  *  -0.12511444  *  -0.00380031  *
     5       C          0.95641765  *  -0.98615201  *  -0.68742491  *
     6       C         -1.58081605  *  -0.72993585  *  -1.08448202  *
     7       C          0.94182267  *   0.65370289  *   0.94043219  *
     8       C         -1.57396734  *   0.84929480  *   1.30570607  *
     9       C         -2.64061429  *   0.01253510  *  -0.72332645  *
    10       C         -2.67887978  *   0.72470839  *   0.54367680  *
    11       H         -0.62859192  *  -1.84825691  *   0.42728507  *
    12       H          3.43630886  *   1.11013952  *  -0.40305606  *
    13       H          3.72777368  *  -0.17888201  *   0.77790630  *
    14       H          3.61781302  *  -0.56884999  *  -0.95025052  *
    15       H          1.24404104  *  -1.67837204  *  -1.47579815  *
    16       H         -1.52983400  *  -1.25657121  *  -2.04206290  *
    17       H          1.34425348  *   1.44203833  *   1.57369893  *
    18       H         -3.51038333  *   0.11300957  *  -1.38075446  *
    19       H         -1.55809738  *   1.41775936  *   2.24013114  *
    20       H         -3.63059386  *   1.17498507  *   0.84288217  *

                             CARTESIAN COORDINATES

   1    C       -0.443911701    -0.902011177    -0.144749767
   2    C        3.204224109     0.065573667    -0.156078518
   3    C       -0.349661318     0.254870771     0.826344014
   4    C        1.752275873    -0.125114441    -0.003800309
   5    C        0.956417647    -0.986152014    -0.687424913
   6    C       -1.580816045    -0.729935848    -1.084482022
   7    C        0.941822665     0.653702891     0.940432193
   8    C       -1.573967337     0.849294803     1.305706072
   9    C       -2.640614285     0.012535101    -0.723326448
  10    C       -2.678879784     0.724708391     0.543676799
  11    H       -0.628591916    -1.848256909     0.427285074
  12    H        3.436308856     1.110139516    -0.403056063
  13    H        3.727773678    -0.178882010     0.777906295
  14    H        3.617813015    -0.568849990    -0.950250521
  15    H        1.244041035    -1.678372042    -1.475798154
  16    H       -1.529834000    -1.256571213    -2.042062896
  17    H        1.344253475     1.442038333     1.573698933
  18    H       -3.510383326     0.113009567    -1.380754456
  19    H       -1.558097375     1.417759356     2.240131141
  20    H       -3.630593863     1.174985074     0.842882171


           Empirical Formula: C10 H10  =    20 atoms



      MOLECULAR POINT GROUP   :   C1  


                  EIGENVALUES  
 -41.46553 -35.64332 -30.64025 -30.23519 -25.77155 -24.63581 -20.91620 -19.95671
 -18.85668 -17.39354 -16.77318 -15.98127 -15.33791 -14.82821 -14.36079 -14.16927
 -13.76247 -13.48807 -12.94362 -12.66085 -12.14504 -11.62839 -10.83627  -9.55702
  -8.48940  -0.41228   0.70818   1.70599   2.28293   3.15081   3.17658   3.35508
   3.48444   3.52542   3.80241   3.91323   4.12505   4.16686   4.28128   4.32827
   4.39910   4.53708   4.73955   4.92388   5.36495   5.47871   5.71952   6.00055
   6.21373   6.29256


              NET ATOMIC CHARGES AND DIPOLE CONTRIBUTIONS

  ATOM NO.   TYPE          CHARGE      No. of ELECS.   s-Pop       p-Pop       
    1          C           0.001476        3.9985     1.14728     2.85125
    2          C          -0.049085        4.0491     1.11674     2.93235
    3          C          -0.105412        4.1054     1.19237     2.91304
    4          C          -0.094615        4.0946     1.19288     2.90174
    5          C          -0.155445        4.1554     1.20405     2.95140
    6          C          -0.102517        4.1025     1.19016     2.91236
    7          C          -0.094281        4.0943     1.18668     2.90760
    8          C          -0.072530        4.0725     1.17226     2.90027
    9          C          -0.118718        4.1187     1.18033     2.93839
   10          C          -0.100815        4.1008     1.18196     2.91885
   11          H           0.103942        0.8961     0.89606
   12          H           0.046981        0.9530     0.95302
   13          H           0.045907        0.9541     0.95409
   14          H           0.042060        0.9579     0.95794
   15          H           0.119957        0.8800     0.88004
   16          H           0.105101        0.8949     0.89490
   17          H           0.118245        0.8818     0.88175
   18          H           0.102089        0.8979     0.89791
   19          H           0.106419        0.8936     0.89358
   20          H           0.101240        0.8988     0.89876
 DIPOLE           X         Y         Z       TOTAL
 POINT-CHG.     0.050    -0.206    -0.073     0.224
 HYBRID         0.010    -0.102     0.069     0.124
 SUM            0.060    -0.308    -0.004     0.314


          ATOMIC ORBITAL ELECTRON POPULATIONS

     Atom    s        px        py        pz   
    1  C   1.14728   0.93092   0.97245   0.94788
    2  C   1.11674   0.91989   1.00700   1.00546
    3  C   1.19237   0.94628   0.97207   0.99470
    4  C   1.19288   0.95486   0.97382   0.97306
    5  C   1.20405   0.95209   1.00497   0.99434
    6  C   1.19016   0.95024   0.98868   0.97344
    7  C   1.18668   0.93480   0.98300   0.98979
    8  C   1.17226   0.92805   0.98965   0.98256
    9  C   1.18033   0.98083   0.98987   0.96770
   10  C   1.18196   0.97482   0.99111   0.95292
   11  H   0.89606
   12  H   0.95302
   13  H   0.95409
   14  H   0.95794
   15  H   0.88004
   16  H   0.89490
   17  H   0.88175
   18  H   0.89791
   19  H   0.89358
   20  H   0.89876
 *******************************************************************************
 **                                                                           **
 **                              MOPAC v23.1.2                                **
 **                                                                           **
 *******************************************************************************
 **          Digital Object Identifier (DOI): 10.5281/zenodo.6511958          **
 **    Visit the DOI location for information on how to cite this program.    **
 *******************************************************************************

                              PM3 CALCULATION RESULTS

 *******************************************************************************
 *  CALCULATION DONE: (MAX THREADS = 1)              Tue Jun  3 16:33:49 2025  *
 *  PM3        - The PM3 Hamiltonian to be used
 *  OLDGEO     - PREVIOUS GEOMETRY TO BE USED
 *  PRECISE    - TIGHTER CRITERIA TO BE USED
 *  NOSYM      - POINT-GROUP SYMMETRY SET TO C1
 *  THREADS=1  - MULTI-THREADING NOT USED
 *  T=         - A TIME OF 172800.0 SECONDS REQUESTED
 *  DUMP=N     - RESTART FILE WRITTEN EVERY 7200.0 SECONDS REQUESTED
 *  THERMO     - THERMODYNAMIC QUANTITIES TO BE CALCULATED
 *******************************************************************************
oldgeo thermo nosym precise THREADS=1  pm3
 InChI=1S/C10H10/c1-8-6-9-4-2-3-5-10(9)7-8/h2-7,9H,1H3

   ATOM   CHEMICAL          X               Y               Z
  NUMBER   SYMBOL      (ANGSTROMS)     (ANGSTROMS)     (ANGSTROMS)

     1       C         -0.44391170  *  -0.90201118  *  -0.14474977  *
     2       C          3.20422411  *   0.06557367  *  -0.15607852  *
     3       C         -0.34966132  *   0.25487077  *   0.82634401  *
     4       C          1.75227587  *  -0.12511444  *  -0.00380031  *
     5       C          0.95641765  *  -0.98615201  *  -0.68742491  *
     6       C         -1.58081605  *  -0.72993585  *  -1.08448202  *
     7       C          0.94182267  *   0.65370289  *   0.94043219  *
     8       C         -1.57396734  *   0.84929480  *   1.30570607  *
     9       C         -2.64061429  *   0.01253510  *  -0.72332645  *
    10       C         -2.67887978  *   0.72470839  *   0.54367680  *
    11       H         -0.62859192  *  -1.84825691  *   0.42728507  *
    12       H          3.43630886  *   1.11013952  *  -0.40305606  *
    13       H          3.72777368  *  -0.17888201  *   0.77790630  *
    14       H          3.61781302  *  -0.56884999  *  -0.95025052  *
    15       H          1.24404104  *  -1.67837204  *  -1.47579815  *
    16       H         -1.52983400  *  -1.25657121  *  -2.04206290  *
    17       H          1.34425348  *   1.44203833  *   1.57369893  *
    18       H         -3.51038333  *   0.11300957  *  -1.38075446  *
    19       H         -1.55809738  *   1.41775936  *   2.24013114  *
    20       H         -3.63059386  *   1.17498507  *   0.84288217  *



          CARTESIAN COORDINATES 

    NO.       ATOM           X           Y           Z

     1         C         -0.4439     -0.9020     -0.1447
     2         C          3.2042      0.0656     -0.1561
     3         C         -0.3497      0.2549      0.8263
     4         C          1.7523     -0.1251     -0.0038
     5         C          0.9564     -0.9862     -0.6874
     6         C         -1.5808     -0.7299     -1.0845
     7         C          0.9418      0.6537      0.9404
     8         C         -1.5740      0.8493      1.3057
     9         C         -2.6406      0.0125     -0.7233
    10         C         -2.6789      0.7247      0.5437
    11         H         -0.6286     -1.8483      0.4273
    12         H          3.4363      1.1101     -0.4031
    13         H          3.7278     -0.1789      0.7779
    14         H          3.6178     -0.5688     -0.9503
    15         H          1.2440     -1.6784     -1.4758
    16         H         -1.5298     -1.2566     -2.0421
    17         H          1.3443      1.4420      1.5737
    18         H         -3.5104      0.1130     -1.3808
    19         H         -1.5581      1.4178      2.2401
    20         H         -3.6306      1.1750      0.8429

  H: (PM3): J. J. P. STEWART, J. COMP. CHEM. 10, 209 (1989).
  C: (PM3): J. J. P. STEWART, J. COMP. CHEM. 10, 209 (1989).

           Empirical Formula: C10 H10  =    20 atoms



      MOLECULAR POINT GROUP   :   C1  


      RHF CALCULATION, NO. OF DOUBLY OCCUPIED LEVELS = 25



          HEAT OF FORMATION =      58.144007 KCALS/MOLE


          CARTESIAN COORDINATE DERIVATIVES

   NUMBER  ATOM         X            Y            Z

     1       C      0.001861    -0.001932     0.001336
     2       C      0.004536     0.003673    -0.006273
     3       C      0.000813    -0.001966     0.001705
     4       C      0.002715     0.000123     0.001648
     5       C      0.003766    -0.000101     0.001493
     6       C      0.000138     0.000074    -0.000630
     7       C     -0.001223     0.000285     0.000549
     8       C     -0.000374    -0.000654     0.003398
     9       C      0.005903     0.001054    -0.002623
    10       C     -0.000463     0.001288    -0.004247
    11       H     -0.014832    -0.002725    -0.000719
    12       H      0.011863    -0.001550     0.001941
    13       H      0.013095     0.004754    -0.000751
    14       H     -0.009365    -0.001950     0.003250
    15       H      0.006916    -0.000714     0.001316
    16       H     -0.020115     0.001223     0.000224
    17       H     -0.000114     0.002908    -0.005517
    18       H      0.000597    -0.000427    -0.000060
    19       H     -0.003279    -0.004944     0.007753
    20       H     -0.002437     0.001581    -0.003794



          GRADIENT NORM =   0.03846

          MOLECULAR WEIGHT =  130.19



          ROTATIONAL CONSTANTS IN CM(-1)

          A =    0.11315467   B =    0.03362059   C =    0.02724198



           PRINCIPAL MOMENTS OF INERTIA IN UNITS OF 10**(-40)*GRAM-CM**2

          A =      247.3849   B =      832.6075   C =     1027.5592


          ORIENTATION OF MOLECULE IN FORCE CALCULATION

    NO.       ATOM         X         Y         Z

     1          C      -0.4584   -0.7370    0.3627
     2          C       3.3159   -0.7370    0.3627
     3          C      -0.0737    0.7267    0.3627
     4          C       1.8631   -0.4983    0.3485
     5          C       0.8752   -1.4239    0.2526
     6          C      -1.5104   -1.0211   -0.6462
     7          C       1.2766    0.8458    0.4149
     8          C      -1.1061    1.7071    0.1286
     9          C      -2.3455   -0.0433   -1.0353
    10          C      -2.2037    1.3205   -0.5517
    11          H      -0.8812   -1.0061    1.3655
    12          H       3.8087   -0.1898   -0.4519
    13          H       3.7564   -0.3926    1.3080
    14          H       3.5554   -1.8017    0.2474
    15          H       0.9781   -2.5027    0.1569
    16          H      -1.5932   -2.0477   -1.0153
    17          H       1.8657    1.7601    0.4519
    18          H      -3.1585   -0.2424   -1.7412
    19          H      -0.9478    2.7358    0.4651
    20          H      -3.0091    2.0253   -0.7810


    FIRST DERIVATIVES WILL BE USED IN THE CALCULATION OF SECOND DERIVATIVES

          ESTIMATED TIME TO COMPLETE CALCULATION =        1.88 SECONDS

    FOR POINT-GROUP C1   THERE ARE   1 UNIQUE SYMMETRY FUNCTIONS.

 STEP:   1 TIME =     0.02 SECS, INTEGRAL =      0.02 TIME LEFT: 172799.97
 STEP:   2 TIME =     0.02 SECS, INTEGRAL =      0.04 TIME LEFT: 172799.95
 STEP:   3 TIME =     0.02 SECS, INTEGRAL =      0.06 TIME LEFT: 172799.93
 STEP:   4 TIME =     0.02 SECS, INTEGRAL =      0.08 TIME LEFT: 172799.91
 STEP:   5 TIME =     0.02 SECS, INTEGRAL =      0.11 TIME LEFT: 172799.89
 STEP:   6 TIME =     0.02 SECS, INTEGRAL =      0.13 TIME LEFT: 172799.86
 STEP:   7 TIME =     0.02 SECS, INTEGRAL =      0.15 TIME LEFT: 172799.84
 STEP:   8 TIME =     0.02 SECS, INTEGRAL =      0.17 TIME LEFT: 172799.82
 STEP:   9 TIME =     0.02 SECS, INTEGRAL =      0.20 TIME LEFT: 172799.80
 STEP:  10 TIME =     0.02 SECS, INTEGRAL =      0.21 TIME LEFT: 172799.78
 STEP:  11 TIME =     0.02 SECS, INTEGRAL =      0.23 TIME LEFT: 172799.76
 STEP:  12 TIME =     0.02 SECS, INTEGRAL =      0.25 TIME LEFT: 172799.74
 STEP:  13 TIME =     0.02 SECS, INTEGRAL =      0.27 TIME LEFT: 172799.72
 STEP:  14 TIME =     0.02 SECS, INTEGRAL =      0.29 TIME LEFT: 172799.70
 STEP:  15 TIME =     0.02 SECS, INTEGRAL =      0.31 TIME LEFT: 172799.68
 STEP:  16 TIME =     0.02 SECS, INTEGRAL =      0.34 TIME LEFT: 172799.66
 STEP:  17 TIME =     0.02 SECS, INTEGRAL =      0.36 TIME LEFT: 172799.64
 STEP:  18 TIME =     0.02 SECS, INTEGRAL =      0.38 TIME LEFT: 172799.61
 STEP:  19 TIME =     0.02 SECS, INTEGRAL =      0.40 TIME LEFT: 172799.59
 STEP:  20 TIME =     0.02 SECS, INTEGRAL =      0.42 TIME LEFT: 172799.57
 STEP:  21 TIME =     0.02 SECS, INTEGRAL =      0.44 TIME LEFT: 172799.55
 STEP:  22 TIME =     0.02 SECS, INTEGRAL =      0.46 TIME LEFT: 172799.54
 STEP:  23 TIME =     0.02 SECS, INTEGRAL =      0.47 TIME LEFT: 172799.52
 STEP:  24 TIME =     0.02 SECS, INTEGRAL =      0.49 TIME LEFT: 172799.50
 STEP:  25 TIME =     0.02 SECS, INTEGRAL =      0.51 TIME LEFT: 172799.48
 STEP:  26 TIME =     0.02 SECS, INTEGRAL =      0.53 TIME LEFT: 172799.46
 STEP:  27 TIME =     0.02 SECS, INTEGRAL =      0.55 TIME LEFT: 172799.44
 STEP:  28 TIME =     0.02 SECS, INTEGRAL =      0.57 TIME LEFT: 172799.42
 STEP:  29 TIME =     0.02 SECS, INTEGRAL =      0.59 TIME LEFT: 172799.40
 STEP:  30 TIME =     0.02 SECS, INTEGRAL =      0.61 TIME LEFT: 172799.38
 STEP:  31 TIME =     0.02 SECS, INTEGRAL =      0.63 TIME LEFT: 172799.36
 STEP:  32 TIME =     0.02 SECS, INTEGRAL =      0.65 TIME LEFT: 172799.34
 STEP:  33 TIME =     0.02 SECS, INTEGRAL =      0.67 TIME LEFT: 172799.32
 STEP:  34 TIME =     0.02 SECS, INTEGRAL =      0.69 TIME LEFT: 172799.30
 STEP:  35 TIME =     0.02 SECS, INTEGRAL =      0.71 TIME LEFT: 172799.28
 STEP:  36 TIME =     0.02 SECS, INTEGRAL =      0.73 TIME LEFT: 172799.27
 STEP:  37 TIME =     0.02 SECS, INTEGRAL =      0.75 TIME LEFT: 172799.25
 STEP:  38 TIME =     0.02 SECS, INTEGRAL =      0.77 TIME LEFT: 172799.23
 STEP:  39 TIME =     0.02 SECS, INTEGRAL =      0.79 TIME LEFT: 172799.21
 STEP:  40 TIME =     0.02 SECS, INTEGRAL =      0.80 TIME LEFT: 172799.19
 STEP:  41 TIME =     0.02 SECS, INTEGRAL =      0.82 TIME LEFT: 172799.17
 STEP:  42 TIME =     0.02 SECS, INTEGRAL =      0.84 TIME LEFT: 172799.15
 STEP:  43 TIME =     0.02 SECS, INTEGRAL =      0.86 TIME LEFT: 172799.13
 STEP:  44 TIME =     0.02 SECS, INTEGRAL =      0.88 TIME LEFT: 172799.11
 STEP:  45 TIME =     0.02 SECS, INTEGRAL =      0.90 TIME LEFT: 172799.09
 STEP:  46 TIME =     0.02 SECS, INTEGRAL =      0.92 TIME LEFT: 172799.07
 STEP:  47 TIME =     0.02 SECS, INTEGRAL =      0.94 TIME LEFT: 172799.05
 STEP:  48 TIME =     0.02 SECS, INTEGRAL =      0.96 TIME LEFT: 172799.04
 STEP:  49 TIME =     0.02 SECS, INTEGRAL =      0.98 TIME LEFT: 172799.01
 STEP:  50 TIME =     0.02 SECS, INTEGRAL =      1.00 TIME LEFT: 172798.99
 STEP:  51 TIME =     0.02 SECS, INTEGRAL =      1.02 TIME LEFT: 172798.97
 STEP:  52 TIME =     0.02 SECS, INTEGRAL =      1.04 TIME LEFT: 172798.95
 STEP:  53 TIME =     0.02 SECS, INTEGRAL =      1.07 TIME LEFT: 172798.93
 STEP:  54 TIME =     0.02 SECS, INTEGRAL =      1.09 TIME LEFT: 172798.90
 STEP:  55 TIME =     0.02 SECS, INTEGRAL =      1.11 TIME LEFT: 172798.88
 STEP:  56 TIME =     0.02 SECS, INTEGRAL =      1.13 TIME LEFT: 172798.86
 STEP:  57 TIME =     0.02 SECS, INTEGRAL =      1.15 TIME LEFT: 172798.84
 STEP:  58 TIME =     0.02 SECS, INTEGRAL =      1.17 TIME LEFT: 172798.82
 STEP:  59 TIME =     0.02 SECS, INTEGRAL =      1.19 TIME LEFT: 172798.80
 STEP:  60 TIME =     0.02 SECS, INTEGRAL =      1.21 TIME LEFT: 172798.78

(To convert to Hartree/Bohr^2, multiply by (10^(-21) x N x a0^2)/(4.184 x 627.51) =  0.0642)


           FORCE MATRIX IN MILLIDYNES/ANGSTROM


                  C  1       C  2       C  3       C  4       C  5       C  6
 ------------------------------------------------------------------------------
     C    1  15.465366
     C    2   0.125380  14.886382
     C    3   4.014816   0.054119  19.037527
     C    4   1.249060   5.497504   1.669566  18.739769
     C    5   4.273893   0.674620   1.084478   9.314522  17.728268
     C    6   4.930469   0.018437   0.716315   0.061595   0.574512  17.875303
     C    7   1.174965   0.550593   9.161586   4.902906   1.529204   0.072113
     C    8   0.608192   0.010271   5.844496   0.177177   0.067897   0.202450
     C    9   0.932665   0.004465   0.208460   0.053776   0.063475  10.019423
     C   10   0.173574   0.003967   1.274340   0.082918   0.041013   1.134823
     H   11   4.062291   0.018833   0.396216   0.055340   0.365791   0.391086
     H   12   0.017336   4.713932   0.004398   0.452108   0.031044   0.003164
     H   13   0.018131   4.708080   0.004470   0.450575   0.028891   0.002048
     H   14   0.002877   4.752324   0.008028   0.469531   0.024396   0.000880
     H   15   0.405306   0.048994   0.041750   0.451913   5.072810   0.010971
     H   16   0.436464   0.000582   0.042041   0.007245   0.011671   4.879192
     H   17   0.111759   0.008263   0.454082   0.425533   0.046445   0.019193
     H   18   0.117177   0.000927   0.003452   0.002499   0.013376   0.441069
     H   19   0.035545   0.000601   0.446957   0.009963   0.009576   0.019362
     H   20   0.005243   0.000602   0.121076   0.008482   0.002475   0.049036


                  C  7       C  8       C  9       C 10       H 11       H 12
 ------------------------------------------------------------------------------
     C    7  18.021052
     C    8   0.916668  18.150649
     C    9   0.095255   1.151869  18.097379
     C   10   0.194627   9.707281   5.425046  17.977633
     H   11   0.055757   0.022155   0.035147   0.019606   4.523183
     H   12   0.015724   0.001221   0.001147   0.000582   0.002386   5.421822
     H   13   0.014094   0.001227   0.000493   0.000589   0.003495   0.573004
     H   14   0.044708   0.001923   0.000454   0.000687   0.000508   0.557927
     H   15   0.094365   0.011532   0.003361   0.002715   0.012547   0.005933
     H   16   0.007212   0.016955   0.443060   0.122828   0.012776   0.000182
     H   17   5.064149   0.053959   0.010800   0.012745   0.016815   0.004057
     H   18   0.002267   0.048334   4.854561   0.433788   0.015694   0.000195
     H   19   0.022533   4.880595   0.124141   0.447058   0.004554   0.000201
     H   20   0.010560   0.439131   0.433360   4.866765   0.001122   0.000111


                  H 13       H 14       H 15       H 16       H 17       H 18
 ------------------------------------------------------------------------------
     H   13   5.416916
     H   14   0.559725   5.454488
     H   15   0.006166   0.010729   5.477618
     H   16   0.000117   0.000230   0.004916   5.255178
     H   17   0.002845   0.001706   0.005135   0.003975   5.459974
     H   18   0.000124   0.000072   0.000507   0.064359   0.000817   5.218039
     H   19   0.000164   0.000113   0.001698   0.009556   0.005776   0.007356
     H   20   0.000089   0.000146   0.000507   0.007524   0.003409   0.032028


                  H 19       H 20
 ------------------------------
     H   19   5.254187
     H   20   0.061695   5.231079


          HEAT OF FORMATION =      58.144007 KCALS/MOLE

          ZERO POINT ENERGY     104.885 KCAL/MOL


           NORMAL COORDINATE ANALYSIS (Total motion = 1 Angstrom)


   Root No.       1         2         3         4         5         6         7         8

                 1 A       2 A       3 A       4 A       5 A       6 A       7 A       8 A   

                  75.4     116.1     168.5     240.8     272.4     406.2     413.4     481.9
  
           1   -0.0013    0.0130    0.0026    0.0049   -0.0080    0.0051   -0.0081    0.0012
           2   -0.0027    0.0024   -0.0089    0.0204   -0.0178   -0.0254    0.0014    0.0317
           3   -0.0018   -0.0397   -0.0074   -0.0168   -0.0112   -0.0060    0.0356   -0.0151
           4   -0.0006    0.0102    0.0043   -0.0022    0.0094    0.0035   -0.0256   -0.0008
           5    0.0023   -0.0052    0.0175   -0.0341    0.0553   -0.0203    0.0094    0.0093
           6   -0.0070    0.0680   -0.0106   -0.0295   -0.0118   -0.0014    0.0067    0.0009
           7   -0.0021    0.0125   -0.0040    0.0091    0.0012   -0.0206   -0.0096    0.0196
           8   -0.0025    0.0020   -0.0079    0.0195   -0.0207   -0.0205    0.0055    0.0243
           9    0.0062   -0.0375    0.0185   -0.0152   -0.0169    0.0269    0.0405    0.0140
          10   -0.0013    0.0116    0.0016    0.0034   -0.0038    0.0096   -0.0227   -0.0047
          11   -0.0011   -0.0002    0.0022    0.0069   -0.0249    0.0277   -0.0080   -0.0220
          12    0.0025   -0.0041    0.0076    0.0357    0.0242   -0.0018   -0.0374   -0.0180
          13   -0.0005    0.0121    0.0063   -0.0007   -0.0034    0.0248   -0.0218   -0.0216
          14   -0.0016    0.0018    0.0017    0.0134   -0.0281    0.0077   -0.0059   -0.0045
          15    0.0003   -0.0376   -0.0444    0.0188    0.0394    0.0208   -0.0274    0.0076
          16    0.0041   -0.0155   -0.0302    0.0211   -0.0046    0.0101    0.0489    0.0146
          17    0.0026    0.0016   -0.0104    0.0021    0.0086    0.0081    0.0021    0.0042
          18   -0.0093   -0.0078    0.0298   -0.0267   -0.0259   -0.0256   -0.0153   -0.0190
          19   -0.0023    0.0122   -0.0051    0.0094   -0.0016   -0.0205   -0.0090    0.0240
          20   -0.0017    0.0005   -0.0044    0.0106   -0.0256    0.0134   -0.0052   -0.0071
          21    0.0074   -0.0175    0.0603    0.0477    0.0005   -0.0152    0.0010    0.0004
          22   -0.0025    0.0079    0.0177   -0.0016    0.0245    0.0000    0.0234   -0.0164
          23   -0.0019    0.0011    0.0020    0.0053    0.0007   -0.0053    0.0213   -0.0068
          24    0.0100   -0.0169   -0.0265   -0.0301   -0.0193    0.0038   -0.0328    0.0335
          25    0.0053   -0.0406   -0.0180   -0.0170   -0.0159   -0.0220    0.0143   -0.0289
          26    0.0044   -0.0013   -0.0050   -0.0162    0.0165    0.0049   -0.0145   -0.0212
          27   -0.0075    0.0373    0.0174    0.0099    0.0125    0.0281    0.0266    0.0154
          28    0.0009   -0.0220    0.0223   -0.0238   -0.0001    0.0079    0.0027    0.0207
          29    0.0013   -0.0021    0.0092   -0.0182    0.0143    0.0177   -0.0100   -0.0110
          30    0.0027    0.0326   -0.0384    0.0164    0.0140   -0.0204    0.0187   -0.0297
          31   -0.0063    0.0301    0.0342   -0.0183   -0.0377   -0.0158   -0.0183   -0.0314
          32   -0.0078    0.0045   -0.0269    0.0385   -0.0062   -0.0702   -0.0245    0.0499
          33   -0.0054   -0.0307    0.0020   -0.0210   -0.0205   -0.0270    0.0222   -0.0230
          34   -0.0474    0.0506   -0.0150   -0.0273   -0.0526    0.0306    0.0022   -0.0046
          35   -0.2174   -0.0373    0.0201   -0.0404    0.1016   -0.0462    0.0097    0.0265
          36   -0.1834    0.0710   -0.0207   -0.0491   -0.0192   -0.0018    0.0243    0.0099
          37    0.0526   -0.0328    0.0150    0.0601    0.0139    0.0214   -0.0776   -0.0332
          38    0.2584    0.0282    0.0269   -0.0629    0.0754   -0.0449    0.0286    0.0305
          39   -0.1255    0.0760   -0.0191   -0.0486   -0.0211   -0.0012    0.0245    0.0088
          40   -0.0062    0.0114    0.0149   -0.0434    0.0783   -0.0477   -0.0040    0.0395
          41   -0.0283   -0.0104    0.0200   -0.0408    0.0741   -0.0328    0.0121    0.0183
          42    0.2645    0.1190   -0.0106   -0.0581   -0.0334   -0.0020    0.0312    0.0098
          43    0.0005    0.0127    0.0116   -0.0049   -0.0050    0.0578   -0.0338   -0.0569
          44   -0.0016    0.0025    0.0073    0.0138   -0.0309    0.0067   -0.0040   -0.0103
          45    0.0009   -0.0448   -0.1009    0.0075    0.0724    0.0637   -0.0609    0.0361
          46    0.0070   -0.0206   -0.0669    0.0588   -0.0051    0.0114    0.1278    0.0369
          47    0.0049    0.0047   -0.0210    0.0084    0.0202    0.0202    0.0225   -0.0022
          48   -0.0163   -0.0149    0.0667   -0.0522   -0.0577   -0.0596   -0.0901   -0.0062
          49   -0.0031    0.0125   -0.0106    0.0139    0.0012   -0.0511    0.0017    0.0572
          50   -0.0015   -0.0003   -0.0028    0.0057   -0.0272    0.0347   -0.0110   -0.0293
          51    0.0138   -0.0041    0.1079    0.0951   -0.0002   -0.0540   -0.0240    0.0212
          52    0.0094   -0.0711   -0.0416   -0.0275   -0.0305   -0.0644    0.0243   -0.0896
          53    0.0083   -0.0019   -0.0145   -0.0240    0.0275   -0.0084   -0.0182   -0.0484
          54   -0.0133    0.0726    0.0470    0.0243    0.0260    0.0802    0.0163    0.0934
          55   -0.0052    0.0233    0.0367   -0.0023    0.0602    0.0309    0.0656   -0.0674
          56   -0.0043    0.0046    0.0105    0.0165    0.0023   -0.0015    0.0492   -0.0102
          57    0.0184   -0.0345   -0.0609   -0.0637   -0.0411   -0.0218   -0.1381    0.0680
          58    0.0006   -0.0310    0.0521   -0.0417    0.0039    0.0508    0.0015    0.0586
          59    0.0015   -0.0020    0.0280   -0.0299    0.0239    0.0456   -0.0176    0.0110
          60    0.0045    0.0642   -0.0857    0.0427    0.0301   -0.0851    0.0001   -0.0980


   Root No.       9        10        11        12        13        14        15        16

                 9 A      10 A      11 A      12 A      13 A      14 A      15 A      16 A   

                 517.5     552.8     580.1     656.4     705.2     756.9     824.7     858.8
  
           1    0.0092    0.0087   -0.0329   -0.0248    0.0350   -0.0111    0.0003    0.0081
           2    0.0078    0.0008    0.0118    0.0124    0.0021   -0.0037   -0.0060    0.0102
           3    0.0381    0.0007    0.0057   -0.0202   -0.0383    0.0202    0.0013    0.0134
           4    0.0492   -0.0141    0.0128    0.0614   -0.0239    0.0069   -0.0024    0.0021
           5   -0.0075    0.0011    0.0041   -0.0104    0.0005   -0.0002   -0.0001    0.0002
           6    0.0018    0.0031    0.0022    0.0012    0.0003   -0.0025    0.0027    0.0084
           7   -0.0058   -0.0033    0.0242   -0.0360   -0.0003   -0.0048   -0.0005   -0.0218
           8    0.0032    0.0061   -0.0068    0.0228    0.0224   -0.0086    0.0094   -0.0037
           9    0.0263   -0.0081    0.0587    0.0207    0.0500   -0.0014    0.0070   -0.0149
          10    0.0312   -0.0120    0.0097    0.0303   -0.0124    0.0032   -0.0010   -0.0000
          11   -0.0296   -0.0109    0.0122   -0.0187   -0.0069    0.0018   -0.0002   -0.0011
          12    0.0014    0.0780    0.0216    0.0021    0.0017   -0.0072    0.0020    0.0076
          13    0.0133   -0.0027   -0.0171   -0.0075    0.0167   -0.0056    0.0075    0.0110
          14   -0.0100   -0.0062    0.0369    0.0187   -0.0299    0.0088   -0.0053   -0.0103
          15   -0.0091   -0.0296   -0.0044    0.0015   -0.0017    0.0049   -0.0159   -0.0133
          16    0.0113    0.0200   -0.0382   -0.0149    0.0035    0.0174   -0.0200    0.0088
          17    0.0579   -0.0012    0.0040   -0.0457    0.0093    0.0083   -0.0060    0.0414
          18    0.0164   -0.0001   -0.0165   -0.0168    0.0023   -0.0140    0.0136    0.0098
          19    0.0045   -0.0041    0.0281   -0.0258    0.0051   -0.0082   -0.0000   -0.0306
          20   -0.0297   -0.0006    0.0156   -0.0311    0.0007   -0.0036   -0.0017   -0.0126
          21    0.0026   -0.0318   -0.0144   -0.0066    0.0013    0.0083    0.0073   -0.0260
          22   -0.0404   -0.0080    0.0340   -0.0121   -0.0068    0.0134    0.0107    0.0107
          23   -0.0201    0.0099   -0.0340    0.0658    0.0153    0.0033    0.0251    0.0219
          24   -0.0246    0.0116   -0.0057    0.0089   -0.0115   -0.0216   -0.0179    0.0209
          25   -0.0275    0.0097   -0.0413    0.0182    0.0086    0.0090   -0.0233   -0.0278
          26    0.0147   -0.0046   -0.0090   -0.0102    0.0042    0.0023   -0.0103   -0.0107
          27   -0.0147    0.0185   -0.0401    0.0068   -0.0169   -0.0098    0.0107   -0.0380
          28   -0.0577    0.0066    0.0193    0.0078   -0.0118    0.0112    0.0201    0.0349
          29    0.0149    0.0064   -0.0392   -0.0016   -0.0054    0.0049    0.0000   -0.0349
          30   -0.0237   -0.0082    0.0187    0.0121    0.0041   -0.0154   -0.0190    0.0125
          31    0.0231    0.0223   -0.0534   -0.0418    0.0488   -0.0538    0.0591    0.0672
          32   -0.0237   -0.0203   -0.0303   -0.0048   -0.0650   -0.0203   -0.0465    0.0111
          33    0.0341    0.0003   -0.0148   -0.0318   -0.0490   -0.0030    0.0145    0.0387
          34    0.0418   -0.1002   -0.0038    0.0593   -0.0458    0.0317   -0.0204   -0.0333
          35    0.0024    0.0217    0.0054   -0.0064    0.0096   -0.0072    0.0029   -0.0008
          36    0.0035   -0.0365   -0.0077    0.0015   -0.0068    0.0082   -0.0065   -0.0144
          37    0.0428    0.0688    0.0391    0.0720   -0.0187   -0.0132    0.0171    0.0593
          38    0.0041   -0.0070   -0.0010   -0.0081    0.0039    0.0012   -0.0036   -0.0167
          39    0.0010   -0.0339   -0.0082   -0.0039   -0.0040    0.0069   -0.0056   -0.0132
          40    0.0784   -0.0110    0.0067    0.0822   -0.0177    0.0051   -0.0051   -0.0175
          41   -0.0011    0.0065    0.0041   -0.0060    0.0029   -0.0020    0.0003   -0.0021
          42    0.0043   -0.0391   -0.0083   -0.0009   -0.0070    0.0095   -0.0076   -0.0174
          43   -0.0151   -0.0088   -0.0209   -0.0476    0.0298   -0.0120    0.0282    0.0066
          44   -0.0093    0.0063    0.0400    0.0139   -0.0396    0.0142   -0.0154   -0.0162
          45   -0.0490   -0.1753   -0.0419    0.0099    0.1151   -0.0602    0.1141    0.0490
          46    0.0536    0.0290   -0.0194   -0.0369   -0.0979   -0.0587    0.1106    0.0475
          47    0.0660    0.0003   -0.0012   -0.0524   -0.0251   -0.0200    0.0387    0.0250
          48   -0.0177   -0.0069   -0.0061    0.0073    0.1196    0.0816   -0.1402    0.0484
          49    0.0172    0.0082    0.0237   -0.0290    0.0395   -0.0246    0.0125   -0.0725
          50   -0.0357   -0.0034    0.0243   -0.0278   -0.0176    0.0079   -0.0075    0.0059
          51   -0.0400   -0.1576   -0.1484   -0.0321   -0.0809   -0.0236   -0.0392    0.1415
          52    0.0049   -0.0092   -0.0302    0.0116   -0.0248   -0.1136    0.0395   -0.0783
          53   -0.0281   -0.0213    0.0339    0.0224   -0.0189   -0.0481    0.0231   -0.0277
          54   -0.0400    0.0452   -0.0648    0.0045    0.0280    0.1460   -0.0718    0.0248
          55   -0.0460   -0.0201    0.0397   -0.0153   -0.0241   -0.0481   -0.0939    0.0344
          56   -0.0137    0.0030   -0.0139    0.0845    0.0351   -0.0370   -0.0136    0.0415
          57   -0.0401    0.0379   -0.0688   -0.0468   -0.0622    0.1297    0.1502   -0.0500
          58   -0.0498    0.0111    0.0347   -0.0151   -0.0506   -0.0859   -0.0432    0.0423
          59    0.0226    0.0022   -0.0080   -0.0379   -0.0333   -0.0476   -0.0366   -0.0230
          60   -0.0286   -0.0370    0.0598   -0.0230    0.0521    0.1660    0.0898    0.0275


   Root No.      17        18        19        20        21        22        23        24

                17 A      18 A      19 A      20 A      21 A      22 A      23 A      24 A   

                 864.7     905.6     934.7     959.2     967.8     984.7     998.0    1018.4
  
           1   -0.0121   -0.0125   -0.0215   -0.0014    0.0051   -0.0024    0.0061    0.0048
           2    0.0157   -0.0217   -0.0305   -0.0010   -0.0020   -0.0054    0.0068   -0.0025
           3   -0.0036    0.0160    0.0463    0.0036   -0.0036    0.0134   -0.0062   -0.0049
           4    0.0082   -0.0030   -0.0014   -0.0003   -0.0036    0.0006   -0.0007    0.0018
           5   -0.0029   -0.0026   -0.0004   -0.0037   -0.0484   -0.0136   -0.0017    0.0009
           6    0.0151    0.0123   -0.0003   -0.0013   -0.0092    0.0225    0.0078    0.0360
           7   -0.0023    0.0134    0.0154   -0.0018   -0.0021    0.0014   -0.0041    0.0022
           8   -0.0191    0.0118    0.0142    0.0000   -0.0014    0.0009   -0.0009    0.0011
           9   -0.0011    0.0219   -0.0348   -0.0088   -0.0065    0.0114    0.0223   -0.0192
          10    0.0021   -0.0007   -0.0009    0.0007    0.0031   -0.0012    0.0004    0.0000
          11   -0.0019    0.0004    0.0022   -0.0008   -0.0047    0.0009   -0.0000    0.0022
          12    0.0083    0.0052    0.0001    0.0004    0.0027   -0.0184   -0.0088   -0.0492
          13   -0.0291   -0.0022    0.0084   -0.0038   -0.0008    0.0188    0.0004   -0.0107
          14    0.0334    0.0062   -0.0011    0.0073    0.0127   -0.0212   -0.0034    0.0023
          15   -0.0517    0.0016   -0.0254   -0.0003    0.0082   -0.0135    0.0131    0.0305
          16    0.0177   -0.0075   -0.0069    0.0239   -0.0033    0.0040   -0.0128    0.0004
          17   -0.0021   -0.0137   -0.0031    0.0222    0.0011   -0.0023   -0.0140    0.0040
          18    0.0035   -0.0074   -0.0143   -0.0103    0.0051   -0.0137   -0.0019    0.0035
          19   -0.0026    0.0267    0.0193   -0.0041   -0.0045   -0.0033   -0.0043    0.0014
          20   -0.0034    0.0121    0.0053   -0.0016    0.0253    0.0133    0.0004    0.0034
          21   -0.0016   -0.0510    0.0290   -0.0017    0.0041    0.0020   -0.0073    0.0254
          22    0.0032   -0.0084   -0.0114    0.0159   -0.0017    0.0005    0.0152   -0.0043
          23   -0.0343    0.0035    0.0241    0.0128    0.0006    0.0034    0.0004    0.0010
          24   -0.0053   -0.0056    0.0093   -0.0243    0.0058   -0.0046   -0.0349    0.0106
          25    0.0276    0.0085    0.0046   -0.0196    0.0007   -0.0101    0.0176   -0.0026
          26    0.0059    0.0052    0.0040   -0.0090    0.0003   -0.0024    0.0088   -0.0010
          27    0.0130    0.0053   -0.0247    0.0176   -0.0053    0.0087   -0.0215    0.0004
          28   -0.0130   -0.0091   -0.0071   -0.0034    0.0046    0.0006   -0.0210    0.0055
          29    0.0129    0.0090   -0.0108   -0.0159   -0.0014    0.0020   -0.0064   -0.0011
          30   -0.0014   -0.0107    0.0189    0.0239   -0.0019   -0.0024    0.0326   -0.0054
          31    0.0171   -0.0241   -0.0124   -0.0616    0.0547   -0.1420    0.1354    0.0632
          32   -0.0109   -0.1267   -0.0719   -0.1360   -0.0599    0.2165    0.0725   -0.1323
          33    0.0030   -0.0187    0.0357   -0.0591    0.0020    0.0133    0.0674   -0.0149
          34   -0.0799   -0.0746   -0.0026   -0.0066   -0.1098   -0.1273   -0.0376   -0.1383
          35    0.0214    0.0199    0.0017    0.0064    0.0816    0.0332    0.0075    0.0200
          36   -0.0244   -0.0173    0.0002    0.0016    0.0123   -0.0261   -0.0090   -0.0392
          37    0.0948    0.0551   -0.0051   -0.0145   -0.1425    0.0896    0.0337    0.1740
          38   -0.0079   -0.0020    0.0024    0.0076    0.0864   -0.0008   -0.0036   -0.0276
          39   -0.0248   -0.0159    0.0003    0.0014    0.0084   -0.0252   -0.0081   -0.0366
          40    0.0225    0.0128    0.0030    0.0210    0.2679    0.0577    0.0035   -0.0195
          41    0.0056    0.0050    0.0006    0.0012    0.0146    0.0053    0.0013    0.0046
          42   -0.0307   -0.0209    0.0003    0.0017    0.0143   -0.0303   -0.0103   -0.0458
          43   -0.0820    0.0315    0.0967   -0.0148    0.0089    0.0982   -0.0267   -0.0803
          44    0.0004    0.0119   -0.0045    0.0058    0.0156   -0.0151   -0.0011    0.0054
          45    0.2665   -0.0291    0.1026    0.0051   -0.0087    0.0009   -0.0416   -0.0832
          46    0.0112   -0.0397   -0.0485   -0.0744    0.0177   -0.0509    0.0141    0.0021
          47   -0.0146   -0.0004    0.0056   -0.0228    0.0090   -0.0130    0.0027    0.0070
          48    0.0400   -0.0385   -0.0294    0.1368   -0.0213    0.0289   -0.0538   -0.0057
          49   -0.0341    0.0775    0.0847   -0.0164   -0.0675   -0.0295   -0.0267    0.0018
          50    0.0158   -0.0322   -0.0299    0.0049    0.0667    0.0310    0.0133    0.0077
          51    0.0062    0.2636   -0.0974    0.0234   -0.0082   -0.0095    0.0238   -0.0776
          52    0.0064   -0.0090   -0.0932    0.0915   -0.0154    0.0245   -0.0762    0.0064
          53   -0.0330    0.0058    0.0011    0.0123   -0.0043    0.0299    0.0148   -0.0072
          54    0.0502    0.0245    0.0871   -0.1159    0.0143   -0.0408    0.0845   -0.0082
          55    0.0547   -0.0458   -0.0446   -0.0671    0.0181   -0.0212   -0.0563    0.0184
          56   -0.0473    0.0156    0.0448   -0.0259    0.0069    0.0006   -0.0408    0.0124
          57    0.0078   -0.0238   -0.0365    0.1327   -0.0225    0.0146    0.1237   -0.0344
          58   -0.0057   -0.0446    0.0399    0.0712   -0.0039   -0.0038    0.0731   -0.0110
          59    0.0208   -0.0194    0.0022    0.0238   -0.0054    0.0012    0.0522   -0.0130
          60    0.0002    0.0223   -0.1101   -0.1143    0.0162    0.0090   -0.1190    0.0165


   Root No.      25        26        27        28        29        30        31        32

                25 A      26 A      27 A      28 A      29 A      30 A      31 A      32 A   

                1025.9    1040.0    1067.0    1116.6    1141.7    1152.2    1159.8    1191.7
  
           1   -0.0027    0.0050   -0.0022    0.0020    0.0033    0.0139   -0.0207    0.0042
           2   -0.0032   -0.0127   -0.0042    0.0125    0.0131   -0.0040    0.0069    0.0363
           3    0.0242    0.0062    0.0116    0.0065    0.0089    0.0007   -0.0201    0.0137
           4   -0.0042    0.0248    0.0135   -0.0028   -0.0070    0.0115    0.0227   -0.0009
           5    0.0001    0.0048    0.0013    0.0002    0.0019   -0.0098   -0.0003    0.0036
           6   -0.0028   -0.0048   -0.0012    0.0004    0.0001   -0.0006    0.0005    0.0005
           7   -0.0024    0.0093    0.0061   -0.0017    0.0051   -0.0249   -0.0029    0.0001
           8    0.0008    0.0054    0.0080    0.0072   -0.0062    0.0057    0.0020    0.0319
           9    0.0012   -0.0015    0.0035   -0.0076    0.0015   -0.0033    0.0001   -0.0025
          10    0.0026   -0.0150   -0.0112    0.0022    0.0072   -0.0127   -0.0315   -0.0008
          11    0.0012   -0.0102   -0.0058   -0.0023   -0.0024    0.0134   -0.0044   -0.0136
          12    0.0038    0.0080    0.0027   -0.0010    0.0002    0.0009   -0.0032   -0.0013
          13   -0.0035   -0.0154   -0.0006    0.0086    0.0114    0.0059   -0.0385    0.0013
          14    0.0134   -0.0371   -0.0305   -0.0043   -0.0048   -0.0033   -0.0122   -0.0087
          15    0.0024   -0.0089   -0.0049   -0.0013   -0.0016   -0.0020    0.0064   -0.0015
          16    0.0191    0.0003   -0.0013    0.0016   -0.0058    0.0051    0.0037    0.0048
          17   -0.0111    0.0071   -0.0248   -0.0178   -0.0030    0.0040    0.0134   -0.0099
          18   -0.0570   -0.0024   -0.0144   -0.0008   -0.0050    0.0092    0.0029    0.0043
          19    0.0018   -0.0001    0.0072   -0.0071    0.0085   -0.0302   -0.0069   -0.0040
          20   -0.0092    0.0490    0.0358   -0.0065   -0.0024    0.0254    0.0154   -0.0119
          21    0.0001    0.0005    0.0004    0.0012   -0.0001    0.0003    0.0008   -0.0000
          22   -0.0064   -0.0032    0.0012   -0.0074   -0.0048   -0.0031    0.0039   -0.0108
          23   -0.0033   -0.0059    0.0182   -0.0195    0.0025   -0.0102   -0.0137   -0.0097
          24    0.0065   -0.0028    0.0062   -0.0065    0.0003   -0.0079   -0.0027   -0.0042
          25   -0.0243    0.0071   -0.0217    0.0047   -0.0027    0.0031    0.0092    0.0070
          26   -0.0064    0.0103   -0.0238    0.0053    0.0049   -0.0010    0.0103   -0.0111
          27    0.0212    0.0121   -0.0231    0.0023    0.0012    0.0006    0.0115    0.0011
          28    0.0064    0.0106   -0.0195    0.0036   -0.0042    0.0070    0.0063   -0.0035
          29    0.0074   -0.0166    0.0369    0.0028   -0.0016   -0.0171   -0.0076   -0.0132
          30   -0.0166   -0.0026    0.0025   -0.0018   -0.0050   -0.0011    0.0003   -0.0074
          31    0.2829    0.0080    0.0157   -0.0286   -0.0191   -0.0369    0.0758   -0.0161
          32    0.0637   -0.0040   -0.0391   -0.0530   -0.0283    0.0173   -0.0200   -0.0783
          33    0.1638    0.0097    0.0088   -0.0250   -0.0123   -0.0150    0.0146   -0.0278
          34    0.0007    0.0926    0.0447   -0.0082   -0.0176    0.0189    0.0802    0.0046
          35    0.0023   -0.0288   -0.0145    0.0008    0.0035   -0.0010   -0.0235   -0.0054
          36    0.0021    0.0124    0.0060   -0.0020   -0.0040    0.0075    0.0152   -0.0017
          37   -0.0232    0.0411    0.0303   -0.0047   -0.0172    0.0206    0.0804    0.0049
          38    0.0058   -0.0193   -0.0113   -0.0000    0.0026    0.0003   -0.0198   -0.0057
          39    0.0039   -0.0016   -0.0032    0.0009    0.0036   -0.0066   -0.0154    0.0008
          40   -0.0028    0.0100    0.0143   -0.0082   -0.0247    0.0709    0.0657   -0.0200
          41    0.0002   -0.0021   -0.0003   -0.0008   -0.0013    0.0022    0.0054   -0.0011
          42    0.0034    0.0077    0.0026   -0.0008   -0.0010    0.0024    0.0026   -0.0007
          43   -0.0074   -0.1482   -0.0396    0.0115   -0.0230   -0.0888    0.2563    0.1073
          44    0.0128   -0.0550   -0.0371   -0.0044   -0.0085   -0.0130    0.0178    0.0014
          45    0.0113    0.0178    0.0048    0.0013    0.0015    0.0034   -0.0179   -0.0002
          46   -0.1465   -0.0878    0.1086    0.1332    0.0907   -0.0301    0.0726   -0.1413
          47   -0.0418    0.0339   -0.0757   -0.0612   -0.0350    0.0214   -0.0126    0.0449
          48    0.0658   -0.0539    0.0929    0.0884    0.0640   -0.0281    0.0621   -0.1117
          49    0.0356   -0.0962   -0.0013   -0.0272   -0.0380    0.2367    0.0347   -0.0908
          50   -0.0311    0.1121    0.0429    0.0057    0.0274   -0.1457   -0.0109    0.0429
          51    0.0001    0.0089    0.0122   -0.0008    0.0054   -0.0015   -0.0039    0.0033
          52    0.0355    0.0005   -0.0077   -0.0540   -0.0692   -0.0272    0.0121   -0.0146
          53    0.0999    0.0565   -0.0750    0.1994    0.2313    0.1003    0.0102    0.0589
          54   -0.0800    0.0068   -0.0265    0.0167    0.0115    0.0070    0.0106    0.0059
          55    0.0047   -0.0898    0.1529   -0.1600    0.1174    0.0902   -0.0042    0.1436
          56    0.0053    0.0197   -0.0207    0.0269   -0.0324   -0.0419   -0.0144   -0.0513
          57   -0.0247   -0.0432    0.0634   -0.0796    0.0475    0.0421   -0.0010    0.0508
          58   -0.0175   -0.0086    0.0232    0.1032   -0.1309    0.0361   -0.0216    0.0529
          59    0.0055   -0.0411    0.0989    0.1521   -0.1822    0.0229   -0.0486    0.0684
          60    0.0585   -0.0096    0.0378    0.1044   -0.1229    0.0268   -0.0240    0.0502


   Root No.      33        34        35        36        37        38        39        40

                33 A      34 A      35 A      36 A      37 A      38 A      39 A      40 A   

                1281.6    1353.5    1377.8    1389.7    1392.9    1426.4    1479.4    1511.4
  
           1   -0.0364    0.0224    0.0220    0.0002    0.0023    0.0946   -0.0464    0.0654
           2    0.0742    0.0199    0.0265   -0.0005    0.0072   -0.0434   -0.0312    0.0378
           3    0.0231    0.0111    0.0052   -0.0000    0.0001    0.0357   -0.0216    0.0318
           4   -0.0015   -0.0396    0.0280    0.0010    0.0100    0.0092    0.0437    0.0559
           5   -0.0048   -0.0032    0.0067    0.0078   -0.0342    0.0011   -0.0166   -0.0165
           6   -0.0001   -0.0016    0.0018   -0.0433   -0.0059    0.0007   -0.0005    0.0001
           7   -0.0079    0.0037   -0.0057    0.0001   -0.0034   -0.0017    0.0145   -0.0037
           8    0.0097   -0.0121   -0.0290    0.0005   -0.0084    0.0844    0.0692   -0.0546
           9   -0.0087   -0.0018   -0.0024   -0.0001   -0.0005   -0.0070   -0.0009    0.0001
          10    0.0053   -0.0174   -0.0010    0.0001    0.0059   -0.0057   -0.0370   -0.0569
          11    0.0063    0.0204   -0.0163   -0.0002   -0.0104   -0.0238    0.0737    0.0914
          12   -0.0004    0.0012   -0.0009   -0.0008   -0.0006   -0.0007    0.0036    0.0057
          13    0.0587    0.0037   -0.0193    0.0000   -0.0062   -0.0356    0.0078   -0.0400
          14   -0.0395    0.0033    0.0008    0.0004   -0.0022    0.0331   -0.0257   -0.0291
          15   -0.0036   -0.0013   -0.0007   -0.0002   -0.0002   -0.0004   -0.0010   -0.0056
          16   -0.0302    0.0052    0.0146   -0.0002    0.0032   -0.0333    0.0286   -0.0288
          17   -0.0133   -0.0132   -0.0121    0.0001   -0.0017   -0.0222    0.0071   -0.0146
          18   -0.0325    0.0022    0.0102   -0.0002    0.0023   -0.0301    0.0236   -0.0269
          19   -0.0289    0.0016   -0.0153    0.0000   -0.0061   -0.0442   -0.0044    0.0433
          20    0.0100   -0.0222    0.0220   -0.0002    0.0131   -0.0128   -0.0488   -0.0436
          21    0.0009   -0.0011    0.0008    0.0001    0.0005   -0.0017   -0.0033   -0.0010
          22    0.0201    0.0167    0.0232   -0.0001    0.0041    0.0212    0.0299   -0.0241
          23   -0.0375   -0.0033   -0.0033   -0.0001   -0.0003   -0.0449   -0.0323    0.0308
          24    0.0015    0.0077    0.0090   -0.0001    0.0013   -0.0016    0.0089   -0.0040
          25    0.0079   -0.0106   -0.0127    0.0000   -0.0019   -0.0171   -0.0041    0.0012
          26    0.0290   -0.0172   -0.0300    0.0004   -0.0061    0.0360   -0.0319    0.0336
          27    0.0166   -0.0136   -0.0188    0.0001   -0.0032   -0.0041   -0.0113    0.0092
          28    0.0147   -0.0045   -0.0033    0.0000    0.0000    0.0181   -0.0033   -0.0046
          29    0.0047    0.0275    0.0384   -0.0003    0.0070    0.0107    0.0335   -0.0322
          30    0.0084    0.0061    0.0105   -0.0001    0.0023    0.0129    0.0070   -0.0113
          31    0.0241   -0.0211   -0.0104    0.0001    0.0007   -0.0559    0.0189   -0.0312
          32   -0.0867   -0.0180   -0.0207    0.0000   -0.0052    0.0129    0.0061   -0.0241
          33    0.0017   -0.0181   -0.0209    0.0001   -0.0037   -0.0163    0.0160   -0.0254
          34   -0.0280    0.1416   -0.0779   -0.1053    0.0394   -0.0022   -0.0602   -0.0630
          35    0.0027   -0.0202   -0.0240    0.2096    0.2344    0.0035    0.0405    0.0412
          36   -0.0091    0.0788   -0.0714    0.0612    0.1839   -0.0031   -0.0179   -0.0249
          37   -0.0253    0.1482   -0.0840    0.0906    0.0578   -0.0030   -0.0584   -0.0605
          38    0.0003   -0.0053   -0.0360   -0.2570    0.2463    0.0044    0.0336    0.0328
          39    0.0074   -0.0726    0.0592    0.0386   -0.1204    0.0037    0.0226    0.0292
          40    0.0017    0.1575   -0.0588   -0.0013   -0.1949   -0.0276   -0.0151   -0.0141
          41   -0.0038    0.0323   -0.0117   -0.0457   -0.0562   -0.0058   -0.0227   -0.0241
          42   -0.0006    0.0106   -0.0057    0.4278    0.0092   -0.0028   -0.0019   -0.0022
          43   -0.0299   -0.0138    0.0594   -0.0003    0.0242    0.0247   -0.0631    0.0021
          44   -0.0490    0.0032    0.0083    0.0004   -0.0000    0.0391   -0.0345   -0.0268
          45   -0.0061    0.0025    0.0023    0.0007    0.0002    0.0140   -0.0074   -0.0009
          46    0.0155   -0.0476   -0.0675    0.0008   -0.0135    0.0632   -0.0221    0.0138
          47   -0.0321    0.0058    0.0171   -0.0003    0.0042   -0.0548    0.0223   -0.0281
          48    0.0092   -0.0413   -0.0543    0.0006   -0.0103    0.0267   -0.0083   -0.0013
          49    0.0496   -0.0172    0.0459   -0.0006    0.0204   -0.0488   -0.0591   -0.0150
          50   -0.0412   -0.0128   -0.0178    0.0002   -0.0032   -0.0156   -0.0172   -0.0075
          51    0.0024    0.0007    0.0012    0.0003    0.0006    0.0025   -0.0044    0.0023
          52    0.0652   -0.0226   -0.0344    0.0003   -0.0060    0.0189   -0.0307    0.0257
          53   -0.1600    0.0164    0.0355   -0.0005    0.0066   -0.0876    0.0496   -0.0446
          54    0.0069   -0.0132   -0.0171    0.0001   -0.0028   -0.0146   -0.0056    0.0035
          55   -0.0565   -0.0602   -0.0860    0.0007   -0.0170    0.0017   -0.0173    0.0164
          56   -0.0179    0.0198    0.0280   -0.0003    0.0055   -0.0417   -0.0184    0.0201
          57   -0.0334   -0.0250   -0.0339    0.0002   -0.0065   -0.0117   -0.0132    0.0146
          58   -0.0383   -0.0401   -0.0489    0.0003   -0.0079   -0.0354   -0.0443    0.0342
          59   -0.0748   -0.0213   -0.0242   -0.0000   -0.0039   -0.0717   -0.0234    0.0237
          60   -0.0408   -0.0300   -0.0353    0.0002   -0.0055   -0.0437   -0.0346    0.0280


   Root No.      41        42        43        44        45        46        47        48

                41 A      42 A      43 A      44 A      45 A      46 A      47 A      48 A   

                1788.0    1811.8    1824.7    1860.1    2836.4    3055.7    3062.7    3069.6
  
           1    0.0024   -0.0119    0.0146   -0.0151    0.0284    0.0002    0.0000   -0.0000
           2   -0.0020   -0.0009   -0.0017    0.0049    0.0182   -0.0001    0.0001    0.0000
           3   -0.0000   -0.0068    0.0090   -0.0091   -0.0646    0.0002    0.0000   -0.0001
           4   -0.0169   -0.0255   -0.0346   -0.0114    0.0001   -0.0000   -0.0000    0.0011
           5    0.0025    0.0032    0.0014   -0.0015   -0.0000    0.0000   -0.0000    0.0033
           6   -0.0002   -0.0003   -0.0007   -0.0004   -0.0001    0.0000    0.0000   -0.0572
           7   -0.0931   -0.0929    0.0238    0.1311    0.0013   -0.0002   -0.0001   -0.0000
           8    0.0110    0.0247    0.0111   -0.0238    0.0009   -0.0001    0.0000    0.0000
           9   -0.0053   -0.0101    0.0000    0.0153   -0.0003   -0.0001   -0.0000   -0.0000
          10    0.0506    0.0821    0.1233    0.0495   -0.0010    0.0000   -0.0000   -0.0001
          11    0.0239    0.0284    0.0598    0.0350   -0.0006   -0.0000   -0.0000   -0.0000
          12    0.0028    0.0045    0.0074    0.0034   -0.0002   -0.0000   -0.0000   -0.0001
          13   -0.0323   -0.0490   -0.0838   -0.0375    0.0015    0.0000    0.0000    0.0000
          14   -0.0306   -0.0441   -0.0616   -0.0241   -0.0002    0.0000    0.0001   -0.0000
          15   -0.0028   -0.0063   -0.0057   -0.0031   -0.0005    0.0000    0.0000   -0.0002
          16   -0.0071    0.0750   -0.0621    0.0543   -0.0012    0.0020    0.0013   -0.0000
          17    0.0149   -0.0665    0.0543   -0.0496    0.0003    0.0139    0.0128   -0.0000
          18   -0.0030    0.0404   -0.0354    0.0301   -0.0014    0.0057    0.0048   -0.0000
          19    0.0782    0.0510   -0.0415   -0.0919   -0.0009    0.0001   -0.0000    0.0000
          20    0.0000    0.0097    0.0031   -0.0042    0.0001    0.0000   -0.0001    0.0000
          21    0.0033    0.0025   -0.0012   -0.0041   -0.0002    0.0000   -0.0000   -0.0000
          22   -0.1037    0.0620    0.0349   -0.0780   -0.0002    0.0005   -0.0022   -0.0000
          23   -0.0399   -0.0077    0.0052    0.0146    0.0001    0.0074   -0.0196   -0.0000
          24   -0.0645    0.0274    0.0198   -0.0340   -0.0002    0.0020   -0.0060   -0.0000
          25    0.0008   -0.0561    0.0517   -0.0450    0.0006   -0.0258   -0.0113   -0.0000
          26   -0.0387    0.0949   -0.0705    0.0597   -0.0009   -0.0055   -0.0030   -0.0000
          27   -0.0088   -0.0186    0.0208   -0.0183   -0.0001   -0.0221   -0.0098   -0.0000
          28    0.1153   -0.0321   -0.0349    0.0422    0.0001    0.0158   -0.0206   -0.0000
          29    0.0724   -0.0352   -0.0041    0.0104    0.0004   -0.0130    0.0179    0.0000
          30    0.0817   -0.0267   -0.0201    0.0257    0.0003    0.0047   -0.0059    0.0000
          31   -0.0057   -0.0073    0.0015    0.0105   -0.3445    0.0004    0.0001    0.0000
          32    0.0050   -0.0040   -0.0078   -0.0174   -0.2208    0.0004    0.0003   -0.0001
          33    0.0008    0.0046    0.0013   -0.0031    0.8044   -0.0002    0.0002    0.0001
          34   -0.0043   -0.0059   -0.0116   -0.0063    0.0001    0.0000    0.0000   -0.1927
          35   -0.0021   -0.0038   -0.0042   -0.0008    0.0000    0.0000    0.0001   -0.2293
          36    0.0019    0.0034    0.0043    0.0013   -0.0000   -0.0000   -0.0001    0.3121
          37   -0.0035   -0.0051   -0.0101   -0.0054   -0.0002   -0.0000   -0.0000    0.1855
          38   -0.0017   -0.0027   -0.0028   -0.0003   -0.0000   -0.0000    0.0000    0.1597
          39   -0.0028   -0.0046   -0.0061   -0.0019   -0.0001   -0.0000    0.0000    0.3987
          40    0.0093    0.0128    0.0269    0.0150   -0.0000   -0.0000   -0.0000   -0.0052
          41    0.0083    0.0111    0.0138    0.0036   -0.0001   -0.0000    0.0001    0.0305
          42    0.0012    0.0014    0.0019    0.0006   -0.0000   -0.0000    0.0000   -0.0255
          43    0.0161    0.0280    0.0379    0.0129    0.0008    0.0001    0.0001   -0.0000
          44   -0.0354   -0.0515   -0.0701   -0.0267    0.0042    0.0001   -0.0004    0.0003
          45   -0.0047   -0.0055   -0.0059   -0.0015   -0.0006    0.0001    0.0000    0.0004
          46   -0.0061   -0.0201    0.0214   -0.0217    0.0013   -0.0163   -0.0138    0.0000
          47    0.0162   -0.0492    0.0380   -0.0370    0.0026   -0.1740   -0.1563    0.0002
          48    0.0012   -0.0321    0.0299   -0.0283   -0.0009   -0.0646   -0.0573    0.0001
          49    0.0238    0.0351    0.0245   -0.0075   -0.0024    0.0000    0.0002   -0.0002
          50    0.0543    0.0385   -0.0421   -0.0805   -0.0033    0.0001    0.0001   -0.0005
          51    0.0023   -0.0047    0.0016    0.0024   -0.0009   -0.0000    0.0001   -0.0002
          52    0.0004   -0.0333    0.0284   -0.0246    0.0026    0.2957    0.1321    0.0002
          53   -0.0300   -0.0230    0.0400   -0.0386    0.0006    0.0728    0.0357    0.0001
          54   -0.0063   -0.0355    0.0363   -0.0317    0.0009    0.2566    0.1157    0.0002
          55    0.0050   -0.0151   -0.0076    0.0321    0.0001   -0.0120    0.0340    0.0000
          56   -0.0938    0.0141    0.0247   -0.0187   -0.0005   -0.0873    0.2336    0.0001
          57   -0.0236    0.0099    0.0024   -0.0018   -0.0003   -0.0280    0.0756    0.0000
          58    0.0346   -0.0212   -0.0085    0.0173    0.0000   -0.1796    0.2390    0.0000
          59   -0.0828   -0.0079    0.0447   -0.0383    0.0001    0.1555   -0.2125   -0.0000
          60   -0.0072   -0.0097    0.0073   -0.0044    0.0001   -0.0516    0.0668    0.0000


   Root No.      49        50        51        52        53        54

                49 A      50 A      51 A      52 A      53 A      54 A   

                3077.8    3079.1    3083.5    3138.9    3144.9    3167.7
  
           1    0.0001   -0.0000   -0.0003    0.0006   -0.0009    0.0000
           2   -0.0001    0.0000    0.0004    0.0004   -0.0005   -0.0000
           3    0.0002    0.0000   -0.0003   -0.0001    0.0002    0.0000
           4   -0.0000   -0.0082   -0.0000   -0.0000    0.0002    0.0242
           5   -0.0002   -0.0504   -0.0001   -0.0001    0.0006   -0.0052
           6    0.0000   -0.0030   -0.0000   -0.0000    0.0001   -0.0001
           7   -0.0004    0.0000   -0.0010    0.0045   -0.0024    0.0001
           8    0.0004    0.0000    0.0001    0.0001    0.0010    0.0000
           9   -0.0000    0.0000   -0.0003    0.0003   -0.0001    0.0000
          10    0.0000   -0.0004    0.0000    0.0006    0.0042    0.0002
          11    0.0000   -0.0002   -0.0000    0.0016    0.0020   -0.0000
          12   -0.0000   -0.0000   -0.0000    0.0001    0.0003    0.0000
          13   -0.0001    0.0005    0.0001    0.0011    0.0023   -0.0002
          14   -0.0001   -0.0004   -0.0001   -0.0228   -0.0562    0.0005
          15   -0.0001   -0.0000    0.0000   -0.0021   -0.0051    0.0000
          16   -0.0003    0.0000   -0.0001   -0.0000    0.0001   -0.0000
          17   -0.0304    0.0001    0.0195   -0.0000   -0.0001   -0.0000
          18   -0.0092    0.0000    0.0056   -0.0000   -0.0000   -0.0000
          19    0.0001   -0.0002    0.0002   -0.0334    0.0136   -0.0003
          20   -0.0001    0.0003   -0.0000   -0.0465    0.0201   -0.0002
          21   -0.0000    0.0000    0.0000   -0.0021    0.0009   -0.0000
          22   -0.0051    0.0001   -0.0057   -0.0001    0.0001   -0.0000
          23   -0.0230    0.0002   -0.0239    0.0001   -0.0001    0.0000
          24   -0.0084    0.0001   -0.0089    0.0000    0.0000    0.0000
          25   -0.0119    0.0000    0.0129    0.0000   -0.0000   -0.0000
          26    0.0001   -0.0000    0.0015    0.0000   -0.0000   -0.0000
          27   -0.0095    0.0000    0.0106    0.0000   -0.0000   -0.0000
          28    0.0093   -0.0001    0.0169   -0.0001   -0.0000   -0.0000
          29   -0.0054    0.0001   -0.0122   -0.0000    0.0001    0.0000
          30    0.0034   -0.0000    0.0055   -0.0001    0.0000   -0.0000
          31    0.0003   -0.0000   -0.0004   -0.0001    0.0018   -0.0000
          32   -0.0003    0.0000    0.0002   -0.0006   -0.0004    0.0000
          33   -0.0010    0.0000    0.0010    0.0007   -0.0031    0.0000
          34    0.0005    0.1132    0.0002    0.0002   -0.0036   -0.1248
          35    0.0006    0.1158    0.0002   -0.0001   -0.0039   -0.1636
          36   -0.0010   -0.2102   -0.0004   -0.0003    0.0064    0.2397
          37    0.0003    0.0811    0.0002    0.0003   -0.0033   -0.1079
          38    0.0002    0.0480    0.0001    0.0001   -0.0024   -0.1029
          39    0.0007    0.1974    0.0005    0.0008   -0.0074   -0.2745
          40   -0.0004   -0.0952   -0.0003    0.0002   -0.0005   -0.0553
          41    0.0018    0.4362    0.0014   -0.0012   -0.0004    0.3291
          42    0.0002    0.0488    0.0001   -0.0001   -0.0000    0.0362
          43   -0.0003    0.0001    0.0001   -0.0255   -0.0600    0.0010
          44    0.0003    0.0059    0.0008    0.2655    0.6206   -0.0060
          45   -0.0001    0.0005    0.0001    0.0239    0.0557   -0.0005
          46    0.0272   -0.0001   -0.0166    0.0001    0.0004    0.0000
          47    0.3335   -0.0010   -0.2062   -0.0006    0.0001    0.0001
          48    0.1204   -0.0003   -0.0743   -0.0001    0.0002    0.0000
          49    0.0005   -0.0015    0.0001    0.3450   -0.1404    0.0021
          50    0.0005   -0.0017   -0.0001    0.5376   -0.2189    0.0029
          51    0.0000   -0.0001    0.0001    0.0226   -0.0093    0.0001
          52    0.1177   -0.0001   -0.1308   -0.0003    0.0005    0.0001
          53    0.0265   -0.0000   -0.0326   -0.0001    0.0001    0.0000
          54    0.1013   -0.0001   -0.1136   -0.0003    0.0005    0.0001
          55    0.0406   -0.0004    0.0415   -0.0003    0.0000   -0.0000
          56    0.2628   -0.0027    0.2664   -0.0005   -0.0005   -0.0001
          57    0.0862   -0.0009    0.0876   -0.0003   -0.0000   -0.0000
          58   -0.0869    0.0011   -0.1686    0.0002    0.0008    0.0001
          59    0.0736   -0.0010    0.1475   -0.0001   -0.0008   -0.0001
          60   -0.0255    0.0003   -0.0478   -0.0000    0.0003    0.0000


           MASS-WEIGHTED COORDINATE ANALYSIS (NORMAL COORDINATES)


   Root No.       1         2         3         4         5         6         7         8

                 1 A       2 A       3 A       4 A       5 A       6 A       7 A       8 A   

                  75.4     116.1     168.5     240.8     272.4     406.2     413.4     481.9
  
           1   -0.0092    0.0920    0.0198    0.0392   -0.0629    0.0448   -0.0586    0.0100
           2   -0.0190    0.0170   -0.0678    0.1613   -0.1399   -0.2203    0.0103    0.2626
           3   -0.0126   -0.2809   -0.0568   -0.1329   -0.0883   -0.0523    0.2565   -0.1254
           4   -0.0045    0.0719    0.0325   -0.0171    0.0743    0.0303   -0.1846   -0.0070
           5    0.0158   -0.0365    0.1337   -0.2699    0.4354   -0.1761    0.0674    0.0769
           6   -0.0488    0.4817   -0.0808   -0.2332   -0.0932   -0.0126    0.0481    0.0072
           7   -0.0144    0.0883   -0.0308    0.0723    0.0092   -0.1791   -0.0691    0.1622
           8   -0.0174    0.0139   -0.0602    0.1546   -0.1631   -0.1783    0.0394    0.2012
           9    0.0431   -0.2655    0.1411   -0.1205   -0.1334    0.2338    0.2917    0.1161
          10   -0.0088    0.0818    0.0120    0.0272   -0.0295    0.0833   -0.1636   -0.0390
          11   -0.0074   -0.0011    0.0168    0.0548   -0.1965    0.2410   -0.0576   -0.1817
          12    0.0172   -0.0287    0.0580    0.2829    0.1904   -0.0157   -0.2697   -0.1491
          13   -0.0032    0.0858    0.0483   -0.0059   -0.0271    0.2158   -0.1567   -0.1789
          14   -0.0112    0.0128    0.0130    0.1057   -0.2212    0.0668   -0.0423   -0.0372
          15    0.0023   -0.2660   -0.3392    0.1488    0.3106    0.1809   -0.1971    0.0629
          16    0.0286   -0.1099   -0.2304    0.1674   -0.0364    0.0875    0.3524    0.1212
          17    0.0182    0.0114   -0.0797    0.0166    0.0674    0.0707    0.0150    0.0349
          18   -0.0644   -0.0551    0.2273   -0.2112   -0.2038   -0.2224   -0.1102   -0.1575
          19   -0.0159    0.0863   -0.0389    0.0744   -0.0123   -0.1778   -0.0645    0.1983
          20   -0.0120    0.0038   -0.0338    0.0842   -0.2019    0.1166   -0.0376   -0.0590
          21    0.0511   -0.1237    0.4607    0.3781    0.0036   -0.1320    0.0074    0.0036
          22   -0.0172    0.0561    0.1350   -0.0125    0.1929    0.0002    0.1687   -0.1359
          23   -0.0135    0.0075    0.0153    0.0419    0.0053   -0.0461    0.1536   -0.0564
          24    0.0694   -0.1195   -0.2021   -0.2384   -0.1524    0.0327   -0.2359    0.2770
          25    0.0369   -0.2877   -0.1376   -0.1346   -0.1251   -0.1910    0.1029   -0.2389
          26    0.0304   -0.0095   -0.0379   -0.1286    0.1299    0.0430   -0.1046   -0.1752
          27   -0.0521    0.2640    0.1327    0.0781    0.0986    0.2438    0.1919    0.1274
          28    0.0065   -0.1560    0.1706   -0.1886   -0.0009    0.0687    0.0192    0.1710
          29    0.0090   -0.0150    0.0699   -0.1442    0.1124    0.1536   -0.0719   -0.0910
          30    0.0189    0.2310   -0.2931    0.1302    0.1106   -0.1771    0.1349   -0.2455
          31   -0.0127    0.0618    0.0757   -0.0421   -0.0859   -0.0397   -0.0382   -0.0752
          32   -0.0157    0.0092   -0.0596    0.0883   -0.0142   -0.1768   -0.0511    0.1197
          33   -0.0108   -0.0629    0.0044   -0.0482   -0.0468   -0.0680    0.0462   -0.0550
          34   -0.0955    0.1037   -0.0331   -0.0627   -0.1201    0.0771    0.0046   -0.0110
          35   -0.4375   -0.0766    0.0445   -0.0926    0.2318   -0.1163    0.0203    0.0635
          36   -0.3691    0.1456   -0.0458   -0.1126   -0.0439   -0.0045    0.0507    0.0237
          37    0.1058   -0.0672    0.0332    0.1379    0.0318    0.0538   -0.1619   -0.0796
          38    0.5200    0.0580    0.0594   -0.1442    0.1720   -0.1131    0.0596    0.0731
          39   -0.2526    0.1559   -0.0423   -0.1116   -0.0482   -0.0030    0.0512    0.0212
          40   -0.0124    0.0234    0.0331   -0.0995    0.1786   -0.1201   -0.0084    0.0946
          41   -0.0569   -0.0213    0.0443   -0.0935    0.1690   -0.0826    0.0252    0.0439
          42    0.5324    0.2441   -0.0235   -0.1333   -0.0762   -0.0050    0.0651    0.0235
          43    0.0010    0.0262    0.0256   -0.0113   -0.0114    0.1454   -0.0706   -0.1365
          44   -0.0032    0.0052    0.0162    0.0317   -0.0705    0.0170   -0.0084   -0.0246
          45    0.0019   -0.0919   -0.2233    0.0172    0.1653    0.1604   -0.1270    0.0865
          46    0.0142   -0.0422   -0.1480    0.1349   -0.0116    0.0286    0.2667    0.0884
          47    0.0099    0.0096   -0.0464    0.0193    0.0462    0.0508    0.0470   -0.0052
          48   -0.0328   -0.0305    0.1477   -0.1196   -0.1316   -0.1501   -0.1880   -0.0149
          49   -0.0063    0.0257   -0.0234    0.0318    0.0028   -0.1287    0.0035    0.1371
[...]
 REDUCED MASS        0.4274         C  2 -- C  4          +5.2% ( 19.8%)      0.0%
 EFFECTIVE MASS      1.5789
 FORCE CONSTANT      0.4863

 VIBRATION         37   37A           ATOM PAIR      ENERGY CONTRIBUTION    RADIAL
 FREQUENCY          1392.85         C  2 -- H 12         +35.7% ( 54.4%)      0.4%
 TRANSITION DIPOLE   0.0814         C  2 -- H 13         +31.4% ( 51.0%)      1.0%
 TRAVEL (Ang.)       0.3741         C  2 -- H 14         +16.5% ( 37.0%)     22.4%
 REDUCED MASS        0.3459         C  2 -- C  4          +4.8% ( 20.0%)     10.0%
 EFFECTIVE MASS      1.9249
 FORCE CONSTANT      0.3953

 VIBRATION         38   38A           ATOM PAIR      ENERGY CONTRIBUTION    RADIAL
 FREQUENCY          1426.36         C  1 -- C  3         +15.6% ( 65.2%)     35.8%
 TRANSITION DIPOLE   0.2797         C  1 -- C  5         +13.6% ( 60.8%)     90.5%
 TRAVEL (Ang.)       0.1451         C  1 -- C  6         +13.5% ( 60.5%)     81.5%
 REDUCED MASS        2.2445         C  3 -- C  8          +9.9% ( 51.9%)     63.9%
 EFFECTIVE MASS     11.2044
 FORCE CONSTANT      2.6905

 VIBRATION         39   39A           ATOM PAIR      ENERGY CONTRIBUTION    RADIAL
 FREQUENCY          1479.43         C  4 -- C  7         +11.3% ( 54.4%)     97.7%
 TRANSITION DIPOLE   0.2620         C  3 -- C  4         +10.0% ( 51.0%)     78.4%
 TRAVEL (Ang.)       0.1751         C  2 -- C  4          +9.9% ( 50.9%)     60.6%
 REDUCED MASS        1.4864         C  1 -- C  3          +9.1% ( 48.8%)     89.1%
 EFFECTIVE MASS     11.1774
 FORCE CONSTANT      1.9168

 VIBRATION         40   40A           ATOM PAIR      ENERGY CONTRIBUTION    RADIAL
 FREQUENCY          1511.45         C  4 -- C  7         +13.1% ( 58.9%)     94.9%
 TRANSITION DIPOLE   0.7204         C  2 -- C  4         +12.1% ( 56.6%)     68.0%
 TRAVEL (Ang.)       0.1553         C  4 -- C  5         +10.4% ( 52.3%)     33.5%
 REDUCED MASS        1.8492         C  3 -- C  4          +9.6% ( 50.3%)     62.6%
 EFFECTIVE MASS     11.4995
 FORCE CONSTANT      2.4889

 VIBRATION         41   41A           ATOM PAIR      ENERGY CONTRIBUTION    RADIAL
 FREQUENCY          1787.96         C  8 -- C 10         +28.0% ( 80.9%)     98.6%
 TRANSITION DIPOLE   0.1667         C  9 -- C 10         +11.9% ( 52.7%)     62.9%
 TRAVEL (Ang.)       0.1146         C 10 -- H 20         +10.3% ( 49.0%)      4.0%
 REDUCED MASS        2.8705         C  3 -- C  7         +10.1% ( 48.7%)     97.7%
 EFFECTIVE MASS     11.9300
 FORCE CONSTANT      5.4065

 VIBRATION         42   42A           ATOM PAIR      ENERGY CONTRIBUTION    RADIAL
 FREQUENCY          1811.81         C  6 -- C  9         +17.4% ( 65.4%)     99.9%
 TRANSITION DIPOLE   0.6489         C  3 -- C  4          +8.4% ( 45.5%)     68.9%
 TRAVEL (Ang.)       0.1449         C  4 -- C  5          +8.3% ( 45.3%)     94.0%
 REDUCED MASS        1.7736         C  3 -- C  7          +8.3% ( 45.2%)     96.2%
 EFFECTIVE MASS     11.9504
 FORCE CONSTANT      3.4303

 VIBRATION         43   43A           ATOM PAIR      ENERGY CONTRIBUTION    RADIAL
 FREQUENCY          1824.65         C  4 -- C  5         +22.1% ( 73.1%)     95.1%
 TRANSITION DIPOLE   0.1806         C  6 -- C  9         +12.5% ( 55.0%)     99.8%
 TRAVEL (Ang.)       0.1224         C  2 -- C  4         +10.9% ( 51.4%)     75.5%
 REDUCED MASS        2.4660         C  4 -- C  7         +10.5% ( 50.3%)      0.6%
 EFFECTIVE MASS     11.8443
 FORCE CONSTANT      4.8372

 VIBRATION         44   44A           ATOM PAIR      ENERGY CONTRIBUTION    RADIAL
 FREQUENCY          1860.07         C  3 -- C  7         +18.6% ( 67.2%)     96.7%
 TRANSITION DIPOLE   0.2517         C  3 -- C  8         +14.4% ( 59.1%)     70.8%
 TRAVEL (Ang.)       0.1319         C  3 -- C  4         +10.3% ( 50.0%)     98.1%
 REDUCED MASS        2.0852         C  1 -- C  3          +9.0% ( 46.6%)      0.4%
 EFFECTIVE MASS     11.8648
 FORCE CONSTANT      4.2507

 VIBRATION         45   45A           ATOM PAIR      ENERGY CONTRIBUTION    RADIAL
 FREQUENCY          2836.35         C  1 -- H 11         +97.2% (100.0%)    100.0%
 TRANSITION DIPOLE   0.2747         C  1 -- C  3          +0.9% (  9.7%)     10.7%
 TRAVEL (Ang.)       0.1599         C  1 -- C  5          +0.9% (  9.7%)      7.8%
 REDUCED MASS        0.9298         C  1 -- C  6          +0.9% (  9.7%)      6.7%
 EFFECTIVE MASS      1.4220
 FORCE CONSTANT      4.4072

 VIBRATION         46   46A           ATOM PAIR      ENERGY CONTRIBUTION    RADIAL
 FREQUENCY          3055.68         C  9 -- H 18         +59.2% ( 78.2%)    100.0%
 TRANSITION DIPOLE   0.1199         C 10 -- H 20         +22.1% ( 47.8%)    100.0%
 TRAVEL (Ang.)       0.2322         C  6 -- H 16         +12.9% ( 36.5%)     99.9%
 REDUCED MASS        0.4095         C  8 -- H 19          +3.2% ( 18.2%)     99.9%
 EFFECTIVE MASS      1.4858
 FORCE CONSTANT      2.2525

 VIBRATION         47   47A           ATOM PAIR      ENERGY CONTRIBUTION    RADIAL
 FREQUENCY          3062.70         C 10 -- H 20         +45.6% ( 68.5%)    100.0%
 TRANSITION DIPOLE   0.3887         C  8 -- H 19         +26.3% ( 52.0%)    100.0%
 TRAVEL (Ang.)       0.2693         C  9 -- H 18         +13.7% ( 37.5%)    100.0%
 REDUCED MASS        0.3037         C  6 -- H 16         +11.9% ( 35.0%)    100.0%
 EFFECTIVE MASS      1.4641
 FORCE CONSTANT      1.6782

 VIBRATION         48   48A           ATOM PAIR      ENERGY CONTRIBUTION    RADIAL
 FREQUENCY          3069.64         C  2 -- H 13         +52.7% ( 74.9%)     97.5%
 TRANSITION DIPOLE   0.0364         C  2 -- H 12         +45.2% ( 69.4%)     96.4%
 TRAVEL (Ang.)       0.2074         C  2 -- H 14          +1.1% ( 10.9%)      5.0%
 REDUCED MASS        0.5108         C  2 -- C  4          +1.0% ( 10.2%)      0.0%
 EFFECTIVE MASS      1.5038
 FORCE CONSTANT      2.8360

 VIBRATION         49   49A           ATOM PAIR      ENERGY CONTRIBUTION    RADIAL
 FREQUENCY          3077.77         C  6 -- H 16         +50.1% ( 71.9%)    100.0%
 TRANSITION DIPOLE   0.4882         C  8 -- H 19         +31.0% ( 56.6%)    100.0%
 TRAVEL (Ang.)       0.2468         C  9 -- H 18          +9.9% ( 32.0%)     99.6%
 REDUCED MASS        0.3596         C 10 -- H 20          +5.4% ( 23.7%)     99.6%
 EFFECTIVE MASS      1.5634
 FORCE CONSTANT      2.0071

 VIBRATION         50   50A           ATOM PAIR      ENERGY CONTRIBUTION    RADIAL
 FREQUENCY          3079.12         C  2 -- H 14         +62.0% ( 81.2%)     98.8%
 TRANSITION DIPOLE   0.0553         C  2 -- H 12         +21.9% ( 48.3%)     88.1%
 TRAVEL (Ang.)       0.2122         C  2 -- H 13         +15.1% ( 40.1%)     81.9%
 REDUCED MASS        0.4862         C  2 -- C  4          +1.0% ( 10.5%)      0.0%
 EFFECTIVE MASS      1.5138
 FORCE CONSTANT      2.7160

 VIBRATION         51   51A           ATOM PAIR      ENERGY CONTRIBUTION    RADIAL
 FREQUENCY          3083.45         C  8 -- H 19         +36.5% ( 61.3%)     99.9%
 TRANSITION DIPOLE   0.2740         C 10 -- H 20         +23.8% ( 49.5%)     99.9%
 TRAVEL (Ang.)       0.2906         C  6 -- H 16         +21.9% ( 47.5%)     99.9%
 REDUCED MASS        0.2589         C  9 -- H 18         +14.1% ( 38.1%)    100.0%
 EFFECTIVE MASS      1.6050
 FORCE CONSTANT      1.4501

 VIBRATION         52   52A           ATOM PAIR      ENERGY CONTRIBUTION    RADIAL
 FREQUENCY          3138.93         C  7 -- H 17         +82.1% ( 92.3%)    100.0%
 TRANSITION DIPOLE   0.5094         C  5 -- H 15         +14.3% ( 38.6%)    100.0%
 TRAVEL (Ang.)       0.1758         C  3 -- C  7          +1.6% ( 12.7%)     48.5%
 REDUCED MASS        0.6951         C  4 -- C  7          +1.5% ( 12.3%)     26.9%
 EFFECTIVE MASS      1.5446
 FORCE CONSTANT      4.0352

 VIBRATION         53   53A           ATOM PAIR      ENERGY CONTRIBUTION    RADIAL
 FREQUENCY          3144.90         C  5 -- H 15         +82.2% ( 92.2%)    100.0%
 TRANSITION DIPOLE   0.3158         C  7 -- H 17         +14.3% ( 38.4%)    100.0%
 TRAVEL (Ang.)       0.1757         C  4 -- C  5          +1.5% ( 12.6%)     50.3%
 REDUCED MASS        0.6949         C  1 -- C  5          +1.4% ( 12.1%)     26.1%
 EFFECTIVE MASS      1.5730
 FORCE CONSTANT      4.0492

 VIBRATION         54   54A           ATOM PAIR      ENERGY CONTRIBUTION    RADIAL
 FREQUENCY          3167.69         C  2 -- H 14         +36.5% ( 58.2%)     97.5%
 TRANSITION DIPOLE   0.0754         C  2 -- H 12         +32.0% ( 54.5%)     96.9%
 TRAVEL (Ang.)       0.2547         C  2 -- H 13         +31.2% ( 53.8%)     96.8%
 REDUCED MASS        0.3283         C  2 -- C  4          +0.3% (  5.5%)     99.7%
 EFFECTIVE MASS      1.1395
 FORCE CONSTANT      1.9407

      SYMMETRY NUMBER FOR POINT-GROUP C1  =  1


          SYSTEM IS A GROUND STATE



 InChI=1S/C10H10/c1-8-6-9-4-2-3-5-10(9)7-8/h2-7,9H,1H3


          MOLECULE IS NOT LINEAR

          THERE ARE 54 GENUINE VIBRATIONS IN THIS SYSTEM
          THIS THERMODYNAMICS CALCULATION IS LIMITED TO
          MOLECULES WHICH HAVE NO INTERNAL ROTATIONS




                    CALCULATED THERMODYNAMIC PROPERTIES
                                          *
   TEMP. (K)   PARTITION FUNCTION   H.O.F.    ENTHALPY  HEAT CAPACITY ENTROPY
                                   KCAL/MOL   CAL/MOLE    CAL/K/MOL  CAL/K/MOL


 298.00  VIB.     0.6642D+02                  3478.3213    27.1146    20.0105
         ROT.     0.5190D+06                   888.2803     2.9808    29.1317
         INT.     0.3447D+08                  4366.6016    30.0954    49.1422
         TRA.     0.1436D+28                  1480.4672     4.9680    40.5022
         TOT.                       58.144    5847.0688    35.0634    89.6444

 200.00  VIB.     0.1074D+02                  1384.9837    15.8277    11.6420
         ROT.     0.2853D+06                   596.1613     2.9808    27.9430
         INT.     0.3064D+07                  1981.1449    18.8085    39.5850
         TRA.     0.7896D+27                   993.6021     4.9680    38.5210
         TOT.                       55.272    2974.7471    23.7765    78.1061

 210.00  VIB.     0.1280D+02                  1548.6019    16.9005    12.4401
         ROT.     0.3070D+06                   625.9693     2.9808    28.0884
         INT.     0.3929D+07                  2174.5712    19.8813    40.5286
         TRA.     0.8496D+27                  1043.2822     4.9680    38.7634
         TOT.                       55.515    3217.8534    24.8493    79.2920

 220.00  VIB.     0.1529D+02                  1723.0801    17.9992    13.2516
         ROT.     0.3292D+06                   655.7774     2.9808    28.2271
         INT.     0.5033D+07                  2378.8575    20.9800    41.4787
         TRA.     0.9110D+27                  1092.9623     4.9680    38.9945
         TOT.                       55.769    3471.8199    25.9480    80.4732

 230.00  VIB.     0.1831D+02                  1908.6636    19.1211    14.0764
         ROT.     0.3519D+06                   685.5855     2.9808    28.3596
         INT.     0.6444D+07                  2594.2491    22.1019    42.4360
         TRA.     0.9738D+27                  1142.6424     4.9680    39.2154
         TOT.                       56.034    3736.8915    27.0699    81.6513

 240.00  VIB.     0.2198D+02                  2105.5685    20.2630    14.9142
         ROT.     0.3751D+06                   715.3935     2.9808    28.4865
         INT.     0.8246D+07                  2820.9620    23.2438    43.4007
         TRA.     0.1038D+28                  1192.3226     4.9680    39.4268
         TOT.                       56.310    4013.2846    28.2118    82.8275

 250.00  VIB.     0.2645D+02                  2313.9796    21.4218    15.7648
         ROT.     0.3988D+06                   745.2016     2.9808    28.6081
         INT.     0.1055D+08                  3059.1812    24.4026    44.3730
         TRA.     0.1103D+28                  1242.0027     4.9680    39.6296
         TOT.                       56.598    4301.1838    29.3706    84.0026

 260.00  VIB.     0.3191D+02                  2534.0486    22.5940    16.6278
         ROT.     0.4229D+06                   775.0097     2.9808    28.7250
         INT.     0.1350D+08                  3309.0583    25.5748    45.3529
         TRA.     0.1170D+28                  1291.6828     4.9680    39.8245
         TOT.                       56.898    4600.7411    30.5429    85.1773

 270.00  VIB.     0.3858D+02                  2765.8943    23.7765    17.5027
         ROT.     0.4476D+06                   804.8177     2.9808    28.8375
         INT.     0.1727D+08                  3570.7120    26.7573    46.3402
         TRA.     0.1239D+28                  1341.3629     4.9680    40.0120
         TOT.                       57.209    4912.0749    31.7253    86.3522

 280.00  VIB.     0.4675D+02                  3009.6022    24.9660    18.3888
         ROT.     0.4727D+06                   834.6258     2.9808    28.9459
         INT.     0.2210D+08                  3844.2280    27.9468    47.3348
         TRA.     0.1308D+28                  1391.0430     4.9680    40.1926
         TOT.                       57.532    5235.2709    32.9148    87.5274

 290.00  VIB.     0.5677D+02                  3265.2261    26.1592    19.2857
         ROT.     0.4982D+06                   864.4339     2.9808    29.0505
         INT.     0.2828D+08                  4129.6599    29.1400    48.3363
         TRA.     0.1379D+28                  1440.7231     4.9680    40.3670
         TOT.                       57.867    5570.3830    34.1080    88.7033

 300.00  VIB.     0.6909D+02                  3532.7893    27.3533    20.1927
         ROT.     0.5242D+06                   894.2419     2.9808    29.1516
         INT.     0.3622D+08                  4427.0312    30.3341    49.3443
         TRA.     0.1451D+28                  1490.4032     4.9680    40.5354
         TOT.                       58.214    5917.4344    35.3022    89.8797

 310.00  VIB.     0.8427D+02                  3812.2866    28.5456    21.1091
         ROT.     0.5506D+06                   924.0500     2.9808    29.2493
         INT.     0.4640D+08                  4736.3366    31.5264    50.3584
         TRA.     0.1524D+28                  1540.0833     4.9680    40.6983
         TOT.                       58.573    6276.4199    36.4944    91.0567

 320.00  VIB.     0.1030D+03                  4103.6863    29.7334    22.0341
         ROT.     0.5775D+06                   953.8580     2.9808    29.3440
         INT.     0.5948D+08                  5057.5444    32.7142    51.3781
         TRA.     0.1598D+28                  1589.7634     4.9680    40.8560
         TOT.                       58.944    6647.3078    37.6822    92.2341

 330.00  VIB.     0.1261D+03                  4406.9327    30.9145    22.9672
         ROT.     0.6048D+06                   983.6661     2.9808    29.4357
         INT.     0.7628D+08                  5390.5988    33.8954    52.4029
         TRA.     0.1674D+28                  1639.4435     4.9680    41.0089
         TOT.                       59.327    7030.0423    38.8634    93.4118

 340.00  VIB.     0.1548D+03                  4721.9480    32.0869    23.9075
         ROT.     0.6325D+06                  1013.4742     2.9808    29.5247
         INT.     0.9789D+08                  5735.4221    35.0677    53.4322
         TRA.     0.1750D+28                  1689.1236     4.9680    41.1572
         TOT.                       59.721    7424.5457    40.0357    94.5894

 350.00  VIB.     0.1903D+03                  5048.6350    33.2486    24.8544
         ROT.     0.6606D+06                  1043.2822     2.9808    29.6111
         INT.     0.1257D+09                  6091.9172    36.2294    54.4655
         TRA.     0.1828D+28                  1738.8037     4.9680    41.3012
         TOT.                       60.128    7830.7210    41.1974    95.7667

 360.00  VIB.     0.2343D+03                  5386.8794    34.3981    25.8072
         ROT.     0.6891D+06                  1073.0903     2.9808    29.6951
         INT.     0.1615D+09                  6459.9697    37.3789    55.5022
         TRA.     0.1907D+28                  1788.4838     4.9680    41.4412
         TOT.                       60.545    8248.4535    42.3469    96.9434

 370.00  VIB.     0.2891D+03                  5736.5518    35.5340    26.7652
         ROT.     0.7180D+06                  1102.8984     2.9808    29.7767
         INT.     0.2076D+09                  6839.4501    38.5148    56.5419
         TRA.     0.1987D+28                  1838.1639     4.9680    41.5773
         TOT.                       60.975    8677.6141    43.4828    98.1192

 380.00  VIB.     0.3572D+03                  6097.5099    36.6551    27.7277
         ROT.     0.7473D+06                  1132.7064     2.9808    29.8562
         INT.     0.2670D+09                  7230.2163    39.6359    57.5840
         TRA.     0.2068D+28                  1887.8440     4.9680    41.7098
         TOT.                       61.415    9118.0604    44.6039    99.2937

 390.00  VIB.     0.4422D+03                  6469.6006    37.7604    28.6942
         ROT.     0.7770D+06                  1162.5145     2.9808    29.9337
         INT.     0.3436D+09                  7632.1151    40.7412    58.6278
         TRA.     0.2150D+28                  1937.5242     4.9680    41.8388
         TOT.                       61.867    9569.6392    45.7092   100.4667

 400.00  VIB.     0.5481D+03                  6852.6616    38.8490    29.6640
         ROT.     0.8071D+06                  1192.3226     2.9808    30.0091
         INT.     0.4424D+09                  8044.9841    41.8298    59.6731
         TRA.     0.2233D+28                  1987.2043     4.9680    41.9646
         TOT.                       62.329   10032.1884    46.7978   101.6377

   *: NOTE: HEATS OF FORMATION ARE RELATIVE TO THE
            ELEMENTS IN THEIR STANDARD STATE AT 298K
              (=  Standard Enthalpy of Formation).

            Hvib:  Zero-point energy is not included.
                   frequencies of less than zero cm-1 are not included.
            Hrot = (3/2)RT
            Htra = (3/2)RT + pV = (5/2)RT

            Heat capacity is Cp, not Cv

          For more information, see: HTTP://OpenMOPAC.net/Manual/thermochemistry.html


           FORCE CONSTANT IN CARTESIAN COORDINATES (Millidynes/A)

    ATOM   CHEMICAL       X               Y               Z
   NUMBER   SYMBOL  FORCE CONSTANT  FORCE CONSTANT  FORCE CONSTANT

      1       C       10.490912        8.267462        7.627817
      2       C        9.269102        8.479025        7.981178
      3       C       15.591520       10.016218        2.864001
      4       C       15.000838       10.685760        2.644098
      5       C       10.426986       13.719583        2.397413
      6       C        8.601834       12.476515        5.830078
      7       C       13.720660       11.030997        2.210461
      8       C       11.561910       10.705189        5.166472
      9       C        9.250083       12.029796        5.971051
     10       C       11.617649       10.012040        5.468318
     11       H        1.137730        0.778316        3.656536
     12       H        1.511660        1.851501        3.282756
     13       H        1.324963        1.126354        4.186108
     14       H        0.889449        5.134853        0.705503
     15       H        0.734312        5.340140        0.364941
     16       H        0.605321        4.630807        1.032003
     17       H        2.059531        4.024763        0.344914
     18       H        3.026013        0.886321        2.342112
     19       H        0.744466        4.659690        0.852108
     20       H        3.049332        2.566315        0.648013

 **********************
 *                    *
 * JOB ENDED NORMALLY *
 *                    *
 **********************



 TOTAL JOB TIME:             2.78 SECONDS

 == MOPAC DONE ==
