 *******************************************************************************
 **                                                                           **
 **                              MOPAC v23.1.2                                **
 **                                                                           **
 *******************************************************************************
 **          Digital Object Identifier (DOI): 10.5281/zenodo.6511958          **
 **    Visit the DOI location for information on how to cite this program.    **
 *******************************************************************************

                              PM3 CALCULATION RESULTS

 *******************************************************************************
 *  CALCULATION DONE: (MAX THREADS = 1)              Tue Jun  3 16:28:17 2025  *
 *  PM3        - The PM3 Hamiltonian to be used
 *  PRECISE    - TIGHTER CRITERIA TO BE USED
 *  NOSYM      - POINT-GROUP SYMMETRY SET TO C1
 *  THREADS=1  - MULTI-THREADING NOT USED
 *  T=         - A TIME OF 172800.0 SECONDS REQUESTED
 *  DUMP=N     - RESTART FILE WRITTEN EVERY 7200.0 SECONDS REQUESTED
 *******************************************************************************
pm3  precise nosym THREADS=1
 InChI=1S/C7H10/c1-7-5-3-2-4-6-7/h3,5-6H,2,4H2,1H3

   ATOM   CHEMICAL          X               Y               Z
  NUMBER   SYMBOL      (ANGSTROMS)     (ANGSTROMS)     (ANGSTROMS)

     1       C         -1.84000000  *   0.10230000  *   0.56350000  *
     2       C         -1.21750000  *  -1.19000000  *   0.01160000  *
     3       C          2.42380000  *   0.07390000  *  -0.25540000  *
     4       C          0.92900000  *   0.04160000  *  -0.13800000  *
     5       C          0.28800000  *  -1.12550000  *   0.03950000  *
     6       C         -1.15780000  *   1.31690000  *  -0.00740000  *
     7       C          0.15040000  *   1.29310000  *  -0.28460000  *
     8       H         -2.92370000  *   0.13190000  *   0.32120000  *
     9       H         -1.72850000  *   0.12010000  *   1.66910000  *
    10       H         -1.54600000  *  -1.33580000  *  -1.04010000  *
    11       H         -1.56600000  *  -2.05910000  *   0.60920000  *
    12       H          2.81040000  *   1.09520000  *  -0.05290000  *
    13       H          2.88710000  *  -0.62130000  *   0.47710000  *
    14       H          2.72130000  *  -0.22620000  *  -1.28190000  *
    15       H         -1.71740000  *   2.23560000  *  -0.13020000  *
    16       H          0.84740000  *  -2.04960000  *   0.12530000  *
    17       H          0.63950000  *   2.19700000  *  -0.62590000  *



          CARTESIAN COORDINATES 

    NO.       ATOM           X           Y           Z

     1         C         -1.8400      0.1023      0.5635
     2         C         -1.2175     -1.1900      0.0116
     3         C          2.4238      0.0739     -0.2554
     4         C          0.9290      0.0416     -0.1380
     5         C          0.2880     -1.1255      0.0395
     6         C         -1.1578      1.3169     -0.0074
     7         C          0.1504      1.2931     -0.2846
     8         H         -2.9237      0.1319      0.3212
     9         H         -1.7285      0.1201      1.6691
    10         H         -1.5460     -1.3358     -1.0401
    11         H         -1.5660     -2.0591      0.6092
    12         H          2.8104      1.0952     -0.0529
    13         H          2.8871     -0.6213      0.4771
    14         H          2.7213     -0.2262     -1.2819
    15         H         -1.7174      2.2356     -0.1302
    16         H          0.8474     -2.0496      0.1253
    17         H          0.6395      2.1970     -0.6259

  H: (PM3): J. J. P. STEWART, J. COMP. CHEM. 10, 209 (1989).
  C: (PM3): J. J. P. STEWART, J. COMP. CHEM. 10, 209 (1989).

           Empirical Formula: C7 H10  =    17 atoms



      MOLECULAR POINT GROUP   :   C1  


      RHF CALCULATION, NO. OF DOUBLY OCCUPIED LEVELS = 19


          Geometry optimization using EF

          DIAGONAL MATRIX USED AS START HESSIAN

 CYCLE:     1 TIME:   0.008 TIME LEFT:  2.00D  GRAD.:    58.185 HEAT:  13.50734
 CYCLE:     2 TIME:   0.016 TIME LEFT:  2.00D  GRAD.:    29.412 HEAT:  12.39216
 CYCLE:     3 TIME:   0.004 TIME LEFT:  2.00D  GRAD.:    24.719 HEAT:  12.04695
 CYCLE:     4 TIME:   0.008 TIME LEFT:  2.00D  GRAD.:    23.124 HEAT:  11.91162
 CYCLE:     5 TIME:   0.004 TIME LEFT:  2.00D  GRAD.:    16.155 HEAT:  11.77690
 CYCLE:     6 TIME:   0.004 TIME LEFT:  2.00D  GRAD.:    12.843 HEAT:  11.68880
 CYCLE:     7 TIME:   0.004 TIME LEFT:  2.00D  GRAD.:    13.696 HEAT:  11.61020
 CYCLE:     8 TIME:   0.004 TIME LEFT:  2.00D  GRAD.:    10.432 HEAT:  11.50536
 CYCLE:     9 TIME:   0.004 TIME LEFT:  2.00D  GRAD.:    11.480 HEAT:  11.47076
 CYCLE:    10 TIME:   0.004 TIME LEFT:  2.00D  GRAD.:    11.189 HEAT:  11.43596
 CYCLE:    11 TIME:   0.004 TIME LEFT:  2.00D  GRAD.:    13.890 HEAT:  11.42327
 CYCLE:    12 TIME:   0.004 TIME LEFT:  2.00D  GRAD.:    12.136 HEAT:  11.39272
 CYCLE:    13 TIME:   0.004 TIME LEFT:  2.00D  GRAD.:     7.820 HEAT:  11.36332
 CYCLE:    14 TIME:   0.004 TIME LEFT:  2.00D  GRAD.:     4.889 HEAT:  11.33661
 CYCLE:    15 TIME:   0.004 TIME LEFT:  2.00D  GRAD.:     6.031 HEAT:  11.31043
 CYCLE:    16 TIME:   0.004 TIME LEFT:  2.00D  GRAD.:     8.446 HEAT:  11.27044
 CYCLE:    17 TIME:   0.004 TIME LEFT:  2.00D  GRAD.:    15.208 HEAT:  11.26002
 CYCLE:    18 TIME:   0.004 TIME LEFT:  2.00D  GRAD.:    11.809 HEAT:  11.20964
 CYCLE:    19 TIME:   0.000 TIME LEFT:  2.00D  GRAD.:     5.091 HEAT:  11.17320
 CYCLE:    20 TIME:   0.004 TIME LEFT:  2.00D  GRAD.:     3.643 HEAT:  11.16035
 CYCLE:    21 TIME:   0.004 TIME LEFT:  2.00D  GRAD.:     3.190 HEAT:  11.14922
 CYCLE:    22 TIME:   0.004 TIME LEFT:  2.00D  GRAD.:     2.578 HEAT:  11.13875
 CYCLE:    23 TIME:   0.004 TIME LEFT:  2.00D  GRAD.:     3.253 HEAT:  11.13181
 CYCLE:    24 TIME:   0.004 TIME LEFT:  2.00D  GRAD.:     3.408 HEAT:  11.12570
 CYCLE:    25 TIME:   0.004 TIME LEFT:  2.00D  GRAD.:     3.141 HEAT:  11.11337
 CYCLE:    26 TIME:   0.004 TIME LEFT:  2.00D  GRAD.:     3.524 HEAT:  11.09163
 CYCLE:    27 TIME:   0.000 TIME LEFT:  2.00D  GRAD.:     3.990 HEAT:  11.06809
 CYCLE:    28 TIME:   0.004 TIME LEFT:  2.00D  GRAD.:     3.837 HEAT:  11.04997
 CYCLE:    29 TIME:   0.004 TIME LEFT:  2.00D  GRAD.:     3.785 HEAT:  11.02713
 CYCLE:    30 TIME:   0.004 TIME LEFT:  2.00D  GRAD.:     3.103 HEAT:  11.00770
 CYCLE:    31 TIME:   0.004 TIME LEFT:  2.00D  GRAD.:     2.534 HEAT:  10.99578
 CYCLE:    32 TIME:   0.004 TIME LEFT:  2.00D  GRAD.:     2.841 HEAT:  10.97846
 CYCLE:    33 TIME:   0.004 TIME LEFT:  2.00D  GRAD.:     3.200 HEAT:  10.96818
 CYCLE:    34 TIME:   0.004 TIME LEFT:  2.00D  GRAD.:     2.469 HEAT:  10.95570
 CYCLE:    35 TIME:   0.004 TIME LEFT:  2.00D  GRAD.:     2.001 HEAT:  10.94407
 CYCLE:    36 TIME:   0.000 TIME LEFT:  2.00D  GRAD.:     2.500 HEAT:  10.92368
 CYCLE:    37 TIME:   0.004 TIME LEFT:  2.00D  GRAD.:     2.445 HEAT:  10.91394
 CYCLE:    38 TIME:   0.004 TIME LEFT:  2.00D  GRAD.:     2.036 HEAT:  10.90420
 CYCLE:    39 TIME:   0.004 TIME LEFT:  2.00D  GRAD.:     2.525 HEAT:  10.89396
 CYCLE:    40 TIME:   0.004 TIME LEFT:  2.00D  GRAD.:     2.802 HEAT:  10.88027
 CYCLE:    41 TIME:   0.004 TIME LEFT:  2.00D  GRAD.:     4.611 HEAT:  10.87161
 CYCLE:    42 TIME:   0.004 TIME LEFT:  2.00D  GRAD.:     1.966 HEAT:  10.85639
 CYCLE:    43 TIME:   0.000 TIME LEFT:  2.00D  GRAD.:     1.236 HEAT:  10.84999
 CYCLE:    44 TIME:   0.004 TIME LEFT:  2.00D  GRAD.:     1.457 HEAT:  10.84497
 CYCLE:    45 TIME:   0.004 TIME LEFT:  2.00D  GRAD.:     1.449 HEAT:  10.84191
 CYCLE:    46 TIME:   0.004 TIME LEFT:  2.00D  GRAD.:     1.291 HEAT:  10.83703
 CYCLE:    47 TIME:   0.004 TIME LEFT:  2.00D  GRAD.:     1.538 HEAT:  10.83078
 CYCLE:    48 TIME:   0.004 TIME LEFT:  2.00D  GRAD.:     1.889 HEAT:  10.82492
 CYCLE:    49 TIME:   0.004 TIME LEFT:  2.00D  GRAD.:     3.116 HEAT:  10.81300
 CYCLE:    50 TIME:   0.004 TIME LEFT:  2.00D  GRAD.:     2.708 HEAT:  10.80356
 CYCLE:    51 TIME:   0.004 TIME LEFT:  2.00D  GRAD.:     2.789 HEAT:  10.77845
 CYCLE:    52 TIME:   0.004 TIME LEFT:  2.00D  GRAD.:     3.660 HEAT:  10.75696
 CYCLE:    53 TIME:   0.000 TIME LEFT:  2.00D  GRAD.:     2.352 HEAT:  10.74618
 CYCLE:    54 TIME:   0.004 TIME LEFT:  2.00D  GRAD.:     3.118 HEAT:  10.73499
 CYCLE:    55 TIME:   0.004 TIME LEFT:  2.00D  GRAD.:     2.056 HEAT:  10.72712
 CYCLE:    56 TIME:   0.004 TIME LEFT:  2.00D  GRAD.:     1.845 HEAT:  10.72069
 CYCLE:    57 TIME:   0.004 TIME LEFT:  2.00D  GRAD.:     2.557 HEAT:  10.71459
 CYCLE:    58 TIME:   0.004 TIME LEFT:  2.00D  GRAD.:     1.646 HEAT:  10.71038
 CYCLE:    59 TIME:   0.004 TIME LEFT:  2.00D  GRAD.:     1.851 HEAT:  10.70537
 CYCLE:    60 TIME:   0.004 TIME LEFT:  2.00D  GRAD.:     1.686 HEAT:  10.69925
 CYCLE:    61 TIME:   0.000 TIME LEFT:  2.00D  GRAD.:     1.909 HEAT:  10.69610
 CYCLE:    62 TIME:   0.004 TIME LEFT:  2.00D  GRAD.:     1.089 HEAT:  10.69298
 CYCLE:    63 TIME:   0.004 TIME LEFT:  2.00D  GRAD.:     1.328 HEAT:  10.69056
 CYCLE:    64 TIME:   0.004 TIME LEFT:  2.00D  GRAD.:     1.211 HEAT:  10.68839
 CYCLE:    65 TIME:   0.004 TIME LEFT:  2.00D  GRAD.:     1.954 HEAT:  10.68625
 CYCLE:    66 TIME:   0.004 TIME LEFT:  2.00D  GRAD.:     1.021 HEAT:  10.68434
 CYCLE:    67 TIME:   0.008 TIME LEFT:  2.00D  GRAD.:     0.630 HEAT:  10.68245
 CYCLE:    68 TIME:   0.004 TIME LEFT:  2.00D  GRAD.:     1.004 HEAT:  10.68060
 CYCLE:    69 TIME:   0.004 TIME LEFT:  2.00D  GRAD.:     0.927 HEAT:  10.67946
 CYCLE:    70 TIME:   0.004 TIME LEFT:  2.00D  GRAD.:     0.765 HEAT:  10.67838
 CYCLE:    71 TIME:   0.008 TIME LEFT:  2.00D  GRAD.:     0.719 HEAT:  10.67747
 CYCLE:    72 TIME:   0.004 TIME LEFT:  2.00D  GRAD.:     0.659 HEAT:  10.67664
 CYCLE:    73 TIME:   0.004 TIME LEFT:  2.00D  GRAD.:     0.619 HEAT:  10.67587
 CYCLE:    74 TIME:   0.004 TIME LEFT:  2.00D  GRAD.:     0.686 HEAT:  10.67508
 CYCLE:    75 TIME:   0.004 TIME LEFT:  2.00D  GRAD.:     0.378 HEAT:  10.67469
 CYCLE:    76 TIME:   0.004 TIME LEFT:  2.00D  GRAD.:     0.154 HEAT:  10.67452
 CYCLE:    77 TIME:   0.004 TIME LEFT:  2.00D  GRAD.:     0.069 HEAT:  10.67443
 CYCLE:    78 TIME:   0.004 TIME LEFT:  2.00D  GRAD.:     0.070 HEAT:  10.67443
 CYCLE:    79 TIME:   0.008 TIME LEFT:  2.00D  GRAD.:     0.110 HEAT:  10.67442
 CYCLE:    80 TIME:   0.004 TIME LEFT:  2.00D  GRAD.:     0.030 HEAT:  10.67442

     GRADIENT =  0.02989 IS LESS THAN CUTOFF =  0.05000



 -------------------------------------------------------------------------------
 pm3  precise nosym THREADS=1
 InChI=1S/C7H10/c1-7-5-3-2-4-6-7/h3,5-6H,2,4H2,1H3



     GEOMETRY OPTIMISED USING EIGENVECTOR FOLLOWING (EF).     
     SCF FIELD WAS ACHIEVED                                   


                              PM3 CALCULATION
                                                       MOPAC v23.1.2 MacOS
                                                       Tue Jun  3 16:28:17 2025




          FINAL HEAT OF FORMATION =         10.67442 KCAL/MOL =      44.66175 KJ/MOL


          COSMO AREA              =        143.16 SQUARE ANGSTROMS
          COSMO VOLUME            =        135.54 CUBIC ANGSTROMS

          GRADIENT NORM           =          0.02989          =       0.00725 PER ATOM
          IONIZATION POTENTIAL    =          8.806459 EV
          HOMO LUMO ENERGIES (EV) =         -8.806  0.328
          NO. OF FILLED LEVELS    =         19
          MOLECULAR WEIGHT        =         94.1560         POINT GROUP:  C1  

          MOLECULAR DIMENSIONS (Angstroms)

            Atom       Atom       Distance
            H    13    H     8     5.88423
            H    17    H    11     4.67582
            H    10    H     9     2.80786


          SCF CALCULATIONS        =         88

          WALL-CLOCK TIME         =      0.332 SECONDS
          COMPUTATION TIME        =      0.246 SECONDS




   ATOM   CHEMICAL          X               Y               Z
  NUMBER   SYMBOL      (ANGSTROMS)     (ANGSTROMS)     (ANGSTROMS)

     1       C         -1.86719962  *   0.12359359  *   0.48056985  *
     2       C         -1.20227932  *  -1.20225873  *   0.13255517  *
     3       C          2.40726997  *   0.10431236  *  -0.27871442  *
     4       C          0.92956955  *   0.02398762  *  -0.16409337  *
     5       C          0.28005506  *  -1.13171237  *   0.05309805  *
     6       C         -1.12513517  *   1.31233245  *  -0.01506705  *
     7       C          0.18092409  *   1.26631241  *  -0.30349935  *
     8       H         -2.90151823  *   0.13573485  *   0.08461828  *
     9       H         -1.96775457  *   0.22950502  *   1.58043741  *
    10       H         -1.56953809  *  -1.57296424  *  -0.84676662  *
    11       H         -1.49956190  *  -1.97137072  *   0.87215369  *
    12       H          2.81944944  *   0.77378769  *   0.48828866  *
    13       H          2.89009679  *  -0.87464080  *  -0.16141559  *
    14       H          2.69882222  *   0.50516349  *  -1.25903432  *
    15       H         -1.69275144  *   2.24452049  *  -0.10507074  *
    16       H          0.82385752  *  -2.07859009  *   0.14722638  *
    17       H          0.72874075  *   2.15096478  *  -0.64547515  *

                             CARTESIAN COORDINATES

   1    C       -1.867199623     0.123593587     0.480569850
   2    C       -1.202279324    -1.202258729     0.132555174
   3    C        2.407269969     0.104312364    -0.278714421
   4    C        0.929569553     0.023987615    -0.164093365
   5    C        0.280055064    -1.131712374     0.053098050
   6    C       -1.125135173     1.312332449    -0.015067052
   7    C        0.180924089     1.266312409    -0.303499351
   8    H       -2.901518232     0.135734849     0.084618278
   9    H       -1.967754572     0.229505018     1.580437406
  10    H       -1.569538086    -1.572964237    -0.846766618
  11    H       -1.499561895    -1.971370720     0.872153691
  12    H        2.819449443     0.773787690     0.488288657
  13    H        2.890096786    -0.874640797    -0.161415592
  14    H        2.698822220     0.505163487    -1.259034319
  15    H       -1.692751436     2.244520489    -0.105070742
  16    H        0.823857516    -2.078590089     0.147226384
  17    H        0.728740747     2.150964778    -0.645475145


           Empirical Formula: C7 H10  =    17 atoms



      MOLECULAR POINT GROUP   :   C1  


                  EIGENVALUES  
 -40.01068 -32.83400 -30.01952 -26.05707 -21.97472 -20.58825 -17.28606 -16.31003
 -15.99559 -15.14905 -14.41796 -14.17014 -13.73457 -13.13693 -12.75224 -12.32991
 -11.67671 -10.93070  -8.80646   0.32788   2.01335   3.33939   3.43846   3.55574
   3.78767   3.81059   4.06429   4.07952   4.30409   4.35670   4.56316   4.67009
   4.81101   4.85471   5.09693   5.53083   6.05889   6.29260


              NET ATOMIC CHARGES AND DIPOLE CONTRIBUTIONS

  ATOM NO.   TYPE          CHARGE      No. of ELECS.   s-Pop       p-Pop       
    1          C          -0.058230        4.0582     1.14572     2.91251
    2          C          -0.053731        4.0537     1.14507     2.90866
    3          C          -0.060021        4.0600     1.12357     2.93645
    4          C          -0.090716        4.0907     1.18030     2.91042
    5          C          -0.142813        4.1428     1.19491     2.94791
    6          C          -0.135184        4.1352     1.19583     2.93935
    7          C          -0.106919        4.1069     1.17848     2.92844
    8          H           0.052913        0.9471     0.94709
    9          H           0.054799        0.9452     0.94520
   10          H           0.053781        0.9462     0.94622
   11          H           0.052340        0.9477     0.94766
   12          H           0.044893        0.9551     0.95511
   13          H           0.040779        0.9592     0.95922
   14          H           0.044438        0.9556     0.95556
   15          H           0.098150        0.9018     0.90185
   16          H           0.102058        0.8979     0.89794
   17          H           0.103461        0.8965     0.89654
 DIPOLE           X         Y         Z       TOTAL
 POINT-CHG.    -0.141    -0.086     0.057     0.175
 HYBRID         0.001     0.018    -0.002     0.019
 SUM           -0.140    -0.068     0.055     0.165


          ATOMIC ORBITAL ELECTRON POPULATIONS

     Atom    s        px        py        pz   
    1  C   1.14572   0.97622   0.93510   1.00119
    2  C   1.14507   0.93694   0.96393   1.00778
    3  C   1.12357   0.92296   1.00899   1.00450
    4  C   1.18030   0.95358   0.94591   1.01093
    5  C   1.19491   0.96176   0.97075   1.01540
    6  C   1.19583   0.96125   0.98024   0.99787
    7  C   1.17848   0.95067   0.96338   1.01438
    8  H   0.94709
    9  H   0.94520
   10  H   0.94622
   11  H   0.94766
   12  H   0.95511
   13  H   0.95922
   14  H   0.95556
   15  H   0.90185
   16  H   0.89794
   17  H   0.89654
 *******************************************************************************
 **                                                                           **
 **                              MOPAC v23.1.2                                **
 **                                                                           **
 *******************************************************************************
 **          Digital Object Identifier (DOI): 10.5281/zenodo.6511958          **
 **    Visit the DOI location for information on how to cite this program.    **
 *******************************************************************************

                              PM3 CALCULATION RESULTS

 *******************************************************************************
 *  CALCULATION DONE: (MAX THREADS = 1)              Tue Jun  3 16:28:17 2025  *
 *  PM3        - The PM3 Hamiltonian to be used
 *  OLDGEO     - PREVIOUS GEOMETRY TO BE USED
 *  PRECISE    - TIGHTER CRITERIA TO BE USED
 *  NOSYM      - POINT-GROUP SYMMETRY SET TO C1
 *  THREADS=1  - MULTI-THREADING NOT USED
 *  T=         - A TIME OF 172800.0 SECONDS REQUESTED
 *  DUMP=N     - RESTART FILE WRITTEN EVERY 7200.0 SECONDS REQUESTED
 *  THERMO     - THERMODYNAMIC QUANTITIES TO BE CALCULATED
 *******************************************************************************
oldgeo thermo nosym precise THREADS=1  pm3
 InChI=1S/C7H10/c1-7-5-3-2-4-6-7/h3,5-6H,2,4H2,1H3

   ATOM   CHEMICAL          X               Y               Z
  NUMBER   SYMBOL      (ANGSTROMS)     (ANGSTROMS)     (ANGSTROMS)

     1       C         -1.86719962  *   0.12359359  *   0.48056985  *
     2       C         -1.20227932  *  -1.20225873  *   0.13255517  *
     3       C          2.40726997  *   0.10431236  *  -0.27871442  *
     4       C          0.92956955  *   0.02398762  *  -0.16409337  *
     5       C          0.28005506  *  -1.13171237  *   0.05309805  *
     6       C         -1.12513517  *   1.31233245  *  -0.01506705  *
     7       C          0.18092409  *   1.26631241  *  -0.30349935  *
     8       H         -2.90151823  *   0.13573485  *   0.08461828  *
     9       H         -1.96775457  *   0.22950502  *   1.58043741  *
    10       H         -1.56953809  *  -1.57296424  *  -0.84676662  *
    11       H         -1.49956190  *  -1.97137072  *   0.87215369  *
    12       H          2.81944944  *   0.77378769  *   0.48828866  *
    13       H          2.89009679  *  -0.87464080  *  -0.16141559  *
    14       H          2.69882222  *   0.50516349  *  -1.25903432  *
    15       H         -1.69275144  *   2.24452049  *  -0.10507074  *
    16       H          0.82385752  *  -2.07859009  *   0.14722638  *
    17       H          0.72874075  *   2.15096478  *  -0.64547515  *



          CARTESIAN COORDINATES 

    NO.       ATOM           X           Y           Z

     1         C         -1.8672      0.1236      0.4806
     2         C         -1.2023     -1.2023      0.1326
     3         C          2.4073      0.1043     -0.2787
     4         C          0.9296      0.0240     -0.1641
     5         C          0.2801     -1.1317      0.0531
     6         C         -1.1251      1.3123     -0.0151
     7         C          0.1809      1.2663     -0.3035
     8         H         -2.9015      0.1357      0.0846
     9         H         -1.9678      0.2295      1.5804
    10         H         -1.5695     -1.5730     -0.8468
    11         H         -1.4996     -1.9714      0.8722
    12         H          2.8194      0.7738      0.4883
    13         H          2.8901     -0.8746     -0.1614
    14         H          2.6988      0.5052     -1.2590
    15         H         -1.6928      2.2445     -0.1051
    16         H          0.8239     -2.0786      0.1472
    17         H          0.7287      2.1510     -0.6455

  H: (PM3): J. J. P. STEWART, J. COMP. CHEM. 10, 209 (1989).
  C: (PM3): J. J. P. STEWART, J. COMP. CHEM. 10, 209 (1989).

           Empirical Formula: C7 H10  =    17 atoms



      MOLECULAR POINT GROUP   :   C1  


      RHF CALCULATION, NO. OF DOUBLY OCCUPIED LEVELS = 19



          HEAT OF FORMATION =      10.674415 KCALS/MOLE


          CARTESIAN COORDINATE DERIVATIVES

   NUMBER  ATOM         X            Y            Z

     1       C      0.000585    -0.000171     0.000910
     2       C     -0.000052     0.001290     0.000824
     3       C     -0.001333     0.000445    -0.000867
     4       C      0.002397    -0.000123    -0.001181
     5       C      0.003637     0.000482     0.001763
     6       C     -0.000695    -0.000653     0.000653
     7       C     -0.002498    -0.000470     0.002490
     8       H      0.003397    -0.001360     0.001058
     9       H     -0.002010     0.002283     0.000875
    10       H     -0.003766    -0.007134    -0.001282
    11       H     -0.006689    -0.012889    -0.003241
    12       H      0.001009    -0.004615    -0.003165
    13       H      0.000413     0.003242     0.004127
    14       H      0.005698     0.006902    -0.004088
    15       H     -0.001897    -0.008532    -0.002232
    16       H      0.001367     0.012726    -0.000165
    17       H      0.000436     0.008577     0.003522



          GRADIENT NORM =   0.02907

          MOLECULAR WEIGHT =   94.16



          ROTATIONAL CONSTANTS IN CM(-1)

          A =    0.16492055   B =    0.07973566   C =    0.05605984



           PRINCIPAL MOMENTS OF INERTIA IN UNITS OF 10**(-40)*GRAM-CM**2

          A =      169.7348   B =      351.0694   C =      499.3370


          ORIENTATION OF MOLECULE IN FORCE CALCULATION

    NO.       ATOM         X         Y         Z

     1          C      -0.9632   -1.6146    0.1532
     2          C       0.5603   -1.6146    0.1532
     3          C       1.0925    2.2093    0.1532
     4          C       0.4913    0.8583    0.0244
     5          C       1.1640   -0.2667    0.3186
     6          C      -1.5607   -0.3715   -0.4010
     7          C      -0.8847    0.7826   -0.4490
     8          H      -1.3348   -2.4925   -0.4107
     9          H      -1.3505   -1.7377    1.1856
    10          H       0.9463   -2.0363   -0.7978
    11          H       0.9309   -2.2891    0.9498
    12          H       0.5146    2.8250    0.8555
    13          H       2.1284    2.1737    0.5151
    14          H       1.0949    2.7266   -0.8159
    15          H      -2.5991   -0.4345   -0.7431
    16          H       2.2039   -0.2318    0.6631
    17          H      -1.3374    1.7018   -0.8361


    FIRST DERIVATIVES WILL BE USED IN THE CALCULATION OF SECOND DERIVATIVES

          ESTIMATED TIME TO COMPLETE CALCULATION =        0.80 SECONDS

    FOR POINT-GROUP C1   THERE ARE   1 UNIQUE SYMMETRY FUNCTIONS.

 STEP:   1 TIME =     0.01 SECS, INTEGRAL =      0.01 TIME LEFT: 172799.99
 STEP:   2 TIME =     0.01 SECS, INTEGRAL =      0.02 TIME LEFT: 172799.98
 STEP:   3 TIME =     0.01 SECS, INTEGRAL =      0.04 TIME LEFT: 172799.96
 STEP:   4 TIME =     0.02 SECS, INTEGRAL =      0.05 TIME LEFT: 172799.95
 STEP:   5 TIME =     0.01 SECS, INTEGRAL =      0.06 TIME LEFT: 172799.94
 STEP:   6 TIME =     0.02 SECS, INTEGRAL =      0.08 TIME LEFT: 172799.92
 STEP:   7 TIME =     0.02 SECS, INTEGRAL =      0.09 TIME LEFT: 172799.91
 STEP:   8 TIME =     0.01 SECS, INTEGRAL =      0.11 TIME LEFT: 172799.89
 STEP:   9 TIME =     0.01 SECS, INTEGRAL =      0.12 TIME LEFT: 172799.88
 STEP:  10 TIME =     0.02 SECS, INTEGRAL =      0.13 TIME LEFT: 172799.87
 STEP:  11 TIME =     0.01 SECS, INTEGRAL =      0.14 TIME LEFT: 172799.86
 STEP:  12 TIME =     0.02 SECS, INTEGRAL =      0.16 TIME LEFT: 172799.84
 STEP:  13 TIME =     0.01 SECS, INTEGRAL =      0.17 TIME LEFT: 172799.83
 STEP:  14 TIME =     0.01 SECS, INTEGRAL =      0.18 TIME LEFT: 172799.82
 STEP:  15 TIME =     0.02 SECS, INTEGRAL =      0.20 TIME LEFT: 172799.80
 STEP:  16 TIME =     0.01 SECS, INTEGRAL =      0.21 TIME LEFT: 172799.79
 STEP:  17 TIME =     0.01 SECS, INTEGRAL =      0.22 TIME LEFT: 172799.78
 STEP:  18 TIME =     0.02 SECS, INTEGRAL =      0.24 TIME LEFT: 172799.76
 STEP:  19 TIME =     0.02 SECS, INTEGRAL =      0.25 TIME LEFT: 172799.75
 STEP:  20 TIME =     0.02 SECS, INTEGRAL =      0.27 TIME LEFT: 172799.73
 STEP:  21 TIME =     0.02 SECS, INTEGRAL =      0.29 TIME LEFT: 172799.71
 STEP:  22 TIME =     0.02 SECS, INTEGRAL =      0.30 TIME LEFT: 172799.70
 STEP:  23 TIME =     0.01 SECS, INTEGRAL =      0.31 TIME LEFT: 172799.69
 STEP:  24 TIME =     0.02 SECS, INTEGRAL =      0.33 TIME LEFT: 172799.67
 STEP:  25 TIME =     0.01 SECS, INTEGRAL =      0.34 TIME LEFT: 172799.66
 STEP:  26 TIME =     0.01 SECS, INTEGRAL =      0.35 TIME LEFT: 172799.65
 STEP:  27 TIME =     0.02 SECS, INTEGRAL =      0.37 TIME LEFT: 172799.63
 STEP:  28 TIME =     0.01 SECS, INTEGRAL =      0.38 TIME LEFT: 172799.62
 STEP:  29 TIME =     0.01 SECS, INTEGRAL =      0.39 TIME LEFT: 172799.61
 STEP:  30 TIME =     0.02 SECS, INTEGRAL =      0.41 TIME LEFT: 172799.59
 STEP:  31 TIME =     0.01 SECS, INTEGRAL =      0.42 TIME LEFT: 172799.58
 STEP:  32 TIME =     0.01 SECS, INTEGRAL =      0.43 TIME LEFT: 172799.57
 STEP:  33 TIME =     0.02 SECS, INTEGRAL =      0.45 TIME LEFT: 172799.55
 STEP:  34 TIME =     0.01 SECS, INTEGRAL =      0.46 TIME LEFT: 172799.54
 STEP:  35 TIME =     0.01 SECS, INTEGRAL =      0.47 TIME LEFT: 172799.53
 STEP:  36 TIME =     0.01 SECS, INTEGRAL =      0.48 TIME LEFT: 172799.52
 STEP:  37 TIME =     0.01 SECS, INTEGRAL =      0.49 TIME LEFT: 172799.51
 STEP:  38 TIME =     0.01 SECS, INTEGRAL =      0.50 TIME LEFT: 172799.50
 STEP:  39 TIME =     0.02 SECS, INTEGRAL =      0.52 TIME LEFT: 172799.48
 STEP:  40 TIME =     0.01 SECS, INTEGRAL =      0.53 TIME LEFT: 172799.47
 STEP:  41 TIME =     0.01 SECS, INTEGRAL =      0.54 TIME LEFT: 172799.46
 STEP:  42 TIME =     0.02 SECS, INTEGRAL =      0.56 TIME LEFT: 172799.44
 STEP:  43 TIME =     0.01 SECS, INTEGRAL =      0.57 TIME LEFT: 172799.43
 STEP:  44 TIME =     0.02 SECS, INTEGRAL =      0.59 TIME LEFT: 172799.41
 STEP:  45 TIME =     0.02 SECS, INTEGRAL =      0.60 TIME LEFT: 172799.40
 STEP:  46 TIME =     0.02 SECS, INTEGRAL =      0.62 TIME LEFT: 172799.38
 STEP:  47 TIME =     0.02 SECS, INTEGRAL =      0.63 TIME LEFT: 172799.37
 STEP:  48 TIME =     0.02 SECS, INTEGRAL =      0.65 TIME LEFT: 172799.35
 STEP:  49 TIME =     0.01 SECS, INTEGRAL =      0.66 TIME LEFT: 172799.34
 STEP:  50 TIME =     0.01 SECS, INTEGRAL =      0.67 TIME LEFT: 172799.33
 STEP:  51 TIME =     0.02 SECS, INTEGRAL =      0.69 TIME LEFT: 172799.31

(To convert to Hartree/Bohr^2, multiply by (10^(-21) x N x a0^2)/(4.184 x 627.51) =  0.0642)


           FORCE MATRIX IN MILLIDYNES/ANGSTROM


                  C  1       C  2       C  3       C  4       C  5       C  6
 ------------------------------------------------------------------------------
     C    1  14.669251
     C    2   4.105377  14.665338
     C    3   0.005272   0.134441  14.760071
     C    4   0.116374   0.843732   5.081356  18.753639
     C    5   0.649419   4.984418   0.796333  10.000588  18.048020
     C    6   4.984894   0.655642   0.051647   1.106890   0.145796  18.032693
     C    7   0.862103   0.105453   0.662125   5.415244   1.081853  10.336706
     H    8   4.467868   0.430535   0.000994   0.010146   0.047094   0.435952
     H    9   4.395971   0.440302   0.000625   0.018437   0.010946   0.405712
     H   10   0.440738   4.389261   0.020160   0.031004   0.403561   0.011041
     H   11   0.430602   4.464825   0.015563   0.045900   0.433257   0.047227
     H   12   0.001023   0.018567   4.708208   0.448839   0.031888   0.003071
     H   13   0.000810   0.002583   4.736590   0.469140   0.046244   0.008744
     H   14   0.001191   0.019163   4.702933   0.449235   0.031906   0.003572
     H   15   0.427368   0.043759   0.008584   0.128310   0.014204   4.845169
     H   16   0.043395   0.425646   0.073684   0.458169   4.816318   0.013164
     H   17   0.123270   0.005557   0.034146   0.444434   0.044851   0.444655


                  C  7       H  8       H  9       H 10       H 11       H 12
 ------------------------------------------------------------------------------
     C    7  18.487377
     H    8   0.046843   5.060701
     H    9   0.033847   0.576138   4.987389
     H   10   0.016163   0.033614   0.044262   4.980625
     H   11   0.008211   0.019849   0.033615   0.576745   5.056493
     H   12   0.021065   0.000349   0.000270   0.002460   0.002793   5.424830
     H   13   0.047660   0.000178   0.000164   0.000404   0.000528   0.562364
     H   14   0.024366   0.000181   0.000367   0.003391   0.001579   0.574528
     H   15   0.443088   0.035641   0.017692   0.004317   0.007535   0.000719
     H   16   0.115373   0.007450   0.004411   0.017827   0.035933   0.008675
     H   17   4.837304   0.013281   0.017633   0.000768   0.000838   0.006952


                  H 13       H 14       H 15       H 16       H 17
 ------------------------------------------------------------------
     H   13   5.455712
     H   14   0.562818   5.420482
     H   15   0.001625   0.000596   5.220438
     H   16   0.029492   0.008752   0.008918   5.199071
     H   17   0.002066   0.012601   0.066878   0.007429   5.212315


          HEAT OF FORMATION =      10.674415 KCALS/MOLE

          ZERO POINT ENERGY      93.221 KCAL/MOL


           NORMAL COORDINATE ANALYSIS (Total motion = 1 Angstrom)


   Root No.       1         2         3         4         5         6         7         8

                 1 A       2 A       3 A       4 A       5 A       6 A       7 A       8 A   

                  99.2     103.3     223.2     299.5     360.1     480.4     548.0     577.5
  
           1    0.0027   -0.0014    0.0045   -0.0016    0.0147   -0.0414    0.0030   -0.0245
           2   -0.0070    0.0181   -0.0055   -0.0078   -0.0118   -0.0538    0.0149    0.0173
           3   -0.0153    0.0501   -0.0037   -0.0134    0.0052    0.0112   -0.0031   -0.0072
           4    0.0028   -0.0019    0.0027    0.0002    0.0121   -0.0429    0.0098   -0.0123
           5    0.0002   -0.0003    0.0072    0.0008    0.0169    0.0142    0.0141    0.0738
           6   -0.0038   -0.0328   -0.0426   -0.0019    0.0036   -0.0060   -0.0040    0.0080
           7    0.0053   -0.0130    0.0147   -0.0163    0.0600    0.0245   -0.0036    0.0055
           8    0.0001   -0.0010   -0.0013    0.0047   -0.0240    0.0539   -0.0170   -0.0246
           9   -0.0134    0.0304   -0.0403    0.0094    0.0245    0.0053    0.0012    0.0024
          10   -0.0019    0.0019   -0.0072    0.0203   -0.0349    0.0227   -0.0292    0.0233
          11    0.0013   -0.0038    0.0019   -0.0064    0.0212    0.0412   -0.0073   -0.0236
          12    0.0061   -0.0058    0.0297   -0.0414   -0.0249    0.0155    0.0735   -0.0231
          13   -0.0001    0.0029   -0.0205   -0.0003   -0.0301   -0.0092    0.0227    0.0732
          14    0.0008   -0.0043    0.0044   -0.0015    0.0295    0.0129    0.0033    0.0241
          15   -0.0007   -0.0085    0.0723    0.0223   -0.0046   -0.0194   -0.0146    0.0180
          16   -0.0039    0.0033    0.0001   -0.0137   -0.0107    0.0176   -0.0254   -0.0617
          17    0.0019   -0.0036   -0.0047    0.0182   -0.0197   -0.0317    0.0113   -0.0196
          18    0.0125   -0.0067    0.0008    0.0594    0.0081    0.0085    0.0195   -0.0259
          19   -0.0069    0.0109    0.0001    0.0218   -0.0352    0.0299    0.0063   -0.0011
          20    0.0039   -0.0087   -0.0037   -0.0077   -0.0025   -0.0343   -0.0117   -0.0530
          21    0.0211   -0.0342    0.0072   -0.0443   -0.0247    0.0038   -0.0331    0.0224
          22    0.0116   -0.0446   -0.0043    0.0139    0.0323   -0.0188    0.0227    0.0425
          23    0.0053   -0.0151   -0.0093    0.0373   -0.0159   -0.0407    0.0425   -0.0172
          24   -0.0406    0.1312    0.0084   -0.0956   -0.0003   -0.0270   -0.0607    0.0024
          25   -0.0041    0.0518    0.0299   -0.0129    0.0185   -0.0622    0.0033   -0.0423
          26   -0.0363    0.0981   -0.0013   -0.1030   -0.0271   -0.1021   -0.0576    0.0154
          27   -0.0213    0.0796    0.0062   -0.0297    0.0047   -0.0034   -0.0132   -0.0143
          28    0.0115   -0.0573   -0.0205    0.0067    0.0245   -0.0654    0.0103   -0.0311
          29    0.0014    0.0375    0.1272    0.0209    0.0224    0.0314   -0.0099    0.1194
          30   -0.0009   -0.0720   -0.1061   -0.0084    0.0061   -0.0234    0.0071   -0.0209
          31   -0.0003    0.0352    0.0349   -0.0020    0.0314   -0.0048    0.0027   -0.0194
          32    0.0015   -0.0361   -0.0826   -0.0150    0.0322    0.0166    0.0297    0.0316
          33   -0.0012   -0.0808   -0.1351   -0.0145    0.0076   -0.0226    0.0128   -0.0269
          34   -0.1254   -0.0631    0.0590   -0.0508    0.1106    0.0296    0.0458   -0.0148
          35    0.0987   -0.0016    0.0378   -0.0391   -0.0011    0.0629    0.0543   -0.0586
          36   -0.2077   -0.0103   -0.0389    0.0202    0.0448    0.0017   -0.0230    0.0157
          37   -0.0716   -0.0372    0.0321   -0.0237    0.0545    0.0255    0.0113   -0.0008
          38    0.0133    0.0045   -0.0028    0.0221   -0.1276    0.0540   -0.0238   -0.0249
          39    0.2083    0.1003   -0.0903    0.0315    0.0367    0.0027   -0.0413    0.0228
          40    0.2234    0.0496   -0.0237   -0.0120    0.1218    0.0240   -0.0249    0.0190
          41   -0.1138   -0.0040   -0.0425    0.0409    0.0143    0.0497   -0.0922    0.0085
          42   -0.0738    0.0290   -0.0629    0.0291    0.0463    0.0029   -0.0402    0.0213
          43   -0.0083    0.0093    0.0013   -0.0500   -0.0164    0.0318   -0.0177   -0.0640
          44    0.0059   -0.0133   -0.0049    0.0491   -0.0454   -0.0059    0.0024    0.0022
          45    0.0248   -0.0218   -0.0024    0.1625    0.0293   -0.0412   -0.0017   -0.0216
          46    0.0018   -0.0027   -0.0434   -0.0257   -0.0364    0.0056    0.0564    0.0776
          47    0.0009   -0.0070    0.0035    0.0005    0.0521   -0.0311    0.0062    0.0135
          48   -0.0064    0.0077    0.1402    0.0979    0.0155   -0.0602   -0.1161    0.0040
          49   -0.0139    0.0260    0.0011    0.0314   -0.0544    0.0218    0.0834    0.0042
          50    0.0090   -0.0185   -0.0047   -0.0157   -0.0186   -0.0630   -0.0408   -0.0249
          51    0.0413   -0.0748    0.0036   -0.0747   -0.0379   -0.0559   -0.1921    0.0815


   Root No.       9        10        11        12        13        14        15        16

                 9 A      10 A      11 A      12 A      13 A      14 A      15 A      16 A   

                 703.5     792.2     829.0     868.9     951.6     970.4     983.6     993.0
  
           1    0.0027   -0.0025   -0.0135    0.0021    0.0139    0.0331   -0.0087    0.0137
           2    0.0049   -0.0116   -0.0187    0.0198    0.0241    0.0339   -0.0223    0.0070
           3   -0.0250   -0.0026    0.0068    0.0260    0.0196    0.0003   -0.0011   -0.0202
           4    0.0067   -0.0109   -0.0179    0.0099   -0.0103   -0.0277    0.0069   -0.0214
           5   -0.0120    0.0104    0.0392   -0.0182    0.0107    0.0195    0.0023    0.0054
           6   -0.0204    0.0165   -0.0315    0.0097   -0.0281   -0.0017    0.0047    0.0102
           7    0.0118   -0.0074   -0.0168    0.0034    0.0043    0.0135    0.0398   -0.0094
           8    0.0270   -0.0105   -0.0358    0.0183   -0.0009   -0.0077   -0.0112    0.0094
           9    0.0052    0.0044    0.0049    0.0123   -0.0046   -0.0026    0.0217    0.0244
          10    0.0069   -0.0117   -0.0071    0.0002    0.0030    0.0066    0.0105    0.0086
          11    0.0105   -0.0001   -0.0047    0.0003    0.0007    0.0030   -0.0007   -0.0039
          12    0.0153    0.0175    0.0054    0.0077    0.0043    0.0058   -0.0007   -0.0197
          13   -0.0026   -0.0017    0.0142    0.0131   -0.0226   -0.0245   -0.0028    0.0145
          14   -0.0012    0.0037    0.0144   -0.0081   -0.0053   -0.0129    0.0002   -0.0064
          15    0.0007    0.0018   -0.0210   -0.0278    0.0243   -0.0129   -0.0013    0.0014
          16   -0.0323    0.0314    0.0391   -0.0168   -0.0039    0.0173   -0.0194    0.0090
          17   -0.0087   -0.0055   -0.0011   -0.0024   -0.0034   -0.0184    0.0070   -0.0047
          18   -0.0045   -0.0196    0.0116   -0.0186    0.0096   -0.0132    0.0016    0.0290
          19    0.0079    0.0135    0.0120   -0.0043    0.0141   -0.0054   -0.0183   -0.0119
          20   -0.0297    0.0043    0.0110   -0.0087   -0.0184   -0.0073    0.0180    0.0046
          21   -0.0051   -0.0345   -0.0008   -0.0141   -0.0264    0.0248   -0.0193   -0.0120
          22   -0.0508    0.0053   -0.0283    0.0596    0.0171    0.1065    0.0013    0.0060
          23   -0.0412   -0.0337   -0.0213    0.0580    0.0742    0.0247   -0.0521   -0.0133
          24    0.0875    0.0266    0.0202   -0.0756   -0.0616   -0.0349    0.0384    0.0165
          25    0.0703   -0.0376    0.0036   -0.0694    0.0571   -0.0264    0.0239    0.0153
          26    0.1193    0.0382   -0.0212   -0.0766   -0.0871    0.0286   -0.0176    0.0642
          27    0.0170   -0.0087    0.0141   -0.0152    0.0214   -0.0231    0.0122   -0.0111
          28    0.0678   -0.0376    0.0027   -0.0784    0.0276   -0.0480    0.0271    0.0086
          29   -0.1064    0.0681   -0.0754   -0.0316   -0.0627    0.0066    0.0280    0.0513
          30    0.0495   -0.0212    0.0318   -0.0218    0.0211   -0.0053    0.0017    0.0013
          31   -0.0583    0.0221   -0.0329    0.0521   -0.0506   -0.0502    0.0445   -0.1135
          32    0.0507   -0.0210    0.1516   -0.0359    0.0654    0.0181    0.0191   -0.0744
          33    0.0669   -0.0277    0.0718   -0.0257    0.0395    0.0075    0.0012   -0.0145
          34    0.0313    0.0133    0.0059    0.0474   -0.0223   -0.0582   -0.0913    0.0723
          35    0.0558    0.0193    0.0027    0.0852   -0.0326   -0.0688   -0.0646    0.1284
          36   -0.0044   -0.0056   -0.0129   -0.0115    0.0024   -0.0067   -0.0380   -0.0157
          37    0.0174   -0.0018   -0.0071    0.0162   -0.0006    0.0092    0.0541    0.0114
          38    0.0284   -0.0186   -0.0419    0.0190    0.0150    0.0735    0.2522   -0.0130
          39   -0.0097   -0.0127   -0.0252   -0.0231    0.0093    0.0109   -0.0079   -0.0359
          40    0.0061   -0.0153   -0.0383   -0.0095    0.0001   -0.0302   -0.1175   -0.0248
          41    0.0053   -0.0442   -0.0997   -0.0380    0.0197   -0.0056   -0.1217   -0.0935
          42   -0.0070   -0.0138   -0.0298   -0.0196    0.0071   -0.0012   -0.0401   -0.0331
          43   -0.0718   -0.0547    0.0444   -0.0254    0.0293   -0.0247   -0.0065    0.0418
          44    0.0267    0.0587    0.0201   -0.0197   -0.0545   -0.0672   -0.0219   -0.1009
          45    0.1089    0.2302   -0.0060    0.0084   -0.0813    0.1237   -0.0354   -0.0537
          46   -0.0226    0.0388   -0.0576   -0.0460    0.0214   -0.0382   -0.0002    0.0207
          47   -0.0103   -0.0015    0.0193    0.0091   -0.0503   -0.0712    0.0311   -0.0650
          48    0.0624   -0.1203    0.1948    0.1486   -0.1052    0.0298   -0.0125   -0.0113
          49   -0.0015   -0.0598   -0.0120   -0.0377   -0.0620    0.0055   -0.0315   -0.0750
          50   -0.0195    0.0455    0.0141    0.0201    0.0232   -0.0587    0.0274   -0.0217
          51    0.0303    0.1491    0.0345    0.0935    0.1633   -0.1051    0.0148    0.0014


   Root No.      17        18        19        20        21        22        23        24

                17 A      18 A      19 A      20 A      21 A      22 A      23 A      24 A   

                1004.8    1037.4    1050.9    1073.6    1108.4    1137.4    1157.1    1226.0
  
           1   -0.0115    0.0077    0.0133   -0.0061   -0.0194    0.0139    0.0071   -0.0110
           2   -0.0091   -0.0019   -0.0241    0.0022    0.0014   -0.0023    0.0010    0.0105
           3    0.0064   -0.0191    0.0092    0.0143    0.0358   -0.0018    0.0007   -0.0056
           4   -0.0055   -0.0073   -0.0132   -0.0058    0.0189   -0.0154    0.0014   -0.0182
           5   -0.0084    0.0029    0.0146    0.0026   -0.0073   -0.0063   -0.0004   -0.0006
           6   -0.0182    0.0190    0.0000    0.0137   -0.0350   -0.0002    0.0038   -0.0023
           7    0.0142    0.0083   -0.0080    0.0022    0.0012    0.0022    0.0002   -0.0032
           8    0.0151   -0.0021    0.0138   -0.0007    0.0016   -0.0050   -0.0035    0.0080
           9   -0.0152   -0.0241   -0.0033   -0.0015    0.0008    0.0023   -0.0008   -0.0022
          10   -0.0053   -0.0130    0.0081   -0.0033   -0.0030   -0.0105   -0.0003    0.0085
          11   -0.0090    0.0036   -0.0108    0.0017   -0.0013    0.0040    0.0082   -0.0255
          12    0.0172    0.0364    0.0029    0.0054   -0.0022   -0.0062    0.0020    0.0058
          13    0.0542    0.0037   -0.0001    0.0051   -0.0013    0.0021    0.0052   -0.0025
          14    0.0036   -0.0034   -0.0204   -0.0014   -0.0020    0.0183    0.0007   -0.0323
          15    0.0237   -0.0322   -0.0002   -0.0245   -0.0005    0.0016    0.0030   -0.0006
          16    0.0154   -0.0045   -0.0209    0.0063    0.0027   -0.0013   -0.0018    0.0036
          17   -0.0089    0.0054    0.0135   -0.0061    0.0000   -0.0008    0.0075    0.0107
          18   -0.0067    0.0305   -0.0141   -0.0246    0.0010   -0.0015   -0.0033   -0.0026
          19   -0.0428    0.0107   -0.0108   -0.0032   -0.0001    0.0098   -0.0013    0.0098
          20    0.0305   -0.0061    0.0265   -0.0006    0.0037   -0.0031   -0.0003    0.0057
          21   -0.0171   -0.0244   -0.0077    0.0052    0.0004    0.0040   -0.0001    0.0028
          22   -0.0533    0.0329    0.1410   -0.1216    0.1580    0.0787    0.1068    0.0624
          23    0.0164   -0.0461   -0.1141    0.0859   -0.0610   -0.0503   -0.0586   -0.0358
          24   -0.0110    0.0344    0.0622   -0.0380    0.0153    0.0260    0.0291    0.0182
          25   -0.0192   -0.0139    0.0788    0.1731   -0.2257    0.0756    0.0701    0.0579
          26   -0.0335    0.0733   -0.0827   -0.1221    0.0257   -0.0554   -0.0480   -0.0299
          27    0.0018   -0.0174    0.0280    0.0679   -0.0382    0.0168    0.0183    0.0156
          28   -0.0541    0.0059    0.0161    0.1733    0.2288   -0.1106   -0.0564    0.0348
          29   -0.1022    0.0699    0.0228    0.1357    0.0397   -0.0897   -0.0504    0.0615
          30    0.0050   -0.0062    0.0076    0.0289    0.0291   -0.0030    0.0005   -0.0059
          31   -0.0788   -0.0278    0.0166   -0.1186   -0.1551   -0.1627   -0.0316    0.0536
          32   -0.0174   -0.0530    0.0482   -0.0890   -0.0557   -0.1139   -0.0402    0.0765
          33    0.0095   -0.0197    0.0173   -0.0101    0.0054   -0.0214   -0.0115    0.0255
          34   -0.0216   -0.0541    0.0306   -0.0088    0.0020   -0.0051   -0.0101    0.0381
          35   -0.0457   -0.1023    0.0417   -0.0123    0.0048   -0.0091   -0.0152    0.0484
          36    0.0120    0.0153    0.0047   -0.0001   -0.0010   -0.0004    0.0003   -0.0003
          37    0.0012   -0.0115   -0.0093    0.0008    0.0020    0.0047   -0.0022   -0.0007
          38    0.0320    0.0014   -0.0388    0.0085    0.0091    0.0172   -0.0108    0.0149
          39    0.0268    0.0322   -0.0022    0.0027   -0.0004   -0.0018    0.0030    0.0012
          40    0.0403    0.0326    0.0277   -0.0016   -0.0002   -0.0070   -0.0067    0.0312
          41    0.1043    0.1006    0.0392    0.0044    0.0012   -0.0173   -0.0083    0.0525
          42    0.0334    0.0330    0.0097    0.0014    0.0003   -0.0045   -0.0024    0.0196
          43   -0.0070    0.0320   -0.0263   -0.0198   -0.0018   -0.0006    0.0025    0.0012
          44   -0.0914   -0.0338   -0.0234    0.0358    0.0426    0.0107    0.2620   -0.0616
          45    0.0705   -0.0715    0.0116    0.0462    0.0081   -0.0007   -0.0586    0.0177
          46    0.0582   -0.0362    0.0000   -0.0197    0.0034    0.0001    0.0076   -0.0079
          47   -0.0202   -0.0085   -0.1375   -0.0147    0.0356    0.1904   -0.0684    0.2225
          48    0.0190    0.0872    0.0145    0.0508   -0.0191   -0.0177    0.0041   -0.0110
          49   -0.0884   -0.0279    0.1004   -0.0003    0.0006    0.1174   -0.2055   -0.1145
          50   -0.0043    0.0178    0.0892   -0.0043    0.0030    0.0603   -0.1205   -0.0696
          51   -0.0482    0.0785    0.0040   -0.0075   -0.0031    0.0268   -0.0465   -0.0262


   Root No.      25        26        27        28        29        30        31        32

                25 A      26 A      27 A      28 A      29 A      30 A      31 A      32 A   

                1238.7    1358.0    1359.0    1392.2    1394.4    1402.8    1404.0    1417.4
  
           1    0.0193   -0.0363   -0.0180   -0.0074    0.0017    0.0284   -0.0341    0.0382
           2   -0.0011    0.0129    0.0171    0.0310   -0.0033   -0.0401   -0.0136   -0.0096
           3    0.0016   -0.0052   -0.0111   -0.0147    0.0015    0.0163    0.0039    0.0087
           4   -0.0093   -0.0276    0.0291    0.0008   -0.0005   -0.0027    0.0394   -0.0451
           5    0.0132   -0.0054    0.0234    0.0077    0.0014    0.0501    0.0029   -0.0457
           6   -0.0017    0.0011    0.0056    0.0025   -0.0001    0.0034    0.0017   -0.0071
           7    0.0106    0.0022   -0.0002   -0.0106    0.0123   -0.0133   -0.0134   -0.0258
           8    0.0130   -0.0060   -0.0250    0.0275   -0.0035   -0.0019   -0.0032   -0.0435
           9    0.0029    0.0013    0.0012   -0.0056   -0.0397   -0.0033   -0.0041   -0.0056
          10   -0.0232   -0.0142   -0.0178   -0.0091    0.0010    0.0186   -0.0049   -0.0073
          11   -0.0354    0.0016   -0.0116   -0.0107    0.0000   -0.0083   -0.0035    0.0201
          12   -0.0060   -0.0050   -0.0057   -0.0026   -0.0007    0.0073   -0.0018   -0.0035
          13    0.0026    0.0132   -0.0128   -0.0009   -0.0004   -0.0155   -0.0094    0.0183
          14   -0.0207    0.0154    0.0004   -0.0073    0.0002   -0.0193   -0.0008    0.0397
          15    0.0016    0.0033   -0.0037    0.0002   -0.0004   -0.0052   -0.0023    0.0036
          16    0.0153    0.0179    0.0091    0.0144   -0.0016   -0.0199    0.0026   -0.0148
          17   -0.0213   -0.0103    0.0063   -0.0105    0.0011    0.0129    0.0050    0.0172
          18    0.0119    0.0083    0.0011    0.0079   -0.0009   -0.0103   -0.0014   -0.0084
          19   -0.0248   -0.0045    0.0157   -0.0080    0.0010    0.0072    0.0085    0.0168
          20   -0.0078   -0.0066   -0.0054   -0.0069    0.0007    0.0117    0.0019   -0.0014
          21   -0.0062    0.0002    0.0072   -0.0010    0.0002   -0.0004    0.0029    0.0058
          22   -0.0292    0.1402   -0.0378   -0.0326   -0.0007   -0.0641    0.0773   -0.0179
          23    0.0511    0.0085   -0.0489   -0.0482    0.0048    0.0513    0.0219    0.0049
          24   -0.0414   -0.0938    0.0903    0.1070   -0.0083   -0.0571   -0.1037    0.0169
          25   -0.0183    0.1090   -0.0201   -0.0297   -0.0001   -0.0397    0.0827   -0.0429
          26    0.0598    0.0892   -0.0958   -0.1094    0.0091    0.0738    0.0949   -0.0131
          27   -0.0075    0.0472   -0.0170   -0.0288    0.0015   -0.0003    0.0483   -0.0194
          28   -0.0172    0.1123   -0.0173    0.0271    0.0006    0.0351   -0.0846    0.0414
          29    0.0411   -0.1034   -0.0570   -0.0283   -0.0044   -0.1269    0.0413    0.0527
          30   -0.0145    0.0860    0.0179    0.0243    0.0024    0.0813   -0.0559   -0.0118
          31   -0.0108    0.1482   -0.0098    0.0445   -0.0011    0.0108   -0.0879    0.0317
          32    0.0521   -0.0644   -0.0552   -0.0179   -0.0034   -0.1012    0.0212    0.0437
          33    0.0275   -0.1124   -0.0380   -0.0347   -0.0033   -0.1134    0.0657    0.0300
          34    0.0395    0.0049    0.0379    0.0592    0.2193    0.0416    0.0628    0.1100
          35    0.0700    0.0143    0.1074   -0.1142    0.0394   -0.0070   -0.0227    0.0332
          36   -0.0159   -0.0114   -0.0671    0.1596    0.1293    0.0442    0.0734    0.0482
          37    0.0186    0.0052    0.0078    0.0005   -0.1350   -0.0010    0.0021    0.0030
          38    0.1097    0.0347    0.1041    0.0609    0.0304    0.0375    0.0922    0.1870
          39   -0.0006   -0.0014   -0.0012   -0.0009    0.3879   -0.0145   -0.0094   -0.0162
          40    0.0241   -0.0016   -0.0099    0.1384   -0.2405    0.0739    0.0998    0.1251
          41    0.0728    0.0154    0.1152   -0.1286   -0.0353   -0.0078   -0.0267    0.0328
          42    0.0294    0.0104    0.0643   -0.0761   -0.0314   -0.0061   -0.0151    0.0281
          43    0.0231    0.0186    0.0086    0.0168   -0.0017   -0.0221    0.0004   -0.0152
          44    0.1793   -0.0024   -0.0477    0.0171   -0.0018   -0.0084   -0.0390   -0.0076
          45   -0.0414    0.0092    0.0153    0.0010   -0.0005   -0.0064    0.0115   -0.0037
          46    0.0005    0.0136   -0.0129   -0.0013   -0.0009   -0.0186   -0.0087    0.0191
          47    0.0243   -0.0289   -0.0631   -0.0097    0.0005    0.0481   -0.0405   -0.0335
          48    0.0017    0.0082   -0.0017    0.0008    0.0006   -0.0085   -0.0023    0.0087
          49    0.0839    0.0391   -0.0076    0.0247    0.0001   -0.0486   -0.0090   -0.0203
          50    0.0550    0.0186   -0.0214    0.0110    0.0002   -0.0202   -0.0087   -0.0236
          51    0.0144    0.0102    0.0019    0.0060   -0.0006   -0.0131   -0.0004   -0.0024


   Root No.      33        34        35        36        37        38        39        40

                33 A      34 A      35 A      36 A      37 A      38 A      39 A      40 A   

                1505.6    1851.8    1880.5    2934.0    2947.2    3022.4    3028.4    3051.9
  
           1   -0.0217    0.0041    0.0030   -0.0018    0.0018   -0.0103   -0.0121   -0.0016
           2    0.0308   -0.0245   -0.0155    0.0103   -0.0121   -0.0144   -0.0184   -0.0023
           3   -0.0134    0.0080    0.0041    0.0265   -0.0302    0.0036    0.0038   -0.0000
           4    0.0160   -0.0007    0.0058    0.0021    0.0016   -0.0131    0.0091    0.0009
           5    0.0024   -0.0062    0.0264    0.0023    0.0023    0.0192   -0.0143   -0.0013
           6    0.0036   -0.0009    0.0001   -0.0325   -0.0282   -0.0014    0.0016    0.0003
           7   -0.0391    0.0028   -0.0044    0.0000    0.0000    0.0001   -0.0001   -0.0003
           8   -0.0624    0.0093   -0.0276   -0.0000   -0.0000   -0.0000    0.0000    0.0001
           9   -0.0102    0.0004    0.0002   -0.0000   -0.0000    0.0000   -0.0000    0.0002
          10    0.1142    0.0732   -0.0789   -0.0001   -0.0000   -0.0001   -0.0000   -0.0002
          11    0.0630   -0.0621    0.1746    0.0000    0.0000   -0.0002    0.0000    0.0003
          12    0.0353    0.0277   -0.0380   -0.0002   -0.0001   -0.0000   -0.0000   -0.0001
          13   -0.0181   -0.0333    0.0643    0.0004    0.0004    0.0034   -0.0037    0.0055
          14   -0.0157    0.0697   -0.1673   -0.0004   -0.0002    0.0004   -0.0001    0.0000
          15   -0.0049   -0.0144    0.0307    0.0002    0.0001    0.0011   -0.0012    0.0019
          16    0.0035    0.0750    0.0280   -0.0003    0.0005    0.0020    0.0036   -0.0279
          17   -0.0600    0.1754    0.0791   -0.0004    0.0003   -0.0001    0.0001   -0.0013
          18    0.0163   -0.0183   -0.0096   -0.0001    0.0000    0.0007    0.0012   -0.0093
          19   -0.0674   -0.1324   -0.0342    0.0001   -0.0001   -0.0000   -0.0001    0.0142
          20    0.0116   -0.1476   -0.0730    0.0001   -0.0000   -0.0000    0.0003   -0.0287
          21   -0.0277   -0.0103    0.0045    0.0002   -0.0001   -0.0000   -0.0001    0.0121
          22    0.0094    0.0188   -0.0054   -0.0631    0.0768    0.0644    0.0859    0.0103
          23   -0.0066   -0.0312   -0.0098   -0.1479    0.1745    0.1654    0.2112    0.0304
          24    0.0209    0.0136    0.0034   -0.0900    0.1059    0.1203    0.1543    0.0198
          25    0.0118    0.0055   -0.0002    0.0843   -0.0995    0.0538    0.0666    0.0060
          26   -0.0255   -0.0041    0.0023    0.0277   -0.0315    0.0073    0.0081    0.0010
          27   -0.0048    0.0052    0.0029   -0.2304    0.2572   -0.1642   -0.2006   -0.0216
          28   -0.0102   -0.0044    0.0032   -0.0972   -0.0870    0.0689   -0.0501   -0.0036
          29   -0.0004   -0.0054    0.0026    0.1083    0.0921   -0.0706    0.0501    0.0037
          30   -0.0053    0.0004    0.0038    0.2437    0.2061   -0.1985    0.1428    0.0106
          31    0.0003   -0.0185    0.0062    0.0725    0.0670    0.0850   -0.0666   -0.0052
          32   -0.0087   -0.0171    0.0261   -0.1318   -0.1182   -0.1607    0.1204    0.0104
          33    0.0008   -0.0031    0.0038    0.1481    0.1325    0.2140   -0.1611   -0.0133
          34    0.0745    0.0080   -0.0078    0.0000    0.0001   -0.0001    0.0001    0.0021
          35    0.0548    0.0108   -0.0203   -0.0001   -0.0002    0.0001   -0.0001   -0.0020
          36   -0.0065   -0.0001   -0.0016   -0.0001   -0.0001    0.0002   -0.0001   -0.0022
          37   -0.0253    0.0036   -0.0010   -0.0001    0.0000   -0.0005    0.0006    0.0040
          38    0.0311   -0.0240    0.0443    0.0000   -0.0000   -0.0001    0.0001   -0.0002
          39   -0.0095    0.0029   -0.0028   -0.0000    0.0000   -0.0002    0.0002    0.0016
          40    0.0556    0.0063   -0.0079    0.0000    0.0000    0.0000   -0.0000    0.0002
          41    0.0582    0.0111   -0.0203    0.0001    0.0001   -0.0000    0.0000    0.0007
          42    0.0451    0.0038   -0.0014   -0.0001   -0.0001   -0.0001    0.0000   -0.0009
          43    0.0033    0.0983    0.0384    0.0043   -0.0044   -0.0205   -0.0425    0.3343
          44    0.0845   -0.0301   -0.0268    0.0010   -0.0014   -0.0025   -0.0038    0.0163
          45   -0.0189    0.0456    0.0222    0.0020   -0.0023   -0.0062   -0.0134    0.1115
          46   -0.0178   -0.0432    0.0886   -0.0052   -0.0039   -0.0365    0.0440   -0.0671
          47    0.0839   -0.0067    0.0560    0.0005    0.0006    0.0005    0.0004   -0.0024
          48   -0.0121   -0.0163    0.0304   -0.0026   -0.0023   -0.0118    0.0144   -0.0222
          49    0.0496    0.0594    0.0810   -0.0001    0.0004   -0.0007    0.0014   -0.1700
          50    0.0887   -0.0684   -0.0159   -0.0001   -0.0003    0.0019   -0.0019    0.3363
          51    0.0013    0.0397    0.0342    0.0004   -0.0003   -0.0006    0.0010   -0.1433


   Root No.      41        42        43        44        45

                41 A      42 A      43 A      44 A      45 A   

                3055.3    3069.5    3071.6    3077.0    3168.5
  
           1    0.0006   -0.0001   -0.0017   -0.0002   -0.0000
           2    0.0008   -0.0001   -0.0029   -0.0002    0.0000
           3   -0.0001   -0.0000    0.0001    0.0000   -0.0000
           4   -0.0030    0.0001    0.0006    0.0002   -0.0000
           5    0.0047   -0.0001   -0.0009   -0.0002   -0.0000
           6   -0.0012   -0.0001    0.0003    0.0001   -0.0000
           7   -0.0024    0.0154    0.0028   -0.0409   -0.0106
           8    0.0012   -0.0017   -0.0016    0.0187   -0.0222
           9   -0.0009   -0.0527    0.0026   -0.0124   -0.0027
          10    0.0018    0.0000    0.0005   -0.0002   -0.0001
          11   -0.0039    0.0001    0.0007    0.0007   -0.0004
          12    0.0008   -0.0001    0.0001   -0.0001   -0.0000
          13   -0.0515    0.0004    0.0035    0.0022    0.0003
          14    0.0017   -0.0001   -0.0001   -0.0007    0.0002
          15   -0.0173   -0.0000    0.0011    0.0008    0.0001
          16   -0.0077   -0.0016   -0.0332   -0.0022   -0.0000
          17   -0.0009   -0.0003   -0.0061   -0.0005   -0.0000
          18   -0.0024   -0.0005   -0.0100   -0.0006   -0.0000
          19    0.0018   -0.0003   -0.0100   -0.0008    0.0000
          20   -0.0020    0.0010    0.0289    0.0030    0.0003
          21    0.0011   -0.0004   -0.0107   -0.0010   -0.0000
          22   -0.0027    0.0005    0.0105    0.0008    0.0000
          23   -0.0052    0.0016    0.0311    0.0024    0.0000
          24   -0.0045    0.0010    0.0200    0.0015    0.0000
          25   -0.0022    0.0003    0.0062    0.0005   -0.0000
          26   -0.0001    0.0000    0.0008    0.0001   -0.0000
          27    0.0054   -0.0010   -0.0220   -0.0018    0.0000
          28    0.0117   -0.0003   -0.0019   -0.0004   -0.0000
          29   -0.0138    0.0002    0.0019    0.0005    0.0001
          30   -0.0391    0.0007    0.0056    0.0014    0.0001
          31    0.0196   -0.0002   -0.0031   -0.0007   -0.0000
          32   -0.0438    0.0005    0.0061    0.0017    0.0001
          33    0.0526   -0.0005   -0.0078   -0.0020   -0.0001
          34    0.0045   -0.2295   -0.0023    0.1163   -0.1791
          35   -0.0047    0.2353    0.0026   -0.1261    0.1639
          36   -0.0070    0.2548    0.0054   -0.1689    0.2069
          37    0.0252    0.0326   -0.0350    0.3881    0.3139
          38    0.0005   -0.0024    0.0012   -0.0154   -0.0289
          39    0.0087   -0.0180   -0.0114    0.1370    0.1104
          40   -0.0010    0.0117    0.0008   -0.0192   -0.0068
          41   -0.0040   -0.2132    0.0129   -0.0829    0.1324
          42    0.0092    0.3955   -0.0263    0.1789   -0.2848
          43    0.0902    0.0173    0.3648    0.0238    0.0002
          44    0.0049    0.0010    0.0220    0.0015    0.0000
          45    0.0299    0.0057    0.1204    0.0078    0.0001
          46    0.5890   -0.0039   -0.0350   -0.0252   -0.0038
          47    0.0212   -0.0002   -0.0013   -0.0021   -0.0007
          48    0.1956   -0.0008   -0.0117   -0.0083   -0.0012
          49   -0.0134    0.0054    0.1432    0.0143    0.0005
          50    0.0254   -0.0100   -0.2914   -0.0270   -0.0022
          51   -0.0110    0.0040    0.1227    0.0118    0.0007


           MASS-WEIGHTED COORDINATE ANALYSIS (NORMAL COORDINATES)


   Root No.       1         2         3         4         5         6         7         8

                 1 A       2 A       3 A       4 A       5 A       6 A       7 A       8 A   

                  99.2     103.3     223.2     299.5     360.1     480.4     548.0     577.5
  
           1    0.0206   -0.0119    0.0330   -0.0123    0.1097   -0.2852    0.0222   -0.1488
           2   -0.0534    0.1552   -0.0405   -0.0603   -0.0880   -0.3705    0.1111    0.1051
           3   -0.1160    0.4300   -0.0269   -0.1036    0.0391    0.0770   -0.0227   -0.0437
           4    0.0213   -0.0163    0.0195    0.0018    0.0905   -0.2956    0.0730   -0.0744
           5    0.0013   -0.0029    0.0527    0.0062    0.1263    0.0975    0.1047    0.4475
           6   -0.0290   -0.2813   -0.3113   -0.0148    0.0266   -0.0411   -0.0300    0.0483
           7    0.0399   -0.1117    0.1075   -0.1266    0.4475    0.1684   -0.0265    0.0331
           8    0.0008   -0.0086   -0.0097    0.0361   -0.1791    0.3713   -0.1268   -0.1490
           9   -0.1017    0.2609   -0.2944    0.0728    0.1827    0.0367    0.0087    0.0145
          10   -0.0146    0.0166   -0.0524    0.1577   -0.2604    0.1564   -0.2169    0.1415
          11    0.0102   -0.0327    0.0139   -0.0498    0.1584    0.2836   -0.0543   -0.1431
          12    0.0462   -0.0496    0.2168   -0.3209   -0.1857    0.1068    0.5471   -0.1398
          13   -0.0007    0.0251   -0.1493   -0.0020   -0.2243   -0.0632    0.1691    0.4439
          14    0.0062   -0.0373    0.0323   -0.0120    0.2199    0.0885    0.0242    0.1464
          15   -0.0055   -0.0727    0.5275    0.1727   -0.0346   -0.1334   -0.1090    0.1091
          16   -0.0299    0.0287    0.0006   -0.1062   -0.0796    0.1211   -0.1888   -0.3741
          17    0.0144   -0.0311   -0.0342    0.1410   -0.1467   -0.2185    0.0843   -0.1186
          18    0.0952   -0.0572    0.0057    0.4605    0.0604    0.0585    0.1448   -0.1570
          19   -0.0524    0.0933    0.0006    0.1690   -0.2626    0.2055    0.0471   -0.0066
          20    0.0295   -0.0749   -0.0271   -0.0600   -0.0188   -0.2358   -0.0874   -0.3214
          21    0.1602   -0.2935    0.0525   -0.3437   -0.1841    0.0263   -0.2465    0.1361
          22    0.0256   -0.1108   -0.0092    0.0312    0.0698   -0.0375    0.0490    0.0746
          23    0.0117   -0.0376   -0.0197    0.0839   -0.0344   -0.0811    0.0917   -0.0303
          24   -0.0893    0.3258    0.0177   -0.2148   -0.0006   -0.0538   -0.1309    0.0042
          25   -0.0090    0.1287    0.0632   -0.0290    0.0399   -0.1239    0.0071   -0.0743
          26   -0.0797    0.2437   -0.0028   -0.2314   -0.0586   -0.2035   -0.1242    0.0270
          27   -0.0469    0.1977    0.0131   -0.0668    0.0102   -0.0067   -0.0284   -0.0251
          28    0.0252   -0.1423   -0.0433    0.0150    0.0529   -0.1305    0.0222   -0.0547
          29    0.0030    0.0931    0.2690    0.0471    0.0485    0.0627   -0.0214    0.2099
          30   -0.0020   -0.1788   -0.2244   -0.0188    0.0131   -0.0468    0.0153   -0.0367
          31   -0.0006    0.0873    0.0739   -0.0046    0.0679   -0.0095    0.0059   -0.0341
          32    0.0032   -0.0896   -0.1747   -0.0336    0.0696    0.0332    0.0640    0.0555
          33   -0.0027   -0.2008   -0.2857   -0.0326    0.0165   -0.0451    0.0277   -0.0473
          34   -0.2757   -0.1567    0.1247   -0.1141    0.2390    0.0591    0.0986   -0.0260
          35    0.2170   -0.0039    0.0800   -0.0879   -0.0025    0.1255    0.1171   -0.1029
          36   -0.4566   -0.0255   -0.0822    0.0455    0.0968    0.0033   -0.0496    0.0276
          37   -0.1573   -0.0924    0.0679   -0.0533    0.1179    0.0508    0.0244   -0.0014
          38    0.0292    0.0113   -0.0060    0.0497   -0.2757    0.1077   -0.0513   -0.0438
          39    0.4578    0.2490   -0.1910    0.0707    0.0793    0.0054   -0.0891    0.0401
          40    0.4910    0.1232   -0.0502   -0.0270    0.2632    0.0479   -0.0537    0.0333
          41   -0.2502   -0.0098   -0.0898    0.0920    0.0308    0.0990   -0.1988    0.0150
          42   -0.1623    0.0721   -0.1329    0.0654    0.1001    0.0057   -0.0867    0.0374
          43   -0.0183    0.0231    0.0028   -0.1123   -0.0355    0.0633   -0.0380   -0.1124
          44    0.0130   -0.0330   -0.0104    0.1103   -0.0982   -0.0117    0.0051    0.0039
          45    0.0545   -0.0541   -0.0051    0.3652    0.0633   -0.0821   -0.0036   -0.0379
          46    0.0041   -0.0068   -0.0919   -0.0577   -0.0787    0.0112    0.1215    0.1364
          47    0.0020   -0.0174    0.0074    0.0012    0.1126   -0.0621    0.0134    0.0237
          48   -0.0140    0.0191    0.2965    0.2199    0.0334   -0.1200   -0.2503    0.0070
          49   -0.0305    0.0647    0.0024    0.0705   -0.1176    0.0435    0.1798    0.0075
          50    0.0197   -0.0461   -0.0099   -0.0353   -0.0402   -0.1256   -0.0880   -0.0437
          51    0.0908   -0.1859    0.0077   -0.1678   -0.0819   -0.1115   -0.4141    0.1431


   Root No.       9        10        11        12        13        14        15        16

                 9 A      10 A      11 A      12 A      13 A      14 A      15 A      16 A   

                 703.5     792.2     829.0     868.9     951.6     970.4     983.6     993.0
  
           1    0.0241   -0.0210   -0.1061    0.0197    0.1249    0.2942   -0.0711    0.1298
           2    0.0445   -0.0978   -0.1469    0.1868    0.2162    0.3007   -0.1826    0.0660
           3   -0.2271   -0.0217    0.0537    0.2460    0.1756    0.0024   -0.0093   -0.1907
           4    0.0604   -0.0916   -0.1409    0.0937   -0.0925   -0.2455    0.0568   -0.2018
           5   -0.1087    0.0878    0.3083   -0.1723    0.0959    0.1734    0.0189    0.0515
           6   -0.1849    0.1389   -0.2479    0.0916   -0.2516   -0.0155    0.0382    0.0965
           7    0.1069   -0.0621   -0.1320    0.0321    0.0383    0.1195    0.3267   -0.0892
           8    0.2447   -0.0887   -0.2813    0.1735   -0.0084   -0.0683   -0.0919    0.0891
           9    0.0476    0.0368    0.0387    0.1165   -0.0415   -0.0228    0.1776    0.2301
          10    0.0629   -0.0986   -0.0554    0.0020    0.0273    0.0588    0.0859    0.0815
          11    0.0955   -0.0008   -0.0366    0.0026    0.0063    0.0270   -0.0057   -0.0365
          12    0.1389    0.1470    0.0425    0.0725    0.0383    0.0512   -0.0058   -0.1857
          13   -0.0235   -0.0143    0.1115    0.1239   -0.2026   -0.2175   -0.0231    0.1371
          14   -0.0109    0.0315    0.1128   -0.0769   -0.0477   -0.1147    0.0015   -0.0601
          15    0.0063    0.0151   -0.1647   -0.2627    0.2173   -0.1149   -0.0103    0.0133
          16   -0.2928    0.2642    0.3074   -0.1585   -0.0348    0.1536   -0.1592    0.0849
          17   -0.0788   -0.0463   -0.0089   -0.0231   -0.0304   -0.1636    0.0573   -0.0440
          18   -0.0405   -0.1645    0.0910   -0.1763    0.0862   -0.1176    0.0132    0.2739
          19    0.0713    0.1132    0.0945   -0.0406    0.1266   -0.0478   -0.1499   -0.1126
          20   -0.2691    0.0362    0.0867   -0.0823   -0.1643   -0.0652    0.1474    0.0433
          21   -0.0459   -0.2899   -0.0066   -0.1335   -0.2364    0.2206   -0.1584   -0.1136
          22   -0.1336    0.0129   -0.0645    0.1632    0.0445    0.2739    0.0032    0.0164
          23   -0.1082   -0.0821   -0.0484    0.1588    0.1925    0.0636   -0.1237   -0.0364
          24    0.2300    0.0647    0.0459   -0.2072   -0.1597   -0.0897    0.0911    0.0452
          25    0.1847   -0.0915    0.0082   -0.1902    0.1481   -0.0678    0.0568    0.0420
          26    0.3137    0.0930   -0.0483   -0.2098   -0.2259    0.0736   -0.0418    0.1757
          27    0.0447   -0.0213    0.0322   -0.0417    0.0554   -0.0595    0.0291   -0.0304
          28    0.1782   -0.0915    0.0062   -0.2146    0.0716   -0.1234    0.0643    0.0235
          29   -0.2797    0.1658   -0.1716   -0.0865   -0.1628    0.0169    0.0665    0.1405
          30    0.1301   -0.0517    0.0723   -0.0597    0.0548   -0.0137    0.0041    0.0037
          31   -0.1534    0.0538   -0.0750    0.1427   -0.1314   -0.1290    0.1058   -0.3108
          32    0.1334   -0.0511    0.3451   -0.0983    0.1697    0.0467    0.0454   -0.2037
          33    0.1759   -0.0674    0.1634   -0.0703    0.1025    0.0194    0.0029   -0.0398
          34    0.0823    0.0323    0.0133    0.1298   -0.0579   -0.1497   -0.2168    0.1978
          35    0.1466    0.0469    0.0062    0.2335   -0.0846   -0.1770   -0.1534    0.3515
          36   -0.0116   -0.0137   -0.0294   -0.0316    0.0062   -0.0172   -0.0903   -0.0430
          37    0.0458   -0.0044   -0.0162    0.0445   -0.0017    0.0237    0.1284    0.0312
          38    0.0747   -0.0452   -0.0953    0.0521    0.0389    0.1891    0.5990   -0.0355
          39   -0.0255   -0.0309   -0.0575   -0.0631    0.0243    0.0280   -0.0187   -0.0983
          40    0.0160   -0.0374   -0.0873   -0.0260    0.0003   -0.0777   -0.2791   -0.0680
          41    0.0140   -0.1076   -0.2270   -0.1041    0.0511   -0.0143   -0.2891   -0.2559
          42   -0.0185   -0.0337   -0.0679   -0.0538    0.0184   -0.0032   -0.0952   -0.0905
          43   -0.1888   -0.1333    0.1012   -0.0695    0.0761   -0.0634   -0.0154    0.1143
          44    0.0702    0.1432    0.0457   -0.0540   -0.1413   -0.1727   -0.0520   -0.2761
          45    0.2862    0.5610   -0.0137    0.0229   -0.2108    0.3181   -0.0840   -0.1469
          46   -0.0594    0.0947   -0.1312   -0.1259    0.0555   -0.0982   -0.0005    0.0565
          47   -0.0271   -0.0037    0.0440    0.0248   -0.1306   -0.1831    0.0738   -0.1779
          48    0.1639   -0.2932    0.4436    0.4071   -0.2730    0.0767   -0.0298   -0.0311
          49   -0.0041   -0.1458   -0.0274   -0.1034   -0.1608    0.0142   -0.0749   -0.2052
          50   -0.0514    0.1109    0.0321    0.0552    0.0601   -0.1509    0.0652   -0.0593
          51    0.0797    0.3633    0.0785    0.2561    0.4238   -0.2704    0.0350    0.0038


   Root No.      17        18        19        20        21        22        23        24

                17 A      18 A      19 A      20 A      21 A      22 A      23 A      24 A   

                1004.8    1037.4    1050.9    1073.6    1108.4    1137.4    1157.1    1226.0
  
           1   -0.0950    0.0715    0.1205   -0.0502   -0.1473    0.1249    0.0596   -0.1026
           2   -0.0756   -0.0179   -0.2185    0.0182    0.0105   -0.0204    0.0081    0.0975
           3    0.0532   -0.1768    0.0831    0.1183    0.2716   -0.0159    0.0061   -0.0523
           4   -0.0457   -0.0672   -0.1193   -0.0480    0.1434   -0.1385    0.0115   -0.1696
           5   -0.0699    0.0270    0.1320    0.0217   -0.0551   -0.0566   -0.0032   -0.0052
           6   -0.1508    0.1759    0.0003    0.1133   -0.2649   -0.0016    0.0314   -0.0215
           7    0.1172    0.0768   -0.0728    0.0185    0.0091    0.0200    0.0014   -0.0296
           8    0.1247   -0.0195    0.1248   -0.0060    0.0119   -0.0451   -0.0288    0.0747
           9   -0.1259   -0.2237   -0.0296   -0.0121    0.0062    0.0206   -0.0070   -0.0201
          10   -0.0437   -0.1201    0.0731   -0.0273   -0.0227   -0.0944   -0.0024    0.0791
          11   -0.0749    0.0331   -0.0981    0.0137   -0.0095    0.0358    0.0688   -0.2375
          12    0.1420    0.3370    0.0259    0.0448   -0.0169   -0.0557    0.0170    0.0541
          13    0.4489    0.0346   -0.0007    0.0423   -0.0100    0.0187    0.0437   -0.0234
          14    0.0297   -0.0316   -0.1851   -0.0118   -0.0151    0.1642    0.0061   -0.3005
          15    0.1961   -0.2981   -0.0016   -0.2027   -0.0041    0.0142    0.0254   -0.0051
          16    0.1271   -0.0415   -0.1892    0.0522    0.0207   -0.0118   -0.0149    0.0335
          17   -0.0740    0.0505    0.1224   -0.0503    0.0004   -0.0070    0.0624    0.0999
          18   -0.0552    0.2827   -0.1279   -0.2035    0.0075   -0.0131   -0.0277   -0.0237
          19   -0.3542    0.0988   -0.0976   -0.0269   -0.0009    0.0883   -0.0110    0.0909
          20    0.2524   -0.0565    0.2409   -0.0048    0.0283   -0.0279   -0.0025    0.0532
          21   -0.1418   -0.2257   -0.0699    0.0432    0.0030    0.0363   -0.0006    0.0263
          22   -0.1277    0.0883    0.3707   -0.2914    0.3470    0.2045    0.2581    0.1680
          23    0.0393   -0.1238   -0.2998    0.2058   -0.1339   -0.1309   -0.1417   -0.0965
          24   -0.0264    0.0922    0.1634   -0.0910    0.0336    0.0676    0.0702    0.0489
          25   -0.0460   -0.0372    0.2071    0.4148   -0.4955    0.1966    0.1695    0.1559
          26   -0.0803    0.1967   -0.2174   -0.2927    0.0563   -0.1440   -0.1159   -0.0806
          27    0.0043   -0.0468    0.0736    0.1628   -0.0839    0.0436    0.0443    0.0421
          28   -0.1298    0.0158    0.0423    0.4151    0.5023   -0.2875   -0.1363    0.0938
          29   -0.2451    0.1876    0.0598    0.3251    0.0872   -0.2333   -0.1217    0.1656
          30    0.0119   -0.0168    0.0200    0.0691    0.0639   -0.0078    0.0013   -0.0158
          31   -0.1890   -0.0745    0.0435   -0.2841   -0.3406   -0.4230   -0.0764    0.1443
          32   -0.0416   -0.1423    0.1268   -0.2131   -0.1223   -0.2961   -0.0973    0.2060
          33    0.0227   -0.0528    0.0454   -0.0242    0.0119   -0.0556   -0.0277    0.0687
          34   -0.0517   -0.1453    0.0804   -0.0211    0.0045   -0.0132   -0.0244    0.1025
          35   -0.1096   -0.2747    0.1095   -0.0296    0.0105   -0.0236   -0.0367    0.1303
          36    0.0287    0.0410    0.0123   -0.0003   -0.0022   -0.0010    0.0006   -0.0009
          37    0.0028   -0.0308   -0.0244    0.0019    0.0045    0.0122   -0.0052   -0.0019
          38    0.0767    0.0037   -0.1021    0.0204    0.0200    0.0448   -0.0260    0.0402
          39    0.0644    0.0864   -0.0057    0.0066   -0.0009   -0.0046    0.0073    0.0032
          40    0.0966    0.0874    0.0729   -0.0039   -0.0004   -0.0183   -0.0163    0.0841
          41    0.2500    0.2700    0.1030    0.0106    0.0027   -0.0451   -0.0200    0.1413
          42    0.0801    0.0885    0.0255    0.0033    0.0007   -0.0117   -0.0057    0.0529
          43   -0.0168    0.0859   -0.0691   -0.0473   -0.0041   -0.0015    0.0060    0.0033
          44   -0.2190   -0.0906   -0.0614    0.0857    0.0936    0.0279    0.6332   -0.1658
          45    0.1690   -0.1919    0.0304    0.1107    0.0177   -0.0017   -0.1418    0.0476
          46    0.1396   -0.0972    0.0001   -0.0472    0.0075    0.0003    0.0183   -0.0212
          47   -0.0485   -0.0229   -0.3614   -0.0352    0.0781    0.4949   -0.1653    0.5992
          48    0.0456    0.2340    0.0380    0.1216   -0.0418   -0.0461    0.0098   -0.0297
          49   -0.2119   -0.0750    0.2640   -0.0007    0.0013    0.3052   -0.4968   -0.3083
          50   -0.0103    0.0478    0.2344   -0.0104    0.0067    0.1568   -0.2913   -0.1875
          51   -0.1156    0.2106    0.0106   -0.0179   -0.0069    0.0698   -0.1124   -0.0706


   Root No.      25        26        27        28        29        30        31        32

                25 A      26 A      27 A      28 A      29 A      30 A      31 A      32 A   

                1238.7    1358.0    1359.0    1392.2    1394.4    1402.8    1404.0    1417.4
  
           1    0.1768   -0.3061   -0.1725   -0.0646    0.0103    0.2383   -0.3230    0.2803
           2   -0.0097    0.1083    0.1642    0.2692   -0.0204   -0.3365   -0.1289   -0.0702
           3    0.0150   -0.0435   -0.1066   -0.1277    0.0093    0.1371    0.0371    0.0638
           4   -0.0851   -0.2327    0.2786    0.0073   -0.0029   -0.0226    0.3731   -0.3308
           5    0.1206   -0.0453    0.2241    0.0672    0.0085    0.4205    0.0276   -0.3348
           6   -0.0160    0.0093    0.0540    0.0214   -0.0006    0.0287    0.0160   -0.0520
           7    0.0966    0.0182   -0.0014   -0.0920    0.0753   -0.1113   -0.1269   -0.1887
           8    0.1187   -0.0508   -0.2398    0.2385   -0.0212   -0.0156   -0.0302   -0.3189
           9    0.0269    0.0109    0.0113   -0.0482   -0.2432   -0.0280   -0.0385   -0.0413
          10   -0.2125   -0.1200   -0.1706   -0.0795    0.0059    0.1558   -0.0462   -0.0535
          11   -0.3237    0.0133   -0.1108   -0.0930    0.0002   -0.0700   -0.0328    0.1470
          12   -0.0550   -0.0425   -0.0541   -0.0223   -0.0046    0.0616   -0.0167   -0.0257
          13    0.0239    0.1108   -0.1221   -0.0075   -0.0026   -0.1305   -0.0885    0.1343
          14   -0.1889    0.1298    0.0039   -0.0634    0.0011   -0.1619   -0.0077    0.2911
          15    0.0143    0.0279   -0.0357    0.0017   -0.0024   -0.0436   -0.0215    0.0262
          16    0.1396    0.1504    0.0871    0.1255   -0.0095   -0.1672    0.0243   -0.1083
          17   -0.1949   -0.0872    0.0607   -0.0910    0.0070    0.1079    0.0472    0.1262
          18    0.1086    0.0696    0.0106    0.0682   -0.0056   -0.0862   -0.0137   -0.0617
          19   -0.2270   -0.0375    0.1500   -0.0697    0.0058    0.0603    0.0801    0.1229
          20   -0.0710   -0.0552   -0.0522   -0.0597    0.0045    0.0982    0.0184   -0.0105
          21   -0.0569    0.0020    0.0686   -0.0085    0.0015   -0.0035    0.0277    0.0425
          22   -0.0773    0.3421   -0.1047   -0.0819   -0.0013   -0.1558    0.2117   -0.0381
          23    0.1353    0.0207   -0.1356   -0.1213    0.0086    0.1249    0.0601    0.0104
          24   -0.1096   -0.2290    0.2504    0.2694   -0.0147   -0.1389   -0.2843    0.0360
          25   -0.0486    0.2660   -0.0556   -0.0747   -0.0002   -0.0965    0.2266   -0.0911
          26    0.1584    0.2178   -0.2656   -0.2753    0.0161    0.1796    0.2601   -0.0278
          27   -0.0199    0.1153   -0.0471   -0.0724    0.0027   -0.0007    0.1323   -0.0411
          28   -0.0455    0.2742   -0.0480    0.0681    0.0010    0.0853   -0.2319    0.0879
          29    0.1089   -0.2524   -0.1582   -0.0712   -0.0078   -0.3086    0.1131    0.1119
          30   -0.0383    0.2100    0.0496    0.0611    0.0043    0.1977   -0.1532   -0.0251
          31   -0.0287    0.3617   -0.0271    0.1119   -0.0020    0.0264   -0.2409    0.0673
          32    0.1379   -0.1572   -0.1530   -0.0449   -0.0060   -0.2460    0.0581    0.0927
          33    0.0728   -0.2743   -0.1054   -0.0874   -0.0058   -0.2757    0.1801    0.0636
          34    0.1046    0.0119    0.1051    0.1491    0.3893    0.1013    0.1722    0.2336
          35    0.1855    0.0349    0.2979   -0.2875    0.0700   -0.0171   -0.0622    0.0706
          36   -0.0421   -0.0277   -0.1861    0.4017    0.2294    0.1076    0.2011    0.1022
          37    0.0493    0.0128    0.0216    0.0014   -0.2397   -0.0024    0.0058    0.0065
          38    0.2906    0.0846    0.2887    0.1533    0.0540    0.0912    0.2528    0.3970
          39   -0.0015   -0.0034   -0.0034   -0.0022    0.6886   -0.0351   -0.0258   -0.0344
          40    0.0639   -0.0038   -0.0275    0.3482   -0.4270    0.1796    0.2734    0.2655
          41    0.1928    0.0376    0.3196   -0.3236   -0.0628   -0.0189   -0.0731    0.0697
          42    0.0779    0.0255    0.1784   -0.1916   -0.0557   -0.0147   -0.0414    0.0596
          43    0.0612    0.0454    0.0238    0.0422   -0.0029   -0.0537    0.0012   -0.0323
          44    0.4750   -0.0060   -0.1322    0.0431   -0.0032   -0.0205   -0.1070   -0.0162
          45   -0.1095    0.0225    0.0424    0.0024   -0.0009   -0.0155    0.0314   -0.0078
          46    0.0013    0.0332   -0.0356   -0.0033   -0.0016   -0.0452   -0.0238    0.0405
          47    0.0643   -0.0705   -0.1749   -0.0243    0.0010    0.1170   -0.1110   -0.0711
          48    0.0046    0.0200   -0.0047    0.0019    0.0011   -0.0207   -0.0062    0.0184
          49    0.2224    0.0955   -0.0211    0.0621    0.0002   -0.1181   -0.0247   -0.0430
          50    0.1458    0.0453   -0.0593    0.0276    0.0003   -0.0491   -0.0237   -0.0501
          51    0.0380    0.0249    0.0053    0.0150   -0.0011   -0.0319   -0.0010   -0.0052


   Root No.      33        34        35        36        37        38        39        40

                33 A      34 A      35 A      36 A      37 A      38 A      39 A      40 A   

                1505.6    1851.8    1880.5    2934.0    2947.2    3022.4    3028.4    3051.9
  
           1   -0.1092    0.0133    0.0101   -0.0124    0.0128   -0.0764   -0.0925   -0.0097
           2    0.1554   -0.0794   -0.0520    0.0720   -0.0848   -0.1068   -0.1402   -0.0141
           3   -0.0673    0.0259    0.0137    0.1855   -0.2120    0.0266    0.0290   -0.0000
           4    0.0804   -0.0021    0.0195    0.0145    0.0112   -0.0973    0.0692    0.0055
           5    0.0122   -0.0200    0.0884    0.0162    0.0162    0.1428   -0.1089   -0.0079
           6    0.0182   -0.0028    0.0004   -0.2277   -0.1981   -0.0103    0.0121    0.0017
[...]

 VIBRATION         28   28A           ATOM PAIR      ENERGY CONTRIBUTION    RADIAL
 FREQUENCY          1392.18         C  3 -- H 12         +19.7% ( 46.7%)      3.3%
 TRANSITION DIPOLE   0.0817         C  3 -- H 14         +19.5% ( 46.4%)      3.6%
 TRAVEL (Ang.)       0.3822         C  1 -- H  8         +11.7% ( 36.0%)      4.1%
 REDUCED MASS        0.3315         C  1 -- H  9         +11.3% ( 35.3%)      4.4%
 EFFECTIVE MASS      3.2832         C  1 -- C  6         +10.1% ( 33.5%)     99.4%
 FORCE CONSTANT      0.3785

 VIBRATION         29   29A           ATOM PAIR      ENERGY CONTRIBUTION    RADIAL
 FREQUENCY          1394.38         C  3 -- H 13         +53.6% ( 63.3%)      0.0%
 TRANSITION DIPOLE   0.0565         C  3 -- H 12         +21.4% ( 40.0%)     10.7%
 TRAVEL (Ang.)       0.3396         C  3 -- H 14         +19.6% ( 38.3%)     12.0%
 REDUCED MASS        0.4194         C  3 -- C  4          +5.0% ( 19.4%)      0.2%
 EFFECTIVE MASS      1.5684
 FORCE CONSTANT      0.4804

 VIBRATION         30   30A           ATOM PAIR      ENERGY CONTRIBUTION    RADIAL
 FREQUENCY          1402.84         C  1 -- C  2         +14.6% ( 51.3%)     10.4%
 TRANSITION DIPOLE   0.0401         C  2 -- H 10         +12.4% ( 47.3%)      5.0%
 TRAVEL (Ang.)       0.2280         C  2 -- H 11         +11.7% ( 46.0%)      7.7%
 REDUCED MASS        0.9246         C  1 -- C  6         +11.6% ( 45.9%)     92.7%
 EFFECTIVE MASS      6.4813         C  2 -- C  5         +11.0% ( 44.5%)     94.5%
 FORCE CONSTANT      1.0721         C  1 -- H  8         +10.1% ( 42.7%)      1.9%

 VIBRATION         31   31A           ATOM PAIR      ENERGY CONTRIBUTION    RADIAL
 FREQUENCY          1404.05         C  1 -- C  2         +16.9% ( 47.3%)     95.1%
 TRANSITION DIPOLE   0.0417         C  1 -- H  9         +13.4% ( 42.1%)      4.6%
 TRAVEL (Ang.)       0.3127         C  1 -- H  8         +12.6% ( 40.8%)      6.4%
 REDUCED MASS        0.4912         C  2 -- H 11         +12.4% ( 40.5%)      2.8%
 EFFECTIVE MASS      4.0819         C  2 -- H 10         +12.1% ( 40.0%)      2.4%
 FORCE CONSTANT      0.5706

 VIBRATION         32   32A           ATOM PAIR      ENERGY CONTRIBUTION    RADIAL
 FREQUENCY          1417.37         C  2 -- C  5         +15.5% ( 56.2%)     95.4%
 TRANSITION DIPOLE   0.0515         C  1 -- C  2         +11.6% ( 48.7%)     81.7%
 TRAVEL (Ang.)       0.2064         C  3 -- H 13         +10.8% ( 46.9%)      4.8%
 REDUCED MASS        1.1171         C  2 -- H 10          +8.3% ( 41.1%)      0.6%
 EFFECTIVE MASS      7.7236
 FORCE CONSTANT      1.3222

 VIBRATION         33   33A           ATOM PAIR      ENERGY CONTRIBUTION    RADIAL
 FREQUENCY          1505.63         C  4 -- C  7         +24.1% ( 73.9%)     95.7%
 TRANSITION DIPOLE   0.2127         C  3 -- C  4         +22.7% ( 71.6%)     78.6%
 TRAVEL (Ang.)       0.1186         C  4 -- C  5         +14.7% ( 57.7%)      0.3%
 REDUCED MASS        3.1827         C  6 -- C  7          +6.5% ( 38.5%)      6.2%
 EFFECTIVE MASS     10.9150
 FORCE CONSTANT      4.2509

 VIBRATION         34   34A           ATOM PAIR      ENERGY CONTRIBUTION    RADIAL
 FREQUENCY          1851.82         C  6 -- C  7         +36.6% ( 89.9%)     99.8%
 TRANSITION DIPOLE   0.3387         C  4 -- C  7         +15.7% ( 58.8%)     87.2%
 TRAVEL (Ang.)       0.0953         C  1 -- C  6         +11.4% ( 50.2%)     48.3%
 REDUCED MASS        4.0080         C  7 -- H 17         +11.3% ( 50.0%)      3.6%
 EFFECTIVE MASS     11.9093         C  6 -- H 15         +10.5% ( 48.1%)      5.4%
 FORCE CONSTANT      8.0980

 VIBRATION         35   35A           ATOM PAIR      ENERGY CONTRIBUTION    RADIAL
 FREQUENCY          1880.53         C  4 -- C  5         +36.6% ( 88.8%)     97.9%
 TRANSITION DIPOLE   0.3675         C  4 -- C  7         +14.4% ( 55.6%)      2.9%
 TRAVEL (Ang.)       0.0944         C  3 -- C  4         +12.9% ( 52.8%)     47.3%
 REDUCED MASS        4.0212         C  2 -- C  5         +11.0% ( 48.7%)     52.7%
 EFFECTIVE MASS     11.8147         C  5 -- H 16         +10.2% ( 46.9%)      4.0%
 FORCE CONSTANT      8.3785

 VIBRATION         36   36A           ATOM PAIR      ENERGY CONTRIBUTION    RADIAL
 FREQUENCY          2933.98         C  2 -- H 10         +35.1% ( 61.6%)     97.5%
 TRANSITION DIPOLE   0.0143         C  1 -- H  9         +26.6% ( 53.6%)     97.5%
 TRAVEL (Ang.)       0.2861         C  2 -- H 11         +20.4% ( 47.0%)     94.5%
 REDUCED MASS        0.2807         C  1 -- H  8         +15.6% ( 41.1%)     94.5%
 EFFECTIVE MASS      1.5456
 FORCE CONSTANT      1.4239

 VIBRATION         37   37A           ATOM PAIR      ENERGY CONTRIBUTION    RADIAL
 FREQUENCY          2947.23         C  1 -- H  9         +33.9% ( 60.2%)     97.6%
 TRANSITION DIPOLE   0.0262         C  2 -- H 10         +25.7% ( 52.4%)     97.6%
 TRAVEL (Ang.)       0.2883         C  1 -- H  8         +21.8% ( 48.3%)     95.1%
 REDUCED MASS        0.2752         C  2 -- H 11         +16.5% ( 42.0%)     95.2%
 EFFECTIVE MASS      1.5252
 FORCE CONSTANT      1.4083

 VIBRATION         38   38A           ATOM PAIR      ENERGY CONTRIBUTION    RADIAL
 FREQUENCY          3022.37         C  2 -- H 11         +38.2% ( 61.0%)     98.8%
 TRANSITION DIPOLE   0.0169         C  2 -- H 10         +23.1% ( 47.4%)     95.9%
 TRAVEL (Ang.)       0.2900         C  1 -- H  8         +22.3% ( 46.6%)     98.8%
 REDUCED MASS        0.2652         C  1 -- H  9         +14.1% ( 37.0%)     96.0%
 EFFECTIVE MASS      1.2882
 FORCE CONSTANT      1.4276

 VIBRATION         39   39A           ATOM PAIR      ENERGY CONTRIBUTION    RADIAL
 FREQUENCY          3028.40         C  1 -- H  8         +38.7% ( 61.4%)     98.9%
 TRANSITION DIPOLE   0.0740         C  2 -- H 11         +22.9% ( 47.2%)     99.0%
 TRAVEL (Ang.)       0.2904         C  1 -- H  9         +22.1% ( 46.4%)     95.7%
 REDUCED MASS        0.2640         C  2 -- H 10         +12.5% ( 34.9%)     95.5%
 EFFECTIVE MASS      1.2824
 FORCE CONSTANT      1.4265

 VIBRATION         40   40A           ATOM PAIR      ENERGY CONTRIBUTION    RADIAL
 FREQUENCY          3051.92         C  7 -- H 17         +53.9% ( 74.5%)    100.0%
 TRANSITION DIPOLE   0.2977         C  6 -- H 15         +41.2% ( 65.2%)    100.0%
 TRAVEL (Ang.)       0.2215         C  5 -- H 16          +1.6% ( 13.0%)    100.0%
 REDUCED MASS        0.4503         C  6 -- C  7          +1.1% ( 10.6%)      0.3%
 EFFECTIVE MASS      1.4607
 FORCE CONSTANT      2.4711

 VIBRATION         41   41A           ATOM PAIR      ENERGY CONTRIBUTION    RADIAL
 FREQUENCY          3055.31         C  5 -- H 16         +92.8% ( 97.7%)    100.0%
 TRANSITION DIPOLE   0.3577         C  6 -- H 15          +2.2% ( 15.0%)    100.0%
 TRAVEL (Ang.)       0.1611         C  4 -- C  5          +1.5% ( 12.4%)     39.0%
 REDUCED MASS        0.8503         C  2 -- C  5          +1.4% ( 11.9%)     22.3%
 EFFECTIVE MASS      1.5178
 FORCE CONSTANT      4.6769

 VIBRATION         42   42A           ATOM PAIR      ENERGY CONTRIBUTION    RADIAL
 FREQUENCY          3069.46         C  3 -- H 14         +52.6% ( 74.8%)     97.5%
 TRANSITION DIPOLE   0.0250         C  3 -- H 12         +45.2% ( 69.4%)     96.5%
 TRAVEL (Ang.)       0.2077         C  3 -- H 13          +1.1% ( 10.7%)      4.4%
 REDUCED MASS        0.5093         C  3 -- C  4          +1.0% ( 10.2%)      0.0%
 EFFECTIVE MASS      1.5023
 FORCE CONSTANT      2.8271

 VIBRATION         43   43A           ATOM PAIR      ENERGY CONTRIBUTION    RADIAL
 FREQUENCY          3071.65         C  6 -- H 15         +51.9% ( 73.2%)     99.9%
 TRANSITION DIPOLE   0.2943         C  7 -- H 17         +42.4% ( 66.1%)     99.9%
 TRAVEL (Ang.)       0.2204         C  6 -- C  7          +2.0% ( 14.4%)     99.7%
 REDUCED MASS        0.4518         C  1 -- C  6          +0.9% (  9.4%)     17.0%
 EFFECTIVE MASS      1.5925
 FORCE CONSTANT      2.5115

 VIBRATION         44   44A           ATOM PAIR      ENERGY CONTRIBUTION    RADIAL
 FREQUENCY          3076.99         C  3 -- H 13         +61.9% ( 81.2%)     98.8%
 TRANSITION DIPOLE   0.0537         C  3 -- H 12         +21.4% ( 47.8%)     88.0%
 TRAVEL (Ang.)       0.2134         C  3 -- H 14         +14.7% ( 39.6%)     81.8%
 REDUCED MASS        0.4812         C  3 -- C  4          +1.0% ( 10.5%)      0.1%
 EFFECTIVE MASS      1.5146
 FORCE CONSTANT      2.6841

 VIBRATION         45   45A           ATOM PAIR      ENERGY CONTRIBUTION    RADIAL
 FREQUENCY          3168.47         C  3 -- H 13         +35.9% ( 57.7%)     97.4%
 TRANSITION DIPOLE   0.0591         C  3 -- H 12         +32.4% ( 54.8%)     97.0%
 TRAVEL (Ang.)       0.2548         C  3 -- H 14         +31.4% ( 53.9%)     96.8%
 REDUCED MASS        0.3279         C  3 -- C  4          +0.3% (  5.4%)     99.9%
 EFFECTIVE MASS      1.1386
 FORCE CONSTANT      1.9395

      SYMMETRY NUMBER FOR POINT-GROUP C1  =  1


          SYSTEM IS A GROUND STATE



 InChI=1S/C7H10/c1-7-5-3-2-4-6-7/h3,5-6H,2,4H2,1H3


          MOLECULE IS NOT LINEAR

          THERE ARE 45 GENUINE VIBRATIONS IN THIS SYSTEM
          THIS THERMODYNAMICS CALCULATION IS LIMITED TO
          MOLECULES WHICH HAVE NO INTERNAL ROTATIONS




                    CALCULATED THERMODYNAMIC PROPERTIES
                                          *
   TEMP. (K)   PARTITION FUNCTION   H.O.F.    ENTHALPY  HEAT CAPACITY ENTROPY
                                   KCAL/MOL   CAL/MOLE    CAL/K/MOL  CAL/K/MOL


 298.00  VIB.     0.2451D+02                  2589.6406    20.0418    15.0474
         ROT.     0.1946D+06                   888.2803     2.9808    27.1823
         INT.     0.4770D+07                  3477.9209    23.0227    42.2297
         TRA.     0.8833D+27                  1480.4672     4.9680    39.5363
         TOT.                       10.674    4958.3881    27.9907    81.7660

 200.00  VIB.     0.6251D+01                  1051.7248    11.6379     8.9007
         ROT.     0.1070D+06                   596.1613     2.9808    25.9936
         INT.     0.6688D+06                  1647.8861    14.6187    34.8943
         TRA.     0.4856D+27                   993.6021     4.9680    37.5551
         TOT.                        8.358    2641.4883    19.5867    72.4494

 210.00  VIB.     0.7141D+01                  1171.9006    12.4017     9.4869
         ROT.     0.1151D+06                   625.9693     2.9808    26.1390
         INT.     0.8220D+06                  1797.8699    15.3825    35.6259
         TRA.     0.5225D+27                  1043.2822     4.9680    37.7975
         TOT.                        8.557    2841.1522    20.3506    73.4234

 220.00  VIB.     0.8168D+01                  1299.8478    13.1920    10.0820
         ROT.     0.1234D+06                   655.7774     2.9808    26.2777
         INT.     0.1008D+07                  1955.6252    16.1728    36.3597
         TRA.     0.5603D+27                  1092.9623     4.9680    38.0286
         TOT.                        8.765    3048.5875    21.1408    74.3883

 230.00  VIB.     0.9357D+01                  1435.8242    14.0073    10.6863
         ROT.     0.1319D+06                   685.5855     2.9808    26.4102
         INT.     0.1235D+07                  2121.4097    16.9881    37.0965
         TRA.     0.5989D+27                  1142.6424     4.9680    38.2495
         TOT.                        8.980    3264.0521    21.9561    75.3459

 240.00  VIB.     0.1073D+02                  1580.0719    14.8459    11.3001
         ROT.     0.1406D+06                   715.3935     2.9808    26.5371
         INT.     0.1510D+07                  2295.4655    17.8267    37.8371
         TRA.     0.6384D+27                  1192.3226     4.9680    38.4609
         TOT.                        9.204    3487.7880    22.7947    76.2980

 250.00  VIB.     0.1233D+02                  1732.8125    15.7055    11.9235
         ROT.     0.1495D+06                   745.2016     2.9808    26.6587
         INT.     0.1844D+07                  2478.0141    18.6863    38.5822
         TRA.     0.6787D+27                  1242.0027     4.9680    38.6637
         TOT.                        9.436    3720.0167    23.6543    77.2459

 260.00  VIB.     0.1419D+02                  1894.2438    16.5836    12.5565
         ROT.     0.1586D+06                   775.0097     2.9808    26.7756
         INT.     0.2250D+07                  2669.2535    19.5644    39.3321
         TRA.     0.7198D+27                  1291.6828     4.9680    38.8586
         TOT.                        9.677    3960.9362    24.5324    78.1907

 270.00  VIB.     0.1635D+02                  2064.5380    17.4776    13.1991
         ROT.     0.1678D+06                   804.8177     2.9808    26.8881
         INT.     0.2744D+07                  2869.3557    20.4584    40.0872
         TRA.     0.7618D+27                  1341.3629     4.9680    39.0461
         TOT.                        9.927    4210.7186    25.4264    79.1333

 280.00  VIB.     0.1887D+02                  2243.8400    18.3847    13.8511
         ROT.     0.1772D+06                   834.6258     2.9808    26.9966
         INT.     0.3344D+07                  3078.4657    21.3655    40.8476
         TRA.     0.8045D+27                  1391.0430     4.9680    39.2267
         TOT.                       10.186    4469.5087    26.3335    80.0743

 290.00  VIB.     0.2181D+02                  2432.2672    19.3022    14.5122
         ROT.     0.1868D+06                   864.4339     2.9808    27.1012
         INT.     0.4074D+07                  3296.7010    22.2830    41.6133
         TRA.     0.8479D+27                  1440.7231     4.9680    39.4011
         TOT.                       10.453    4737.4241    27.2510    81.0144

 300.00  VIB.     0.2524D+02                  2629.9098    20.2274    15.1821
         ROT.     0.1966D+06                   894.2419     2.9808    27.2022
         INT.     0.4961D+07                  3524.1517    23.2082    42.3843
         TRA.     0.8922D+27                  1490.4032     4.9680    39.5695
         TOT.                       10.731    5014.5549    28.1762    81.9538

 310.00  VIB.     0.2926D+02                  2836.8313    21.1576    15.8605
         ROT.     0.2065D+06                   924.0500     2.9808    27.2999
         INT.     0.6042D+07                  3760.8813    24.1384    43.1605
         TRA.     0.9372D+27                  1540.0833     4.9680    39.7324
         TOT.                       11.017    5300.9646    29.1064    82.8929

 320.00  VIB.     0.3398D+02                  3053.0702    22.0904    16.5470
         ROT.     0.2165D+06                   953.8580     2.9808    27.3946
         INT.     0.7357D+07                  4006.9282    25.0712    43.9416
         TRA.     0.9829D+27                  1589.7634     4.9680    39.8901
         TOT.                       11.313    5596.6916    30.0392    83.8317

 330.00  VIB.     0.3950D+02                  3278.6409    23.0236    17.2410
         ROT.     0.2268D+06                   983.6661     2.9808    27.4863
         INT.     0.8958D+07                  4262.3070    26.0044    44.7273
         TRA.     0.1029D+28                  1639.4435     4.9680    40.0430
         TOT.                       11.618    5901.7505    30.9724    84.7703

 340.00  VIB.     0.4600D+02                  3513.5360    23.9550    17.9422
         ROT.     0.2371D+06                  1013.4742     2.9808    27.5753
         INT.     0.1091D+08                  4527.0101    26.9358    45.5175
         TRA.     0.1076D+28                  1689.1236     4.9680    40.1913
         TOT.                       11.932    6216.1338    31.9038    85.7088

 350.00  VIB.     0.5364D+02                  3757.7278    24.8826    18.6500
         ROT.     0.2477D+06                  1043.2822     2.9808    27.6617
         INT.     0.1329D+08                  4801.0101    27.8634    46.3117
         TRA.     0.1124D+28                  1738.8037     4.9680    40.3353
         TOT.                       12.256    6539.8138    32.8315    86.6470

 360.00  VIB.     0.6264D+02                  4011.1705    25.8049    19.3639
         ROT.     0.2584D+06                  1073.0903     2.9808    27.7457
         INT.     0.1618D+08                  5084.2608    28.7857    47.1096
         TRA.     0.1173D+28                  1788.4838     4.9680    40.4753
         TOT.                       12.589    6872.7447    33.7537    87.5848

 370.00  VIB.     0.7324D+02                  4273.8020    26.7201    20.0834
         ROT.     0.2692D+06                  1102.8984     2.9808    27.8273
         INT.     0.1972D+08                  5376.7003    29.7009    47.9108
         TRA.     0.1222D+28                  1838.1639     4.9680    40.6114
         TOT.                       12.931    7214.8643    34.6690    88.5222

 380.00  VIB.     0.8576D+02                  4545.5455    27.6271    20.8081
         ROT.     0.2802D+06                  1132.7064     2.9808    27.9068
         INT.     0.2403D+08                  5678.2519    30.6079    48.7149
         TRA.     0.1272D+28                  1887.8440     4.9680    40.7439
         TOT.                       13.282    7566.0960    35.5759    89.4588

 390.00  VIB.     0.1005D+03                  4826.3121    28.5246    21.5373
         ROT.     0.2913D+06                  1162.5145     2.9808    27.9843
         INT.     0.2929D+08                  5988.8266    31.5054    49.5216
         TRA.     0.1322D+28                  1937.5242     4.9680    40.8729
         TOT.                       13.642    7926.3508    36.4734    90.3945

 400.00  VIB.     0.1180D+03                  5116.0018    29.4116    22.2707
         ROT.     0.3026D+06                  1192.3226     2.9808    28.0597
         INT.     0.3571D+08                  6308.3244    32.3924    50.3304
         TRA.     0.1374D+28                  1987.2043     4.9680    40.9987
         TOT.                       14.012    8295.5286    37.3604    91.3291

   *: NOTE: HEATS OF FORMATION ARE RELATIVE TO THE
            ELEMENTS IN THEIR STANDARD STATE AT 298K
              (=  Standard Enthalpy of Formation).

            Hvib:  Zero-point energy is not included.
                   frequencies of less than zero cm-1 are not included.
            Hrot = (3/2)RT
            Htra = (3/2)RT + pV = (5/2)RT

            Heat capacity is Cp, not Cv

          For more information, see: HTTP://OpenMOPAC.net/Manual/thermochemistry.html


           FORCE CONSTANT IN CARTESIAN COORDINATES (Millidynes/A)

    ATOM   CHEMICAL       X               Y               Z
   NUMBER   SYMBOL  FORCE CONSTANT  FORCE CONSTANT  FORCE CONSTANT

      1       C        8.340679        9.115372        7.900689
      2       C        8.353766        9.085178        7.911710
      3       C        8.617852        8.876190        8.034995
      4       C       10.770693       14.068928        3.655730
      5       C       10.445585       13.284481        3.348916
      6       C       10.538542       13.002803        3.483712
      7       C       10.558320       13.695817        3.454977
      8       H        1.176277        3.300907        1.869697
      9       H        1.175596        0.667329        4.383427
     10       H        1.172143        1.184008        3.863316
     11       H        1.174117        2.167931        2.999547
     12       H        2.033864        2.033193        2.594609
     13       H        4.838467        0.765042        1.166826
     14       H        0.666333        1.611190        4.385150
     15       H        4.664239        0.757384        0.839112
     16       H        4.647880        0.787886        0.815745
     17       H        1.484094        3.809030        0.962820

 **********************
 *                    *
 * JOB ENDED NORMALLY *
 *                    *
 **********************



 TOTAL JOB TIME:             1.43 SECONDS

 == MOPAC DONE ==
