 *******************************************************************************
 **                                                                           **
 **                              MOPAC v23.1.2                                **
 **                                                                           **
 *******************************************************************************
 **          Digital Object Identifier (DOI): 10.5281/zenodo.6511958          **
 **    Visit the DOI location for information on how to cite this program.    **
 *******************************************************************************

                              PM3 CALCULATION RESULTS

 *******************************************************************************
 *  CALCULATION DONE: (MAX THREADS = 1)              Tue Jun  3 16:34:22 2025  *
 *  PM3        - The PM3 Hamiltonian to be used
 *  PRECISE    - TIGHTER CRITERIA TO BE USED
 *  NOSYM      - POINT-GROUP SYMMETRY SET TO C1
 *  THREADS=1  - MULTI-THREADING NOT USED
 *  T=         - A TIME OF 172800.0 SECONDS REQUESTED
 *  DUMP=N     - RESTART FILE WRITTEN EVERY 7200.0 SECONDS REQUESTED
 *******************************************************************************
pm3  precise nosym THREADS=1
 InChI=1S/C4H6/c1-4-2-3-4/h1-3H2

   ATOM   CHEMICAL          X               Y               Z
  NUMBER   SYMBOL      (ANGSTROMS)     (ANGSTROMS)     (ANGSTROMS)

     1       C         -0.71890000  *   0.90120000  *  -0.32440000  *
     2       C         -1.12470000  *  -0.38300000  *   0.15040000  *
     3       C          0.37410000  *  -0.10520000  *   0.03530000  *
     4       C          1.64810000  *  -0.46330000  *   0.15560000  *
     5       H         -0.77810000  *   1.73580000  *   0.40520000  *
     6       H         -0.79410000  *   1.06610000  *  -1.41970000  *
     7       H         -1.47900000  *  -1.10140000  *  -0.61830000  *
     8       H         -1.46300000  *  -0.43160000  *   1.20670000  *
     9       H          2.43460000  *   0.23520000  *  -0.10760000  *
    10       H          1.90090000  *  -1.45390000  *   0.51690000  *



          CARTESIAN COORDINATES 

    NO.       ATOM           X           Y           Z

     1         C         -0.7189      0.9012     -0.3244
     2         C         -1.1247     -0.3830      0.1504
     3         C          0.3741     -0.1052      0.0353
     4         C          1.6481     -0.4633      0.1556
     5         H         -0.7781      1.7358      0.4052
     6         H         -0.7941      1.0661     -1.4197
     7         H         -1.4790     -1.1014     -0.6183
     8         H         -1.4630     -0.4316      1.2067
     9         H          2.4346      0.2352     -0.1076
    10         H          1.9009     -1.4539      0.5169

  H: (PM3): J. J. P. STEWART, J. COMP. CHEM. 10, 209 (1989).
  C: (PM3): J. J. P. STEWART, J. COMP. CHEM. 10, 209 (1989).

           Empirical Formula: C4 H6  =    10 atoms



      MOLECULAR POINT GROUP   :   C1  


      RHF CALCULATION, NO. OF DOUBLY OCCUPIED LEVELS = 11


          Geometry optimization using EF

          DIAGONAL MATRIX USED AS START HESSIAN

 CYCLE:     1 TIME:   0.004 TIME LEFT:  2.00D  GRAD.:   142.953 HEAT:  57.68050
 CYCLE:     2 TIME:   0.000 TIME LEFT:  2.00D  GRAD.:   199.083 HEAT:  57.35808
 CYCLE:     3 TIME:   0.008 TIME LEFT:  2.00D  GRAD.:   106.446 HEAT:  49.04065
 CYCLE:     4 TIME:   0.004 TIME LEFT:  2.00D  GRAD.:    97.433 HEAT:  46.98327
 CYCLE:     5 TIME:   0.004 TIME LEFT:  2.00D  GRAD.:    89.044 HEAT:  46.73657
 CYCLE:     6 TIME:   0.000 TIME LEFT:  2.00D  GRAD.:    64.012 HEAT:  45.69674
 CYCLE:     7 TIME:   0.004 TIME LEFT:  2.00D  GRAD.:    22.274 HEAT:  44.80222
 CYCLE:     8 TIME:   0.004 TIME LEFT:  2.00D  GRAD.:    23.531 HEAT:  44.70053
 CYCLE:     9 TIME:   0.004 TIME LEFT:  2.00D  GRAD.:    20.238 HEAT:  44.59913
 CYCLE:    10 TIME:   0.004 TIME LEFT:  2.00D  GRAD.:     5.982 HEAT:  44.49918
 CYCLE:    11 TIME:   0.004 TIME LEFT:  2.00D  GRAD.:     2.872 HEAT:  44.48974
 CYCLE:    12 TIME:   0.008 TIME LEFT:  2.00D  GRAD.:     2.326 HEAT:  44.48620
 CYCLE:    13 TIME:   0.000 TIME LEFT:  2.00D  GRAD.:     2.766 HEAT:  44.48279
 CYCLE:    14 TIME:   0.004 TIME LEFT:  2.00D  GRAD.:     1.915 HEAT:  44.47877
 CYCLE:    15 TIME:   0.004 TIME LEFT:  2.00D  GRAD.:     1.442 HEAT:  44.47653
 CYCLE:    16 TIME:   0.004 TIME LEFT:  2.00D  GRAD.:     0.665 HEAT:  44.47575
 CYCLE:    17 TIME:   0.004 TIME LEFT:  2.00D  GRAD.:     0.603 HEAT:  44.47550
 CYCLE:    18 TIME:   0.000 TIME LEFT:  2.00D  GRAD.:     0.631 HEAT:  44.47517
 CYCLE:    19 TIME:   0.004 TIME LEFT:  2.00D  GRAD.:     0.524 HEAT:  44.47442
 CYCLE:    20 TIME:   0.004 TIME LEFT:  2.00D  GRAD.:     0.392 HEAT:  44.47415
 CYCLE:    21 TIME:   0.000 TIME LEFT:  2.00D  GRAD.:     0.331 HEAT:  44.47389
 CYCLE:    22 TIME:   0.004 TIME LEFT:  2.00D  GRAD.:     0.355 HEAT:  44.47371
 CYCLE:    23 TIME:   0.004 TIME LEFT:  2.00D  GRAD.:     0.247 HEAT:  44.47356
 CYCLE:    24 TIME:   0.004 TIME LEFT:  2.00D  GRAD.:     0.145 HEAT:  44.47349
 CYCLE:    25 TIME:   0.004 TIME LEFT:  2.00D  GRAD.:     0.114 HEAT:  44.47346
 CYCLE:    26 TIME:   0.004 TIME LEFT:  2.00D  GRAD.:     0.111 HEAT:  44.47344
 CYCLE:    27 TIME:   0.004 TIME LEFT:  2.00D  GRAD.:     0.094 HEAT:  44.47342
 CYCLE:    28 TIME:   0.004 TIME LEFT:  2.00D  GRAD.:     0.056 HEAT:  44.47341
 CYCLE:    29 TIME:   0.004 TIME LEFT:  2.00D  GRAD.:     0.032 HEAT:  44.47340

     GRADIENT =  0.03201 IS LESS THAN CUTOFF =  0.05000



 -------------------------------------------------------------------------------
 pm3  precise nosym THREADS=1
 InChI=1S/C4H6/c1-4-2-3-4/h1-3H2



     GEOMETRY OPTIMISED USING EIGENVECTOR FOLLOWING (EF).     
     SCF FIELD WAS ACHIEVED                                   


                              PM3 CALCULATION
                                                       MOPAC v23.1.2 MacOS
                                                       Tue Jun  3 16:34:22 2025




          FINAL HEAT OF FORMATION =         44.47340 KCAL/MOL =     186.07673 KJ/MOL


          COSMO AREA              =        102.99 SQUARE ANGSTROMS
          COSMO VOLUME            =         85.52 CUBIC ANGSTROMS

          GRADIENT NORM           =          0.03201          =       0.01012 PER ATOM
          IONIZATION POTENTIAL    =         10.213544 EV
          HOMO LUMO ENERGIES (EV) =        -10.214  1.100
          NO. OF FILLED LEVELS    =         11
          MOLECULAR WEIGHT        =         54.0914         POINT GROUP:  C1  

          MOLECULAR DIMENSIONS (Angstroms)

            Atom       Atom       Distance
            H     9    H     8     4.20295
            H    10    H     6     3.93739
            H     5    H     7     2.64086


          SCF CALCULATIONS        =         36

          WALL-CLOCK TIME         =      0.117 SECONDS
          COMPUTATION TIME        =      0.044 SECONDS




   ATOM   CHEMICAL          X               Y               Z
  NUMBER   SYMBOL      (ANGSTROMS)     (ANGSTROMS)     (ANGSTROMS)

     1       C         -0.64411404  *   0.92193928  *  -0.33303180  *
     2       C         -1.07420307  *  -0.43902448  *   0.17069202  *
     3       C          0.34117897  *  -0.09587216  *   0.03225659  *
     4       C          1.59659291  *  -0.44874769  *   0.15086151  *
     5       H         -0.77831515  *   1.80780643  *   0.29847962  *
     6       H         -0.79326490  *   1.18921245  *  -1.38559807  *
     7       H         -1.53464989  *  -1.15776060  *  -0.51705380  *
     8       H         -1.52027305  *  -0.53908709  *   1.16698454  *
     9       H          2.41413273  *   0.21937190  *  -0.10185185  *
    10       H          1.89263632  *  -1.42997192  *   0.50885128  *

                             CARTESIAN COORDINATES

   1    C       -0.644114036     0.921939280    -0.333031795
   2    C       -1.074203072    -0.439024483     0.170692021
   3    C        0.341178970    -0.095872162     0.032256586
   4    C        1.596592906    -0.448747692     0.150861513
   5    H       -0.778315147     1.807806431     0.298479621
   6    H       -0.793264899     1.189212450    -1.385598069
   7    H       -1.534649888    -1.157760602    -0.517053805
   8    H       -1.520273047    -0.539087091     1.166984535
   9    H        2.414132729     0.219371902    -0.101851853
  10    H        1.892636319    -1.429971922     0.508851280


           Empirical Formula: C4 H6  =    10 atoms



      MOLECULAR POINT GROUP   :   C1  


                  EIGENVALUES  
 -38.21601 -28.62550 -22.43941 -18.83402 -16.63135 -16.24058 -15.04258 -12.39617
 -12.16685 -11.20197 -10.21354   1.10032   2.92754   2.96490   3.23269   3.95303
   4.24234   4.33379   4.70351   4.86989   5.33553   5.99144


              NET ATOMIC CHARGES AND DIPOLE CONTRIBUTIONS

  ATOM NO.   TYPE          CHARGE      No. of ELECS.   s-Pop       p-Pop       
    1          C          -0.105720        4.1057     1.15117     2.95455
    2          C          -0.105735        4.1057     1.15118     2.95456
    3          C          -0.188830        4.1888     1.18659     3.00224
    4          C          -0.086367        4.0864     1.15713     2.92924
    5          H           0.079849        0.9202     0.92015
    6          H           0.079853        0.9201     0.92015
    7          H           0.079843        0.9202     0.92016
    8          H           0.079859        0.9201     0.92014
    9          H           0.083634        0.9164     0.91637
   10          H           0.083615        0.9164     0.91638
 DIPOLE           X         Y         Z       TOTAL
 POINT-CHG.    -0.144     0.040    -0.014     0.150
 HYBRID        -0.002     0.000    -0.000     0.002
 SUM           -0.145     0.041    -0.014     0.152


          ATOMIC ORBITAL ELECTRON POPULATIONS

     Atom    s        px        py        pz   
    1  C   1.15117   1.01412   0.92866   1.01177
    2  C   1.15118   0.95183   0.98406   1.01867
    3  C   1.18659   0.94188   1.03588   1.02449
    4  C   1.15713   0.93022   0.99900   1.00002
    5  H   0.92015
    6  H   0.92015
    7  H   0.92016
    8  H   0.92014
    9  H   0.91637
   10  H   0.91638
 *******************************************************************************
 **                                                                           **
 **                              MOPAC v23.1.2                                **
 **                                                                           **
 *******************************************************************************
 **          Digital Object Identifier (DOI): 10.5281/zenodo.6511958          **
 **    Visit the DOI location for information on how to cite this program.    **
 *******************************************************************************

                              PM3 CALCULATION RESULTS

 *******************************************************************************
 *  CALCULATION DONE: (MAX THREADS = 1)              Tue Jun  3 16:34:22 2025  *
 *  PM3        - The PM3 Hamiltonian to be used
 *  OLDGEO     - PREVIOUS GEOMETRY TO BE USED
 *  PRECISE    - TIGHTER CRITERIA TO BE USED
 *  NOSYM      - POINT-GROUP SYMMETRY SET TO C1
 *  THREADS=1  - MULTI-THREADING NOT USED
 *  T=         - A TIME OF 172800.0 SECONDS REQUESTED
 *  DUMP=N     - RESTART FILE WRITTEN EVERY 7200.0 SECONDS REQUESTED
 *  THERMO     - THERMODYNAMIC QUANTITIES TO BE CALCULATED
 *******************************************************************************
oldgeo thermo nosym precise THREADS=1  pm3
 InChI=1S/C4H6/c1-4-2-3-4/h1-3H2

   ATOM   CHEMICAL          X               Y               Z
  NUMBER   SYMBOL      (ANGSTROMS)     (ANGSTROMS)     (ANGSTROMS)

     1       C         -0.64411404  *   0.92193928  *  -0.33303180  *
     2       C         -1.07420307  *  -0.43902448  *   0.17069202  *
     3       C          0.34117897  *  -0.09587216  *   0.03225659  *
     4       C          1.59659291  *  -0.44874769  *   0.15086151  *
     5       H         -0.77831515  *   1.80780643  *   0.29847962  *
     6       H         -0.79326490  *   1.18921245  *  -1.38559807  *
     7       H         -1.53464989  *  -1.15776060  *  -0.51705380  *
     8       H         -1.52027305  *  -0.53908709  *   1.16698454  *
     9       H          2.41413273  *   0.21937190  *  -0.10185185  *
    10       H          1.89263632  *  -1.42997192  *   0.50885128  *



          CARTESIAN COORDINATES 

    NO.       ATOM           X           Y           Z

     1         C         -0.6441      0.9219     -0.3330
     2         C         -1.0742     -0.4390      0.1707
     3         C          0.3412     -0.0959      0.0323
     4         C          1.5966     -0.4487      0.1509
     5         H         -0.7783      1.8078      0.2985
     6         H         -0.7933      1.1892     -1.3856
     7         H         -1.5346     -1.1578     -0.5171
     8         H         -1.5203     -0.5391      1.1670
     9         H          2.4141      0.2194     -0.1019
    10         H          1.8926     -1.4300      0.5089

  H: (PM3): J. J. P. STEWART, J. COMP. CHEM. 10, 209 (1989).
  C: (PM3): J. J. P. STEWART, J. COMP. CHEM. 10, 209 (1989).

           Empirical Formula: C4 H6  =    10 atoms



      MOLECULAR POINT GROUP   :   C1  


      RHF CALCULATION, NO. OF DOUBLY OCCUPIED LEVELS = 11



          HEAT OF FORMATION =      44.473405 KCALS/MOLE


          CARTESIAN COORDINATE DERIVATIVES

   NUMBER  ATOM         X            Y            Z

     1       C     -0.000087     0.006576    -0.000738
     2       C      0.001386     0.001305     0.005180
     3       C     -0.001745     0.009357    -0.001623
     4       C     -0.004670     0.006262    -0.004121
     5       H      0.003464     0.000583    -0.001421
     6       H      0.004023    -0.013243     0.001989
     7       H     -0.003024     0.001085    -0.000311
     8       H      0.003742    -0.020156    -0.000791
     9       H     -0.003321     0.011773    -0.000863
    10       H      0.000232    -0.003541     0.002699



          GRADIENT NORM =   0.03251

          MOLECULAR WEIGHT =   54.09



          ROTATIONAL CONSTANTS IN CM(-1)

          A =    0.65940605   B =    0.22999753   C =    0.18249937



           PRINCIPAL MOMENTS OF INERTIA IN UNITS OF 10**(-40)*GRAM-CM**2

          A =       42.4515   B =      121.7089   C =      153.3855


          ORIENTATION OF MOLECULE IN FORCE CALCULATION

    NO.       ATOM         X         Y         Z

     1          C      -0.7568   -0.9407    0.0000
     2          C       0.7568   -0.9407    0.0000
     3          C      -0.0000    0.3112    0.0000
     4          C       0.0000    1.6207   -0.0000
     5          H      -1.3050   -1.2509    0.8971
     6          H      -1.3050   -1.2511   -0.8970
     7          H       1.3050   -1.2508   -0.8971
     8          H       1.3051   -1.2512    0.8970
     9          H      -0.9171    2.2016   -0.0002
    10          H       0.9173    2.2013    0.0001


    FIRST DERIVATIVES WILL BE USED IN THE CALCULATION OF SECOND DERIVATIVES

          ESTIMATED TIME TO COMPLETE CALCULATION =        0.47 SECONDS

    FOR POINT-GROUP C1   THERE ARE   1 UNIQUE SYMMETRY FUNCTIONS.

 STEP:   1 TIME =     0.00 SECS, INTEGRAL =      0.00 TIME LEFT: 172799.99
 STEP:   2 TIME =     0.00 SECS, INTEGRAL =      0.01 TIME LEFT: 172799.99
 STEP:   3 TIME =     0.01 SECS, INTEGRAL =      0.02 TIME LEFT: 172799.98
 STEP:   4 TIME =     0.00 SECS, INTEGRAL =      0.02 TIME LEFT: 172799.98
 STEP:   5 TIME =     0.00 SECS, INTEGRAL =      0.02 TIME LEFT: 172799.97
 STEP:   6 TIME =     0.01 SECS, INTEGRAL =      0.03 TIME LEFT: 172799.96
 STEP:   7 TIME =     0.00 SECS, INTEGRAL =      0.04 TIME LEFT: 172799.96
 STEP:   8 TIME =     0.01 SECS, INTEGRAL =      0.04 TIME LEFT: 172799.95
 STEP:   9 TIME =     0.01 SECS, INTEGRAL =      0.05 TIME LEFT: 172799.95
 STEP:  10 TIME =     0.00 SECS, INTEGRAL =      0.05 TIME LEFT: 172799.94
 STEP:  11 TIME =     0.00 SECS, INTEGRAL =      0.06 TIME LEFT: 172799.94
 STEP:  12 TIME =     0.00 SECS, INTEGRAL =      0.06 TIME LEFT: 172799.93
 STEP:  13 TIME =     0.01 SECS, INTEGRAL =      0.07 TIME LEFT: 172799.93
 STEP:  14 TIME =     0.00 SECS, INTEGRAL =      0.07 TIME LEFT: 172799.92
 STEP:  15 TIME =     0.00 SECS, INTEGRAL =      0.08 TIME LEFT: 172799.92
 STEP:  16 TIME =     0.01 SECS, INTEGRAL =      0.09 TIME LEFT: 172799.91
 STEP:  17 TIME =     0.00 SECS, INTEGRAL =      0.09 TIME LEFT: 172799.91
 STEP:  18 TIME =     0.00 SECS, INTEGRAL =      0.09 TIME LEFT: 172799.90
 STEP:  19 TIME =     0.00 SECS, INTEGRAL =      0.10 TIME LEFT: 172799.90
 STEP:  20 TIME =     0.00 SECS, INTEGRAL =      0.10 TIME LEFT: 172799.89
 STEP:  21 TIME =     0.00 SECS, INTEGRAL =      0.11 TIME LEFT: 172799.89
 STEP:  22 TIME =     0.00 SECS, INTEGRAL =      0.11 TIME LEFT: 172799.89
 STEP:  23 TIME =     0.00 SECS, INTEGRAL =      0.11 TIME LEFT: 172799.88
 STEP:  24 TIME =     0.00 SECS, INTEGRAL =      0.12 TIME LEFT: 172799.88
 STEP:  25 TIME =     0.00 SECS, INTEGRAL =      0.12 TIME LEFT: 172799.88
 STEP:  26 TIME =     0.00 SECS, INTEGRAL =      0.12 TIME LEFT: 172799.87
 STEP:  27 TIME =     0.01 SECS, INTEGRAL =      0.13 TIME LEFT: 172799.86
 STEP:  28 TIME =     0.00 SECS, INTEGRAL =      0.14 TIME LEFT: 172799.86
 STEP:  29 TIME =     0.01 SECS, INTEGRAL =      0.14 TIME LEFT: 172799.85
 STEP:  30 TIME =     0.01 SECS, INTEGRAL =      0.15 TIME LEFT: 172799.84

(To convert to Hartree/Bohr^2, multiply by (10^(-21) x N x a0^2)/(4.184 x 627.51) =  0.0642)


           FORCE MATRIX IN MILLIDYNES/ANGSTROM


                  C  1       C  2       C  3       C  4       H  5       H  6
 ------------------------------------------------------------------------------
     C    1  15.517812
     C    2   4.626928  15.517300
     C    3   6.005262   6.004618  22.167476
     C    4   0.491536   0.491565  11.592917  18.251843
     H    5   4.798660   0.459825   0.467088   0.018625   5.401950
     H    6   4.798671   0.459823   0.467084   0.018628   0.493300   5.402006
     H    7   0.459832   4.798527   0.467083   0.018620   0.044135   0.021378
     H    8   0.459817   4.798531   0.467077   0.018628   0.021376   0.044122
     H    9   0.130157   0.164377   0.483073   5.089614   0.017821   0.017819
     H   10   0.164395   0.130179   0.483064   5.089836   0.023251   0.023249


                  H  7       H  8       H  9       H 10
 ------------------------------------------------------
     H    7   5.401838
     H    8   0.493335   5.401914
     H    9   0.023249   0.023245   5.453858
     H   10   0.017825   0.017822   0.403120   5.454049


          HEAT OF FORMATION =      44.473405 KCALS/MOLE

          ZERO POINT ENERGY      53.621 KCAL/MOL


           NORMAL COORDINATE ANALYSIS (Total motion = 1 Angstrom)


   Root No.       1         2         3         4         5         6         7         8

                 1 A       2 A       3 A       4 A       5 A       6 A       7 A       8 A   

                 354.7     363.1     588.1     812.8     852.7     874.5     900.8     978.8
  
           1    0.0003   -0.0000    0.0000    0.0000    0.0388   -0.0000   -0.0255   -0.0000
           2    0.0502    0.0000   -0.0000    0.0000   -0.0411    0.0000   -0.0285    0.0000
           3    0.0000   -0.0137    0.0085   -0.0105    0.0000    0.0156    0.0000    0.0224
           4    0.0003    0.0000   -0.0000    0.0000   -0.0388    0.0000   -0.0255   -0.0000
           5   -0.0502   -0.0000    0.0000   -0.0000   -0.0411    0.0000    0.0285   -0.0000
           6    0.0000   -0.0137   -0.0085   -0.0105   -0.0000   -0.0156   -0.0000    0.0224
           7    0.0794    0.0001   -0.0000   -0.0000   -0.0000   -0.0000    0.0060    0.0000
           8   -0.0000    0.0000   -0.0000    0.0000    0.0404   -0.0000   -0.0000   -0.0000
           9   -0.0001    0.1142    0.0000   -0.0142    0.0000   -0.0000   -0.0000   -0.0218
          10   -0.0491   -0.0000    0.0000   -0.0000    0.0000   -0.0000    0.0628    0.0000
          11    0.0000   -0.0000    0.0000    0.0000    0.0673   -0.0000   -0.0000    0.0000
          12    0.0000   -0.0473   -0.0000    0.0002   -0.0000   -0.0000    0.0000   -0.0466
          13   -0.0238    0.0067    0.0340    0.2022    0.0744    0.0245   -0.0033   -0.0248
          14    0.0936   -0.1285    0.0661   -0.0686   -0.1247   -0.1929   -0.0794   -0.1095
          15    0.0001   -0.0551    0.0551    0.0976   -0.0054   -0.0402   -0.0036   -0.0342
          16   -0.0238   -0.0067   -0.0340   -0.2022    0.0744   -0.0246   -0.0034    0.0248
          17    0.0935    0.1286   -0.0661    0.0686   -0.1246    0.1930   -0.0793    0.1095
          18   -0.0000   -0.0551    0.0551    0.0976    0.0053   -0.0402    0.0037   -0.0342
          19   -0.0238    0.0067   -0.0340    0.2022   -0.0744   -0.0245   -0.0033   -0.0248
          20   -0.0936    0.1285    0.0661    0.0686   -0.1247   -0.1929    0.0793    0.1095
          21    0.0001   -0.0551   -0.0551    0.0976    0.0053    0.0401   -0.0036   -0.0342
          22   -0.0238   -0.0067    0.0340   -0.2022   -0.0744    0.0246   -0.0033    0.0248
          23   -0.0935   -0.1286   -0.0661   -0.0687   -0.1246    0.1930    0.0794   -0.1095
          24   -0.0000   -0.0551   -0.0552    0.0976   -0.0053    0.0402    0.0037   -0.0342
          25   -0.1369   -0.0001    0.0000    0.0000    0.0154    0.0000   -0.0995   -0.0000
          26   -0.1354   -0.0001   -0.0000    0.0000    0.0979    0.0000   -0.2492    0.0000
          27    0.0001   -0.1255   -0.3064    0.0129   -0.0000   -0.0871    0.0000    0.2087
          28   -0.1368   -0.0001   -0.0000    0.0000   -0.0154    0.0000   -0.0994   -0.0000
          29    0.1354    0.0001    0.0000   -0.0000    0.0979   -0.0001    0.2493   -0.0000
          30    0.0001   -0.1256    0.3065    0.0128    0.0000    0.0872   -0.0000    0.2087


   Root No.       9        10        11        12        13        14        15        16

                 9 A      10 A      11 A      12 A      13 A      14 A      15 A      16 A   

                1042.0    1084.6    1118.9    1140.0    1213.0    1231.5    1333.5    1390.1
  
           1    0.0000    0.0000   -0.0165   -0.0321   -0.0139   -0.0586    0.0090   -0.0316
           2   -0.0000   -0.0000    0.0465    0.0172   -0.0811    0.0001    0.0079   -0.0250
           3   -0.0258   -0.0587   -0.0000   -0.0000    0.0000   -0.0000    0.0000    0.0000
           4    0.0000   -0.0000    0.0165   -0.0321   -0.0140    0.0586   -0.0090   -0.0316
           5    0.0000   -0.0000    0.0465   -0.0172    0.0811    0.0001    0.0079    0.0249
           6   -0.0258    0.0587    0.0000   -0.0000   -0.0000    0.0000   -0.0000    0.0000
           7   -0.0000    0.0000    0.0000    0.0638    0.0860   -0.0000    0.0000    0.0144
           8    0.0000    0.0000   -0.0045    0.0000   -0.0000   -0.0155   -0.0194    0.0000
           9    0.0573   -0.0000   -0.0000    0.0000   -0.0000    0.0000   -0.0000    0.0000
          10    0.0000   -0.0000   -0.0000   -0.0227   -0.0187   -0.0000   -0.0000   -0.0020
          11   -0.0000    0.0000   -0.0265    0.0000    0.0000    0.0135   -0.0389    0.0000
          12   -0.0444   -0.0000    0.0000   -0.0000   -0.0000   -0.0000    0.0000   -0.0000
          13    0.0241    0.1937    0.0984    0.0541   -0.1321   -0.0814    0.1033    0.1497
          14    0.1251   -0.0234   -0.1442   -0.1589    0.0519   -0.0781    0.0477    0.0863
          15    0.0363    0.0576    0.0029   -0.0077   -0.0251   -0.0373    0.0652    0.1390
          16   -0.0240   -0.1938    0.0983    0.0541   -0.1321   -0.0814    0.1033    0.1497
          17   -0.1251    0.0235   -0.1442   -0.1589    0.0519   -0.0781    0.0477    0.0863
          18    0.0363    0.0576   -0.0028    0.0077    0.0251    0.0373   -0.0652   -0.1390
          19    0.0240   -0.1937   -0.0983    0.0542   -0.1320    0.0814   -0.1032    0.1498
          20   -0.1251   -0.0233   -0.1441    0.1589   -0.0519   -0.0781    0.0477   -0.0864
          21    0.0363   -0.0576   -0.0029   -0.0076   -0.0251    0.0373   -0.0651    0.1390
          22   -0.0240    0.1938   -0.0983    0.0542   -0.1321    0.0814   -0.1032    0.1498
          23    0.1251    0.0234   -0.1441    0.1590   -0.0520   -0.0781    0.0477   -0.0863
          24    0.0363   -0.0576    0.0028    0.0077    0.0251   -0.0373    0.0651   -0.1390
          25   -0.0000    0.0000   -0.0297    0.0292    0.0292    0.0888    0.1181    0.0029
          26   -0.0000    0.0000   -0.0807    0.0790    0.0714    0.1671    0.1573    0.0073
          27    0.1585    0.0343    0.0000   -0.0000   -0.0000    0.0000    0.0000   -0.0000
          28   -0.0000    0.0000    0.0297    0.0292    0.0291   -0.0888   -0.1180    0.0030
          29   -0.0000    0.0000   -0.0808   -0.0790   -0.0714    0.1671    0.1573   -0.0073
          30    0.1585   -0.0343   -0.0000    0.0000    0.0000   -0.0000   -0.0000    0.0000


   Root No.      17        18        19        20        21        22        23        24

                17 A      18 A      19 A      20 A      21 A      22 A      23 A      24 A   

                1454.4    2094.2    3073.9    3087.5    3123.6    3124.1    3132.7    3139.1
  
           1   -0.0624   -0.0471   -0.0000    0.0000    0.0188   -0.0193   -0.0002    0.0005
           2   -0.0291   -0.0494    0.0000   -0.0000    0.0111   -0.0108   -0.0001    0.0005
           3   -0.0000    0.0000    0.0307   -0.0311    0.0000   -0.0000    0.0000   -0.0000
           4    0.0624    0.0471    0.0000    0.0000   -0.0197   -0.0184    0.0002    0.0005
           5   -0.0291   -0.0494    0.0000    0.0000    0.0116    0.0103   -0.0001   -0.0005
           6   -0.0000   -0.0000   -0.0308   -0.0310   -0.0000   -0.0000   -0.0000    0.0000
           7    0.0000    0.0000    0.0000    0.0000   -0.0000   -0.0002   -0.0000   -0.0004
           8    0.0003    0.2725   -0.0000   -0.0000   -0.0019    0.0000   -0.0079    0.0000
           9    0.0000   -0.0000   -0.0000   -0.0005   -0.0000   -0.0000    0.0000   -0.0000
          10    0.0000   -0.0000   -0.0000    0.0000   -0.0000   -0.0007   -0.0003   -0.0637
          11    0.0516   -0.1606   -0.0000   -0.0000    0.0008   -0.0000    0.0466   -0.0002
          12   -0.0000    0.0000   -0.0000   -0.0001    0.0000    0.0000   -0.0000   -0.0000
          13    0.0942   -0.0236    0.1199   -0.1234   -0.1085    0.1153    0.0038   -0.0027
          14    0.0486   -0.0136    0.0695   -0.0682   -0.0614    0.0649    0.0023   -0.0014
          15    0.1152    0.0341   -0.1882    0.1876    0.1919   -0.2022   -0.0062    0.0048
          16    0.0942   -0.0237   -0.1199    0.1234   -0.1085    0.1154    0.0038   -0.0027
          17    0.0485   -0.0136   -0.0695    0.0683   -0.0615    0.0650    0.0023   -0.0014
          18   -0.1152   -0.0341   -0.1881    0.1875   -0.1920    0.2023    0.0062   -0.0048
          19   -0.0942    0.0236   -0.1203   -0.1230    0.1138    0.1100   -0.0039   -0.0027
          20    0.0486   -0.0135    0.0697    0.0680   -0.0644   -0.0619    0.0024    0.0014
          21   -0.1152   -0.0341    0.1889    0.1870   -0.2013   -0.1929    0.0063    0.0048
          22   -0.0942    0.0237    0.1203    0.1230    0.1138    0.1101   -0.0039   -0.0027
          23    0.0486   -0.0136   -0.0697   -0.0680   -0.0645   -0.0620    0.0024    0.0014
          24    0.1152    0.0341    0.1887    0.1868    0.2013    0.1929   -0.0063   -0.0048
          25   -0.0707    0.1174   -0.0000    0.0000    0.0065    0.0045    0.3946    0.3804
          26   -0.0591   -0.0508    0.0000   -0.0000   -0.0038   -0.0031   -0.2344   -0.2477
          27   -0.0000    0.0000   -0.0011   -0.0002    0.0000    0.0000    0.0001    0.0000
          28    0.0707   -0.1173    0.0000    0.0000   -0.0062    0.0048   -0.3914    0.3839
          29   -0.0591   -0.0508    0.0000    0.0000   -0.0036    0.0033   -0.2322    0.2496
          30    0.0000   -0.0000    0.0011   -0.0002   -0.0000    0.0000   -0.0000    0.0000


           MASS-WEIGHTED COORDINATE ANALYSIS (NORMAL COORDINATES)


   Root No.       1         2         3         4         5         6         7         8

                 1 A       2 A       3 A       4 A       5 A       6 A       7 A       8 A   

                 354.7     363.1     588.1     812.8     852.7     874.5     900.8     978.8
  
           1    0.0022   -0.0000    0.0000    0.0000    0.2660   -0.0001   -0.1755   -0.0000
           2    0.3301    0.0002   -0.0000    0.0000   -0.2820    0.0001   -0.1962    0.0000
           3    0.0000   -0.0866    0.0617   -0.0760    0.0000    0.1274    0.0000    0.1796
           4    0.0022    0.0000   -0.0000    0.0000   -0.2660    0.0001   -0.1755   -0.0000
           5   -0.3301   -0.0002    0.0000   -0.0001   -0.2820    0.0001    0.1962   -0.0000
           6    0.0001   -0.0866   -0.0617   -0.0760   -0.0000   -0.1274   -0.0000    0.1796
           7    0.5225    0.0003   -0.0000   -0.0000   -0.0000   -0.0000    0.0415    0.0000
           8   -0.0000    0.0000   -0.0000    0.0000    0.2769   -0.0001   -0.0000   -0.0000
           9   -0.0005    0.7241    0.0001   -0.1029    0.0000   -0.0000   -0.0000   -0.1750
          10   -0.3231   -0.0002    0.0000   -0.0001    0.0000   -0.0001    0.4321    0.0000
          11    0.0000   -0.0000    0.0000    0.0000    0.4612   -0.0001   -0.0000    0.0000
          12    0.0002   -0.3001   -0.0001    0.0013   -0.0000   -0.0000    0.0000   -0.3729
          13   -0.0454    0.0123    0.0718    0.4255    0.1477    0.0580   -0.0066   -0.0576
          14    0.1785   -0.2359    0.1397   -0.1444   -0.2476   -0.4563   -0.1583   -0.2541
          15    0.0001   -0.1012    0.1165    0.2054   -0.0106   -0.0950   -0.0073   -0.0793
          16   -0.0454   -0.0123   -0.0718   -0.4255    0.1477   -0.0581   -0.0067    0.0576
          17    0.1781    0.2362   -0.1397    0.1445   -0.2473    0.4565   -0.1581    0.2540
          18   -0.0000   -0.1012    0.1166    0.2054    0.0106   -0.0951    0.0073   -0.0793
          19   -0.0454    0.0123   -0.0718    0.4255   -0.1477   -0.0580   -0.0066   -0.0576
          20   -0.1784    0.2359    0.1398    0.1445   -0.2476   -0.4563    0.1581    0.2541
          21    0.0001   -0.1011   -0.1165    0.2054    0.0106    0.0949   -0.0072   -0.0793
          22   -0.0454   -0.0124    0.0718   -0.4254   -0.1477    0.0581   -0.0067    0.0576
          23   -0.1781   -0.2361   -0.1398   -0.1445   -0.2473    0.4563    0.1583   -0.2541
          24   -0.0000   -0.1012   -0.1166    0.2054   -0.0106    0.0951    0.0073   -0.0794
          25   -0.2609   -0.0002    0.0001    0.0000    0.0305    0.0000   -0.1984   -0.0000
          26   -0.2580   -0.0002   -0.0000    0.0000    0.1944    0.0000   -0.4968    0.0000
          27    0.0001   -0.2304   -0.6478    0.0271   -0.0001   -0.2060    0.0000    0.4844
          28   -0.2608   -0.0002   -0.0001    0.0000   -0.0305    0.0000   -0.1983   -0.0000
          29    0.2581    0.0002    0.0000   -0.0000    0.1944   -0.0001    0.4969   -0.0000
          30    0.0002   -0.2306    0.6478    0.0270    0.0000    0.2061   -0.0000    0.4843


   Root No.       9        10        11        12        13        14        15        16

                 9 A      10 A      11 A      12 A      13 A      14 A      15 A      16 A   

                1042.0    1084.6    1118.9    1140.0    1213.0    1231.5    1333.5    1390.1
  
           1    0.0000    0.0001   -0.1263   -0.2396   -0.0816   -0.4364    0.0751   -0.2235
           2   -0.0000   -0.0001    0.3561    0.1285   -0.4740    0.0007    0.0661   -0.1766
           3   -0.1997   -0.4052   -0.0001   -0.0000    0.0000   -0.0000    0.0000    0.0000
           4    0.0000   -0.0001    0.1261   -0.2397   -0.0816    0.4365   -0.0752   -0.2233
           5    0.0000   -0.0001    0.3560   -0.1288    0.4740    0.0006    0.0662    0.1765
           6   -0.1997    0.4053    0.0002   -0.0001   -0.0000    0.0000   -0.0000    0.0000
           7   -0.0000    0.0000    0.0002    0.4767    0.5030   -0.0001    0.0000    0.1019
           8    0.0000    0.0000   -0.0346    0.0000   -0.0000   -0.1157   -0.1619    0.0000
           9    0.4433   -0.0000   -0.0000    0.0000   -0.0000    0.0000   -0.0000    0.0000
          10    0.0000   -0.0000   -0.0001   -0.1699   -0.1093   -0.0000   -0.0000   -0.0143
          11   -0.0000    0.0000   -0.2032    0.0001    0.0000    0.1007   -0.3234    0.0001
          12   -0.3440   -0.0000    0.0000   -0.0000   -0.0000   -0.0000    0.0000   -0.0000
          13    0.0539    0.3873    0.2181    0.1171   -0.2237   -0.1755    0.2490    0.3069
          14    0.2805   -0.0467   -0.3199   -0.3439    0.0880   -0.1684    0.1151    0.1770
          15    0.0813    0.1152    0.0064   -0.0166   -0.0426   -0.0805    0.1571    0.2849
          16   -0.0539   -0.3874    0.2180    0.1171   -0.2237   -0.1756    0.2490    0.3069
          17   -0.2804    0.0469   -0.3198   -0.3439    0.0880   -0.1684    0.1151    0.1769
          18    0.0814    0.1152   -0.0063    0.0166    0.0426    0.0805   -0.1571   -0.2849
          19    0.0539   -0.3874   -0.2181    0.1173   -0.2236    0.1755   -0.2489    0.3070
          20   -0.2805   -0.0467   -0.3196    0.3441   -0.0880   -0.1684    0.1150   -0.1770
          21    0.0813   -0.1152   -0.0065   -0.0165   -0.0425    0.0804   -0.1570    0.2849
          22   -0.0539    0.3874   -0.2179    0.1173   -0.2237    0.1756   -0.2489    0.3069
          23    0.2804    0.0469   -0.3196    0.3442   -0.0880   -0.1684    0.1150   -0.1769
          24    0.0814   -0.1153    0.0063    0.0166    0.0425   -0.0805    0.1570   -0.2850
          25   -0.0000    0.0000   -0.0660    0.0632    0.0494    0.1915    0.2847    0.0060
          26   -0.0000    0.0000   -0.1791    0.1711    0.1209    0.3602    0.3792    0.0149
          27    0.3554    0.0686    0.0000   -0.0000   -0.0000    0.0000    0.0000   -0.0000
          28   -0.0000    0.0000    0.0660    0.0631    0.0493   -0.1914   -0.2846    0.0062
          29   -0.0000    0.0000   -0.1792   -0.1710   -0.1209    0.3603    0.3792   -0.0150
          30    0.3553   -0.0686   -0.0000    0.0000    0.0000   -0.0000   -0.0000    0.0000


   Root No.      17        18        19        20        21        22        23        24

                17 A      18 A      19 A      20 A      21 A      22 A      23 A      24 A   

                1454.4    2094.2    3073.9    3087.5    3123.6    3124.1    3132.7    3139.1
  
           1   -0.4225   -0.1402   -0.0000    0.0000    0.1347   -0.1377   -0.0009    0.0023
           2   -0.1973   -0.1472    0.0000   -0.0000    0.0798   -0.0773   -0.0007    0.0027
           3   -0.0000    0.0000    0.2156   -0.2183    0.0000   -0.0000    0.0000   -0.0000
           4    0.4225    0.1401    0.0000    0.0000   -0.1411   -0.1312    0.0009    0.0023
           5   -0.1974   -0.1471    0.0000    0.0000    0.0834    0.0735   -0.0007   -0.0027
           6   -0.0000   -0.0000   -0.2163   -0.2176   -0.0000   -0.0000   -0.0000    0.0000
           7    0.0000    0.0000    0.0000    0.0000   -0.0000   -0.0014   -0.0000   -0.0021
           8    0.0019    0.8115   -0.0000   -0.0000   -0.0133    0.0003   -0.0411    0.0002
           9    0.0000   -0.0000   -0.0000   -0.0036   -0.0000   -0.0000    0.0000   -0.0000
          10    0.0000   -0.0000   -0.0000    0.0000   -0.0001   -0.0050   -0.0014   -0.3228
          11    0.3496   -0.4783   -0.0000   -0.0000    0.0059   -0.0001    0.2412   -0.0010
          12   -0.0000    0.0000   -0.0000   -0.0008    0.0000    0.0000   -0.0000   -0.0000
          13    0.1848   -0.0204    0.2439   -0.2506   -0.2251    0.2382    0.0057   -0.0040
          14    0.0953   -0.0117    0.1413   -0.1386   -0.1275    0.1341    0.0035   -0.0021
          15    0.2260    0.0294   -0.3828    0.3809    0.3984   -0.4177   -0.0094    0.0070
          16    0.1848   -0.0204   -0.2439    0.2505   -0.2252    0.2383    0.0057   -0.0040
          17    0.0953   -0.0117   -0.1413    0.1386   -0.1277    0.1343    0.0035   -0.0021
          18   -0.2260   -0.0294   -0.3826    0.3807   -0.3985    0.4178    0.0094   -0.0070
          19   -0.1849    0.0204   -0.2447   -0.2498    0.2361    0.2272   -0.0058   -0.0039
          20    0.0954   -0.0117    0.1417    0.1381   -0.1337   -0.1279    0.0035    0.0021
          21   -0.2260   -0.0294    0.3841    0.3797   -0.4177   -0.3984    0.0095    0.0070
          22   -0.1849    0.0204    0.2447    0.2497    0.2362    0.2274   -0.0058   -0.0039
          23    0.0953   -0.0117   -0.1418   -0.1382   -0.1339   -0.1281    0.0035    0.0021
          24    0.2261    0.0294    0.3838    0.3794    0.4178    0.3985   -0.0095   -0.0070
          25   -0.1388    0.1012   -0.0000    0.0000    0.0134    0.0094    0.5917    0.5583
          26   -0.1160   -0.0438    0.0000   -0.0000   -0.0078   -0.0064   -0.3516   -0.3635
          27   -0.0000    0.0000   -0.0022   -0.0003    0.0000    0.0000    0.0001    0.0001
          28    0.1387   -0.1012    0.0000    0.0000   -0.0129    0.0099   -0.5870    0.5634
          29   -0.1161   -0.0438    0.0000    0.0000   -0.0075    0.0067   -0.3483    0.3664
          30    0.0000   -0.0000    0.0022   -0.0003   -0.0000    0.0000   -0.0001    0.0001


          DESCRIPTION OF VIBRATIONS


 VIBRATION          1    1A           ATOM PAIR      ENERGY CONTRIBUTION    RADIAL
 FREQUENCY           354.65         C  3 -- C  4         +22.2% (176.4%)      0.0%
 TRANSITION DIPOLE   0.0570         C  1 -- C  2         +12.7% (133.7%)      0.0%
 TRAVEL (Ang.)       0.3749         C  2 -- C  3         +11.6% (127.5%)      0.0%
 REDUCED MASS        1.3524         C  1 -- C  3         +11.6% (127.5%)      0.0%
 EFFECTIVE MASS     24.6631         C  4 -- H  9         +10.0% (118.5%)     51.6%
 FORCE CONSTANT      0.1002         C  4 -- H 10         +10.0% (118.5%)     51.6%

 VIBRATION          2    2A           ATOM PAIR      ENERGY CONTRIBUTION    RADIAL
 FREQUENCY           363.05         C  3 -- C  4         +26.8% (137.5%)      0.0%
 TRANSITION DIPOLE   0.2865         C  1 -- C  3         +20.6% (120.5%)      0.0%
 TRAVEL (Ang.)       0.2329         C  2 -- C  3         +20.6% (120.5%)      0.0%
 REDUCED MASS        3.4239         C  1 -- H  6          +6.9% ( 69.7%)      4.2%
 EFFECTIVE MASS     17.7857
 FORCE CONSTANT      0.2659

 VIBRATION          3    3A           ATOM PAIR      ENERGY CONTRIBUTION    RADIAL
 FREQUENCY           588.06         C  4 -- H 10         +35.6% ( 81.9%)      0.0%
 TRANSITION DIPOLE   0.0000         C  4 -- H  9         +35.6% ( 81.9%)      0.0%
 TRAVEL (Ang.)       0.5634         C  2 -- H  7          +6.5% ( 34.9%)      3.4%
 REDUCED MASS        0.3613         C  2 -- H  8          +6.5% ( 34.9%)      3.4%
 EFFECTIVE MASS      1.2196
 FORCE CONSTANT      0.0736

 VIBRATION          4    4A           ATOM PAIR      ENERGY CONTRIBUTION    RADIAL
 FREQUENCY           812.83         C  1 -- H  5         +24.3% ( 65.4%)      1.2%
 TRANSITION DIPOLE   0.0646         C  2 -- H  7         +24.3% ( 65.4%)      1.2%
 TRAVEL (Ang.)       0.5851         C  1 -- H  6         +24.3% ( 65.4%)      1.2%
 REDUCED MASS        0.2424         C  2 -- H  8         +24.3% ( 65.4%)      1.2%
 EFFECTIVE MASS      1.2272
 FORCE CONSTANT      0.0943

 VIBRATION          5    5A           ATOM PAIR      ENERGY CONTRIBUTION    RADIAL
 FREQUENCY           852.73         C  4 -- H 10         +16.8% ( 77.5%)     39.4%
 TRANSITION DIPOLE   0.1937         C  4 -- H  9         +16.8% ( 77.5%)     39.4%
 TRAVEL (Ang.)       0.2581         C  2 -- C  3         +14.3% ( 71.7%)     30.3%
 REDUCED MASS        1.1874         C  1 -- C  3         +14.3% ( 71.7%)     30.3%
 EFFECTIVE MASS      9.5334         C  3 -- C  4         +11.3% ( 63.7%)    100.0%
 FORCE CONSTANT      0.5087         C  1 -- C  2         +10.5% ( 61.2%)    100.0%

 VIBRATION          6    6A           ATOM PAIR      ENERGY CONTRIBUTION    RADIAL
 FREQUENCY           874.50         C  1 -- H  6         +21.9% ( 53.9%)      2.6%
 TRANSITION DIPOLE   0.0001         C  2 -- H  8         +21.9% ( 53.9%)      2.6%
 TRAVEL (Ang.)       0.6114         C  1 -- H  5         +21.9% ( 53.9%)      2.6%
 REDUCED MASS        0.2063         C  2 -- H  7         +21.9% ( 53.9%)      2.6%
 EFFECTIVE MASS      1.5029
 FORCE CONSTANT      0.0929

 VIBRATION          7    7A           ATOM PAIR      ENERGY CONTRIBUTION    RADIAL
 FREQUENCY           900.81         C  4 -- H 10         +24.5% ( 81.1%)     11.1%
 TRANSITION DIPOLE   0.0833         C  4 -- H  9         +24.5% ( 81.1%)     11.0%
 TRAVEL (Ang.)       0.3266         C  3 -- C  4         +10.5% ( 52.9%)      0.0%
 REDUCED MASS        0.7019         C  1 -- C  2          +8.6% ( 48.0%)      0.0%
 EFFECTIVE MASS      5.9083
 FORCE CONSTANT      0.3356

 VIBRATION          8    8A           ATOM PAIR      ENERGY CONTRIBUTION    RADIAL
 FREQUENCY           978.79         C  4 -- H  9         +22.7% ( 53.6%)      0.0%
 TRANSITION DIPOLE   0.4701         C  4 -- H 10         +22.7% ( 53.5%)      0.0%
 TRAVEL (Ang.)       0.4141         C  2 -- H  7          +9.3% ( 34.3%)      9.2%
 REDUCED MASS        0.4017         C  2 -- H  8          +9.3% ( 34.3%)      9.2%
 EFFECTIVE MASS      2.8641
 FORCE CONSTANT      0.2267

 VIBRATION          9    9A           ATOM PAIR      ENERGY CONTRIBUTION    RADIAL
 FREQUENCY          1041.96         C  4 -- H  9         +12.8% ( 40.1%)      0.0%
 TRANSITION DIPOLE   0.2271         C  4 -- H 10         +12.8% ( 40.1%)      0.0%
 TRAVEL (Ang.)       0.2969         C  3 -- C  4          +9.9% ( 35.3%)      0.0%
 REDUCED MASS        0.7340         C  2 -- H  7          +9.8% ( 35.1%)      9.5%
 EFFECTIVE MASS      4.4521
 FORCE CONSTANT      0.4695

 VIBRATION         10   10A           ATOM PAIR      ENERGY CONTRIBUTION    RADIAL
 FREQUENCY          1084.63         C  1 -- C  2         +18.8% ( 60.2%)      0.0%
 TRANSITION DIPOLE   0.0000         C  2 -- H  8         +16.0% ( 55.5%)     14.2%
 TRAVEL (Ang.)       0.2863         C  1 -- H  6         +16.0% ( 55.5%)     14.2%
 REDUCED MASS        0.7584         C  2 -- H  7         +16.0% ( 55.5%)     14.2%
 EFFECTIVE MASS      4.8263         C  1 -- H  5         +16.0% ( 55.5%)     14.2%
 FORCE CONSTANT      0.5257

 VIBRATION         11   11A           ATOM PAIR      ENERGY CONTRIBUTION    RADIAL
 FREQUENCY          1118.88         C  1 -- H  5         +16.0% ( 50.6%)      0.1%
 TRANSITION DIPOLE   0.1613         C  1 -- H  6         +16.0% ( 50.6%)      0.1%
 TRAVEL (Ang.)       0.3162         C  2 -- H  7         +16.0% ( 50.6%)      0.1%
 REDUCED MASS        0.6029         C  2 -- H  8         +16.0% ( 50.6%)      0.1%
 EFFECTIVE MASS      4.1619         C  1 -- C  2         +10.1% ( 40.3%)    100.0%
 FORCE CONSTANT      0.4447

 VIBRATION         12   12A           ATOM PAIR      ENERGY CONTRIBUTION    RADIAL
 FREQUENCY          1139.99         C  1 -- C  3         +13.8% ( 44.2%)     12.8%
 TRANSITION DIPOLE   0.1587         C  2 -- C  3         +13.8% ( 44.2%)     12.8%
 TRAVEL (Ang.)       0.2662         C  3 -- C  4         +12.5% ( 42.2%)      0.0%
 REDUCED MASS        0.8347         C  2 -- H  8         +12.2% ( 41.6%)      1.0%
 EFFECTIVE MASS      4.6347         C  2 -- H  7         +12.2% ( 41.6%)      1.0%
 FORCE CONSTANT      0.6391         C  1 -- H  6         +12.2% ( 41.5%)      1.0%
                            C  1 -- H  5         +12.2% ( 41.5%)      1.0%

 VIBRATION         13   13A           ATOM PAIR      ENERGY CONTRIBUTION    RADIAL
 FREQUENCY          1212.96         C  1 -- C  3         +18.0% ( 64.4%)     88.5%
 TRANSITION DIPOLE   0.1090         C  2 -- C  3         +18.0% ( 64.4%)     88.5%
 TRAVEL (Ang.)       0.1639         C  1 -- C  2         +15.9% ( 60.5%)      0.0%
 REDUCED MASS        2.0706         C  1 -- H  6          +9.9% ( 47.7%)      4.5%
 EFFECTIVE MASS      9.0088
 FORCE CONSTANT      1.7949

 VIBRATION         14   14A           ATOM PAIR      ENERGY CONTRIBUTION    RADIAL
 FREQUENCY          1231.49         C  1 -- C  2         +26.5% ( 71.6%)    100.0%
 TRANSITION DIPOLE   0.0119         C  2 -- H  8          +9.8% ( 43.5%)     21.4%
 TRAVEL (Ang.)       0.2403         C  2 -- H  7          +9.8% ( 43.5%)     21.4%
 REDUCED MASS        0.9483         C  1 -- H  6          +9.8% ( 43.5%)     21.4%
 EFFECTIVE MASS      6.1893
 FORCE CONSTANT      0.8473

 VIBRATION         15   15A           ATOM PAIR      ENERGY CONTRIBUTION    RADIAL
 FREQUENCY          1333.50         C  4 -- H  9         +26.5% ( 54.5%)      3.2%
 TRANSITION DIPOLE   0.0816         C  4 -- H 10         +26.5% ( 54.5%)      3.2%
 TRAVEL (Ang.)       0.4218         C  3 -- C  4          +7.2% ( 28.5%)    100.0%
 REDUCED MASS        0.2842         C  1 -- H  6          +6.4% ( 26.8%)      1.3%
 EFFECTIVE MASS      2.5631
 FORCE CONSTANT      0.2977

 VIBRATION         16   16A           ATOM PAIR      ENERGY CONTRIBUTION    RADIAL
 FREQUENCY          1390.11         C  1 -- H  5         +18.9% ( 47.2%)      3.6%
 TRANSITION DIPOLE   0.1007         C  1 -- H  6         +18.9% ( 47.2%)      3.6%
 TRAVEL (Ang.)       0.3826         C  2 -- H  7         +18.9% ( 47.2%)      3.6%
 REDUCED MASS        0.3314         C  2 -- H  8         +18.9% ( 47.2%)      3.6%
 EFFECTIVE MASS      2.6838
 FORCE CONSTANT      0.3773

 VIBRATION         17   17A           ATOM PAIR      ENERGY CONTRIBUTION    RADIAL
 FREQUENCY          1454.43         C  1 -- C  2         +21.3% ( 68.2%)    100.0%
 TRANSITION DIPOLE   0.0709         C  2 -- H  7         +10.8% ( 48.5%)      8.0%
 TRAVEL (Ang.)       0.1851         C  2 -- H  8         +10.8% ( 48.5%)      8.0%
 REDUCED MASS        1.3534         C  1 -- H  5         +10.8% ( 48.5%)      8.0%
 EFFECTIVE MASS      7.4126         C  1 -- H  6         +10.8% ( 48.5%)      8.0%
 FORCE CONSTANT      1.6869

 VIBRATION         18   18A           ATOM PAIR      ENERGY CONTRIBUTION    RADIAL
 FREQUENCY          2094.19         C  3 -- C  4         +38.5% ( 92.7%)    100.0%
 TRANSITION DIPOLE   0.2078         C  1 -- C  3         +23.6% ( 72.5%)     84.9%
 TRAVEL (Ang.)       0.0740         C  2 -- C  3         +23.6% ( 72.5%)     84.9%
 REDUCED MASS        5.8800         C  4 -- H 10          +5.0% ( 33.4%)     10.8%
 EFFECTIVE MASS     11.8831
 FORCE CONSTANT     15.1936

 VIBRATION         19   19A           ATOM PAIR      ENERGY CONTRIBUTION    RADIAL
 FREQUENCY          3073.93         C  2 -- H  7         +24.5% ( 51.3%)     97.1%
 TRANSITION DIPOLE   0.0004         C  2 -- H  8         +24.5% ( 51.3%)     97.1%
 TRAVEL (Ang.)       0.2908         C  1 -- H  5         +24.4% ( 51.1%)     97.1%
 REDUCED MASS        0.2594         C  1 -- H  6         +24.3% ( 51.1%)     97.1%
 EFFECTIVE MASS      1.5467
 FORCE CONSTANT      1.4443

 VIBRATION         20   20A           ATOM PAIR      ENERGY CONTRIBUTION    RADIAL
 FREQUENCY          3087.48         C  1 -- H  5         +24.6% ( 51.1%)     97.3%
 TRANSITION DIPOLE   0.2295         C  1 -- H  6         +24.5% ( 51.0%)     97.3%
 TRAVEL (Ang.)       0.2895         C  2 -- H  7         +24.4% ( 50.9%)     97.3%
 REDUCED MASS        0.2606         C  2 -- H  8         +24.4% ( 50.9%)     97.3%
 EFFECTIVE MASS      1.5416
 FORCE CONSTANT      1.4635

 VIBRATION         21   21A           ATOM PAIR      ENERGY CONTRIBUTION    RADIAL
 FREQUENCY          3123.63         C  2 -- H  8         +25.6% ( 50.4%)     96.3%
 TRANSITION DIPOLE   0.1675         C  2 -- H  7         +25.6% ( 50.4%)     96.3%
 TRAVEL (Ang.)       0.2982         C  1 -- H  6         +23.3% ( 48.1%)     96.3%
 REDUCED MASS        0.2428         C  1 -- H  5         +23.3% ( 48.1%)     96.3%
 EFFECTIVE MASS      1.3383
 FORCE CONSTANT      1.3959

 VIBRATION         22   22A           ATOM PAIR      ENERGY CONTRIBUTION    RADIAL
 FREQUENCY          3124.12         C  1 -- H  6         +25.8% ( 50.4%)     96.5%
 TRANSITION DIPOLE   0.2565         C  1 -- H  5         +25.8% ( 50.4%)     96.5%
 TRAVEL (Ang.)       0.2983         C  2 -- H  8         +23.5% ( 48.1%)     96.5%
 REDUCED MASS        0.2426         C  2 -- H  7         +23.5% ( 48.1%)     96.5%
 EFFECTIVE MASS      1.2785
 FORCE CONSTANT      1.3948

 VIBRATION         23   23A           ATOM PAIR      ENERGY CONTRIBUTION    RADIAL
 FREQUENCY          3132.75         C  4 -- H  9         +49.5% ( 70.4%)     95.2%
 TRANSITION DIPOLE   0.2594         C  4 -- H 10         +48.6% ( 69.8%)     95.1%
 TRAVEL (Ang.)       0.2105         C  3 -- C  4          +1.7% ( 13.1%)    100.0%
 REDUCED MASS        0.4856
 EFFECTIVE MASS      1.4073
 FORCE CONSTANT      2.8080

 VIBRATION         24   24A           ATOM PAIR      ENERGY CONTRIBUTION    RADIAL
 FREQUENCY          3139.14         C  4 -- H 10         +49.8% ( 72.2%)     97.1%
 TRANSITION DIPOLE   0.1854         C  4 -- H  9         +49.0% ( 71.7%)     97.0%
 TRAVEL (Ang.)       0.2005         C  3 -- C  4          +1.3% ( 11.5%)      0.0%
 REDUCED MASS        0.5346
 EFFECTIVE MASS      1.6030
 FORCE CONSTANT      3.1036

      SYMMETRY NUMBER FOR POINT-GROUP C1  =  1


          SYSTEM IS A GROUND STATE



 InChI=1S/C4H6/c1-4-2-3-4/h1-3H2


          MOLECULE IS NOT LINEAR

          THERE ARE 24 GENUINE VIBRATIONS IN THIS SYSTEM
          THIS THERMODYNAMICS CALCULATION IS LIMITED TO
          MOLECULES WHICH HAVE NO INTERNAL ROTATIONS




                    CALCULATED THERMODYNAMIC PROPERTIES
                                          *
   TEMP. (K)   PARTITION FUNCTION   H.O.F.    ENTHALPY  HEAT CAPACITY ENTROPY
                                   KCAL/MOL   CAL/MOLE    CAL/K/MOL  CAL/K/MOL


 298.00  VIB.     0.1737D+01                   826.5018     8.6557     3.8711
         ROT.     0.3176D+05                   888.2803     2.9808    23.5799
         INT.     0.5517D+05                  1714.7821    11.6365    27.4510
         TRA.     0.3846D+27                  1480.4672     4.9680    37.8841
         TOT.                       44.473    3195.2492    16.6046    65.3351

 200.00  VIB.     0.1201D+01                   222.3452     3.8632     1.4762
         ROT.     0.1746D+05                   596.1613     2.9808    22.3912
         INT.     0.2098D+05                   818.5065     6.8440    23.8674
         TRA.     0.2115D+27                   993.6021     4.9680    35.9029
         TOT.                       43.090    1812.1086    11.8120    59.7704

 210.00  VIB.     0.1237D+01                   263.0946     4.2899     1.6749
         ROT.     0.1879D+05                   625.9693     2.9808    22.5367
         INT.     0.2323D+05                   889.0640     7.2707    24.2116
         TRA.     0.2275D+27                  1043.2822     4.9680    36.1453
         TOT.                       43.211    1932.3462    12.2387    60.3569

 220.00  VIB.     0.1276D+01                   308.2046     4.7351     1.8847
         ROT.     0.2014D+05                   655.7774     2.9808    22.6753
         INT.     0.2570D+05                   963.9820     7.7159    24.5600
         TRA.     0.2440D+27                  1092.9623     4.9680    36.3764
         TOT.                       43.335    2056.9443    12.6839    60.9365

 230.00  VIB.     0.1318D+01                   357.8536     5.1974     2.1053
         ROT.     0.2153D+05                   685.5855     2.9808    22.8078
         INT.     0.2839D+05                  1043.4390     8.1782    24.9132
         TRA.     0.2608D+27                  1142.6424     4.9680    36.5973
         TOT.                       43.464    2186.0815    13.1463    61.5104

 240.00  VIB.     0.1365D+01                   412.2052     5.6753     2.3366
         ROT.     0.2295D+05                   715.3935     2.9808    22.9347
         INT.     0.3134D+05                  1127.5988     8.6561    25.2713
         TRA.     0.2780D+27                  1192.3226     4.9680    36.8087
         TOT.                       43.598    2319.9213    13.6242    62.0800

 250.00  VIB.     0.1417D+01                   471.4060     6.1670     2.5782
         ROT.     0.2440D+05                   745.2016     2.9808    23.0564
         INT.     0.3458D+05                  1216.6076     9.1478    25.6346
         TRA.     0.2955D+27                  1242.0027     4.9680    37.0115
         TOT.                       43.737    2458.6103    14.1158    62.6461

 260.00  VIB.     0.1473D+01                   535.5835     6.6703     2.8298
         ROT.     0.2588D+05                   775.0097     2.9808    23.1733
         INT.     0.3813D+05                  1310.5932     9.6512    26.0031
         TRA.     0.3134D+27                  1291.6828     4.9680    37.2064
         TOT.                       43.880    2602.2759    14.6192    63.2095

 270.00  VIB.     0.1535D+01                   604.8455     7.1835     3.0912
         ROT.     0.2739D+05                   804.8177     2.9808    23.2858
         INT.     0.4203D+05                  1409.6633    10.1643    26.3769
         TRA.     0.3317D+27                  1341.3629     4.9680    37.3939
         TOT.                       44.029    2751.0261    15.1323    63.7708

 280.00  VIB.     0.1601D+01                   679.2800     7.7045     3.3618
         ROT.     0.2892D+05                   834.6258     2.9808    23.3942
         INT.     0.4632D+05                  1513.9057    10.6853    26.7560
         TRA.     0.3503D+27                  1391.0430     4.9680    37.5745
         TOT.                       44.183    2904.9487    15.6533    64.3305

 290.00  VIB.     0.1674D+01                   758.9549     8.2313     3.6413
         ROT.     0.3049D+05                   864.4339     2.9808    23.4988
         INT.     0.5105D+05                  1623.3888    11.2121    27.1401
         TRA.     0.3692D+27                  1440.7231     4.9680    37.7489
         TOT.                       44.342    3064.1119    16.1801    64.8890

 300.00  VIB.     0.1754D+01                   843.9196     8.7621     3.9293
         ROT.     0.3208D+05                   894.2419     2.9808    23.5998
         INT.     0.5625D+05                  1738.1615    11.7429    27.5292
         TRA.     0.3885D+27                  1490.4032     4.9680    37.9173
         TOT.                       44.507    3228.5647    16.7110    65.4465

 310.00  VIB.     0.1840D+01                   934.2051     9.2952     4.2253
         ROT.     0.3369D+05                   924.0500     2.9808    23.6976
         INT.     0.6200D+05                  1858.2551    12.2760    27.9229
         TRA.     0.4081D+27                  1540.0833     4.9680    38.0802
         TOT.                       44.676    3398.3384    17.2440    66.0031

 320.00  VIB.     0.1934D+01                  1029.8259     9.8289     4.5289
         ROT.     0.3534D+05                   953.8580     2.9808    23.7922
         INT.     0.6834D+05                  1983.6839    12.8097    28.3211
         TRA.     0.4280D+27                  1589.7634     4.9680    38.2379
         TOT.                       44.852    3573.4473    17.7777    66.5590

 330.00  VIB.     0.2036D+01                  1130.7808    10.3618     4.8395
         ROT.     0.3701D+05                   983.6661     2.9808    23.8839
         INT.     0.7535D+05                  2114.4469    13.3426    28.7234
         TRA.     0.4482D+27                  1639.4435     4.9680    38.3908
         TOT.                       45.032    3753.8904    18.3106    67.1142

 340.00  VIB.     0.2147D+01                  1237.0549    10.8925     5.1567
         ROT.     0.3870D+05                  1013.4742     2.9808    23.9729
         INT.     0.8309D+05                  2250.5291    13.8734    29.1296
         TRA.     0.4687D+27                  1689.1236     4.9680    38.5391
         TOT.                       45.218    3939.6527    18.8414    67.6687

 350.00  VIB.     0.2267D+01                  1348.6207    11.4200     5.4801
         ROT.     0.4042D+05                  1043.2822     2.9808    24.0593
         INT.     0.9166D+05                  2391.9029    14.4008    29.5394
         TRA.     0.4895D+27                  1738.8037     4.9680    38.6831
         TOT.                       45.409    4130.7067    19.3688    68.2225

 360.00  VIB.     0.2398D+01                  1465.4396    11.9430     5.8091
         ROT.     0.4217D+05                  1073.0903     2.9808    24.1433
         INT.     0.1011D+06                  2538.5299    14.9238    29.9524
         TRA.     0.5107D+27                  1788.4838     4.9680    38.8231
         TOT.                       45.605    4327.0138    19.8918    68.7755

 370.00  VIB.     0.2541D+01                  1587.4636    12.4608     6.1434
         ROT.     0.4394D+05                  1102.8984     2.9808    24.2250
         INT.     0.1116D+06                  2690.3620    15.4416    30.3684
         TRA.     0.5321D+27                  1838.1639     4.9680    38.9592
         TOT.                       45.807    4528.5259    20.4096    69.3276

 380.00  VIB.     0.2695D+01                  1714.6362    12.9726     6.4825
         ROT.     0.4573D+05                  1132.7064     2.9808    24.3045
         INT.     0.1233D+06                  2847.3426    15.9534    30.7870
         TRA.     0.5538D+27                  1887.8440     4.9680    39.0917
         TOT.                       46.013    4735.1867    20.9214    69.8787

 390.00  VIB.     0.2863D+01                  1846.8940    13.4778     6.8260
         ROT.     0.4755D+05                  1162.5145     2.9808    24.3819
         INT.     0.1361D+06                  3009.4085    16.4586    31.2080
         TRA.     0.5758D+27                  1937.5242     4.9680    39.2207
         TOT.                       46.225    4946.9327    21.4266    70.4287

 400.00  VIB.     0.3046D+01                  1984.1679    13.9758     7.1736
         ROT.     0.4939D+05                  1192.3226     2.9808    24.4574
         INT.     0.1504D+06                  3176.4904    16.9566    31.6309
         TRA.     0.5981D+27                  1987.2043     4.9680    39.3465
         TOT.                       46.442    5163.6947    21.9246    70.9775

   *: NOTE: HEATS OF FORMATION ARE RELATIVE TO THE
            ELEMENTS IN THEIR STANDARD STATE AT 298K
              (=  Standard Enthalpy of Formation).

            Hvib:  Zero-point energy is not included.
                   frequencies of less than zero cm-1 are not included.
            Hrot = (3/2)RT
            Htra = (3/2)RT + pV = (5/2)RT

            Heat capacity is Cp, not Cv

          For more information, see: HTTP://OpenMOPAC.net/Manual/thermochemistry.html


           FORCE CONSTANT IN CARTESIAN COORDINATES (Millidynes/A)

    ATOM   CHEMICAL       X               Y               Z
   NUMBER   SYMBOL  FORCE CONSTANT  FORCE CONSTANT  FORCE CONSTANT

      1       C        9.924336        6.931741        8.352816
      2       C        9.924271        6.931259        8.352565
      3       C        5.118543       21.450010        2.257124
      4       C        8.827773       15.857448        1.934301
      5       H        1.838802        0.921589        3.809701
      6       H        1.838835        0.922128        3.809202
      7       H        1.838692        0.921481        3.809843
      8       H        1.839013        0.922275        3.808842
      9       H        4.068375        1.984575        0.327946
     10       H        4.069588        1.983552        0.327858

 **********************
 *                    *
 * JOB ENDED NORMALLY *
 *                    *
 **********************



 TOTAL JOB TIME:             0.44 SECONDS

 == MOPAC DONE ==
