 *******************************************************************************
 **                                                                           **
 **                              MOPAC v23.1.2                                **
 **                                                                           **
 *******************************************************************************
 **          Digital Object Identifier (DOI): 10.5281/zenodo.6511958          **
 **    Visit the DOI location for information on how to cite this program.    **
 *******************************************************************************

                              PM3 CALCULATION RESULTS

 *******************************************************************************
 *  CALCULATION DONE: (MAX THREADS = 1)              Tue Jun  3 16:28:16 2025  *
 *  PM3        - The PM3 Hamiltonian to be used
 *  PRECISE    - TIGHTER CRITERIA TO BE USED
 *  NOSYM      - POINT-GROUP SYMMETRY SET TO C1
 *  THREADS=1  - MULTI-THREADING NOT USED
 *  T=         - A TIME OF 172800.0 SECONDS REQUESTED
 *  DUMP=N     - RESTART FILE WRITTEN EVERY 7200.0 SECONDS REQUESTED
 *******************************************************************************
pm3  precise nosym THREADS=1
 InChI=1S/C7H10/c1-7-5-3-2-4-6-7/h3,5H,1-2,4,6H2

   ATOM   CHEMICAL          X               Y               Z
  NUMBER   SYMBOL      (ANGSTROMS)     (ANGSTROMS)     (ANGSTROMS)

     1       C         -1.06740000  *  -0.99710000  *   0.47040000  *
     2       C          0.36710000  *  -1.18600000  *  -0.03930000  *
     3       C         -1.75370000  *   0.16660000  *  -0.25560000  *
     4       C          1.12940000  *   0.11780000  *  -0.00640000  *
     5       C         -0.93980000  *   1.42860000  *  -0.15580000  *
     6       C          0.39490000  *   1.40080000  *  -0.08390000  *
     7       C          2.46370000  *   0.11280000  *   0.02170000  *
     8       H         -1.04870000  *  -0.79210000  *   1.56380000  *
     9       H         -1.64610000  *  -1.93120000  *   0.30490000  *
    10       H         -2.75720000  *   0.33960000  *   0.18810000  *
    11       H         -1.88740000  *  -0.09120000  *  -1.32830000  *
    12       H          0.34200000  *  -1.56170000  *  -1.08520000  *
    13       H          0.87290000  *  -1.94830000  *   0.59320000  *
    14       H         -1.44830000  *   2.38360000  *  -0.19930000  *
    15       H          0.93800000  *   2.33820000  *  -0.05380000  *
    16       H          3.02580000  *   1.03870000  *   0.01860000  *
    17       H          3.01470000  *  -0.81920000  *   0.04690000  *



          CARTESIAN COORDINATES 

    NO.       ATOM           X           Y           Z

     1         C         -1.0674     -0.9971      0.4704
     2         C          0.3671     -1.1860     -0.0393
     3         C         -1.7537      0.1666     -0.2556
     4         C          1.1294      0.1178     -0.0064
     5         C         -0.9398      1.4286     -0.1558
     6         C          0.3949      1.4008     -0.0839
     7         C          2.4637      0.1128      0.0217
     8         H         -1.0487     -0.7921      1.5638
     9         H         -1.6461     -1.9312      0.3049
    10         H         -2.7572      0.3396      0.1881
    11         H         -1.8874     -0.0912     -1.3283
    12         H          0.3420     -1.5617     -1.0852
    13         H          0.8729     -1.9483      0.5932
    14         H         -1.4483      2.3836     -0.1993
    15         H          0.9380      2.3382     -0.0538
    16         H          3.0258      1.0387      0.0186
    17         H          3.0147     -0.8192      0.0469

  H: (PM3): J. J. P. STEWART, J. COMP. CHEM. 10, 209 (1989).
  C: (PM3): J. J. P. STEWART, J. COMP. CHEM. 10, 209 (1989).

           Empirical Formula: C7 H10  =    17 atoms



      MOLECULAR POINT GROUP   :   C1  


      RHF CALCULATION, NO. OF DOUBLY OCCUPIED LEVELS = 19


          Geometry optimization using EF

          DIAGONAL MATRIX USED AS START HESSIAN

 CYCLE:     1 TIME:   0.008 TIME LEFT:  2.00D  GRAD.:    51.924 HEAT:  17.55796
 CYCLE:     2 TIME:   0.012 TIME LEFT:  2.00D  GRAD.:    61.745 HEAT:  17.28620
 CYCLE:     3 TIME:   0.012 TIME LEFT:  2.00D  GRAD.:    21.896 HEAT:  16.34882
 CYCLE:     4 TIME:   0.008 TIME LEFT:  2.00D  GRAD.:    22.757 HEAT:  16.23889
 CYCLE:     5 TIME:   0.004 TIME LEFT:  2.00D  GRAD.:    18.285 HEAT:  16.10196
 CYCLE:     6 TIME:   0.008 TIME LEFT:  2.00D  GRAD.:    17.277 HEAT:  16.00972
 CYCLE:     7 TIME:   0.008 TIME LEFT:  2.00D  GRAD.:    14.489 HEAT:  15.94908
 CYCLE:     8 TIME:   0.008 TIME LEFT:  2.00D  GRAD.:    12.098 HEAT:  15.86193
 CYCLE:     9 TIME:   0.004 TIME LEFT:  2.00D  GRAD.:     8.341 HEAT:  15.82523
 CYCLE:    10 TIME:   0.012 TIME LEFT:  2.00D  GRAD.:     6.295 HEAT:  15.80709
 CYCLE:    11 TIME:   0.004 TIME LEFT:  2.00D  GRAD.:     6.450 HEAT:  15.78975
 CYCLE:    12 TIME:   0.008 TIME LEFT:  2.00D  GRAD.:     6.943 HEAT:  15.78320
 CYCLE:    13 TIME:   0.004 TIME LEFT:  2.00D  GRAD.:     3.863 HEAT:  15.77187
 CYCLE:    14 TIME:   0.008 TIME LEFT:  2.00D  GRAD.:     3.792 HEAT:  15.76579
 CYCLE:    15 TIME:   0.004 TIME LEFT:  2.00D  GRAD.:     3.509 HEAT:  15.76021
 CYCLE:    16 TIME:   0.004 TIME LEFT:  2.00D  GRAD.:     4.084 HEAT:  15.75409
 CYCLE:    17 TIME:   0.004 TIME LEFT:  2.00D  GRAD.:     5.769 HEAT:  15.75083
 CYCLE:    18 TIME:   0.008 TIME LEFT:  2.00D  GRAD.:     3.703 HEAT:  15.73514
 CYCLE:    19 TIME:   0.004 TIME LEFT:  2.00D  GRAD.:     4.625 HEAT:  15.72808
 CYCLE:    20 TIME:   0.008 TIME LEFT:  2.00D  GRAD.:     3.992 HEAT:  15.71921
 CYCLE:    21 TIME:   0.004 TIME LEFT:  2.00D  GRAD.:     3.288 HEAT:  15.70843
 CYCLE:    22 TIME:   0.004 TIME LEFT:  2.00D  GRAD.:     4.362 HEAT:  15.70115
 CYCLE:    23 TIME:   0.004 TIME LEFT:  2.00D  GRAD.:     3.405 HEAT:  15.68865
 CYCLE:    24 TIME:   0.008 TIME LEFT:  2.00D  GRAD.:     3.413 HEAT:  15.67115
 CYCLE:    25 TIME:   0.016 TIME LEFT:  2.00D  GRAD.:     3.974 HEAT:  15.64877
 CYCLE:    26 TIME:   0.008 TIME LEFT:  2.00D  GRAD.:     3.737 HEAT:  15.62844
 CYCLE:    27 TIME:   0.004 TIME LEFT:  2.00D  GRAD.:     3.470 HEAT:  15.60877
 CYCLE:    28 TIME:   0.008 TIME LEFT:  2.00D  GRAD.:     3.725 HEAT:  15.58521
 CYCLE:    29 TIME:   0.004 TIME LEFT:  2.00D  GRAD.:     4.078 HEAT:  15.56080
 CYCLE:    30 TIME:   0.004 TIME LEFT:  2.00D  GRAD.:     2.670 HEAT:  15.54474
 CYCLE:    31 TIME:   0.008 TIME LEFT:  2.00D  GRAD.:     2.524 HEAT:  15.53483
 CYCLE:    32 TIME:   0.004 TIME LEFT:  2.00D  GRAD.:     2.051 HEAT:  15.52718
 CYCLE:    33 TIME:   0.008 TIME LEFT:  2.00D  GRAD.:     1.415 HEAT:  15.52152
 CYCLE:    34 TIME:   0.004 TIME LEFT:  2.00D  GRAD.:     1.205 HEAT:  15.51810
 CYCLE:    35 TIME:   0.004 TIME LEFT:  2.00D  GRAD.:     1.048 HEAT:  15.51657
 CYCLE:    36 TIME:   0.008 TIME LEFT:  2.00D  GRAD.:     0.994 HEAT:  15.51470
 CYCLE:    37 TIME:   0.004 TIME LEFT:  2.00D  GRAD.:     1.005 HEAT:  15.51176
 CYCLE:    38 TIME:   0.008 TIME LEFT:  2.00D  GRAD.:     1.078 HEAT:  15.50967
 CYCLE:    39 TIME:   0.004 TIME LEFT:  2.00D  GRAD.:     1.087 HEAT:  15.50646
 CYCLE:    40 TIME:   0.008 TIME LEFT:  2.00D  GRAD.:     0.954 HEAT:  15.50374
 CYCLE:    41 TIME:   0.004 TIME LEFT:  2.00D  GRAD.:     0.715 HEAT:  15.50194
 CYCLE:    42 TIME:   0.008 TIME LEFT:  2.00D  GRAD.:     0.573 HEAT:  15.50092
 CYCLE:    43 TIME:   0.004 TIME LEFT:  2.00D  GRAD.:     0.484 HEAT:  15.50025
 CYCLE:    44 TIME:   0.008 TIME LEFT:  2.00D  GRAD.:     0.407 HEAT:  15.49973
 CYCLE:    45 TIME:   0.004 TIME LEFT:  2.00D  GRAD.:     0.343 HEAT:  15.49934
 CYCLE:    46 TIME:   0.004 TIME LEFT:  2.00D  GRAD.:     0.263 HEAT:  15.49910
 CYCLE:    47 TIME:   0.008 TIME LEFT:  2.00D  GRAD.:     0.183 HEAT:  15.49897
 CYCLE:    48 TIME:   0.004 TIME LEFT:  2.00D  GRAD.:     0.137 HEAT:  15.49891
 CYCLE:    49 TIME:   0.008 TIME LEFT:  2.00D  GRAD.:     0.197 HEAT:  15.49888
 CYCLE:    50 TIME:   0.004 TIME LEFT:  2.00D  GRAD.:     0.109 HEAT:  15.49885
 CYCLE:    51 TIME:   0.008 TIME LEFT:  2.00D  GRAD.:     0.074 HEAT:  15.49883
 CYCLE:    52 TIME:   0.004 TIME LEFT:  2.00D  GRAD.:     0.045 HEAT:  15.49883

     GRADIENT =  0.04513 IS LESS THAN CUTOFF =  0.05000



 -------------------------------------------------------------------------------
 pm3  precise nosym THREADS=1
 InChI=1S/C7H10/c1-7-5-3-2-4-6-7/h3,5H,1-2,4,6H2



     GEOMETRY OPTIMISED USING EIGENVECTOR FOLLOWING (EF).     
     SCF FIELD WAS ACHIEVED                                   


                              PM3 CALCULATION
                                                       MOPAC v23.1.2 MacOS
                                                       Tue Jun  3 16:28:16 2025




          FINAL HEAT OF FORMATION =         15.49883 KCAL/MOL =      64.84709 KJ/MOL


          COSMO AREA              =        143.01 SQUARE ANGSTROMS
          COSMO VOLUME            =        136.79 CUBIC ANGSTROMS

          GRADIENT NORM           =          0.04513          =       0.01095 PER ATOM
          IONIZATION POTENTIAL    =          9.088594 EV
          HOMO LUMO ENERGIES (EV) =         -9.089  0.302
          NO. OF FILLED LEVELS    =         19
          MOLECULAR WEIGHT        =         94.1560         POINT GROUP:  C1  

          MOLECULAR DIMENSIONS (Angstroms)

            Atom       Atom       Distance
            H    17    H    10     5.85478
            H    15    H     9     4.68806
            H    12    H     8     2.76052


          SCF CALCULATIONS        =         60

          WALL-CLOCK TIME         =      0.340 SECONDS
          COMPUTATION TIME        =      0.185 SECONDS




   ATOM   CHEMICAL          X               Y               Z
  NUMBER   SYMBOL      (ANGSTROMS)     (ANGSTROMS)     (ANGSTROMS)

     1       C         -1.03176405  *  -0.99574705  *   0.46591430  *
     2       C          0.35309699  *  -1.14927170  *  -0.14325092  *
     3       C         -1.77871531  *   0.17726063  *  -0.14988068  *
     4       C          1.13979747  *   0.11800457  *  -0.03392330  *
     5       C         -0.93923083  *   1.40111450  *  -0.22777496  *
     6       C          0.39671398  *   1.36770820  *  -0.17604115  *
     7       C          2.46013611  *   0.11412023  *   0.16964857  *
     8       H         -0.94402314  *  -0.85308873  *   1.56089237  *
     9       H         -1.61146490  *  -1.92870738  *   0.32892319  *
    10       H         -2.69727711  *   0.38836719  *   0.43176983  *
    11       H         -2.12010273  *  -0.07433599  *  -1.17484452  *
    12       H          0.27125312  *  -1.41848061  *  -1.21585992  *
    13       H          0.89037402  *  -1.98827464  *   0.34093967  *
    14       H         -1.47109644  *   2.35169333  *  -0.34497802  *
    15       H          0.98625619  *   2.29034135  *  -0.23583087  *
    16       H          3.04802643  *   1.02528655  *   0.23196123  *
    17       H          3.03361385  *  -0.80080799  *   0.28613165  *

                             CARTESIAN COORDINATES

   1    C       -1.031764048    -0.995747049     0.465914296
   2    C        0.353096987    -1.149271699    -0.143250919
   3    C       -1.778715311     0.177260629    -0.149880682
   4    C        1.139797474     0.118004573    -0.033923298
   5    C       -0.939230827     1.401114503    -0.227774956
   6    C        0.396713980     1.367708198    -0.176041152
   7    C        2.460136113     0.114120228     0.169648572
   8    H       -0.944023141    -0.853088731     1.560892369
   9    H       -1.611464902    -1.928707383     0.328923194
  10    H       -2.697277108     0.388367192     0.431769830
  11    H       -2.120102732    -0.074335994    -1.174844519
  12    H        0.271253120    -1.418480608    -1.215859925
  13    H        0.890374022    -1.988274638     0.340939673
  14    H       -1.471096437     2.351693329    -0.344978018
  15    H        0.986256193     2.290341349    -0.235830870
  16    H        3.048026432     1.025286551     0.231961233
  17    H        3.033613846    -0.800807989     0.286131649


           Empirical Formula: C7 H10  =    17 atoms



      MOLECULAR POINT GROUP   :   C1  


                  EIGENVALUES  
 -40.29756 -32.40237 -30.41598 -25.41005 -21.95910 -20.32372 -17.58674 -17.06779
 -15.85344 -15.23704 -14.22003 -14.12562 -13.97108 -13.12803 -12.63974 -12.03390
 -11.47968 -10.91843  -9.08859   0.30229   2.05926   3.29429   3.44190   3.56813
   3.73887   3.82992   3.92404   4.02660   4.19080   4.26802   4.41488   4.74333
   4.77646   4.93469   5.24016   5.47952   6.06721   6.16906


              NET ATOMIC CHARGES AND DIPOLE CONTRIBUTIONS

  ATOM NO.   TYPE          CHARGE      No. of ELECS.   s-Pop       p-Pop       
    1          C          -0.092832        4.0928     1.15860     2.93423
    2          C          -0.055276        4.0553     1.14702     2.90825
    3          C          -0.062228        4.0622     1.14652     2.91571
    4          C          -0.075493        4.0755     1.18339     2.89210
    5          C          -0.130380        4.1304     1.19575     2.93463
    6          C          -0.110240        4.1102     1.17996     2.93028
    7          C          -0.163239        4.1632     1.18255     2.98069
    8          H           0.053885        0.9461     0.94611
    9          H           0.048597        0.9514     0.95140
   10          H           0.054035        0.9460     0.94597
   11          H           0.057214        0.9428     0.94279
   12          H           0.057138        0.9429     0.94286
   13          H           0.054348        0.9457     0.94565
   14          H           0.097069        0.9029     0.90293
   15          H           0.101416        0.8986     0.89858
   16          H           0.083366        0.9166     0.91663
   17          H           0.082619        0.9174     0.91738
 DIPOLE           X         Y         Z       TOTAL
 POINT-CHG.    -0.444    -0.232    -0.054     0.503
 HYBRID         0.029     0.051    -0.024     0.063
 SUM           -0.415    -0.181    -0.078     0.459


          ATOMIC ORBITAL ELECTRON POPULATIONS

     Atom    s        px        py        pz   
    1  C   1.15860   0.95774   0.97614   1.00035
    2  C   1.14702   0.95394   0.94822   1.00609
    3  C   1.14652   0.97005   0.94246   1.00321
    4  C   1.18339   0.95185   0.94683   0.99342
    5  C   1.19575   0.95777   0.97958   0.99729
    6  C   1.17996   0.95102   0.96001   1.01925
    7  C   1.18255   0.94898   1.01245   1.01926
    8  H   0.94611
    9  H   0.95140
   10  H   0.94597
   11  H   0.94279
   12  H   0.94286
   13  H   0.94565
   14  H   0.90293
   15  H   0.89858
   16  H   0.91663
   17  H   0.91738
 *******************************************************************************
 **                                                                           **
 **                              MOPAC v23.1.2                                **
 **                                                                           **
 *******************************************************************************
 **          Digital Object Identifier (DOI): 10.5281/zenodo.6511958          **
 **    Visit the DOI location for information on how to cite this program.    **
 *******************************************************************************

                              PM3 CALCULATION RESULTS

 *******************************************************************************
 *  CALCULATION DONE: (MAX THREADS = 1)              Tue Jun  3 16:28:16 2025  *
 *  PM3        - The PM3 Hamiltonian to be used
 *  OLDGEO     - PREVIOUS GEOMETRY TO BE USED
 *  PRECISE    - TIGHTER CRITERIA TO BE USED
 *  NOSYM      - POINT-GROUP SYMMETRY SET TO C1
 *  THREADS=1  - MULTI-THREADING NOT USED
 *  T=         - A TIME OF 172800.0 SECONDS REQUESTED
 *  DUMP=N     - RESTART FILE WRITTEN EVERY 7200.0 SECONDS REQUESTED
 *  THERMO     - THERMODYNAMIC QUANTITIES TO BE CALCULATED
 *******************************************************************************
oldgeo thermo nosym precise THREADS=1  pm3
 InChI=1S/C7H10/c1-7-5-3-2-4-6-7/h3,5H,1-2,4,6H2

   ATOM   CHEMICAL          X               Y               Z
  NUMBER   SYMBOL      (ANGSTROMS)     (ANGSTROMS)     (ANGSTROMS)

     1       C         -1.03176405  *  -0.99574705  *   0.46591430  *
     2       C          0.35309699  *  -1.14927170  *  -0.14325092  *
     3       C         -1.77871531  *   0.17726063  *  -0.14988068  *
     4       C          1.13979747  *   0.11800457  *  -0.03392330  *
     5       C         -0.93923083  *   1.40111450  *  -0.22777496  *
     6       C          0.39671398  *   1.36770820  *  -0.17604115  *
     7       C          2.46013611  *   0.11412023  *   0.16964857  *
     8       H         -0.94402314  *  -0.85308873  *   1.56089237  *
     9       H         -1.61146490  *  -1.92870738  *   0.32892319  *
    10       H         -2.69727711  *   0.38836719  *   0.43176983  *
    11       H         -2.12010273  *  -0.07433599  *  -1.17484452  *
    12       H          0.27125312  *  -1.41848061  *  -1.21585992  *
    13       H          0.89037402  *  -1.98827464  *   0.34093967  *
    14       H         -1.47109644  *   2.35169333  *  -0.34497802  *
    15       H          0.98625619  *   2.29034135  *  -0.23583087  *
    16       H          3.04802643  *   1.02528655  *   0.23196123  *
    17       H          3.03361385  *  -0.80080799  *   0.28613165  *



          CARTESIAN COORDINATES 

    NO.       ATOM           X           Y           Z

     1         C         -1.0318     -0.9957      0.4659
     2         C          0.3531     -1.1493     -0.1433
     3         C         -1.7787      0.1773     -0.1499
     4         C          1.1398      0.1180     -0.0339
     5         C         -0.9392      1.4011     -0.2278
     6         C          0.3967      1.3677     -0.1760
     7         C          2.4601      0.1141      0.1696
     8         H         -0.9440     -0.8531      1.5609
     9         H         -1.6115     -1.9287      0.3289
    10         H         -2.6973      0.3884      0.4318
    11         H         -2.1201     -0.0743     -1.1748
    12         H          0.2713     -1.4185     -1.2159
    13         H          0.8904     -1.9883      0.3409
    14         H         -1.4711      2.3517     -0.3450
    15         H          0.9863      2.2903     -0.2358
    16         H          3.0480      1.0253      0.2320
    17         H          3.0336     -0.8008      0.2861

  H: (PM3): J. J. P. STEWART, J. COMP. CHEM. 10, 209 (1989).
  C: (PM3): J. J. P. STEWART, J. COMP. CHEM. 10, 209 (1989).

           Empirical Formula: C7 H10  =    17 atoms



      MOLECULAR POINT GROUP   :   C1  


      RHF CALCULATION, NO. OF DOUBLY OCCUPIED LEVELS = 19



          HEAT OF FORMATION =      15.498826 KCALS/MOLE


          CARTESIAN COORDINATE DERIVATIVES

   NUMBER  ATOM         X            Y            Z

     1       C     -0.001401    -0.001670     0.000726
     2       C     -0.001569    -0.003956    -0.001910
     3       C     -0.008446    -0.002937    -0.000934
     4       C      0.016456    -0.002776     0.003928
     5       C      0.007412    -0.010566    -0.001727
     6       C      0.004916    -0.003048    -0.003579
     7       C     -0.011085     0.004737    -0.006091
     8       H     -0.002228    -0.001753    -0.004941
     9       H     -0.002993     0.003478    -0.001377
    10       H     -0.014911     0.008517    -0.006030
    11       H      0.004302     0.000163     0.012300
    12       H     -0.003544     0.004715     0.004898
    13       H      0.004637     0.007598     0.002890
    14       H      0.011799    -0.010014     0.000155
    15       H     -0.009429     0.004823    -0.008111
    16       H      0.009921     0.000553     0.003390
    17       H     -0.003837     0.002136     0.006413



          GRADIENT NORM =   0.04573

          MOLECULAR WEIGHT =   94.16



          ROTATIONAL CONSTANTS IN CM(-1)

          A =    0.15788322   B =    0.08450939   C =    0.05835869



           PRINCIPAL MOMENTS OF INERTIA IN UNITS OF 10**(-40)*GRAM-CM**2

          A =      177.3004   B =      331.2384   C =      479.6673


          ORIENTATION OF MOLECULE IN FORCE CALCULATION

    NO.       ATOM         X         Y         Z

     1          C      -1.0812   -0.9715   -0.7580
     2          C       0.4395   -0.9715   -0.7580
     3          C      -1.6332    0.4457   -0.7580
     4          C       0.9842   -0.1726    0.3830
     5          C      -0.9610    1.3118    0.2453
     6          C       0.2382    1.0247    0.7628
     7          C       2.1054   -0.5235    1.0190
     8          H      -1.4543   -1.5208    0.1286
     9          H      -1.4600   -1.5262   -1.6377
    10          H      -2.7240    0.4269   -0.5672
    11          H      -1.5081    0.9114   -1.7569
    12          H       0.8218   -0.5362   -1.7035
    13          H       0.8195   -2.0115   -0.7262
    14          H      -1.4944    2.2221    0.5404
    15          H       0.7059    1.6857    1.5022
    16          H       2.5239    0.0568    1.8363
    17          H       2.6734   -1.4124    0.7607


    FIRST DERIVATIVES WILL BE USED IN THE CALCULATION OF SECOND DERIVATIVES

          ESTIMATED TIME TO COMPLETE CALCULATION =        0.80 SECONDS

    FOR POINT-GROUP C1   THERE ARE   1 UNIQUE SYMMETRY FUNCTIONS.

 STEP:   1 TIME =     0.02 SECS, INTEGRAL =      0.02 TIME LEFT: 172799.98
 STEP:   2 TIME =     0.02 SECS, INTEGRAL =      0.03 TIME LEFT: 172799.96
 STEP:   3 TIME =     0.02 SECS, INTEGRAL =      0.05 TIME LEFT: 172799.95
 STEP:   4 TIME =     0.01 SECS, INTEGRAL =      0.06 TIME LEFT: 172799.94
 STEP:   5 TIME =     0.01 SECS, INTEGRAL =      0.07 TIME LEFT: 172799.93
 STEP:   6 TIME =     0.02 SECS, INTEGRAL =      0.09 TIME LEFT: 172799.91
 STEP:   7 TIME =     0.01 SECS, INTEGRAL =      0.10 TIME LEFT: 172799.90
 STEP:   8 TIME =     0.02 SECS, INTEGRAL =      0.11 TIME LEFT: 172799.88
 STEP:   9 TIME =     0.01 SECS, INTEGRAL =      0.12 TIME LEFT: 172799.87
 STEP:  10 TIME =     0.01 SECS, INTEGRAL =      0.14 TIME LEFT: 172799.86
 STEP:  11 TIME =     0.02 SECS, INTEGRAL =      0.15 TIME LEFT: 172799.84
 STEP:  12 TIME =     0.02 SECS, INTEGRAL =      0.17 TIME LEFT: 172799.83
 STEP:  13 TIME =     0.01 SECS, INTEGRAL =      0.18 TIME LEFT: 172799.82
 STEP:  14 TIME =     0.01 SECS, INTEGRAL =      0.19 TIME LEFT: 172799.80
 STEP:  15 TIME =     0.01 SECS, INTEGRAL =      0.20 TIME LEFT: 172799.79
 STEP:  16 TIME =     0.01 SECS, INTEGRAL =      0.21 TIME LEFT: 172799.78
 STEP:  17 TIME =     0.02 SECS, INTEGRAL =      0.23 TIME LEFT: 172799.77
 STEP:  18 TIME =     0.01 SECS, INTEGRAL =      0.24 TIME LEFT: 172799.75
 STEP:  19 TIME =     0.01 SECS, INTEGRAL =      0.25 TIME LEFT: 172799.74
 STEP:  20 TIME =     0.02 SECS, INTEGRAL =      0.27 TIME LEFT: 172799.73
 STEP:  21 TIME =     0.02 SECS, INTEGRAL =      0.29 TIME LEFT: 172799.71
 STEP:  22 TIME =     0.01 SECS, INTEGRAL =      0.30 TIME LEFT: 172799.70
 STEP:  23 TIME =     0.02 SECS, INTEGRAL =      0.31 TIME LEFT: 172799.68
 STEP:  24 TIME =     0.01 SECS, INTEGRAL =      0.32 TIME LEFT: 172799.67
 STEP:  25 TIME =     0.01 SECS, INTEGRAL =      0.34 TIME LEFT: 172799.66
 STEP:  26 TIME =     0.01 SECS, INTEGRAL =      0.35 TIME LEFT: 172799.65
 STEP:  27 TIME =     0.01 SECS, INTEGRAL =      0.36 TIME LEFT: 172799.64
 STEP:  28 TIME =     0.01 SECS, INTEGRAL =      0.37 TIME LEFT: 172799.62
 STEP:  29 TIME =     0.01 SECS, INTEGRAL =      0.38 TIME LEFT: 172799.61
 STEP:  30 TIME =     0.01 SECS, INTEGRAL =      0.39 TIME LEFT: 172799.60
 STEP:  31 TIME =     0.02 SECS, INTEGRAL =      0.41 TIME LEFT: 172799.59
 STEP:  32 TIME =     0.02 SECS, INTEGRAL =      0.43 TIME LEFT: 172799.57
 STEP:  33 TIME =     0.01 SECS, INTEGRAL =      0.44 TIME LEFT: 172799.56
 STEP:  34 TIME =     0.01 SECS, INTEGRAL =      0.45 TIME LEFT: 172799.55
 STEP:  35 TIME =     0.01 SECS, INTEGRAL =      0.46 TIME LEFT: 172799.54
 STEP:  36 TIME =     0.02 SECS, INTEGRAL =      0.48 TIME LEFT: 172799.52
 STEP:  37 TIME =     0.01 SECS, INTEGRAL =      0.49 TIME LEFT: 172799.51
 STEP:  38 TIME =     0.01 SECS, INTEGRAL =      0.50 TIME LEFT: 172799.50
 STEP:  39 TIME =     0.01 SECS, INTEGRAL =      0.51 TIME LEFT: 172799.48
 STEP:  40 TIME =     0.02 SECS, INTEGRAL =      0.53 TIME LEFT: 172799.47
 STEP:  41 TIME =     0.02 SECS, INTEGRAL =      0.54 TIME LEFT: 172799.45
 STEP:  42 TIME =     0.01 SECS, INTEGRAL =      0.55 TIME LEFT: 172799.44
 STEP:  43 TIME =     0.01 SECS, INTEGRAL =      0.57 TIME LEFT: 172799.43
 STEP:  44 TIME =     0.02 SECS, INTEGRAL =      0.58 TIME LEFT: 172799.41
 STEP:  45 TIME =     0.01 SECS, INTEGRAL =      0.59 TIME LEFT: 172799.40
 STEP:  46 TIME =     0.01 SECS, INTEGRAL =      0.61 TIME LEFT: 172799.39
 STEP:  47 TIME =     0.02 SECS, INTEGRAL =      0.62 TIME LEFT: 172799.38
 STEP:  48 TIME =     0.01 SECS, INTEGRAL =      0.63 TIME LEFT: 172799.36
 STEP:  49 TIME =     0.01 SECS, INTEGRAL =      0.64 TIME LEFT: 172799.35
 STEP:  50 TIME =     0.02 SECS, INTEGRAL =      0.66 TIME LEFT: 172799.34
 STEP:  51 TIME =     0.01 SECS, INTEGRAL =      0.67 TIME LEFT: 172799.32

(To convert to Hartree/Bohr^2, multiply by (10^(-21) x N x a0^2)/(4.184 x 627.51) =  0.0642)


           FORCE MATRIX IN MILLIDYNES/ANGSTROM


                  C  1       C  2       C  3       C  4       C  5       C  6
 ------------------------------------------------------------------------------
     C    1  14.418422
     C    2   4.171150  14.706688
     C    3   4.169979   0.664054  14.719376
     C    4   0.701276   4.695520   0.102896  18.809165
     C    5   0.701232   0.062339   4.995269   1.043330  18.063239
     C    6   0.067008   0.644484   0.844450   5.369333  10.415534  18.513521
     C    7   0.046962   0.806282   0.013737  10.476752   0.105707   1.047381
     H    8   4.476864   0.442223   0.441451   0.014597   0.010776   0.006446
     H    9   4.495811   0.434985   0.433592   0.053310   0.052070   0.004471
     H   10   0.431774   0.050120   4.469495   0.009333   0.435003   0.046051
     H   11   0.445978   0.013109   4.401544   0.016034   0.409888   0.029311
     H   12   0.449764   4.419405   0.017439   0.416470   0.006045   0.013159
     H   13   0.433753   4.468913   0.051254   0.450597   0.004245   0.042604
     H   14   0.042602   0.004000   0.427418   0.125508   4.833019   0.440572
     H   15   0.004783   0.039116   0.122707   0.446344   0.442043   4.797427
     H   16   0.014416   0.124223   0.004646   0.474126   0.008187   0.092991
     H   17   0.007844   0.085960   0.005789   0.474540   0.011001   0.127288


                  C  7       H  8       H  9       H 10       H 11       H 12
 ------------------------------------------------------------------------------
     C    7  17.937954
     H    8   0.001727   5.083111
     H    9   0.008835   0.568496   5.112001
     H   10   0.001555   0.035503   0.024975   5.066927
     H   11   0.002513   0.045176   0.033655   0.567978   5.001542
     H   12   0.028169   0.046847   0.029762   0.001906   0.007745   5.013958
     H   13   0.050078   0.031649   0.031120   0.008366   0.001424   0.560733
     H   14   0.010307   0.001430   0.007211   0.035544   0.017003   0.000704
     H   15   0.042528   0.000545   0.001016   0.013647   0.017534   0.001081
     H   16   5.089358   0.000739   0.002648   0.000439   0.000821   0.016182
     H   17   5.091964   0.000480   0.001560   0.000262   0.000784   0.011324


                  H 13       H 14       H 15       H 16       H 17
 ------------------------------------------------------------------
     H   13   5.077007
     H   14   0.000577   5.204727
     H   15   0.006148   0.068918   5.171963
     H   16   0.004523   0.005811   0.027293   5.481194
     H   17   0.028541   0.009253   0.002462   0.413885   5.481676


          HEAT OF FORMATION =      15.498826 KCALS/MOLE

          ZERO POINT ENERGY      93.339 KCAL/MOL


           NORMAL COORDINATE ANALYSIS (Total motion = 1 Angstrom)


   Root No.       1         2         3         4         5         6         7         8

                 1 A       2 A       3 A       4 A       5 A       6 A       7 A       8 A   

                  76.4     221.9     302.1     404.4     464.6     480.1     571.5     622.7
  
           1    0.0148    0.0014   -0.0007   -0.0099   -0.0340   -0.0128   -0.0335   -0.0110
           2   -0.0079   -0.0072    0.0012    0.0138   -0.0059   -0.0479   -0.0189   -0.0026
           3    0.0030    0.0528   -0.0014    0.0068   -0.0098   -0.0145   -0.0083   -0.0000
           4    0.0150    0.0015    0.0003   -0.0022   -0.0277   -0.0194   -0.0270   -0.0046
           5    0.0305    0.0259   -0.0214   -0.0169    0.0349   -0.0044    0.0196    0.0035
           6   -0.0297   -0.0241   -0.0026   -0.0373    0.0138   -0.0170    0.0084    0.0041
           7   -0.0231    0.0205    0.0180   -0.0084   -0.0139    0.0526   -0.0033   -0.0036
           8   -0.0223    0.0003    0.0075    0.0172   -0.0022   -0.0199   -0.0127   -0.0026
           9    0.0346   -0.0264   -0.0032    0.0072   -0.0194    0.0232   -0.0105    0.0022
          10    0.0048    0.0010    0.0137    0.0083    0.0140   -0.0437    0.0440    0.0052
          11    0.0063    0.0051    0.0214   -0.0361   -0.0185   -0.0049    0.0532    0.0009
          12   -0.0083   -0.0083   -0.0384   -0.0281    0.0322   -0.0006   -0.0400    0.0048
          13    0.0069   -0.0059   -0.0272    0.0156    0.0036    0.0267    0.0340   -0.0029
          14    0.0059   -0.0024   -0.0247   -0.0003   -0.0369    0.0172   -0.0217   -0.0070
          15   -0.0096   -0.0037    0.0545    0.0013    0.0016    0.0129   -0.0215    0.0048
          16    0.0206   -0.0120    0.0220    0.0051    0.0242    0.0170    0.0140    0.0055
          17    0.0236   -0.0071    0.0256   -0.0452    0.0015    0.0225    0.0018    0.0048
          18   -0.0316    0.0107   -0.0334   -0.0074   -0.0206    0.0262    0.0368   -0.0079
          19   -0.0335   -0.0085   -0.0232   -0.0028    0.0318   -0.0313   -0.0017    0.0062
          20   -0.0333   -0.0156   -0.0006    0.0511    0.0059    0.0269   -0.0001   -0.0014
          21    0.0365   -0.0044    0.0147    0.0405    0.0186   -0.0120    0.0137    0.0039
          22    0.0495    0.0517   -0.0103    0.0165   -0.0576   -0.0274   -0.0599   -0.0247
          23   -0.0307    0.0632    0.0095    0.0358   -0.0176   -0.0932   -0.0355   -0.0148
          24    0.0035    0.1175   -0.0004    0.0320   -0.0287   -0.0507   -0.0306   -0.0139
          25    0.0091   -0.0429   -0.0085   -0.0502   -0.0002   -0.0141   -0.0047    0.0017
          26   -0.0053   -0.0767    0.0052    0.0027   -0.0004    0.0052   -0.0104    0.0088
          27    0.0038    0.1168   -0.0006    0.0319   -0.0284   -0.0487   -0.0274   -0.0133
          28   -0.0115    0.0094    0.0030   -0.0040   -0.0214    0.0468    0.0051   -0.0106
          29   -0.0525    0.0310    0.0193    0.0213    0.0353    0.0208    0.0195    0.0171
          30    0.0989   -0.0914   -0.0928    0.0343   -0.0642   -0.0135    0.0459   -0.0404
          31   -0.0954    0.0936    0.1073   -0.0310    0.0422    0.1088   -0.0445    0.0444
          32   -0.0213   -0.0324    0.0335    0.0169    0.0060   -0.0274   -0.0341    0.0033
          33    0.0259   -0.0326    0.0193    0.0049   -0.0098    0.0251   -0.0249    0.0097
          34   -0.0137   -0.0541    0.0089   -0.0188   -0.0606   -0.0499   -0.0547   -0.0075
          35    0.0751    0.0743   -0.0806   -0.0084    0.1350    0.0541   -0.0452   -0.0287
          36   -0.0205   -0.0243   -0.0259   -0.0396    0.0443   -0.0041   -0.0321   -0.0109
          37    0.0436    0.0370   -0.0195   -0.0129    0.0048    0.0372   -0.0274   -0.0163
          38    0.0396    0.0379   -0.0275   -0.0201    0.0461    0.0161    0.0209   -0.0001
          39   -0.0738   -0.0781    0.0534   -0.0564   -0.0838   -0.0610    0.0693    0.0318
          40    0.0148   -0.0181   -0.0771    0.0441    0.0008    0.0251    0.0069    0.0178
          41    0.0155   -0.0122   -0.0814    0.0105   -0.0446    0.0329   -0.0447    0.0166
          42   -0.0244    0.0032    0.1379    0.0184    0.0214   -0.0405    0.0024   -0.0305
          43    0.0408   -0.0275    0.0425    0.0075    0.0358    0.0498   -0.0734    0.0464
          44    0.0471   -0.0229    0.0367   -0.0685    0.0480    0.0193   -0.0610    0.0576
          45   -0.0656    0.0343   -0.0562    0.0135   -0.0695    0.0079    0.1482   -0.0812
          46   -0.0489   -0.0165   -0.0311   -0.1070    0.0584   -0.0375   -0.0390   -0.1496
          47   -0.0500   -0.0402    0.0136    0.1165    0.0532    0.0569   -0.0413   -0.1612
          48    0.0562    0.0170    0.0090    0.0504   -0.0278   -0.0294    0.0626    0.1970
          49   -0.0521   -0.0090   -0.0509    0.0871    0.0225   -0.0096   -0.0248    0.1608
          50   -0.0510   -0.0108   -0.0353    0.0898   -0.0092    0.0390   -0.0223    0.1534
          51    0.0568   -0.0226    0.0739    0.1139    0.0518   -0.0019    0.0402   -0.1899


   Root No.       9        10        11        12        13        14        15        16

                 9 A      10 A      11 A      12 A      13 A      14 A      15 A      16 A   

                 718.2     775.8     876.9     891.0     929.6     954.4     969.6     976.0
  
           1   -0.0052    0.0023    0.0263   -0.0064    0.0074    0.0007   -0.0038   -0.0071
           2   -0.0125   -0.0082    0.0278    0.0008    0.0067   -0.0085    0.0077   -0.0364
           3    0.0158    0.0064    0.0444   -0.0043    0.0039   -0.0160    0.0202   -0.0154
           4    0.0026   -0.0024    0.0105    0.0048   -0.0235    0.0086    0.0183    0.0146
           5   -0.0034   -0.0132    0.0125    0.0210    0.0425   -0.0212   -0.0295    0.0127
           6    0.0073    0.0141    0.0292   -0.0238    0.0055    0.0129   -0.0257    0.0087
           7    0.0023    0.0157   -0.0234   -0.0219    0.0297   -0.0287   -0.0206   -0.0309
           8    0.0014    0.0084    0.0011   -0.0138   -0.0128    0.0036    0.0062    0.0146
           9    0.0262   -0.0073    0.0015    0.0232   -0.0017   -0.0014   -0.0068   -0.0093
          10    0.0336   -0.0078   -0.0239   -0.0094    0.0016    0.0024    0.0044   -0.0035
          11    0.0045   -0.0115   -0.0009   -0.0107   -0.0134   -0.0011   -0.0013    0.0031
          12   -0.0179    0.0079   -0.0182    0.0196   -0.0020   -0.0036    0.0062   -0.0030
          13   -0.0269    0.0024    0.0222    0.0095   -0.0089   -0.0052    0.0070    0.0116
          14    0.0432    0.0253   -0.0354    0.0052    0.0143    0.0033    0.0017    0.0342
          15   -0.0013   -0.0111   -0.0141   -0.0154   -0.0005    0.0128   -0.0186    0.0016
          16   -0.0306    0.0072    0.0163    0.0125   -0.0108    0.0151   -0.0068   -0.0043
          17   -0.0224    0.0128   -0.0185    0.0130   -0.0045    0.0336    0.0250   -0.0229
          18   -0.0231   -0.0303   -0.0064   -0.0145    0.0014    0.0030    0.0442    0.0126
          19    0.0208   -0.0001   -0.0379    0.0022    0.0077    0.0055    0.0115   -0.0010
          20   -0.0103   -0.0012    0.0053   -0.0032   -0.0332   -0.0217   -0.0131    0.0028
          21    0.0087   -0.0003   -0.0264    0.0095   -0.0188   -0.0175   -0.0010   -0.0098
          22   -0.0572   -0.0319   -0.0458    0.0699    0.0098    0.0080   -0.0239    0.0234
          23   -0.1080   -0.0185   -0.0640   -0.0391   -0.0070    0.0434   -0.0604   -0.0192
          24   -0.0693   -0.0152   -0.0467    0.0034   -0.0020    0.0196   -0.0338    0.0079
          25    0.0409    0.0199    0.1496   -0.0453    0.0327    0.0065   -0.0168    0.0403
          26    0.0813    0.0102    0.0983    0.0141    0.0006   -0.0668    0.0939   -0.1205
          27   -0.0668   -0.0136   -0.0548    0.0042   -0.0043    0.0201   -0.0310    0.0186
          28   -0.0123    0.0288   -0.0332   -0.0389    0.0375   -0.0397   -0.0248   -0.0337
          29    0.0321   -0.0165    0.0338    0.0511   -0.0611   -0.0067    0.0530    0.0801
          30   -0.0690    0.0729   -0.0598   -0.0816    0.0395   -0.0649   -0.0199   -0.0277
          31    0.1068   -0.0713    0.0410    0.1051   -0.0195    0.0135   -0.0104   -0.0056
          32   -0.0263   -0.0189   -0.0243   -0.0463   -0.0370    0.0516   -0.0623   -0.0395
          33    0.0237   -0.0286   -0.0046    0.0211   -0.0180    0.0256   -0.0395   -0.0307
          34   -0.0499   -0.0368    0.0101    0.0904    0.0171    0.0009   -0.0331    0.0433
          35    0.0308    0.0649    0.0420   -0.0756   -0.0413    0.0501   -0.0362   -0.0067
          36   -0.0002    0.0344    0.0409   -0.0305   -0.0149    0.0414   -0.0510    0.0124
          37    0.0293    0.0365    0.0259   -0.0660   -0.0781    0.0614    0.0290    0.0748
          38    0.0062    0.0004    0.0176   -0.0043    0.0245   -0.0031   -0.0274    0.0353
          39   -0.0365   -0.0587    0.0173    0.0687    0.1011   -0.0408   -0.0660    0.0751
          40    0.0104   -0.1093    0.0594   -0.0199   -0.0620    0.0291   -0.0846    0.0393
          41    0.0773   -0.1031   -0.0249   -0.0312   -0.0196    0.0494   -0.0692    0.0009
          42   -0.0387    0.1837    0.0145    0.0434    0.0088   -0.0640    0.0391    0.1539
          43   -0.0427   -0.0603    0.0142   -0.0608    0.0133   -0.0522    0.0109    0.1108
          44   -0.0469   -0.0819   -0.0423   -0.0575    0.0308   -0.0323    0.1261   -0.0000
          45    0.0064    0.0972    0.0158    0.0951   -0.0461    0.1063   -0.0563   -0.0785
          46    0.0147   -0.0205   -0.0842    0.0429   -0.1274   -0.1060   -0.0161   -0.0276
          47   -0.0169   -0.0237    0.0428    0.0197    0.1041    0.0479    0.0251   -0.0060
          48    0.0170    0.0259   -0.0308   -0.0273   -0.0425   -0.0068   -0.0119    0.0101
          49   -0.0007    0.0401   -0.0183    0.0256    0.1378    0.0949    0.0500   -0.0188
          50   -0.0357    0.0394    0.0166    0.0227    0.0124    0.0091   -0.0035   -0.0202
          51    0.0456   -0.0522   -0.0117   -0.0297    0.1223    0.0806    0.0511    0.0313


   Root No.      17        18        19        20        21        22        23        24

                17 A      18 A      19 A      20 A      21 A      22 A      23 A      24 A   

                 997.8    1040.3    1047.9    1059.8    1111.6    1133.5    1135.2    1165.2
  
           1    0.0008   -0.0152   -0.0115    0.0030   -0.0012    0.0291   -0.0181   -0.0073
           2    0.0129   -0.0051   -0.0117   -0.0108    0.0020   -0.0080   -0.0366    0.0027
           3   -0.0075   -0.0095    0.0145    0.0071   -0.0023   -0.0065    0.0390   -0.0006
           4   -0.0066    0.0175    0.0173    0.0067    0.0078   -0.0295    0.0070    0.0100
           5   -0.0037   -0.0026    0.0090    0.0099    0.0019   -0.0080    0.0080   -0.0006
           6    0.0064    0.0153   -0.0143   -0.0109   -0.0149    0.0055   -0.0211   -0.0106
           7    0.0039    0.0147    0.0095    0.0023    0.0012   -0.0025    0.0014    0.0078
           8   -0.0120    0.0087    0.0173    0.0114   -0.0085    0.0158    0.0180   -0.0125
           9    0.0155    0.0207   -0.0192    0.0077    0.0212   -0.0011   -0.0243    0.0043
          10   -0.0066    0.0053   -0.0115   -0.0151    0.0012    0.0039    0.0042   -0.0006
          11   -0.0062    0.0157   -0.0093   -0.0091   -0.0079    0.0024   -0.0006    0.0081
          12    0.0067   -0.0073    0.0161    0.0222   -0.0028    0.0021   -0.0046    0.0088
          13    0.0068    0.0024   -0.0194    0.0064    0.0000    0.0002    0.0008    0.0042
          14   -0.0008   -0.0202   -0.0190   -0.0095    0.0011   -0.0072    0.0032    0.0005
          15   -0.0158   -0.0203    0.0291   -0.0176   -0.0040   -0.0009   -0.0020    0.0020
          16   -0.0032   -0.0166    0.0063   -0.0026   -0.0046   -0.0056   -0.0002   -0.0037
          17   -0.0020   -0.0147    0.0126   -0.0027    0.0038    0.0024    0.0064   -0.0025
          18    0.0017   -0.0085   -0.0195   -0.0103    0.0015   -0.0017    0.0062   -0.0042
          19    0.0245   -0.0128    0.0115    0.0113    0.0015    0.0009    0.0008   -0.0010
          20    0.0282   -0.0146    0.0057    0.0060    0.0026   -0.0008   -0.0001   -0.0029
          21   -0.0346   -0.0026   -0.0126   -0.0115    0.0021    0.0019    0.0022   -0.0042
          22    0.0509    0.0246   -0.0185   -0.0481   -0.1739    0.1642   -0.0341   -0.1340
          23    0.0137    0.0122   -0.0608    0.0092    0.1300   -0.0815   -0.1238    0.0812
          24    0.0155    0.0181   -0.0209   -0.0029    0.0040    0.0047   -0.0196   -0.0044
          25   -0.0554   -0.1134   -0.0104    0.0248    0.1919    0.0896    0.0408   -0.0367
          26    0.0253    0.0239    0.0272   -0.0099   -0.1355   -0.0596   -0.0049    0.0178
          27    0.0098    0.0183   -0.0111   -0.0018    0.0017   -0.0005   -0.0071    0.0009
          28   -0.0007    0.0251    0.0280    0.0021    0.0060    0.0066    0.0046    0.0021
          29   -0.0075    0.1316    0.1354   -0.0209    0.1284    0.0904   -0.0744   -0.1151
          30   -0.0136    0.0868    0.1012    0.0012    0.0583    0.0380   -0.0096   -0.0386
          31    0.0451    0.0398   -0.0635    0.0155    0.0419    0.0149   -0.0563    0.0010
          32   -0.0096    0.0527   -0.1024    0.1859   -0.0156    0.0169    0.2148   -0.0720
          33    0.0210    0.0451   -0.0837    0.0919    0.0247    0.0023    0.0620   -0.0235
          34    0.0761    0.0757    0.0431   -0.1406    0.0438   -0.0825    0.2054    0.0366
          35    0.0511    0.0537   -0.0392   -0.0944   -0.0066   -0.0087    0.0176   -0.0010
          36    0.0658    0.0659   -0.0251   -0.1192   -0.0058   -0.0169    0.0656   -0.0003
          37   -0.0629    0.0697    0.0337    0.1165   -0.0768   -0.1085   -0.1167   -0.0092
          38   -0.0250    0.0179    0.0156    0.0521   -0.0305   -0.0403   -0.0395   -0.0070
          39   -0.0422    0.0144    0.0419    0.0897   -0.0464   -0.0578   -0.0369   -0.0183
          40   -0.0434   -0.0142    0.0580   -0.0020   -0.0719    0.0847    0.0099    0.2016
          41   -0.0413   -0.0364    0.0564   -0.0251   -0.0283    0.0237    0.0070    0.0627
          42    0.0175    0.0017   -0.0612    0.0158   -0.0388    0.0583    0.0053    0.1592
          43   -0.0081   -0.0716   -0.0419   -0.0633   -0.0303   -0.1186   -0.0107   -0.1476
          44    0.0138    0.0607   -0.0253    0.0237    0.0256    0.0921    0.0198    0.1083
          45   -0.0102   -0.0444    0.0448    0.0028   -0.0030   -0.0117    0.0014   -0.0126
          46   -0.1206   -0.0215   -0.0340   -0.0231    0.0105   -0.0079    0.0045   -0.0235
          47   -0.1104    0.0484   -0.0286   -0.0266   -0.0041    0.0060    0.0028    0.0157
          48    0.1377   -0.0435    0.0354    0.0295    0.0017    0.0010   -0.0017   -0.0069
          49   -0.1143    0.0417   -0.0200   -0.0263   -0.0115   -0.0013    0.0006   -0.0023
          50   -0.1066    0.0258   -0.0327   -0.0368   -0.0037    0.0017    0.0020   -0.0036
          51    0.1266   -0.0182    0.0494    0.0509   -0.0055   -0.0089   -0.0041   -0.0010


   Root No.      25        26        27        28        29        30        31        32

                25 A      26 A      27 A      28 A      29 A      30 A      31 A      32 A   

                1238.8    1291.8    1329.2    1356.1    1381.3    1393.3    1400.3    1413.4
  
           1    0.0124   -0.0054    0.0491    0.0013    0.0059    0.0449    0.0212   -0.0227
           2   -0.0055    0.0170   -0.0298   -0.0039    0.0075   -0.0216   -0.0163   -0.0435
           3   -0.0000    0.0064    0.0024   -0.0053    0.0010   -0.0001    0.0005   -0.0019
           4    0.0131   -0.0316   -0.0172    0.0225    0.0188   -0.0475   -0.0149    0.0172
           5    0.0027   -0.0154    0.0035    0.0069   -0.0081   -0.0092    0.0179   -0.0036
           6    0.0046   -0.0187   -0.0076    0.0123   -0.0128   -0.0216    0.0220   -0.0082
           7    0.0001    0.0048   -0.0085    0.0044   -0.0205   -0.0013   -0.0277   -0.0057
           8   -0.0214   -0.0096   -0.0068    0.0328    0.0099    0.0575    0.0001    0.0350
           9   -0.0077   -0.0009   -0.0027    0.0185   -0.0162    0.0285   -0.0247    0.0069
          10   -0.0028   -0.0091   -0.0029   -0.0170    0.0023    0.0066   -0.0020   -0.0027
          11    0.0190    0.0002   -0.0132    0.0166   -0.0134    0.0193   -0.0072    0.0145
          12    0.0138   -0.0111   -0.0145    0.0009   -0.0073    0.0176   -0.0086    0.0110
          13   -0.0133   -0.0081    0.0019    0.0090   -0.0034   -0.0064    0.0052    0.0035
          14   -0.0083   -0.0094    0.0089   -0.0125    0.0003   -0.0280    0.0127   -0.0084
          15   -0.0149   -0.0118    0.0070   -0.0023   -0.0012   -0.0212    0.0122   -0.0024
          16   -0.0156   -0.0108    0.0068   -0.0004    0.0011   -0.0125    0.0119   -0.0010
          17    0.0137    0.0155   -0.0006   -0.0119    0.0090    0.0073   -0.0084   -0.0050
          18   -0.0004    0.0049    0.0044   -0.0086    0.0067   -0.0030    0.0015   -0.0046
          19    0.0021    0.0022   -0.0030   -0.0180    0.0020    0.0158   -0.0071   -0.0014
          20   -0.0069    0.0006    0.0049    0.0028    0.0013   -0.0078    0.0043   -0.0022
          21   -0.0040    0.0032    0.0019   -0.0127    0.0023    0.0075   -0.0021   -0.0032
          22   -0.0410    0.0411   -0.0751   -0.0372   -0.0451   -0.0878   -0.0314    0.0951
          23    0.0327    0.0103    0.0757   -0.0540   -0.0592    0.0002    0.0389    0.1545
          24    0.0010    0.0190    0.0134   -0.0452   -0.0538   -0.0366    0.0108    0.1469
          25   -0.0569    0.0866   -0.0855   -0.0434   -0.0447   -0.0391   -0.0505    0.1055
          26    0.0450    0.0062    0.0936   -0.0765   -0.0519   -0.0354    0.0547    0.1432
          27   -0.0022   -0.0227   -0.0151    0.0523    0.0517    0.0393   -0.0118   -0.1526
          28    0.0105    0.0168   -0.0277   -0.0065    0.0228   -0.0046    0.0115    0.0046
          29    0.0803   -0.0033    0.1031   -0.0573   -0.0790   -0.0624   -0.0401   -0.0855
          30    0.0542    0.0487   -0.0653   -0.0449    0.1484   -0.0128    0.1322    0.0306
          31    0.0225    0.0454   -0.0827   -0.0180    0.1670    0.0259    0.1411    0.0526
          32    0.0617    0.0069    0.0286   -0.0475   -0.0181   -0.0719   -0.0039   -0.0493
          33    0.0350    0.0149   -0.0024   -0.0233    0.0088   -0.0266    0.0079   -0.0196
          34   -0.0534    0.0726   -0.0188   -0.0377   -0.0807    0.0792    0.0645   -0.0407
          35   -0.0226    0.0306    0.0877   -0.0089    0.1408   -0.0225   -0.1248    0.0480
          36   -0.0344    0.0442    0.0380   -0.0190    0.0300    0.0194   -0.0252   -0.0013
          37   -0.1023    0.1087   -0.0485   -0.0779   -0.0724    0.0538    0.0462   -0.0707
          38   -0.0411    0.0379    0.0027   -0.0305   -0.0235    0.0242    0.0242   -0.0291
          39   -0.0700    0.0527    0.1089   -0.0465    0.1523   -0.0124   -0.1270    0.0385
          40    0.0971    0.0677   -0.0205   -0.0229    0.0018    0.0085   -0.0334   -0.0152
          41    0.0247    0.0137    0.0028   -0.0231    0.0033   -0.0233    0.0022   -0.0138
          42    0.0781    0.0506   -0.0103   -0.0319    0.0020   -0.0144   -0.0192   -0.0210
          43    0.1481    0.0346   -0.0416   -0.0115    0.0024    0.0752   -0.0382    0.0124
          44   -0.1144   -0.0183    0.0385   -0.0041    0.0094   -0.0611    0.0313   -0.0157
          45    0.0133    0.0068   -0.0004   -0.0117    0.0071    0.0031   -0.0026   -0.0042
          46   -0.0123    0.1196    0.0596    0.1152   -0.0055   -0.0691    0.0330   -0.0044
          47    0.0095   -0.0990   -0.0499   -0.1084    0.0074    0.0648   -0.0312    0.0018
          48   -0.0059    0.0206    0.0106    0.0047    0.0006   -0.0015    0.0034   -0.0037
          49    0.0356    0.0976    0.0279    0.1182   -0.0198   -0.0360    0.0179    0.0127
          50    0.0041    0.0273    0.0131    0.0425   -0.0062   -0.0211    0.0120    0.0022
          51    0.0336    0.0976    0.0315    0.1319   -0.0194   -0.0503    0.0223    0.0139


   Root No.      33        34        35        36        37        38        39        40

                33 A      34 A      35 A      36 A      37 A      38 A      39 A      40 A   

                1482.4    1850.1    1884.3    2944.6    2948.9    2966.4    3026.2    3027.5
  
           1    0.0090    0.0034    0.0015   -0.0006   -0.0004    0.0004    0.0035    0.0021
           2    0.0188    0.0015   -0.0013   -0.0009   -0.0006    0.0006    0.0055    0.0022
           3    0.0099    0.0026   -0.0004    0.0127    0.0075   -0.0401   -0.0014   -0.0009
           4   -0.0285    0.0105   -0.0139    0.0005    0.0017   -0.0003    0.0059    0.0154
           5   -0.0435    0.0070   -0.0036    0.0076    0.0328    0.0092   -0.0058   -0.0154
           6   -0.0524    0.0146   -0.0126   -0.0060   -0.0245   -0.0056   -0.0060   -0.0164
           7   -0.0182   -0.0139   -0.0117    0.0243   -0.0080    0.0074   -0.0208    0.0093
           8   -0.0375   -0.0090   -0.0069    0.0117   -0.0038    0.0028    0.0073   -0.0031
           9   -0.0313   -0.0138   -0.0113   -0.0279    0.0088   -0.0071   -0.0124    0.0056
          10   -0.0119   -0.1125    0.1385   -0.0002   -0.0003    0.0002   -0.0001   -0.0001
          11    0.1053    0.0233   -0.0562   -0.0000    0.0000    0.0001   -0.0000   -0.0002
          12    0.0758   -0.0734    0.0654   -0.0001   -0.0003    0.0001   -0.0001   -0.0003
          13    0.0337    0.1265    0.1091   -0.0005    0.0001   -0.0001    0.0020   -0.0010
          14    0.0297   -0.0138   -0.0091    0.0004   -0.0001    0.0003   -0.0036    0.0019
          15    0.0403    0.0656    0.0585   -0.0001    0.0000    0.0000   -0.0012    0.0007
          16    0.0257   -0.1133   -0.1288    0.0002    0.0000    0.0000    0.0001   -0.0006
          17   -0.0683    0.0364    0.0594   -0.0000    0.0000   -0.0000    0.0002   -0.0006
          18   -0.0323   -0.0422   -0.0371   -0.0001   -0.0000   -0.0001    0.0002   -0.0007
          19   -0.0037    0.1023   -0.0964    0.0001    0.0002    0.0000    0.0001    0.0002
          20   -0.0121   -0.0335    0.0291    0.0000    0.0001    0.0000   -0.0001   -0.0002
          21   -0.0125    0.0568   -0.0554    0.0000    0.0001    0.0000   -0.0000   -0.0000
          22   -0.0177   -0.0013   -0.0012    0.0390    0.0194   -0.1085   -0.0250   -0.0120
          23   -0.0270   -0.0008    0.0008    0.0535    0.0353   -0.1595   -0.0361   -0.0186
          24   -0.0266   -0.0001   -0.0011   -0.0901   -0.0544    0.2505    0.0656    0.0325
          25    0.0226   -0.0056   -0.0059   -0.0289   -0.0163    0.1033   -0.0179   -0.0045
          26   -0.0028    0.0102    0.0054   -0.0414   -0.0238    0.1515   -0.0241   -0.0123
          27    0.0128    0.0027   -0.0037   -0.0642   -0.0362    0.2304   -0.0490   -0.0215
          28   -0.0046   -0.0120   -0.0103   -0.2531    0.0879   -0.0810    0.2949   -0.1347
          29    0.0358   -0.0149   -0.0121   -0.0010    0.0000    0.0000    0.0127   -0.0050
          30    0.0394   -0.0160   -0.0142    0.0381   -0.0134    0.0123   -0.0689    0.0314
          31    0.0268    0.0013   -0.0000   -0.0363    0.0111   -0.0066   -0.0459    0.0212
          32    0.0354   -0.0043   -0.0042   -0.1403    0.0442   -0.0367   -0.1016    0.0458
          33    0.0116   -0.0062   -0.0047    0.3009   -0.0934    0.0709    0.2185   -0.0988
          34    0.0099   -0.0047    0.0070   -0.0294   -0.1210   -0.0302   -0.0315   -0.0849
          35    0.0655    0.0048   -0.0070   -0.0332   -0.1347   -0.0286   -0.0451   -0.1233
          36    0.0204    0.0037   -0.0024    0.0730    0.2956    0.0642    0.0827    0.2254
          37    0.0063   -0.0177    0.0259    0.0209    0.0979    0.0303   -0.0369   -0.1026
          38   -0.0216   -0.0033    0.0108   -0.0556   -0.2589   -0.0814    0.1133    0.3084
          39    0.0293   -0.0160    0.0267    0.0003    0.0019    0.0009   -0.0097   -0.0264
          40   -0.0860    0.0134    0.0115    0.0046   -0.0011    0.0008   -0.0245    0.0131
          41   -0.0099   -0.0731   -0.0591   -0.0052    0.0009   -0.0002    0.0398   -0.0217
          42   -0.0555   -0.0436   -0.0332   -0.0022    0.0004   -0.0001    0.0117   -0.0066
          43   -0.0413   -0.0303    0.0165   -0.0000   -0.0008    0.0001    0.0004    0.0057
          44   -0.0194   -0.0501   -0.0743    0.0001   -0.0013    0.0002   -0.0002    0.0089
          45   -0.0375   -0.0530   -0.0346   -0.0007   -0.0012   -0.0000    0.0000    0.0096
          46   -0.0426    0.0033   -0.0037    0.0004    0.0012    0.0002   -0.0000   -0.0002
          47    0.0249    0.0671   -0.0665    0.0004    0.0014    0.0003    0.0000   -0.0004
          48   -0.0149    0.0572   -0.0601    0.0005    0.0014    0.0003   -0.0002   -0.0009
          49    0.0544    0.0179   -0.0210    0.0004    0.0013    0.0002   -0.0005   -0.0017
          50    0.0098   -0.0799    0.0689   -0.0005   -0.0016   -0.0001    0.0003    0.0014
          51    0.0518   -0.0499    0.0415   -0.0000    0.0002    0.0001   -0.0000    0.0002


   Root No.      41        42        43        44        45

                41 A      42 A      43 A      44 A      45 A   

                3041.3    3043.9    3063.8    3140.6    3141.1
  
           1    0.0020   -0.0170    0.0009   -0.0001    0.0000
           2    0.0029   -0.0249    0.0015   -0.0000    0.0001
           3    0.0002   -0.0026    0.0007   -0.0001    0.0001
           4   -0.0010    0.0025   -0.0004    0.0004    0.0003
           5    0.0014   -0.0041    0.0007   -0.0004    0.0003
           6    0.0011   -0.0024    0.0003    0.0003    0.0003
           7   -0.0017   -0.0049    0.0042    0.0000    0.0000
           8    0.0006    0.0008   -0.0011   -0.0000   -0.0000
           9   -0.0007   -0.0019    0.0017    0.0000   -0.0000
          10   -0.0002    0.0001   -0.0008    0.0052   -0.0027
          11    0.0001    0.0000    0.0004   -0.0018    0.0004
          12   -0.0001    0.0001   -0.0002    0.0027   -0.0020
          13   -0.0102    0.0003    0.0248   -0.0002    0.0003
          14    0.0193    0.0000   -0.0354    0.0001   -0.0001
          15    0.0069    0.0002   -0.0091   -0.0000    0.0001
          16   -0.0179   -0.0022   -0.0151    0.0003   -0.0009
          17   -0.0241   -0.0027   -0.0137    0.0004    0.0002
          18   -0.0275   -0.0032   -0.0186    0.0005   -0.0004
          19   -0.0002    0.0000    0.0000   -0.0360    0.0262
          20   -0.0001   -0.0001   -0.0001   -0.0145   -0.0580
          21   -0.0002   -0.0000   -0.0000   -0.0414   -0.0257
          22   -0.0119    0.0954   -0.0036   -0.0000   -0.0000
          23   -0.0174    0.1403   -0.0054   -0.0001    0.0000
          24    0.0327   -0.2633    0.0107    0.0000    0.0001
          25   -0.0137    0.1116   -0.0063    0.0002   -0.0002
          26   -0.0196    0.1631   -0.0093    0.0002   -0.0003
          27   -0.0354    0.2940   -0.0164    0.0004   -0.0006
          28    0.0271    0.0703   -0.0548   -0.0001   -0.0000
          29    0.0027   -0.0000   -0.0041    0.0000   -0.0000
          30   -0.0049   -0.0158    0.0101    0.0000   -0.0000
          31   -0.0036   -0.0089    0.0071    0.0001   -0.0000
          32   -0.0066   -0.0177    0.0131    0.0002   -0.0001
          33    0.0164    0.0375   -0.0308   -0.0004    0.0001
          34    0.0045   -0.0124    0.0009    0.0007    0.0002
          35    0.0069   -0.0199    0.0017    0.0003    0.0005
          36   -0.0121    0.0338   -0.0025   -0.0008   -0.0003
          37    0.0076   -0.0262    0.0027   -0.0013    0.0027
          38   -0.0211    0.0684   -0.0073    0.0043   -0.0031
          39    0.0018   -0.0053    0.0006    0.0000    0.0015
          40    0.1335   -0.0010   -0.2379    0.0005   -0.0004
          41   -0.2345    0.0008    0.4075   -0.0007    0.0007
          42   -0.0784   -0.0000    0.1328   -0.0002    0.0002
          43    0.1988    0.0233    0.1241   -0.0046    0.0006
          44    0.2888    0.0335    0.1737   -0.0041    0.0031
          45    0.3193    0.0372    0.1948   -0.0057    0.0023
          46    0.0025    0.0002    0.0018    0.2620    0.0913
          47    0.0016   -0.0000    0.0014    0.3773    0.1025
          48    0.0033    0.0001    0.0027    0.5233    0.1589
          49    0.0022   -0.0003    0.0020    0.1056   -0.3693
          50   -0.0034    0.0003   -0.0031   -0.1855    0.5774
          51   -0.0009    0.0000   -0.0009   -0.0646    0.1671


           MASS-WEIGHTED COORDINATE ANALYSIS (NORMAL COORDINATES)


   Root No.       1         2         3         4         5         6         7         8

                 1 A       2 A       3 A       4 A       5 A       6 A       7 A       8 A   

                  76.4     221.9     302.1     404.4     464.6     480.1     571.5     622.7
  
           1    0.1166    0.0119   -0.0050   -0.0741   -0.2773   -0.0954   -0.2432   -0.0849
           2   -0.0623   -0.0627    0.0088    0.1032   -0.0479   -0.3559   -0.1373   -0.0202
           3    0.0236    0.4594   -0.0108    0.0507   -0.0802   -0.1079   -0.0601   -0.0001
           4    0.1183    0.0130    0.0026   -0.0164   -0.2262   -0.1441   -0.1962   -0.0351
           5    0.2404    0.2252   -0.1633   -0.1265    0.2848   -0.0325    0.1428    0.0273
           6   -0.2341   -0.2094   -0.0199   -0.2797    0.1124   -0.1265    0.0614    0.0316
           7   -0.1821    0.1786    0.1372   -0.0630   -0.1132    0.3910   -0.0241   -0.0278
           8   -0.1757    0.0029    0.0575    0.1287   -0.0178   -0.1477   -0.0922   -0.0197
           9    0.2731   -0.2298   -0.0247    0.0540   -0.1584    0.1726   -0.0762    0.0170
          10    0.0375    0.0084    0.1048    0.0625    0.1141   -0.3249    0.3196    0.0400
          11    0.0494    0.0440    0.1634   -0.2709   -0.1507   -0.0363    0.3871    0.0066
          12   -0.0656   -0.0723   -0.2932   -0.2108    0.2626   -0.0045   -0.2909    0.0372
          13    0.0543   -0.0512   -0.2073    0.1167    0.0290    0.1988    0.2470   -0.0226
          14    0.0465   -0.0205   -0.1884   -0.0023   -0.3012    0.1277   -0.1579   -0.0538
          15   -0.0759   -0.0320    0.4157    0.0101    0.0129    0.0961   -0.1563    0.0367
          16    0.1622   -0.1041    0.1677    0.0386    0.1975    0.1265    0.1021    0.0422
          17    0.1866   -0.0613    0.1953   -0.3387    0.0125    0.1676    0.0134    0.0369
          18   -0.2495    0.0929   -0.2546   -0.0558   -0.1678    0.1947    0.2674   -0.0608
          19   -0.2647   -0.0740   -0.1771   -0.0212    0.2591   -0.2325   -0.0121    0.0477
          20   -0.2626   -0.1358   -0.0047    0.3831    0.0480    0.2000   -0.0009   -0.0108
          21    0.2879   -0.0379    0.1122    0.3036    0.1517   -0.0892    0.0999    0.0301
          22    0.1133    0.1302   -0.0228    0.0359   -0.1362   -0.0590   -0.1262   -0.0553
          23   -0.0701    0.1592    0.0209    0.0778   -0.0416   -0.2007   -0.0748   -0.0330
          24    0.0081    0.2960   -0.0008    0.0696   -0.0678   -0.1092   -0.0644   -0.0312
          25    0.0209   -0.1081   -0.0189   -0.1089   -0.0005   -0.0303   -0.0099    0.0037
          26   -0.0122   -0.1933    0.0114    0.0058   -0.0010    0.0112   -0.0218    0.0197
          27    0.0087    0.2945   -0.0014    0.0692   -0.0670   -0.1049   -0.0576   -0.0298
          28   -0.0262    0.0238    0.0066   -0.0087   -0.0507    0.1009    0.0107   -0.0236
          29   -0.1199    0.0781    0.0427    0.0462    0.0834    0.0448    0.0410    0.0383
          30    0.2261   -0.2304   -0.2051    0.0745   -0.1516   -0.0291    0.0968   -0.0904
          31   -0.2180    0.2359    0.2371   -0.0672    0.0998    0.2343   -0.0936    0.0994
          32   -0.0488   -0.0816    0.0740    0.0367    0.0142   -0.0591   -0.0719    0.0075
          33    0.0593   -0.0822    0.0426    0.0107   -0.0232    0.0541   -0.0524    0.0217
          34   -0.0314   -0.1364    0.0197   -0.0407   -0.1432   -0.1076   -0.1152   -0.0168
          35    0.1717    0.1874   -0.1780   -0.0182    0.3189    0.1164   -0.0951   -0.0641
          36   -0.0470   -0.0613   -0.0572   -0.0860    0.1046   -0.0088   -0.0675   -0.0244
          37    0.0996    0.0932   -0.0430   -0.0280    0.0113    0.0802   -0.0577   -0.0364
          38    0.0906    0.0955   -0.0607   -0.0437    0.1090    0.0347    0.0441   -0.0002
          39   -0.1687   -0.1969    0.1179   -0.1225   -0.1981   -0.1313    0.1459    0.0712
          40    0.0339   -0.0455   -0.1703    0.0957    0.0019    0.0540    0.0146    0.0398
          41    0.0355   -0.0307   -0.1799    0.0228   -0.1053    0.0710   -0.0941    0.0371
          42   -0.0559    0.0081    0.3047    0.0399    0.0505   -0.0873    0.0051   -0.0682
          43    0.0934   -0.0692    0.0938    0.0163    0.0847    0.1072   -0.1547    0.1039
          44    0.1077   -0.0577    0.0811   -0.1488    0.1134    0.0416   -0.1285    0.1289
          45   -0.1500    0.0865   -0.1241    0.0293   -0.1643    0.0169    0.3121   -0.1816
          46   -0.1117   -0.0416   -0.0686   -0.2324    0.1381   -0.0808   -0.0822   -0.3346
          47   -0.1144   -0.1013    0.0299    0.2529    0.1256    0.1225   -0.0869   -0.3606
          48    0.1285    0.0429    0.0198    0.1094   -0.0656   -0.0634    0.1319    0.4406
          49   -0.1190   -0.0228   -0.1124    0.1892    0.0532   -0.0206   -0.0522    0.3597
          50   -0.1166   -0.0272   -0.0780    0.1951   -0.0218    0.0840   -0.0471    0.3432
          51    0.1299   -0.0569    0.1634    0.2473    0.1225   -0.0040    0.0846   -0.4247


   Root No.       9        10        11        12        13        14        15        16

                 9 A      10 A      11 A      12 A      13 A      14 A      15 A      16 A   

                 718.2     775.8     876.9     891.0     929.6     954.4     969.6     976.0
  
           1   -0.0444    0.0211    0.2021   -0.0618    0.0628    0.0069   -0.0343   -0.0628
           2   -0.1058   -0.0743    0.2138    0.0082    0.0563   -0.0814    0.0688   -0.3201
           3    0.1341    0.0579    0.3413   -0.0411    0.0333   -0.1546    0.1804   -0.1349
           4    0.0223   -0.0216    0.0808    0.0463   -0.1982    0.0830    0.1636    0.1283
           5   -0.0286   -0.1192    0.0960    0.2028    0.3586   -0.2046   -0.2636    0.1113
           6    0.0615    0.1277    0.2245   -0.2301    0.0460    0.1239   -0.2301    0.0765
           7    0.0197    0.1417   -0.1796   -0.2113    0.2506   -0.2760   -0.1840   -0.2717
           8    0.0116    0.0759    0.0082   -0.1332   -0.1083    0.0350    0.0554    0.1280
           9    0.2222   -0.0657    0.0116    0.2240   -0.0141   -0.0135   -0.0612   -0.0816
          10    0.2849   -0.0707   -0.1838   -0.0908    0.0137    0.0235    0.0397   -0.0311
          11    0.0384   -0.1039   -0.0067   -0.1039   -0.1130   -0.0103   -0.0119    0.0270
          12   -0.1516    0.0709   -0.1395    0.1897   -0.0168   -0.0344    0.0558   -0.0263
          13   -0.2281    0.0213    0.1702    0.0920   -0.0747   -0.0497    0.0623    0.1019
          14    0.3658    0.2287   -0.2717    0.0506    0.1204    0.0314    0.0149    0.3008
          15   -0.0109   -0.1001   -0.1086   -0.1489   -0.0039    0.1233   -0.1665    0.0143
          16   -0.2588    0.0646    0.1253    0.1209   -0.0916    0.1457   -0.0606   -0.0374
          17   -0.1901    0.1157   -0.1424    0.1252   -0.0384    0.3233    0.2241   -0.2012
          18   -0.1959   -0.2740   -0.0495   -0.1398    0.0121    0.0288    0.3951    0.1109
          19    0.1765   -0.0013   -0.2914    0.0213    0.0649    0.0532    0.1031   -0.0088
          20   -0.0873   -0.0110    0.0410   -0.0310   -0.2801   -0.2087   -0.1170    0.0250
          21    0.0740   -0.0028   -0.2025    0.0919   -0.1584   -0.1682   -0.0089   -0.0860
          22   -0.1404   -0.0834   -0.1018    0.1957    0.0239    0.0223   -0.0619    0.0597
          23   -0.2648   -0.0483   -0.1423   -0.1095   -0.0171    0.1211   -0.1566   -0.0490
          24   -0.1701   -0.0397   -0.1040    0.0097   -0.0049    0.0548   -0.0876    0.0202
          25    0.1004    0.0521    0.3329   -0.1269    0.0799    0.0182   -0.0437    0.1026
          26    0.1995    0.0268    0.2188    0.0394    0.0014   -0.1863    0.2434   -0.3069
          27   -0.1639   -0.0356   -0.1220    0.0117   -0.0105    0.0560   -0.0803    0.0474
          28   -0.0302    0.0753   -0.0740   -0.1089    0.0917   -0.1107   -0.0643   -0.0858
          29    0.0788   -0.0432    0.0753    0.1431   -0.1495   -0.0186    0.1373    0.2038
          30   -0.1692    0.1905   -0.1330   -0.2286    0.0966   -0.1812   -0.0516   -0.0706
          31    0.2619   -0.1864    0.0913    0.2942   -0.0476    0.0377   -0.0269   -0.0144
          32   -0.0644   -0.0495   -0.0541   -0.1296   -0.0905    0.1439   -0.1613   -0.1005
          33    0.0582   -0.0749   -0.0103    0.0591   -0.0439    0.0715   -0.1024   -0.0782
          34   -0.1224   -0.0962    0.0225    0.2531    0.0417    0.0026   -0.0858    0.1101
          35    0.0756    0.1698    0.0936   -0.2117   -0.1011    0.1399   -0.0939   -0.0170
          36   -0.0004    0.0899    0.0910   -0.0853   -0.0364    0.1156   -0.1321    0.0317
          37    0.0719    0.0954    0.0575   -0.1848   -0.1910    0.1712    0.0752    0.1905
          38    0.0152    0.0009    0.0391   -0.0120    0.0600   -0.0085   -0.0710    0.0899
          39   -0.0895   -0.1535    0.0386    0.1924    0.2472   -0.1139   -0.1709    0.1911
          40    0.0255   -0.2858    0.1323   -0.0556   -0.1516    0.0813   -0.2191    0.1001
          41    0.1897   -0.2696   -0.0555   -0.0874   -0.0480    0.1378   -0.1794    0.0022
          42   -0.0950    0.4805    0.0323    0.1215    0.0214   -0.1787    0.1014    0.3918
          43   -0.1047   -0.1578    0.0316   -0.1703    0.0324   -0.1455    0.0283    0.2821
          44   -0.1150   -0.2142   -0.0941   -0.1609    0.0753   -0.0901    0.3267   -0.0001
          45    0.0157    0.2541    0.0351    0.2662   -0.1128    0.2965   -0.1459   -0.1999
          46    0.0361   -0.0536   -0.1875    0.1202   -0.3115   -0.2957   -0.0416   -0.0702
          47   -0.0415   -0.0619    0.0953    0.0552    0.2545    0.1335    0.0650   -0.0152
          48    0.0416    0.0677   -0.0686   -0.0763   -0.1040   -0.0189   -0.0309    0.0258
          49   -0.0017    0.1048   -0.0408    0.0717    0.3369    0.2648    0.1295   -0.0478
          50   -0.0876    0.1031    0.0369    0.0636    0.0303    0.0253   -0.0091   -0.0516
          51    0.1119   -0.1366   -0.0260   -0.0831    0.2990    0.2249    0.1323    0.0797


   Root No.      17        18        19        20        21        22        23        24

                17 A      18 A      19 A      20 A      21 A      22 A      23 A      24 A   

                 997.8    1040.3    1047.9    1059.8    1111.6    1133.5    1135.2    1165.2
  
           1    0.0065   -0.1464   -0.1051    0.0265   -0.0109    0.2681   -0.1403   -0.0623
           2    0.1102   -0.0494   -0.1068   -0.0949    0.0172   -0.0738   -0.2838    0.0231
           3   -0.0640   -0.0912    0.1324    0.0621   -0.0200   -0.0603    0.3017   -0.0052
           4   -0.0563    0.1679    0.1583    0.0593    0.0676   -0.2714    0.0545    0.0854
           5   -0.0312   -0.0246    0.0820    0.0869    0.0169   -0.0732    0.0620   -0.0055
           6    0.0549    0.1471   -0.1306   -0.0958   -0.1303    0.0503   -0.1635   -0.0909
           7    0.0332    0.1416    0.0866    0.0207    0.0107   -0.0226    0.0105    0.0666
           8   -0.1023    0.0839    0.1586    0.1005   -0.0739    0.1454    0.1392   -0.1077
           9    0.1320    0.1993   -0.1760    0.0679    0.1845   -0.0099   -0.1881    0.0368
          10   -0.0563    0.0508   -0.1055   -0.1328    0.0102    0.0356    0.0324   -0.0048
          11   -0.0532    0.1508   -0.0851   -0.0804   -0.0686    0.0223   -0.0049    0.0696
          12    0.0572   -0.0699    0.1471    0.1959   -0.0247    0.0191   -0.0355    0.0751
          13    0.0579    0.0234   -0.1778    0.0564    0.0004    0.0019    0.0065    0.0364
          14   -0.0067   -0.1937   -0.1742   -0.0840    0.0092   -0.0666    0.0247    0.0041
          15   -0.1348   -0.1951    0.2664   -0.1549   -0.0345   -0.0079   -0.0154    0.0168
          16   -0.0274   -0.1596    0.0581   -0.0225   -0.0402   -0.0514   -0.0013   -0.0317
          17   -0.0172   -0.1413    0.1154   -0.0234    0.0330    0.0222    0.0493   -0.0214
          18    0.0149   -0.0818   -0.1785   -0.0906    0.0135   -0.0153    0.0476   -0.0359
          19    0.2093   -0.1228    0.1050    0.0993    0.0135    0.0080    0.0064   -0.0090
          20    0.2409   -0.1405    0.0519    0.0530    0.0224   -0.0076   -0.0004   -0.0248
          21   -0.2949   -0.0246   -0.1151   -0.1014    0.0180    0.0174    0.0173   -0.0361
          22    0.1257    0.0684   -0.0489   -0.1226   -0.4394    0.4379   -0.0765   -0.3333
          23    0.0338    0.0340   -0.1612    0.0236    0.3286   -0.2174   -0.2777    0.2020
          24    0.0384    0.0505   -0.0554   -0.0074    0.0102    0.0125   -0.0439   -0.0110
          25   -0.1367   -0.3156   -0.0276    0.0634    0.4849    0.2390    0.0916   -0.0912
          26    0.0624    0.0666    0.0720   -0.0251   -0.3424   -0.1588   -0.0109    0.0442
          27    0.0243    0.0508   -0.0293   -0.0045    0.0043   -0.0013   -0.0158    0.0022
          28   -0.0017    0.0700    0.0742    0.0053    0.0151    0.0175    0.0103    0.0053
          29   -0.0186    0.3661    0.3589   -0.0533    0.3245    0.2409   -0.1670   -0.2862
          30   -0.0336    0.2416    0.2681    0.0030    0.1472    0.1014   -0.0215   -0.0961
          31    0.1114    0.1107   -0.1682    0.0395    0.1058    0.0396   -0.1262    0.0026
          32   -0.0236    0.1466   -0.2713    0.4744   -0.0395    0.0451    0.4819   -0.1790
          33    0.0518    0.1254   -0.2218    0.2344    0.0624    0.0062    0.1390   -0.0584
          34    0.1879    0.2106    0.1143   -0.3588    0.1106   -0.2200    0.4607    0.0909
          35    0.1262    0.1494   -0.1038   -0.2410   -0.0166   -0.0231    0.0395   -0.0025
          36    0.1624    0.1833   -0.0664   -0.3042   -0.0146   -0.0451    0.1472   -0.0007
          37   -0.1553    0.1940    0.0894    0.2974   -0.1941   -0.2893   -0.2619   -0.0229
          38   -0.0618    0.0498    0.0413    0.1330   -0.0771   -0.1075   -0.0885   -0.0173
          39   -0.1041    0.0402    0.1110    0.2289   -0.1171   -0.1541   -0.0828   -0.0455
          40   -0.1071   -0.0394    0.1536   -0.0052   -0.1818    0.2258    0.0222    0.5012
          41   -0.1020   -0.1013    0.1495   -0.0641   -0.0714    0.0631    0.0157    0.1560
          42    0.0433    0.0048   -0.1622    0.0404   -0.0980    0.1555    0.0118    0.3958
          43   -0.0200   -0.1993   -0.1111   -0.1615   -0.0766   -0.3161   -0.0241   -0.3670
          44    0.0342    0.1690   -0.0670    0.0604    0.0646    0.2456    0.0445    0.2692
          45   -0.0251   -0.1236    0.1188    0.0071   -0.0075   -0.0311    0.0031   -0.0312
          46   -0.2979   -0.0598   -0.0901   -0.0589    0.0266   -0.0210    0.0101   -0.0585
          47   -0.2726    0.1347   -0.0758   -0.0679   -0.0103    0.0159    0.0064    0.0390
          48    0.3401   -0.1210    0.0938    0.0752    0.0044    0.0027   -0.0039   -0.0172
          49   -0.2824    0.1162   -0.0529   -0.0672   -0.0290   -0.0034    0.0014   -0.0057
          50   -0.2634    0.0719   -0.0867   -0.0940   -0.0092    0.0046    0.0044   -0.0090
          51    0.3126   -0.0505    0.1308    0.1299   -0.0139   -0.0238   -0.0093   -0.0024


   Root No.      25        26        27        28        29        30        31        32

                25 A      26 A      27 A      28 A      29 A      30 A      31 A      32 A   

                1238.8    1291.8    1329.2    1356.1    1381.3    1393.3    1400.3    1413.4
  
           1    0.1203   -0.0521    0.4538    0.0120    0.0522    0.3454    0.1959   -0.1794
           2   -0.0530    0.1643   -0.2758   -0.0360    0.0662   -0.1660   -0.1503   -0.3436
           3   -0.0000    0.0617    0.0222   -0.0490    0.0087   -0.0006    0.0043   -0.0148
           4    0.1265   -0.3055   -0.1586    0.2067    0.1666   -0.3655   -0.1377    0.1362
           5    0.0257   -0.1488    0.0326    0.0634   -0.0719   -0.0708    0.1649   -0.0281
           6    0.0446   -0.1805   -0.0702    0.1135   -0.1129   -0.1663    0.2032   -0.0644
           7    0.0007    0.0467   -0.0789    0.0406   -0.1814   -0.0103   -0.2559   -0.0447
           8   -0.2064   -0.0924   -0.0632    0.3015    0.0876    0.4423    0.0012    0.2766
           9   -0.0744   -0.0083   -0.0251    0.1697   -0.1433    0.2197   -0.2282    0.0549
          10   -0.0274   -0.0879   -0.0264   -0.1566    0.0205    0.0505   -0.0188   -0.0213
          11    0.1833    0.0021   -0.1219    0.1528   -0.1183    0.1483   -0.0661    0.1146
          12    0.1335   -0.1070   -0.1336    0.0083   -0.0646    0.1354   -0.0797    0.0867
          13   -0.1283   -0.0782    0.0175    0.0826   -0.0297   -0.0494    0.0478    0.0273
          14   -0.0801   -0.0903    0.0819   -0.1145    0.0024   -0.2157    0.1169   -0.0664
          15   -0.1439   -0.1140    0.0647   -0.0214   -0.0109   -0.1633    0.1130   -0.0186
          16   -0.1510   -0.1038    0.0632   -0.0037    0.0096   -0.0964    0.1095   -0.0077
          17    0.1329    0.1495   -0.0060   -0.1095    0.0794    0.0562   -0.0776   -0.0396
          18   -0.0043    0.0477    0.0404   -0.0787    0.0597   -0.0229    0.0136   -0.0364
          19    0.0203    0.0212   -0.0280   -0.1651    0.0173    0.1216   -0.0654   -0.0111
          20   -0.0671    0.0058    0.0451    0.0261    0.0119   -0.0597    0.0393   -0.0171
          21   -0.0387    0.0311    0.0172   -0.1164    0.0201    0.0578   -0.0191   -0.0256
          22   -0.1147    0.1148   -0.2011   -0.0991   -0.1157   -0.1958   -0.0840    0.2178
          23    0.0915    0.0287    0.2028   -0.1439   -0.1517    0.0004    0.1040    0.3536
          24    0.0029    0.0530    0.0358   -0.1204   -0.1380   -0.0817    0.0288    0.3362
          25   -0.1593    0.2421   -0.2289   -0.1157   -0.1147   -0.0871   -0.1349    0.2416
          26    0.1259    0.0173    0.2506   -0.2037   -0.1331   -0.0789    0.1463    0.3278
          27   -0.0060   -0.0634   -0.0405    0.1394    0.1325    0.0876   -0.0316   -0.3494
          28    0.0295    0.0470   -0.0742   -0.0172    0.0585   -0.0103    0.0307    0.0106
          29    0.2247   -0.0093    0.2763   -0.1525   -0.2026   -0.1391   -0.1072   -0.1957
          30    0.1518    0.1363   -0.1749   -0.1197    0.3804   -0.0284    0.3536    0.0700
          31    0.0630    0.1270   -0.2215   -0.0479    0.4283    0.0578    0.3772    0.1203
          32    0.1727    0.0193    0.0765   -0.1265   -0.0464   -0.1604   -0.0105   -0.1128
          33    0.0980    0.0417   -0.0064   -0.0620    0.0226   -0.0592    0.0211   -0.0449
          34   -0.1495    0.2031   -0.0503   -0.1003   -0.2069    0.1766    0.1725   -0.0932
          35   -0.0632    0.0855    0.2349   -0.0237    0.3610   -0.0501   -0.3337    0.1098
          36   -0.0964    0.1237    0.1017   -0.0507    0.0770    0.0433   -0.0673   -0.0029
          37   -0.2864    0.3039   -0.1300   -0.2075   -0.1857    0.1200    0.1236   -0.1619
          38   -0.1151    0.1060    0.0072   -0.0811   -0.0603    0.0539    0.0646   -0.0665
          39   -0.1960    0.1473    0.2917   -0.1239    0.3904   -0.0275   -0.3397    0.0880
          40    0.2719    0.1892   -0.0550   -0.0611    0.0047    0.0189   -0.0892   -0.0347
          41    0.0691    0.0382    0.0075   -0.0616    0.0084   -0.0520    0.0060   -0.0317
          42    0.2187    0.1415   -0.0275   -0.0850    0.0051   -0.0321   -0.0513   -0.0480
          43    0.4147    0.0968   -0.1113   -0.0305    0.0060    0.1677   -0.1021    0.0284
          44   -0.3201   -0.0512    0.1031   -0.0110    0.0240   -0.1363    0.0838   -0.0359
          45    0.0373    0.0191   -0.0012   -0.0312    0.0181    0.0068   -0.0070   -0.0096
          46   -0.0343    0.3345    0.1596    0.3069   -0.0142   -0.1541    0.0882   -0.0101
          47    0.0267   -0.2768   -0.1336   -0.2886    0.0190    0.1445   -0.0833    0.0040
          48   -0.0166    0.0575    0.0284    0.0126    0.0015   -0.0032    0.0090   -0.0086
          49    0.0995    0.2731    0.0748    0.3148   -0.0508   -0.0802    0.0478    0.0291
          50    0.0113    0.0762    0.0351    0.1133   -0.0159   -0.0471    0.0322    0.0051
          51    0.0941    0.2730    0.0844    0.3512   -0.0499   -0.1120    0.0596    0.0319


   Root No.      33        34        35        36        37        38        39        40

                33 A      34 A      35 A      36 A      37 A      38 A      39 A      40 A   

                1482.4    1850.1    1884.3    2944.6    2948.9    2966.4    3026.2    3027.5
  
           1    0.0455    0.0126    0.0055   -0.0043   -0.0030    0.0027    0.0271    0.0155
           2    0.0954    0.0057   -0.0047   -0.0065   -0.0045    0.0044    0.0425    0.0161
           3    0.0502    0.0095   -0.0014    0.0921    0.0521   -0.2858   -0.0109   -0.0069
           4   -0.1440    0.0386   -0.0491    0.0034    0.0122   -0.0022    0.0456    0.1118
           5   -0.2201    0.0260   -0.0126    0.0550    0.2292    0.0652   -0.0450   -0.1123
           6   -0.2652    0.0539   -0.0445   -0.0433   -0.1711   -0.0400   -0.0468   -0.1194
           7   -0.0920   -0.0511   -0.0414    0.1758   -0.0558    0.0525   -0.1617    0.0677
           8   -0.1896   -0.0333   -0.0244    0.0845   -0.0265    0.0200    0.0568   -0.0227
           9   -0.1586   -0.0510   -0.0401   -0.2017    0.0616   -0.0504   -0.0962    0.0406
          10   -0.0603   -0.4153    0.4903   -0.0016   -0.0023    0.0017   -0.0010   -0.0009
          11    0.5331    0.0862   -0.1989   -0.0001    0.0002    0.0006   -0.0003   -0.0018
          12    0.3835   -0.2710    0.2315   -0.0007   -0.0021    0.0005   -0.0009   -0.0021
          13    0.1706    0.4670    0.3860   -0.0038    0.0010   -0.0005    0.0153   -0.0074
          14    0.1502   -0.0508   -0.0320    0.0026   -0.0010    0.0019   -0.0281    0.0140
          15    0.2040    0.2422    0.2072   -0.0006    0.0000    0.0002   -0.0097    0.0050
          16    0.1300   -0.4182   -0.4558    0.0013    0.0003    0.0003    0.0005   -0.0043
          17   -0.3460    0.1345    0.2103   -0.0003    0.0001   -0.0000    0.0012   -0.0042
          18   -0.1636   -0.1558   -0.1311   -0.0009   -0.0001   -0.0006    0.0012   -0.0054
          19   -0.0190    0.3775   -0.3411    0.0004    0.0011    0.0001    0.0005    0.0012
          20   -0.0613   -0.1236    0.1031    0.0002    0.0008    0.0003   -0.0005   -0.0012
          21   -0.0635    0.2098   -0.1959    0.0002    0.0005    0.0000   -0.0001   -0.0003
          22   -0.0259   -0.0014   -0.0012    0.0817    0.0393   -0.2238   -0.0563   -0.0252
          23   -0.0396   -0.0008    0.0008    0.1119    0.0712   -0.3289   -0.0812   -0.0393
          24   -0.0390   -0.0001   -0.0011   -0.1887   -0.1100    0.5165    0.1475    0.0686
          25    0.0331   -0.0060   -0.0060   -0.0605   -0.0330    0.2131   -0.0404   -0.0095
          26   -0.0042    0.0109    0.0055   -0.0867   -0.0482    0.3124   -0.0542   -0.0260
          27    0.0187    0.0029   -0.0038   -0.1344   -0.0731    0.4752   -0.1102   -0.0453
          28   -0.0067   -0.0129   -0.0106   -0.5298    0.1777   -0.1670    0.6633   -0.2841
          29    0.0525   -0.0160   -0.0124   -0.0022    0.0001    0.0000    0.0285   -0.0105
          30    0.0578   -0.0171   -0.0146    0.0798   -0.0271    0.0254   -0.1550    0.0662
[...]
 FREQUENCY          1329.23         C  1 -- H  9         +20.9% ( 56.6%)      0.1%
 TRANSITION DIPOLE   0.0220         C  1 -- H  8         +18.7% ( 53.5%)      0.0%
 TRAVEL (Ang.)       0.2207         C  1 -- C  2         +16.1% ( 49.7%)     78.3%
 REDUCED MASS        1.0412         C  1 -- C  3         +12.1% ( 43.1%)     46.3%
 EFFECTIVE MASS      4.6724
 FORCE CONSTANT      1.0839

 VIBRATION         28   28A           ATOM PAIR      ENERGY CONTRIBUTION    RADIAL
 FREQUENCY          1356.07         C  7 -- H 17         +16.1% ( 47.6%)      1.0%
 TRANSITION DIPOLE   0.0759         C  7 -- H 16         +12.5% ( 41.9%)      3.6%
 TRAVEL (Ang.)       0.3623         C  3 -- H 10          +9.0% ( 35.7%)      0.1%
 REDUCED MASS        0.3787         C  3 -- C  5          +8.1% ( 33.8%)     58.8%
 EFFECTIVE MASS      4.0773
 FORCE CONSTANT      0.4103

 VIBRATION         29   29A           ATOM PAIR      ENERGY CONTRIBUTION    RADIAL
 FREQUENCY          1381.28         C  3 -- H 10         +18.1% ( 41.5%)      4.8%
 TRANSITION DIPOLE   0.0414         C  3 -- H 11         +17.9% ( 41.3%)      4.5%
 TRAVEL (Ang.)       0.4697         C  2 -- H 13         +17.1% ( 40.3%)      3.6%
 REDUCED MASS        0.2213         C  2 -- H 12         +16.1% ( 39.2%)      4.0%
 EFFECTIVE MASS      2.3107
 FORCE CONSTANT      0.2487

 VIBRATION         30   30A           ATOM PAIR      ENERGY CONTRIBUTION    RADIAL
 FREQUENCY          1393.34         C  1 -- C  3         +13.2% ( 54.4%)     88.8%
 TRANSITION DIPOLE   0.0681         C  3 -- C  5         +12.7% ( 53.2%)     74.9%
 TRAVEL (Ang.)       0.1849         C  1 -- C  2         +11.5% ( 50.6%)     93.3%
 REDUCED MASS        1.4150         C  3 -- H 11          +8.9% ( 44.4%)      0.0%
 EFFECTIVE MASS      8.5835
 FORCE CONSTANT      1.6186

 VIBRATION         31   31A           ATOM PAIR      ENERGY CONTRIBUTION    RADIAL
 FREQUENCY          1400.32         C  3 -- H 11         +13.0% ( 42.5%)      5.4%
 TRANSITION DIPOLE   0.0828         C  3 -- H 10         +12.3% ( 41.3%)      7.5%
 TRAVEL (Ang.)       0.3468         C  2 -- H 12         +11.7% ( 40.3%)      4.8%
 REDUCED MASS        0.4003         C  2 -- H 13         +10.7% ( 38.5%)      7.6%
 EFFECTIVE MASS      4.3599
 FORCE CONSTANT      0.4625

 VIBRATION         32   32A           ATOM PAIR      ENERGY CONTRIBUTION    RADIAL
 FREQUENCY          1413.40         C  1 -- H  8         +23.4% ( 54.7%)      5.1%
 TRANSITION DIPOLE   0.0652         C  1 -- H  9         +23.1% ( 54.3%)      6.2%
 TRAVEL (Ang.)       0.2987         C  1 -- C  3         +14.2% ( 42.6%)     68.7%
 REDUCED MASS        0.5346         C  1 -- C  2          +9.2% ( 34.3%)     49.4%
 EFFECTIVE MASS      3.8991
 FORCE CONSTANT      0.6292

 VIBRATION         33   33A           ATOM PAIR      ENERGY CONTRIBUTION    RADIAL
 FREQUENCY          1482.35         C  4 -- C  6         +24.0% ( 74.0%)     83.1%
 TRANSITION DIPOLE   0.1154         C  2 -- C  4         +20.9% ( 69.0%)     86.5%
 TRAVEL (Ang.)       0.1233         C  4 -- C  7         +12.9% ( 54.1%)      0.1%
 REDUCED MASS        2.9928         C  5 -- C  6          +7.3% ( 40.8%)      1.4%
 EFFECTIVE MASS     11.1687
 FORCE CONSTANT      3.8746

 VIBRATION         34   34A           ATOM PAIR      ENERGY CONTRIBUTION    RADIAL
 FREQUENCY          1850.06         C  5 -- C  6         +23.6% ( 71.8%)     99.9%
 TRANSITION DIPOLE   0.1683         C  4 -- C  7         +22.1% ( 69.4%)     99.7%
 TRAVEL (Ang.)       0.1148         C  4 -- C  6         +12.2% ( 51.5%)     32.3%
 REDUCED MASS        2.7647         C  3 -- C  5          +8.5% ( 43.1%)     50.2%
 EFFECTIVE MASS     11.8951
 FORCE CONSTANT      5.5754

 VIBRATION         35   35A           ATOM PAIR      ENERGY CONTRIBUTION    RADIAL
 FREQUENCY          1884.35         C  4 -- C  7         +22.7% ( 70.8%)     99.6%
 TRANSITION DIPOLE   0.4228         C  5 -- C  6         +20.6% ( 67.3%)     99.7%
 TRAVEL (Ang.)       0.1095         C  4 -- C  6         +19.6% ( 65.7%)     43.9%
 REDUCED MASS        2.9835         C  2 -- C  4          +9.8% ( 46.6%)     23.5%
 EFFECTIVE MASS     11.8565
 FORCE CONSTANT      6.2416

 VIBRATION         36   36A           ATOM PAIR      ENERGY CONTRIBUTION    RADIAL
 FREQUENCY          2944.60         C  3 -- H 11         +51.7% ( 74.7%)     97.6%
 TRANSITION DIPOLE   0.0393         C  3 -- H 10         +31.7% ( 58.5%)     94.9%
 TRAVEL (Ang.)       0.2378         C  1 -- H  8          +5.9% ( 25.2%)     97.4%
 REDUCED MASS        0.4048         C  2 -- H 12          +3.4% ( 19.1%)     97.8%
 EFFECTIVE MASS      1.5436
 FORCE CONSTANT      2.0681

 VIBRATION         37   37A           ATOM PAIR      ENERGY CONTRIBUTION    RADIAL
 FREQUENCY          2948.93         C  2 -- H 12         +52.1% ( 74.9%)     97.4%
 TRANSITION DIPOLE   0.0289         C  2 -- H 13         +34.5% ( 60.9%)     95.2%
 TRAVEL (Ang.)       0.2316         C  3 -- H 11          +4.7% ( 22.4%)     97.4%
 REDUCED MASS        0.4264         C  3 -- H 10          +3.5% ( 19.5%)     95.7%
 EFFECTIVE MASS      1.5386
 FORCE CONSTANT      2.1846

 VIBRATION         38   38A           ATOM PAIR      ENERGY CONTRIBUTION    RADIAL
 FREQUENCY          2966.42         C  1 -- H  8         +45.6% ( 70.0%)     96.9%
 TRANSITION DIPOLE   0.0294         C  1 -- H  9         +40.1% ( 65.7%)     96.2%
 TRAVEL (Ang.)       0.2374         C  2 -- H 13          +3.4% ( 19.2%)     97.4%
 REDUCED MASS        0.4034         C  3 -- H 10          +3.1% ( 18.1%)     97.0%
 EFFECTIVE MASS      1.5395
 FORCE CONSTANT      2.0917

 VIBRATION         39   39A           ATOM PAIR      ENERGY CONTRIBUTION    RADIAL
 FREQUENCY          3026.22         C  3 -- H 10         +48.6% ( 68.8%)     98.7%
 TRANSITION DIPOLE   0.0719         C  3 -- H 11         +31.0% ( 54.9%)     95.9%
 TRAVEL (Ang.)       0.2564         C  2 -- H 13          +7.6% ( 27.2%)     98.6%
 REDUCED MASS        0.3388         C  2 -- H 12          +5.1% ( 22.3%)     95.9%
 EFFECTIVE MASS      1.2879
 FORCE CONSTANT      1.8282

 VIBRATION         40   40A           ATOM PAIR      ENERGY CONTRIBUTION    RADIAL
 FREQUENCY          3027.53         C  2 -- H 13         +49.5% ( 69.4%)     98.6%
 TRANSITION DIPOLE   0.0495         C  2 -- H 12         +33.3% ( 56.9%)     96.2%
 TRAVEL (Ang.)       0.2479         C  3 -- H 10          +8.9% ( 29.4%)     98.7%
 REDUCED MASS        0.3625         C  3 -- H 11          +5.6% ( 23.3%)     96.2%
 EFFECTIVE MASS      1.2760
 FORCE CONSTANT      1.9576

 VIBRATION         41   41A           ATOM PAIR      ENERGY CONTRIBUTION    RADIAL
 FREQUENCY          3041.28         C  6 -- H 15         +71.1% ( 85.6%)    100.0%
 TRANSITION DIPOLE   0.2914         C  5 -- H 14         +24.9% ( 50.7%)     99.9%
 TRAVEL (Ang.)       0.1998         C  5 -- C  6          +1.2% ( 10.9%)      3.8%
 REDUCED MASS        0.5552         C  4 -- C  6          +1.0% ( 10.2%)     19.5%
 EFFECTIVE MASS      1.4673
 FORCE CONSTANT      3.0256

 VIBRATION         42   42A           ATOM PAIR      ENERGY CONTRIBUTION    RADIAL
 FREQUENCY          3043.92         C  1 -- H  9         +51.7% ( 70.9%)     98.3%
 TRANSITION DIPOLE   0.0760         C  1 -- H  8         +39.9% ( 62.2%)     96.8%
 TRAVEL (Ang.)       0.2285         C  2 -- H 13          +2.2% ( 14.7%)     99.4%
 REDUCED MASS        0.4244         C  3 -- H 10          +2.1% ( 14.4%)     99.3%
 EFFECTIVE MASS      1.2784
 FORCE CONSTANT      2.3168

 VIBRATION         43   43A           ATOM PAIR      ENERGY CONTRIBUTION    RADIAL
 FREQUENCY          3063.78         C  5 -- H 14         +70.6% ( 85.2%)    100.0%
 TRANSITION DIPOLE   0.2956         C  6 -- H 15         +24.6% ( 50.3%)     99.8%
 TRAVEL (Ang.)       0.1988         C  5 -- C  6          +1.9% ( 14.1%)     90.3%
 REDUCED MASS        0.5568         C  3 -- C  5          +1.1% ( 10.7%)     19.0%
 EFFECTIVE MASS      1.5767
 FORCE CONSTANT      3.0796

 VIBRATION         44   44A           ATOM PAIR      ENERGY CONTRIBUTION    RADIAL
 FREQUENCY          3140.61         C  7 -- H 16         +89.6% ( 95.1%)     99.5%
 TRANSITION DIPOLE   0.3230         C  7 -- H 17          +8.9% ( 30.0%)     58.4%
 TRAVEL (Ang.)       0.1657         C  4 -- C  7          +1.4% ( 12.1%)     71.8%
 REDUCED MASS        0.7817
 EFFECTIVE MASS      1.4308
 FORCE CONSTANT      4.5428

 VIBRATION         45   45A           ATOM PAIR      ENERGY CONTRIBUTION    RADIAL
 FREQUENCY          3141.13         C  7 -- H 17         +88.5% ( 95.9%)     99.8%
 TRANSITION DIPOLE   0.2319         C  7 -- H 16         +10.1% ( 32.5%)     79.4%
 TRAVEL (Ang.)       0.1629         C  4 -- C  7          +1.3% ( 11.8%)     16.6%
 REDUCED MASS        0.8091
 EFFECTIVE MASS      1.5578
 FORCE CONSTANT      4.7035

      SYMMETRY NUMBER FOR POINT-GROUP C1  =  1


          SYSTEM IS A GROUND STATE



 InChI=1S/C7H10/c1-7-5-3-2-4-6-7/h3,5H,1-2,4,6H2


          MOLECULE IS NOT LINEAR

          THERE ARE 45 GENUINE VIBRATIONS IN THIS SYSTEM
          THIS THERMODYNAMICS CALCULATION IS LIMITED TO
          MOLECULES WHICH HAVE NO INTERNAL ROTATIONS




                    CALCULATED THERMODYNAMIC PROPERTIES
                                          *
   TEMP. (K)   PARTITION FUNCTION   H.O.F.    ENTHALPY  HEAT CAPACITY ENTROPY
                                   KCAL/MOL   CAL/MOLE    CAL/K/MOL  CAL/K/MOL


 298.00  VIB.     0.1250D+02                  2270.6651    19.3259    12.6394
         ROT.     0.1893D+06                   888.2803     2.9808    27.1279
         INT.     0.2367D+07                  3158.9454    22.3067    39.7673
         TRA.     0.8833D+27                  1480.4672     4.9680    39.5363
         TOT.                       15.499    4639.4126    27.2747    79.3036

 200.00  VIB.     0.3981D+01                   831.1124    10.3295     6.9009
         ROT.     0.1041D+06                   596.1613     2.9808    25.9392
         INT.     0.4144D+06                  1427.2736    13.3103    32.8401
         TRA.     0.4856D+27                   993.6021     4.9680    37.5551
         TOT.                       13.280    2420.8758    18.2783    70.3952

 210.00  VIB.     0.4425D+01                   938.5163    11.1560     7.4247
         ROT.     0.1120D+06                   625.9693     2.9808    26.0847
         INT.     0.4956D+06                  1564.4856    14.1368    33.5094
         TRA.     0.5225D+27                  1043.2822     4.9680    37.7975
         TOT.                       13.467    2607.7679    19.1048    71.3069

 220.00  VIB.     0.4932D+01                  1054.3234    12.0098     7.9633
         ROT.     0.1201D+06                   655.7774     2.9808    26.2233
         INT.     0.5923D+06                  1710.1008    14.9906    34.1866
         TRA.     0.5603D+27                  1092.9623     4.9680    38.0286
         TOT.                       13.662    2803.0632    19.9586    72.2153

 230.00  VIB.     0.5510D+01                  1178.7964    12.8888     8.5165
         ROT.     0.1284D+06                   685.5855     2.9808    26.3558
         INT.     0.7074D+06                  1864.3819    15.8696    34.8723
         TRA.     0.5989D+27                  1142.6424     4.9680    38.2495
         TOT.                       13.866    3007.0243    20.8376    73.1218

 240.00  VIB.     0.6171D+01                  1312.1758    13.7906     9.0840
         ROT.     0.1368D+06                   715.3935     2.9808    26.4827
         INT.     0.8445D+06                  2027.5693    16.7715    35.5667
         TRA.     0.6384D+27                  1192.3226     4.9680    38.4609
         TOT.                       14.079    3219.8919    21.7395    74.0276

 250.00  VIB.     0.6930D+01                  1454.6764    14.7126     9.6656
         ROT.     0.1455D+06                   745.2016     2.9808    26.6044
         INT.     0.1008D+07                  2199.8780    17.6934    36.2699
         TRA.     0.6787D+27                  1242.0027     4.9680    38.6637
         TOT.                       14.301    3441.8807    22.6614    74.9337

 260.00  VIB.     0.7800D+01                  1606.4854    15.6518    10.2608
         ROT.     0.1543D+06                   775.0097     2.9808    26.7213
         INT.     0.1204D+07                  2381.4951    18.6326    36.9821
         TRA.     0.7198D+27                  1291.6828     4.9680    38.8586
         TOT.                       14.533    3673.1779    23.6006    75.8407

 270.00  VIB.     0.8802D+01                  1767.7605    16.6053    10.8694
         ROT.     0.1633D+06                   804.8177     2.9808    26.8338
         INT.     0.1437D+07                  2572.5782    19.5861    37.7032
         TRA.     0.7618D+27                  1341.3629     4.9680    39.0461
         TOT.                       14.773    3913.9411    24.5541    76.7492

 280.00  VIB.     0.9956D+01                  1938.6295    17.5701    11.4907
         ROT.     0.1724D+06                   834.6258     2.9808    26.9422
         INT.     0.1717D+07                  2773.2553    20.5509    38.4329
         TRA.     0.8045D+27                  1391.0430     4.9680    39.2267
         TOT.                       15.024    4164.2983    25.5189    77.6596

 290.00  VIB.     0.1129D+02                  2119.1906    18.5433    12.1242
         ROT.     0.1818D+06                   864.4339     2.9808    27.0468
         INT.     0.2052D+07                  2983.6244    21.5241    39.1710
         TRA.     0.8479D+27                  1440.7231     4.9680    39.4011
         TOT.                       15.284    4424.3475    26.4921    78.5721

 300.00  VIB.     0.1283D+02                  2309.5129    19.5219    12.7693
         ROT.     0.1912D+06                   894.2419     2.9808    27.1478
         INT.     0.2454D+07                  3203.7548    22.5027    39.9172
         TRA.     0.8922D+27                  1490.4032     4.9680    39.5695
         TOT.                       15.554    4694.1580    27.4707    79.4867

 310.00  VIB.     0.1462D+02                  2509.6380    20.5034    13.4255
         ROT.     0.2009D+06                   924.0500     2.9808    27.2456
         INT.     0.2936D+07                  3433.6879    23.4842    40.6710
         TRA.     0.9372D+27                  1540.0833     4.9680    39.7324
         TOT.                       15.833    4973.7712    28.4522    80.4034

 320.00  VIB.     0.1669D+02                  2719.5812    21.4851    14.0919
         ROT.     0.2107D+06                   953.8580     2.9808    27.3402
         INT.     0.3516D+07                  3673.4392    24.4659    41.4321
         TRA.     0.9829D+27                  1589.7634     4.9680    39.8901
         TOT.                       16.123    5263.2026    29.4339    81.3223

 330.00  VIB.     0.1909D+02                  2939.3338    22.4649    14.7681
         ROT.     0.2206D+06                   983.6661     2.9808    27.4319
         INT.     0.4213D+07                  3922.9999    25.4457    42.2000
         TRA.     0.1029D+28                  1639.4435     4.9680    40.0430
         TOT.                       16.422    5562.4434    30.4137    82.2430

 340.00  VIB.     0.2189D+02                  3168.8647    23.4405    15.4532
         ROT.     0.2307D+06                  1013.4742     2.9808    27.5209
         INT.     0.5052D+07                  4182.3389    26.4213    42.9741
         TRA.     0.1076D+28                  1689.1236     4.9680    40.1913
         TOT.                       16.731    5871.4625    31.3893    83.1654

 350.00  VIB.     0.2516D+02                  3408.1230    24.4100    16.1467
         ROT.     0.2410D+06                  1043.2822     2.9808    27.6073
         INT.     0.6063D+07                  4451.4053    27.3908    43.7540
         TRA.     0.1124D+28                  1738.8037     4.9680    40.3353
         TOT.                       17.050    6190.2090    32.3588    84.0893

 360.00  VIB.     0.2897D+02                  3657.0396    25.3719    16.8478
         ROT.     0.2514D+06                  1073.0903     2.9808    27.6913
         INT.     0.7283D+07                  4730.1299    28.3527    44.5391
         TRA.     0.1173D+28                  1788.4838     4.9680    40.4753
         TOT.                       17.378    6518.6137    33.3207    85.0144

 370.00  VIB.     0.3342D+02                  3915.5297    26.3245    17.5560
         ROT.     0.2619D+06                  1102.8984     2.9808    27.7730
         INT.     0.8755D+07                  5018.4281    29.3053    45.3290
         TRA.     0.1222D+28                  1838.1639     4.9680    40.6114
         TOT.                       17.716    6856.5920    34.2733    85.9404

 380.00  VIB.     0.3863D+02                  4183.4947    27.2666    18.2706
         ROT.     0.2726D+06                  1132.7064     2.9808    27.8525
         INT.     0.1053D+08                  5316.2011    30.2475    46.1230
         TRA.     0.1272D+28                  1887.8440     4.9680    40.7439
         TOT.                       18.063    7204.0451    35.2155    86.8669

 390.00  VIB.     0.4474D+02                  4460.8240    28.1972    18.9909
         ROT.     0.2835D+06                  1162.5145     2.9808    27.9299
         INT.     0.1268D+08                  5623.3385    31.1780    46.9208
         TRA.     0.1322D+28                  1937.5242     4.9680    40.8729
         TOT.                       18.420    7560.8627    36.1460    87.7937

 400.00  VIB.     0.5189D+02                  4747.3973    29.1153    19.7164
         ROT.     0.2944D+06                  1192.3226     2.9808    28.0054
         INT.     0.1528D+08                  5939.7199    32.0961    47.7217
         TRA.     0.1374D+28                  1987.2043     4.9680    40.9987
         TOT.                       18.786    7926.9241    37.0641    88.7205

   *: NOTE: HEATS OF FORMATION ARE RELATIVE TO THE
            ELEMENTS IN THEIR STANDARD STATE AT 298K
              (=  Standard Enthalpy of Formation).

            Hvib:  Zero-point energy is not included.
                   frequencies of less than zero cm-1 are not included.
            Hrot = (3/2)RT
            Htra = (3/2)RT + pV = (5/2)RT

            Heat capacity is Cp, not Cv

          For more information, see: HTTP://OpenMOPAC.net/Manual/thermochemistry.html


           FORCE CONSTANT IN CARTESIAN COORDINATES (Millidynes/A)

    ATOM   CHEMICAL       X               Y               Z
   NUMBER   SYMBOL  FORCE CONSTANT  FORCE CONSTANT  FORCE CONSTANT

      1       C        8.166814        8.385871        8.400062
      2       C        8.378231        8.713435        8.348557
      3       C        8.804729        8.369999        8.276805
      4       C       12.112084        8.267951        7.955301
      5       C       12.625484        8.143103        6.317173
      6       C       12.770151        8.235896        6.628232
      7       C       11.361265        7.592765        7.464099
      8       H        1.177635        1.692291        3.533049
      9       H        1.194244        1.730660        3.518439
     10       H        4.804413        0.733060        0.819709
     11       H        0.729879        1.430000        4.081934
     12       H        1.175760        1.385376        3.705497
     13       H        1.209163        4.497469        0.710584
     14       H        1.707939        3.687685        0.854080
     15       H        1.465717        2.265092        2.502498
     16       H        1.293514        1.956531        3.217671
     17       H        1.881560        3.768182        0.815805

 **********************
 *                    *
 * JOB ENDED NORMALLY *
 *                    *
 **********************



 TOTAL JOB TIME:             1.44 SECONDS

 == MOPAC DONE ==
