 *******************************************************************************
 **                                                                           **
 **                              MOPAC v23.1.2                                **
 **                                                                           **
 *******************************************************************************
 **          Digital Object Identifier (DOI): 10.5281/zenodo.6511958          **
 **    Visit the DOI location for information on how to cite this program.    **
 *******************************************************************************

                              PM3 CALCULATION RESULTS

 *******************************************************************************
 *  CALCULATION DONE: (MAX THREADS = 1)              Tue Jun  3 16:27:58 2025  *
 *  PM3        - The PM3 Hamiltonian to be used
 *  PRECISE    - TIGHTER CRITERIA TO BE USED
 *  NOSYM      - POINT-GROUP SYMMETRY SET TO C1
 *  THREADS=1  - MULTI-THREADING NOT USED
 *  T=         - A TIME OF 172800.0 SECONDS REQUESTED
 *  DUMP=N     - RESTART FILE WRITTEN EVERY 7200.0 SECONDS REQUESTED
 *******************************************************************************
pm3  precise nosym THREADS=1
 InChI=1S/C10H10/c1-8-6-7-9-4-2-3-5-10(8)9/h2,4-5,7H,1,3,6H2

   ATOM   CHEMICAL          X               Y               Z
  NUMBER   SYMBOL      (ANGSTROMS)     (ANGSTROMS)     (ANGSTROMS)

     1       C         -2.14710000  *  -0.92040000  *   0.10270000  *
     2       C          2.26000000  *   0.97430000  *  -0.10700000  *
     3       C         -1.57350000  *   0.45190000  *   0.30740000  *
     4       C         -0.13500000  *   0.37460000  *   0.09560000  *
     5       C          0.16990000  *  -0.99010000  *  -0.22710000  *
     6       C         -0.92620000  *  -1.73710000  *  -0.23180000  *
     7       C          0.80590000  *   1.31870000  *   0.16200000  *
     8       C          2.51980000  *  -0.48970000  *  -0.44400000  *
     9       C          1.54450000  *  -1.40780000  *  -0.50040000  *
    10       C         -2.27750000  *   1.53650000  *   0.62670000  *
    11       H         -2.86380000  *  -0.92790000  *  -0.74570000  *
    12       H         -2.62130000  *  -1.29480000  *   1.03460000  *
    13       H          2.61840000  *   1.59860000  *  -0.95200000  *
    14       H          2.85580000  *   1.23940000  *   0.79130000  *
    15       H         -0.93730000  *  -2.79750000  *  -0.44870000  *
    16       H          0.54470000  *   2.33930000  *   0.40780000  *
    17       H          3.53830000  *  -0.79630000  *  -0.64590000  *
    18       H          1.77170000  *  -2.43820000  *  -0.74360000  *
    19       H         -3.34970000  *   1.46990000  *   0.75900000  *
    20       H         -1.79730000  *   2.49650000  *   0.75910000  *



          CARTESIAN COORDINATES 

    NO.       ATOM           X           Y           Z

     1         C         -2.1471     -0.9204      0.1027
     2         C          2.2600      0.9743     -0.1070
     3         C         -1.5735      0.4519      0.3074
     4         C         -0.1350      0.3746      0.0956
     5         C          0.1699     -0.9901     -0.2271
     6         C         -0.9262     -1.7371     -0.2318
     7         C          0.8059      1.3187      0.1620
     8         C          2.5198     -0.4897     -0.4440
     9         C          1.5445     -1.4078     -0.5004
    10         C         -2.2775      1.5365      0.6267
    11         H         -2.8638     -0.9279     -0.7457
    12         H         -2.6213     -1.2948      1.0346
    13         H          2.6184      1.5986     -0.9520
    14         H          2.8558      1.2394      0.7913
    15         H         -0.9373     -2.7975     -0.4487
    16         H          0.5447      2.3393      0.4078
    17         H          3.5383     -0.7963     -0.6459
    18         H          1.7717     -2.4382     -0.7436
    19         H         -3.3497      1.4699      0.7590
    20         H         -1.7973      2.4965      0.7591

  H: (PM3): J. J. P. STEWART, J. COMP. CHEM. 10, 209 (1989).
  C: (PM3): J. J. P. STEWART, J. COMP. CHEM. 10, 209 (1989).

           Empirical Formula: C10 H10  =    20 atoms



      MOLECULAR POINT GROUP   :   C1  


      RHF CALCULATION, NO. OF DOUBLY OCCUPIED LEVELS = 25


          Geometry optimization using EF

          DIAGONAL MATRIX USED AS START HESSIAN

 CYCLE:     1 TIME:   0.008 TIME LEFT:  2.00D  GRAD.:   102.604 HEAT:  58.81553
 CYCLE:     2 TIME:   0.016 TIME LEFT:  2.00D  GRAD.:    56.882 HEAT:  56.84355
 CYCLE:     3 TIME:   0.008 TIME LEFT:  2.00D  GRAD.:    63.984 HEAT:  56.51541
 CYCLE:     4 TIME:   0.004 TIME LEFT:  2.00D  GRAD.:    51.740 HEAT:  55.95477
 CYCLE:     5 TIME:   0.012 TIME LEFT:  2.00D  GRAD.:    33.213 HEAT:  55.52353
 CYCLE:     6 TIME:   0.012 TIME LEFT:  2.00D  GRAD.:    18.818 HEAT:  55.31401
 CYCLE:     7 TIME:   0.008 TIME LEFT:  2.00D  GRAD.:    21.423 HEAT:  55.17429
 CYCLE:     8 TIME:   0.004 TIME LEFT:  2.00D  GRAD.:    25.209 HEAT:  55.04838
 CYCLE:     9 TIME:   0.012 TIME LEFT:  2.00D  GRAD.:    17.485 HEAT:  54.94052
 CYCLE:    10 TIME:   0.008 TIME LEFT:  2.00D  GRAD.:    13.393 HEAT:  54.86924
 CYCLE:    11 TIME:   0.012 TIME LEFT:  2.00D  GRAD.:    14.330 HEAT:  54.84436
 CYCLE:    12 TIME:   0.008 TIME LEFT:  2.00D  GRAD.:    12.463 HEAT:  54.82873
 CYCLE:    13 TIME:   0.004 TIME LEFT:  2.00D  GRAD.:    10.264 HEAT:  54.81078
 CYCLE:    14 TIME:   0.008 TIME LEFT:  2.00D  GRAD.:    10.263 HEAT:  54.80541
 CYCLE:    15 TIME:   0.012 TIME LEFT:  2.00D  GRAD.:     4.660 HEAT:  54.77904
 CYCLE:    16 TIME:   0.004 TIME LEFT:  2.00D  GRAD.:     6.088 HEAT:  54.77867
 CYCLE:    17 TIME:   0.008 TIME LEFT:  2.00D  GRAD.:     4.877 HEAT:  54.76998
 CYCLE:    18 TIME:   0.012 TIME LEFT:  2.00D  GRAD.:     3.153 HEAT:  54.76454
 CYCLE:    19 TIME:   0.004 TIME LEFT:  2.00D  GRAD.:     2.460 HEAT:  54.76139
 CYCLE:    20 TIME:   0.008 TIME LEFT:  2.00D  GRAD.:     2.567 HEAT:  54.75832
 CYCLE:    21 TIME:   0.008 TIME LEFT:  2.00D  GRAD.:     1.293 HEAT:  54.75590
 CYCLE:    22 TIME:   0.008 TIME LEFT:  2.00D  GRAD.:     1.443 HEAT:  54.75493
 CYCLE:    23 TIME:   0.008 TIME LEFT:  2.00D  GRAD.:     1.119 HEAT:  54.75395
 CYCLE:    24 TIME:   0.004 TIME LEFT:  2.00D  GRAD.:     1.056 HEAT:  54.75333
 CYCLE:    25 TIME:   0.008 TIME LEFT:  2.00D  GRAD.:     0.932 HEAT:  54.75286
 CYCLE:    26 TIME:   0.008 TIME LEFT:  2.00D  GRAD.:     0.793 HEAT:  54.75260
 CYCLE:    27 TIME:   0.004 TIME LEFT:  2.00D  GRAD.:     0.472 HEAT:  54.75229
 CYCLE:    28 TIME:   0.008 TIME LEFT:  2.00D  GRAD.:     0.479 HEAT:  54.75210
 CYCLE:    29 TIME:   0.008 TIME LEFT:  2.00D  GRAD.:     0.407 HEAT:  54.75194
 CYCLE:    30 TIME:   0.004 TIME LEFT:  2.00D  GRAD.:     0.328 HEAT:  54.75184
 CYCLE:    31 TIME:   0.008 TIME LEFT:  2.00D  GRAD.:     0.297 HEAT:  54.75178
 CYCLE:    32 TIME:   0.008 TIME LEFT:  2.00D  GRAD.:     0.272 HEAT:  54.75169
 CYCLE:    33 TIME:   0.004 TIME LEFT:  2.00D  GRAD.:     0.222 HEAT:  54.75160
 CYCLE:    34 TIME:   0.008 TIME LEFT:  2.00D  GRAD.:     0.200 HEAT:  54.75154
 CYCLE:    35 TIME:   0.008 TIME LEFT:  2.00D  GRAD.:     0.184 HEAT:  54.75149
 CYCLE:    36 TIME:   0.004 TIME LEFT:  2.00D  GRAD.:     0.188 HEAT:  54.75144
 CYCLE:    37 TIME:   0.008 TIME LEFT:  2.00D  GRAD.:     0.146 HEAT:  54.75141
 CYCLE:    38 TIME:   0.008 TIME LEFT:  2.00D  GRAD.:     0.100 HEAT:  54.75139
 CYCLE:    39 TIME:   0.004 TIME LEFT:  2.00D  GRAD.:     0.059 HEAT:  54.75138
 CYCLE:    40 TIME:   0.008 TIME LEFT:  2.00D  GRAD.:     0.035 HEAT:  54.75137

     GRADIENT =  0.03474 IS LESS THAN CUTOFF =  0.05000



 -------------------------------------------------------------------------------
 pm3  precise nosym THREADS=1
 InChI=1S/C10H10/c1-8-6-7-9-4-2-3-5-10(8)9/h2,4-5,7H,1,3,6H2



     GEOMETRY OPTIMISED USING EIGENVECTOR FOLLOWING (EF).     
     SCF FIELD WAS ACHIEVED                                   


                              PM3 CALCULATION
                                                       MOPAC v23.1.2 MacOS
                                                       Tue Jun  3 16:27:58 2025




          FINAL HEAT OF FORMATION =         54.75137 KCAL/MOL =     229.07974 KJ/MOL


          COSMO AREA              =        173.12 SQUARE ANGSTROMS
          COSMO VOLUME            =        172.47 CUBIC ANGSTROMS

          GRADIENT NORM           =          0.03474          =       0.00777 PER ATOM
          IONIZATION POTENTIAL    =          8.346016 EV
          HOMO LUMO ENERGIES (EV) =         -8.346 -0.174
          NO. OF FILLED LEVELS    =         25
          MOLECULAR WEIGHT        =        130.1890         POINT GROUP:  C1  

          MOLECULAR DIMENSIONS (Angstroms)

            Atom       Atom       Distance
            H    19    H    17     7.39622
            H    16    H    15     5.50268
            H    12    H    11     1.77504


          SCF CALCULATIONS        =         49

          WALL-CLOCK TIME         =      0.320 SECONDS
          COMPUTATION TIME        =      0.199 SECONDS




   ATOM   CHEMICAL          X               Y               Z
  NUMBER   SYMBOL      (ANGSTROMS)     (ANGSTROMS)     (ANGSTROMS)

     1       C         -2.14060307  *  -0.92678160  *   0.10115166  *
     2       C          2.25170155  *   0.97080535  *  -0.10605095  *
     3       C         -1.57392199  *   0.45898748  *   0.30894170  *
     4       C         -0.12438045  *   0.37224692  *   0.09379419  *
     5       C          0.17928621  *  -1.03116244  *  -0.23688272  *
     6       C         -0.94639039  *  -1.77390536  *  -0.23642730  *
     7       C          0.82705931  *   1.31094507  *   0.15779483  *
     8       C          2.51207589  *  -0.45786307  *  -0.43691804  *
     9       C          1.55409921  *  -1.39315743  *  -0.49926808  *
    10       C         -2.27332174  *   1.54436334  *   0.62702044  *
    11       H         -2.88740163  *  -0.94252710  *  -0.71420030  *
    12       H         -2.65182338  *  -1.29720132  *   1.00901822  *
    13       H          2.62320722  *   1.60475834  *  -0.93794431  *
    14       H          2.85665782  *   1.24861179  *   0.78210171  *
    15       H         -1.03284102  *  -2.83894852  *  -0.44434763  *
    16       H          0.59512724  *   2.35286689  *   0.40404976  *
    17       H          3.55850031  *  -0.71713394  *  -0.63340121  *
    18       H          1.77343855  *  -2.43722699  *  -0.74484785  *
    19       H         -3.34919345  *   1.52363679  *   0.76900052  *
    20       H         -1.81179888  *   2.51789489  *   0.76425157  *

                             CARTESIAN COORDINATES

   1    C       -2.140603068    -0.926781596     0.101151662
   2    C        2.251701550     0.970805347    -0.106050955
   3    C       -1.573921993     0.458987476     0.308941702
   4    C       -0.124380446     0.372246923     0.093794187
   5    C        0.179286210    -1.031162440    -0.236882717
   6    C       -0.946390390    -1.773905363    -0.236427300
   7    C        0.827059310     1.310945066     0.157794832
   8    C        2.512075890    -0.457863075    -0.436918036
   9    C        1.554099207    -1.393157432    -0.499268080
  10    C       -2.273321739     1.544363337     0.627020444
  11    H       -2.887401627    -0.942527101    -0.714200295
  12    H       -2.651823383    -1.297201322     1.009018219
  13    H        2.623207220     1.604758339    -0.937944312
  14    H        2.856657817     1.248611789     0.782101707
  15    H       -1.032841022    -2.838948524    -0.444347635
  16    H        0.595127237     2.352866887     0.404049756
  17    H        3.558500313    -0.717133937    -0.633401207
  18    H        1.773438550    -2.437226993    -0.744847850
  19    H       -3.349193447     1.523636793     0.769000517
  20    H       -1.811798885     2.517894892     0.764251565


           Empirical Formula: C10 H10  =    20 atoms



      MOLECULAR POINT GROUP   :   C1  


                  EIGENVALUES  
 -41.12418 -35.72459 -31.75609 -28.54469 -27.42973 -23.34472 -21.79480 -19.99766
 -18.88183 -17.15807 -16.20901 -16.05596 -15.24748 -15.03375 -14.60413 -14.32391
 -13.99245 -13.34945 -13.19416 -12.33428 -11.74454 -11.69412 -11.09459  -9.68116
  -8.34602  -0.17438   0.48923   1.69128   2.69759   3.09475   3.21452   3.31374
   3.42973   3.58217   3.70556   3.87254   3.98215   4.06692   4.23318   4.38089
   4.50545   4.51857   4.90715   5.09822   5.17361   5.33561   5.61809   6.07270
   6.24838   6.48721


              NET ATOMIC CHARGES AND DIPOLE CONTRIBUTIONS

  ATOM NO.   TYPE          CHARGE      No. of ELECS.   s-Pop       p-Pop       
    1          C          -0.025680        4.0257     1.14224     2.88344
    2          C          -0.021839        4.0218     1.13267     2.88917
    3          C          -0.066566        4.0666     1.18625     2.88031
    4          C          -0.052869        4.0529     1.17175     2.88112
    5          C          -0.059694        4.0597     1.17151     2.88818
    6          C          -0.136717        4.1367     1.20104     2.93567
    7          C          -0.116253        4.1163     1.18858     2.92767
    8          C          -0.133340        4.1333     1.19619     2.93715
    9          C          -0.082272        4.0823     1.16987     2.91240
   10          C          -0.155867        4.1559     1.17571     2.98016
   11          H           0.065807        0.9342     0.93419
   12          H           0.065819        0.9342     0.93418
   13          H           0.063772        0.9362     0.93623
   14          H           0.063782        0.9362     0.93622
   15          H           0.115447        0.8846     0.88455
   16          H           0.105249        0.8948     0.89475
   17          H           0.097314        0.9027     0.90269
   18          H           0.103593        0.8964     0.89641
   19          H           0.084785        0.9152     0.91522
   20          H           0.085529        0.9145     0.91447
 DIPOLE           X         Y         Z       TOTAL
 POINT-CHG.     0.243     0.076    -0.017     0.255
 HYBRID         0.002     0.044     0.009     0.045
 SUM            0.245     0.120    -0.008     0.273


          ATOMIC ORBITAL ELECTRON POPULATIONS

     Atom    s        px        py        pz   
    1  C   1.14224   0.95931   0.91964   1.00449
    2  C   1.13267   0.94437   0.94396   1.00084
    3  C   1.18625   0.93219   0.95615   0.99197
    4  C   1.17175   0.92916   0.94312   1.00884
    5  C   1.17151   0.93923   0.93990   1.00905
    6  C   1.20104   0.94613   0.97968   1.00986
    7  C   1.18858   0.94666   0.97963   1.00138
    8  C   1.19619   0.98195   0.95528   0.99992
    9  C   1.16987   0.92501   0.97792   1.00947
   10  C   1.17571   0.99344   0.96953   1.01719
   11  H   0.93419
   12  H   0.93418
   13  H   0.93623
   14  H   0.93622
   15  H   0.88455
   16  H   0.89475
   17  H   0.90269
   18  H   0.89641
   19  H   0.91522
   20  H   0.91447
 *******************************************************************************
 **                                                                           **
 **                              MOPAC v23.1.2                                **
 **                                                                           **
 *******************************************************************************
 **          Digital Object Identifier (DOI): 10.5281/zenodo.6511958          **
 **    Visit the DOI location for information on how to cite this program.    **
 *******************************************************************************

                              PM3 CALCULATION RESULTS

 *******************************************************************************
 *  CALCULATION DONE: (MAX THREADS = 1)              Tue Jun  3 16:27:58 2025  *
 *  PM3        - The PM3 Hamiltonian to be used
 *  OLDGEO     - PREVIOUS GEOMETRY TO BE USED
 *  PRECISE    - TIGHTER CRITERIA TO BE USED
 *  NOSYM      - POINT-GROUP SYMMETRY SET TO C1
 *  THREADS=1  - MULTI-THREADING NOT USED
 *  T=         - A TIME OF 172800.0 SECONDS REQUESTED
 *  DUMP=N     - RESTART FILE WRITTEN EVERY 7200.0 SECONDS REQUESTED
 *  THERMO     - THERMODYNAMIC QUANTITIES TO BE CALCULATED
 *******************************************************************************
oldgeo thermo nosym precise THREADS=1  pm3
 InChI=1S/C10H10/c1-8-6-7-9-4-2-3-5-10(8)9/h2,4-5,7H,1,3,6H2

   ATOM   CHEMICAL          X               Y               Z
  NUMBER   SYMBOL      (ANGSTROMS)     (ANGSTROMS)     (ANGSTROMS)

     1       C         -2.14060307  *  -0.92678160  *   0.10115166  *
     2       C          2.25170155  *   0.97080535  *  -0.10605095  *
     3       C         -1.57392199  *   0.45898748  *   0.30894170  *
     4       C         -0.12438045  *   0.37224692  *   0.09379419  *
     5       C          0.17928621  *  -1.03116244  *  -0.23688272  *
     6       C         -0.94639039  *  -1.77390536  *  -0.23642730  *
     7       C          0.82705931  *   1.31094507  *   0.15779483  *
     8       C          2.51207589  *  -0.45786307  *  -0.43691804  *
     9       C          1.55409921  *  -1.39315743  *  -0.49926808  *
    10       C         -2.27332174  *   1.54436334  *   0.62702044  *
    11       H         -2.88740163  *  -0.94252710  *  -0.71420030  *
    12       H         -2.65182338  *  -1.29720132  *   1.00901822  *
    13       H          2.62320722  *   1.60475834  *  -0.93794431  *
    14       H          2.85665782  *   1.24861179  *   0.78210171  *
    15       H         -1.03284102  *  -2.83894852  *  -0.44434763  *
    16       H          0.59512724  *   2.35286689  *   0.40404976  *
    17       H          3.55850031  *  -0.71713394  *  -0.63340121  *
    18       H          1.77343855  *  -2.43722699  *  -0.74484785  *
    19       H         -3.34919345  *   1.52363679  *   0.76900052  *
    20       H         -1.81179888  *   2.51789489  *   0.76425157  *



          CARTESIAN COORDINATES 

    NO.       ATOM           X           Y           Z

     1         C         -2.1406     -0.9268      0.1012
     2         C          2.2517      0.9708     -0.1061
     3         C         -1.5739      0.4590      0.3089
     4         C         -0.1244      0.3722      0.0938
     5         C          0.1793     -1.0312     -0.2369
     6         C         -0.9464     -1.7739     -0.2364
     7         C          0.8271      1.3109      0.1578
     8         C          2.5121     -0.4579     -0.4369
     9         C          1.5541     -1.3932     -0.4993
    10         C         -2.2733      1.5444      0.6270
    11         H         -2.8874     -0.9425     -0.7142
    12         H         -2.6518     -1.2972      1.0090
    13         H          2.6232      1.6048     -0.9379
    14         H          2.8567      1.2486      0.7821
    15         H         -1.0328     -2.8389     -0.4443
    16         H          0.5951      2.3529      0.4040
    17         H          3.5585     -0.7171     -0.6334
    18         H          1.7734     -2.4372     -0.7448
    19         H         -3.3492      1.5236      0.7690
    20         H         -1.8118      2.5179      0.7643

  H: (PM3): J. J. P. STEWART, J. COMP. CHEM. 10, 209 (1989).
  C: (PM3): J. J. P. STEWART, J. COMP. CHEM. 10, 209 (1989).

           Empirical Formula: C10 H10  =    20 atoms



      MOLECULAR POINT GROUP   :   C1  


      RHF CALCULATION, NO. OF DOUBLY OCCUPIED LEVELS = 25



          HEAT OF FORMATION =      54.751372 KCALS/MOLE


          CARTESIAN COORDINATE DERIVATIVES

   NUMBER  ATOM         X            Y            Z

     1       C      0.008444    -0.000790     0.000955
     2       C      0.000150    -0.000799    -0.002500
     3       C     -0.000768    -0.001232     0.004078
     4       C     -0.001961    -0.002228     0.002885
     5       C     -0.001115    -0.006085     0.002791
     6       C     -0.003139    -0.001117     0.003970
     7       C      0.007726    -0.007659     0.000058
     8       C     -0.002829     0.003293    -0.002594
     9       C     -0.000411     0.004882     0.002219
    10       C      0.001994     0.002352    -0.002675
    11       H      0.009672    -0.001897     0.003087
    12       H      0.007329    -0.001856     0.001527
    13       H      0.001856     0.012419    -0.002810
    14       H     -0.008235    -0.005289     0.004028
    15       H     -0.001433     0.000656    -0.007084
    16       H      0.003223    -0.003552    -0.003407
    17       H     -0.006549     0.004260    -0.000240
    18       H     -0.008987     0.007595     0.000715
    19       H     -0.008712    -0.004646    -0.003370
    20       H      0.003744     0.001692    -0.001634



          GRADIENT NORM =   0.03518

          MOLECULAR WEIGHT =  130.19



          ROTATIONAL CONSTANTS IN CM(-1)

          A =    0.08585556   B =    0.04145968   C =    0.02825563



           PRINCIPAL MOMENTS OF INERTIA IN UNITS OF 10**(-40)*GRAM-CM**2

          A =      326.0447   B =      675.1801   C =      990.6964


          ORIENTATION OF MOLECULE IN FORCE CALCULATION

    NO.       ATOM         X         Y         Z

     1          C      -2.3251    0.0805    0.0006
     2          C       2.4641    0.0805    0.0006
     3          C      -1.2653    1.1582    0.0006
     4          C       0.0391    0.4847    0.0004
     5          C      -0.2242   -0.9651   -0.0005
     6          C      -1.5509   -1.2073   -0.0004
     7          C       1.2809    0.9832    0.0008
     8          C       2.1511   -1.3757   -0.0011
     9          C       0.9047   -1.8683   -0.0015
    10          C      -1.4904    2.4688    0.0005
    11          H      -2.9809    0.1553   -0.8865
    12          H      -2.9800    0.1544    0.8885
    13          H       3.0920    0.3131   -0.8846
    14          H       3.0906    0.3110    0.8874
    15          H      -2.0431   -2.1782   -0.0012
    16          H       1.4703    2.0621    0.0013
    17          H       3.0166   -2.0478   -0.0020
    18          H       0.7028   -2.9443   -0.0026
    19          H      -2.4915    2.8882    0.0004
    20          H      -0.6873    3.2000    0.0004


    FIRST DERIVATIVES WILL BE USED IN THE CALCULATION OF SECOND DERIVATIVES

          ESTIMATED TIME TO COMPLETE CALCULATION =        1.88 SECONDS

    FOR POINT-GROUP C1   THERE ARE   1 UNIQUE SYMMETRY FUNCTIONS.

 STEP:   1 TIME =     0.02 SECS, INTEGRAL =      0.02 TIME LEFT: 172799.97
 STEP:   2 TIME =     0.02 SECS, INTEGRAL =      0.04 TIME LEFT: 172799.95
 STEP:   3 TIME =     0.02 SECS, INTEGRAL =      0.06 TIME LEFT: 172799.93
 STEP:   4 TIME =     0.02 SECS, INTEGRAL =      0.08 TIME LEFT: 172799.91
 STEP:   5 TIME =     0.02 SECS, INTEGRAL =      0.10 TIME LEFT: 172799.89
 STEP:   6 TIME =     0.02 SECS, INTEGRAL =      0.12 TIME LEFT: 172799.87
 STEP:   7 TIME =     0.02 SECS, INTEGRAL =      0.14 TIME LEFT: 172799.85
 STEP:   8 TIME =     0.02 SECS, INTEGRAL =      0.16 TIME LEFT: 172799.83
 STEP:   9 TIME =     0.02 SECS, INTEGRAL =      0.18 TIME LEFT: 172799.81
 STEP:  10 TIME =     0.02 SECS, INTEGRAL =      0.20 TIME LEFT: 172799.79
 STEP:  11 TIME =     0.02 SECS, INTEGRAL =      0.22 TIME LEFT: 172799.77
 STEP:  12 TIME =     0.02 SECS, INTEGRAL =      0.24 TIME LEFT: 172799.75
 STEP:  13 TIME =     0.02 SECS, INTEGRAL =      0.26 TIME LEFT: 172799.73
 STEP:  14 TIME =     0.02 SECS, INTEGRAL =      0.28 TIME LEFT: 172799.71
 STEP:  15 TIME =     0.02 SECS, INTEGRAL =      0.30 TIME LEFT: 172799.70
 STEP:  16 TIME =     0.02 SECS, INTEGRAL =      0.32 TIME LEFT: 172799.68
 STEP:  17 TIME =     0.02 SECS, INTEGRAL =      0.34 TIME LEFT: 172799.66
 STEP:  18 TIME =     0.02 SECS, INTEGRAL =      0.36 TIME LEFT: 172799.63
 STEP:  19 TIME =     0.02 SECS, INTEGRAL =      0.38 TIME LEFT: 172799.62
 STEP:  20 TIME =     0.02 SECS, INTEGRAL =      0.39 TIME LEFT: 172799.60
 STEP:  21 TIME =     0.02 SECS, INTEGRAL =      0.42 TIME LEFT: 172799.57
 STEP:  22 TIME =     0.02 SECS, INTEGRAL =      0.44 TIME LEFT: 172799.55
 STEP:  23 TIME =     0.02 SECS, INTEGRAL =      0.46 TIME LEFT: 172799.54
 STEP:  24 TIME =     0.02 SECS, INTEGRAL =      0.48 TIME LEFT: 172799.51
 STEP:  25 TIME =     0.02 SECS, INTEGRAL =      0.50 TIME LEFT: 172799.49
 STEP:  26 TIME =     0.02 SECS, INTEGRAL =      0.52 TIME LEFT: 172799.48
 STEP:  27 TIME =     0.02 SECS, INTEGRAL =      0.54 TIME LEFT: 172799.45
 STEP:  28 TIME =     0.02 SECS, INTEGRAL =      0.56 TIME LEFT: 172799.43
 STEP:  29 TIME =     0.02 SECS, INTEGRAL =      0.58 TIME LEFT: 172799.41
 STEP:  30 TIME =     0.02 SECS, INTEGRAL =      0.60 TIME LEFT: 172799.39
 STEP:  31 TIME =     0.02 SECS, INTEGRAL =      0.62 TIME LEFT: 172799.37
 STEP:  32 TIME =     0.02 SECS, INTEGRAL =      0.64 TIME LEFT: 172799.35
 STEP:  33 TIME =     0.02 SECS, INTEGRAL =      0.66 TIME LEFT: 172799.33
 STEP:  34 TIME =     0.02 SECS, INTEGRAL =      0.68 TIME LEFT: 172799.31
 STEP:  35 TIME =     0.02 SECS, INTEGRAL =      0.71 TIME LEFT: 172799.29
 STEP:  36 TIME =     0.02 SECS, INTEGRAL =      0.73 TIME LEFT: 172799.26
 STEP:  37 TIME =     0.02 SECS, INTEGRAL =      0.75 TIME LEFT: 172799.24
 STEP:  38 TIME =     0.02 SECS, INTEGRAL =      0.77 TIME LEFT: 172799.22
 STEP:  39 TIME =     0.02 SECS, INTEGRAL =      0.79 TIME LEFT: 172799.21
 STEP:  40 TIME =     0.02 SECS, INTEGRAL =      0.80 TIME LEFT: 172799.19
 STEP:  41 TIME =     0.02 SECS, INTEGRAL =      0.83 TIME LEFT: 172799.16
 STEP:  42 TIME =     0.02 SECS, INTEGRAL =      0.85 TIME LEFT: 172799.14
 STEP:  43 TIME =     0.02 SECS, INTEGRAL =      0.87 TIME LEFT: 172799.12
 STEP:  44 TIME =     0.02 SECS, INTEGRAL =      0.89 TIME LEFT: 172799.11
 STEP:  45 TIME =     0.02 SECS, INTEGRAL =      0.91 TIME LEFT: 172799.08
 STEP:  46 TIME =     0.02 SECS, INTEGRAL =      0.93 TIME LEFT: 172799.06
 STEP:  47 TIME =     0.02 SECS, INTEGRAL =      0.95 TIME LEFT: 172799.04
 STEP:  48 TIME =     0.02 SECS, INTEGRAL =      0.98 TIME LEFT: 172799.02
 STEP:  49 TIME =     0.02 SECS, INTEGRAL =      1.00 TIME LEFT: 172799.00
 STEP:  50 TIME =     0.02 SECS, INTEGRAL =      1.02 TIME LEFT: 172798.98
 STEP:  51 TIME =     0.02 SECS, INTEGRAL =      1.04 TIME LEFT: 172798.96
 STEP:  52 TIME =     0.02 SECS, INTEGRAL =      1.05 TIME LEFT: 172798.94
 STEP:  53 TIME =     0.02 SECS, INTEGRAL =      1.07 TIME LEFT: 172798.92
 STEP:  54 TIME =     0.02 SECS, INTEGRAL =      1.10 TIME LEFT: 172798.89
 STEP:  55 TIME =     0.02 SECS, INTEGRAL =      1.11 TIME LEFT: 172798.88
 STEP:  56 TIME =     0.02 SECS, INTEGRAL =      1.13 TIME LEFT: 172798.86
 STEP:  57 TIME =     0.02 SECS, INTEGRAL =      1.16 TIME LEFT: 172798.84
 STEP:  58 TIME =     0.02 SECS, INTEGRAL =      1.17 TIME LEFT: 172798.82
 STEP:  59 TIME =     0.02 SECS, INTEGRAL =      1.19 TIME LEFT: 172798.80
 STEP:  60 TIME =     0.02 SECS, INTEGRAL =      1.21 TIME LEFT: 172798.78

(To convert to Hartree/Bohr^2, multiply by (10^(-21) x N x a0^2)/(4.184 x 627.51) =  0.0642)


           FORCE MATRIX IN MILLIDYNES/ANGSTROM


                  C  1       C  2       C  3       C  4       C  5       C  6
 ------------------------------------------------------------------------------
     C    1  14.796994
     C    2   0.005533  14.941615
     C    3   4.184468   0.139906  19.256353
     C    4   0.877283   0.898860   4.989860  19.827158
     C    5   1.213839   0.197255   1.025249   4.933272  19.870410
     C    6   4.463357   0.031729   0.976876   1.383994   9.710773  17.966312
     C    7   0.056968   4.896593   0.775595  10.142853   0.970396   0.109833
     C    8   0.019491   4.873341   0.006565   0.066610   1.182719   0.122563
     C    9   0.130811   0.812056   0.051916   0.677851   5.856207   0.849060
     C   10   0.686671   0.013978  10.712465   0.869746   0.051881   0.054307
     H   11   4.498746   0.001025   0.431807   0.031649   0.035656   0.425644
     H   12   4.498434   0.001025   0.431784   0.031600   0.035641   0.425625
     H   13   0.002176   4.367514   0.018681   0.038546   0.015427   0.004616
     H   14   0.002182   4.367317   0.018694   0.038505   0.015438   0.004622
     H   15   0.405357   0.003319   0.043869   0.106913   0.455723   5.051644
     H   16   0.009152   0.423558   0.071990   0.459556   0.117587   0.010058
     H   17   0.010380   0.422940   0.001787   0.005092   0.128362   0.007845
     H   18   0.003419   0.124768   0.007093   0.039542   0.442803   0.012397
     H   19   0.087703   0.008458   0.475817   0.132469   0.008638   0.002201
     H   20   0.125138   0.008394   0.477971   0.093135   0.004805   0.006666


                  C  7       C  8       C  9       C 10       H 11       H 12
 ------------------------------------------------------------------------------
     C    7  18.030410
     C    8   0.691282  17.954818
     C    9   0.044914  10.261141  18.535428
     C   10   0.106828   0.003443   0.010734  17.965087
     H   11   0.004189   0.002185   0.019359   0.019520   5.098616
     H   12   0.004183   0.002186   0.019364   0.019524   0.555546   5.098296
     H   13   0.413780   0.416612   0.038504   0.001719   0.000569   0.000297
     H   14   0.413735   0.416486   0.038463   0.001719   0.000297   0.000570
     H   15   0.008735   0.006427   0.054837   0.007733   0.011984   0.011962
     H   16   4.830104   0.045949   0.005680   0.012832   0.000654   0.000655
     H   17   0.046797   4.825123   0.439578   0.000666   0.001703   0.001703
     H   18   0.004165   0.444194   4.852980   0.001802   0.000807   0.000807
     H   19   0.007395   0.000410   0.001728   5.113687   0.010501   0.010506
     H   20   0.014918   0.000935   0.001185   5.085514   0.012402   0.012417


                  H 13       H 14       H 15       H 16       H 17       H 18
 ------------------------------------------------------------------------------
     H   13   4.954287
     H   14   0.566935   4.954026
     H   15   0.001139   0.001142   5.448937
     H   16   0.026164   0.026093   0.007951   5.213287
     H   17   0.028910   0.028876   0.003743   0.006600   5.198354
     H   18   0.016254   0.016269   0.006462   0.001176   0.067895   5.222569
     H   19   0.001300   0.001299   0.001061   0.007017   0.000155   0.000413
     H   20   0.001057   0.001058   0.001413   0.020545   0.000237   0.000174


                  H 19       H 20
 ------------------------------
     H   19   5.488286
     H   20   0.407039   5.465983


          HEAT OF FORMATION =      54.751372 KCALS/MOLE

          ZERO POINT ENERGY     104.909 KCAL/MOL


           NORMAL COORDINATE ANALYSIS (Total motion = 1 Angstrom)


   Root No.       1         2         3         4         5         6         7         8

                 1 A       2 A       3 A       4 A       5 A       6 A       7 A       8 A   

                  80.5     170.1     197.0     274.8     289.8     391.4     468.1     503.6
  
           1   -0.0000   -0.0000    0.0000   -0.0130    0.0000    0.0000   -0.0048   -0.0000
           2    0.0000    0.0000   -0.0000   -0.0048    0.0000    0.0000   -0.0412    0.0000
           3   -0.0445   -0.0129    0.0484    0.0000   -0.0095    0.0093   -0.0000    0.0026
           4    0.0000    0.0000    0.0000   -0.0168    0.0000   -0.0000   -0.0254    0.0000
           5    0.0000    0.0000    0.0000    0.0376    0.0000   -0.0000   -0.0206    0.0000
           6   -0.0395   -0.0446   -0.0142    0.0000   -0.0117    0.0042   -0.0000   -0.0017
           7   -0.0000    0.0000   -0.0000   -0.0040   -0.0000    0.0000   -0.0357    0.0000
           8   -0.0000   -0.0000    0.0000   -0.0164    0.0000    0.0000   -0.0004   -0.0000
           9    0.0025    0.0195    0.0121   -0.0000   -0.0253   -0.0414    0.0000    0.0736
          10   -0.0000   -0.0000    0.0000   -0.0173   -0.0000   -0.0000   -0.0085    0.0000
          11   -0.0000   -0.0000    0.0000   -0.0301    0.0000    0.0000    0.0426   -0.0000
          12   -0.0048    0.0569   -0.0140   -0.0001   -0.0383   -0.0377    0.0000   -0.0181
          13   -0.0000   -0.0000   -0.0000   -0.0156   -0.0000    0.0000    0.0259   -0.0000
          14   -0.0000   -0.0000    0.0000   -0.0275    0.0000   -0.0000    0.0401    0.0000
          15    0.0078    0.0224   -0.0463   -0.0000   -0.0356   -0.0009   -0.0000   -0.0538
          16   -0.0000   -0.0000   -0.0000   -0.0193    0.0000   -0.0000    0.0402   -0.0000
          17    0.0000    0.0000    0.0000   -0.0159   -0.0000    0.0000   -0.0104    0.0000
          18   -0.0189   -0.0205   -0.0483    0.0000    0.0494   -0.0186   -0.0000    0.0017
          19   -0.0000   -0.0000    0.0000   -0.0335   -0.0000   -0.0000   -0.0001    0.0000
          20    0.0000   -0.0000   -0.0000    0.0060   -0.0000   -0.0000    0.0231    0.0000
          21   -0.0294    0.0555    0.0011   -0.0000    0.0490    0.0288    0.0000   -0.0064
          22    0.0000   -0.0000    0.0000   -0.0008    0.0000    0.0000   -0.0110    0.0000
          23   -0.0000    0.0000   -0.0001    0.0341   -0.0000    0.0000   -0.0247    0.0000
          24    0.0263   -0.0227    0.0517    0.0000    0.0185   -0.0437   -0.0000   -0.0168
          25    0.0000   -0.0000   -0.0000    0.0099   -0.0000    0.0000   -0.0152    0.0000
          26   -0.0000   -0.0000   -0.0000    0.0024    0.0000   -0.0001   -0.0012   -0.0000
          27    0.0456    0.0151    0.0027   -0.0000   -0.0197    0.0578    0.0000    0.0258
          28    0.0000    0.0000   -0.0000    0.0947   -0.0000   -0.0000    0.0227   -0.0000
          29    0.0000   -0.0000   -0.0000    0.0005    0.0000    0.0000    0.0102   -0.0000
          30    0.0586   -0.0387   -0.0077    0.0000    0.0087    0.0118   -0.0000   -0.0136
          31    0.0384    0.0140   -0.0766   -0.0121    0.0276   -0.0701   -0.0073    0.0959
          32    0.0041    0.0140    0.0363   -0.0007   -0.0375    0.0022   -0.0726    0.0291
          33   -0.0728   -0.0221    0.1091   -0.0001   -0.0338    0.0631   -0.0004   -0.0686
          34   -0.0384   -0.0141    0.0767   -0.0120   -0.0276    0.0702   -0.0073   -0.0960
          35   -0.0040   -0.0139   -0.0365   -0.0007    0.0375   -0.0022   -0.0726   -0.0289
          36   -0.0727   -0.0221    0.1090    0.0002   -0.0337    0.0630    0.0003   -0.0686
          37   -0.0344   -0.0861   -0.0431   -0.0213   -0.0731    0.0141   -0.0232    0.0551
          38   -0.0339    0.0023   -0.0379    0.0495   -0.0127    0.0496   -0.0307    0.0292
          39   -0.0731   -0.1059   -0.0554   -0.0000   -0.0682    0.0281   -0.0009    0.0470
          40    0.0345    0.0863    0.0432   -0.0213    0.0733   -0.0142   -0.0233   -0.0552
          41    0.0341   -0.0021    0.0380    0.0495    0.0129   -0.0497   -0.0307   -0.0292
          42   -0.0729   -0.1058   -0.0552    0.0001   -0.0680    0.0279    0.0009    0.0469
          43    0.0000   -0.0000   -0.0000   -0.0311    0.0000   -0.0000    0.0935   -0.0001
          44   -0.0000    0.0000    0.0001   -0.0099   -0.0001    0.0000   -0.0374    0.0000
          45   -0.0213   -0.0589   -0.0847    0.0001    0.1436   -0.0173    0.0000    0.0662
          46   -0.0000   -0.0000   -0.0000   -0.0639   -0.0000   -0.0000    0.0423   -0.0000
          47    0.0000   -0.0000   -0.0000    0.0116   -0.0001   -0.0000    0.0155   -0.0000
          48   -0.0450    0.0947    0.0251    0.0000    0.1433    0.0867    0.0001    0.0544
          49    0.0000   -0.0000    0.0000    0.0120    0.0000    0.0000   -0.0132    0.0000
          50   -0.0001    0.0000   -0.0001    0.0503   -0.0001    0.0001   -0.0266    0.0000
          51    0.0570   -0.0404    0.1304    0.0001    0.0597   -0.1124    0.0000    0.0007
          52    0.0000   -0.0000    0.0000    0.0430    0.0000    0.0000   -0.0613    0.0001
          53   -0.0001   -0.0000   -0.0000   -0.0037    0.0000   -0.0002    0.0076   -0.0002
          54    0.0916    0.0344    0.0276   -0.0000   -0.0200    0.1439    0.0002    0.1345
          55    0.0000    0.0000   -0.0000    0.1347   -0.0000   -0.0000    0.0587   -0.0000
          56    0.0000    0.0000   -0.0000    0.0932    0.0000    0.0000    0.0924   -0.0001
          57    0.0702   -0.1019    0.0080    0.0001    0.0395    0.0678   -0.0000   -0.0203
          58    0.0000    0.0001   -0.0000    0.1610   -0.0000   -0.0000    0.0821   -0.0001
          59    0.0000   -0.0000    0.0000   -0.0704    0.0000    0.0001   -0.0525   -0.0000
          60    0.0970   -0.0285   -0.0420   -0.0000    0.0114    0.0115   -0.0000   -0.1109


   Root No.       9        10        11        12        13        14        15        16

                 9 A      10 A      11 A      12 A      13 A      14 A      15 A      16 A   

                 532.2     537.7     597.5     683.5     713.2     763.1     798.5     812.2
  
           1   -0.0504   -0.0286   -0.0000   -0.0607    0.0000    0.0000    0.0260   -0.0001
           2   -0.0177    0.0120    0.0000    0.0366    0.0000   -0.0000    0.0041    0.0000
           3    0.0000    0.0000   -0.0007    0.0000   -0.0061    0.0104   -0.0002   -0.0270
           4    0.0700    0.0154    0.0000   -0.0272    0.0000   -0.0000   -0.0528    0.0001
           5   -0.0044   -0.0261    0.0000   -0.0053    0.0000    0.0000   -0.0231    0.0001
           6    0.0000   -0.0000   -0.0060   -0.0000   -0.0151   -0.0253   -0.0001   -0.0261
           7   -0.0214   -0.0545    0.0000   -0.0114    0.0000    0.0000    0.0334   -0.0001
           8   -0.0336    0.0411   -0.0000   -0.0446    0.0000   -0.0000   -0.0145    0.0000
           9   -0.0001    0.0001   -0.0039   -0.0001   -0.0319   -0.0015    0.0001    0.0102
          10    0.0125   -0.0549    0.0000    0.0138   -0.0000   -0.0000   -0.0096    0.0000
          11    0.0129   -0.0023   -0.0000    0.0023   -0.0000    0.0000    0.0023   -0.0000
          12   -0.0001    0.0000    0.0166    0.0000    0.0607   -0.0241    0.0001    0.0072
          13   -0.0315    0.0098   -0.0000    0.0291   -0.0000   -0.0000   -0.0175    0.0000
          14    0.0319   -0.0107    0.0000    0.0042    0.0000   -0.0000    0.0272   -0.0001
          15    0.0000   -0.0000   -0.0332    0.0000   -0.0281    0.0367    0.0000    0.0175
          16   -0.0304    0.0022   -0.0000    0.0058   -0.0000   -0.0000   -0.0117    0.0000
          17    0.0005    0.0114   -0.0000    0.0772   -0.0000   -0.0001   -0.0178    0.0000
          18   -0.0000    0.0000    0.0087    0.0001    0.0077    0.0108   -0.0001   -0.0167
          19    0.0403   -0.0296    0.0000   -0.0009    0.0000   -0.0000   -0.0235    0.0001
          20   -0.0259   -0.0705   -0.0000    0.0347    0.0000   -0.0000    0.0022    0.0000
          21   -0.0000   -0.0001   -0.0070    0.0000    0.0077   -0.0010   -0.0000   -0.0106
          22    0.0068    0.0845    0.0000    0.0279    0.0000    0.0000    0.0425   -0.0001
          23    0.0153   -0.0332    0.0000   -0.0250    0.0000   -0.0000   -0.0318    0.0001
          24   -0.0000   -0.0000   -0.0054   -0.0000   -0.0133   -0.0065    0.0000    0.0099
          25   -0.0143    0.0620    0.0000    0.0271   -0.0000   -0.0000    0.0053   -0.0000
          26    0.0653    0.0163    0.0000   -0.0306    0.0000    0.0001    0.0763   -0.0002
          27    0.0001    0.0000    0.0030   -0.0001   -0.0147   -0.0205    0.0001    0.0050
          28    0.0087   -0.0144    0.0000    0.0034   -0.0000    0.0000    0.0228   -0.0001
          29   -0.0335    0.0559   -0.0000   -0.0547    0.0000   -0.0000   -0.0263    0.0001
          30    0.0000   -0.0000    0.0022    0.0000    0.0007   -0.0004    0.0000    0.0011
          31   -0.0531   -0.0330   -0.0445   -0.0687   -0.0216    0.0342    0.0356   -0.0800
          32   -0.0149   -0.0107   -0.0150    0.0490   -0.0307   -0.0171    0.0403    0.0485
          33    0.0017    0.0012    0.0327    0.0049    0.0077   -0.0175   -0.0031    0.0393
          34   -0.0531   -0.0331    0.0446   -0.0687    0.0216   -0.0341    0.0366    0.0799
          35   -0.0149   -0.0107    0.0150    0.0491    0.0308    0.0172    0.0397   -0.0488
          36   -0.0017   -0.0012    0.0327   -0.0048    0.0077   -0.0175    0.0036    0.0392
          37    0.0773    0.0015    0.0368   -0.0314    0.0485    0.0755   -0.0747    0.0774
          38   -0.0124    0.0138    0.0129   -0.0027    0.0346    0.0340    0.0038    0.0028
          39    0.0026    0.0004    0.0249   -0.0018    0.0305    0.0400   -0.0066    0.0317
          40    0.0773    0.0015   -0.0368   -0.0316   -0.0485   -0.0758   -0.0751   -0.0771
          41   -0.0124    0.0137   -0.0130   -0.0028   -0.0348   -0.0342    0.0039   -0.0029
          42   -0.0025   -0.0003    0.0248    0.0018    0.0303    0.0398    0.0067    0.0316
          43   -0.0014   -0.0110   -0.0000   -0.0002   -0.0000   -0.0000   -0.0068   -0.0000
          44   -0.0145    0.0178   -0.0001    0.0806   -0.0001    0.0001   -0.0196   -0.0001
          45   -0.0000    0.0000    0.0739   -0.0001    0.0433   -0.1671    0.0012    0.1731
          46    0.0538   -0.0174    0.0000    0.0146    0.0000   -0.0000   -0.0115    0.0000
          47   -0.0276   -0.0720   -0.0000    0.0318    0.0000   -0.0001   -0.0003   -0.0000
          48   -0.0000   -0.0001    0.0040    0.0001   -0.0781    0.1457    0.0005    0.1396
          49   -0.0341    0.0871    0.0000    0.0561    0.0000    0.0000    0.0294   -0.0001
          50   -0.0375   -0.0300   -0.0000    0.0105   -0.0002   -0.0003   -0.0471    0.0001
          51   -0.0001   -0.0000    0.0345    0.0002    0.1422    0.1762   -0.0003    0.0210
          52   -0.0228    0.0626    0.0000    0.0195    0.0000   -0.0001   -0.0579    0.0002
          53    0.0664    0.0156   -0.0001   -0.0290   -0.0001    0.0001    0.0890   -0.0001
          54    0.0001    0.0000    0.0691   -0.0000    0.1373    0.0524   -0.0006   -0.0978
          55    0.0281    0.0129    0.0000    0.0074   -0.0000   -0.0000   -0.0190    0.0000
          56    0.0100    0.1214   -0.0000   -0.0479   -0.0000   -0.0001   -0.1258    0.0004
          57    0.0002   -0.0000   -0.2580    0.0001    0.1336   -0.0255    0.0002    0.0214
          58    0.0443    0.0258    0.0000    0.0205   -0.0000   -0.0000   -0.0350    0.0001
          59   -0.0721    0.0140    0.0000   -0.0754    0.0000    0.0001    0.0336   -0.0001
          60   -0.0001   -0.0001    0.2668    0.0001   -0.0689    0.0274   -0.0003   -0.0457


   Root No.      17        18        19        20        21        22        23        24

                17 A      18 A      19 A      20 A      21 A      22 A      23 A      24 A   

                 862.6     887.3     919.6     939.5     961.2     998.8    1004.4    1010.8
  
           1   -0.0000   -0.0039   -0.0550   -0.0000    0.0000   -0.0042    0.0000   -0.0000
           2    0.0000   -0.0081   -0.0229    0.0000   -0.0000   -0.0014    0.0000    0.0000
           3   -0.0181    0.0000    0.0000   -0.0239    0.0375   -0.0000    0.0048   -0.0246
           4   -0.0000   -0.0076    0.0050   -0.0000   -0.0000   -0.0442    0.0002    0.0000
           5   -0.0000   -0.0107    0.0015   -0.0000   -0.0000   -0.0331    0.0001    0.0000
           6    0.0229    0.0000    0.0000    0.0262    0.0149    0.0001    0.0313    0.0098
           7    0.0000   -0.0052    0.0080    0.0000    0.0000    0.0015   -0.0000    0.0000
           8   -0.0000    0.0094    0.0143    0.0000    0.0000   -0.0004    0.0000   -0.0000
           9    0.0202    0.0000    0.0000    0.0070   -0.0177   -0.0000   -0.0052    0.0240
          10   -0.0000    0.0256    0.0051    0.0000    0.0000    0.0012   -0.0000   -0.0000
          11    0.0000    0.0211    0.0015    0.0000   -0.0000    0.0124   -0.0001   -0.0000
          12   -0.0278   -0.0000   -0.0000    0.0156    0.0104    0.0001    0.0148   -0.0000
          13    0.0000   -0.0337   -0.0035   -0.0000   -0.0000   -0.0000   -0.0000   -0.0000
          14   -0.0000   -0.0276   -0.0023   -0.0000   -0.0000   -0.0016    0.0000    0.0000
          15    0.0318    0.0000    0.0000   -0.0018    0.0168   -0.0001   -0.0108   -0.0146
          16    0.0000   -0.0495   -0.0067   -0.0000   -0.0000    0.0016   -0.0000    0.0000
          17    0.0000   -0.0454   -0.0089   -0.0000    0.0000    0.0027   -0.0000   -0.0000
          18   -0.0113   -0.0000    0.0000    0.0188   -0.0359    0.0000   -0.0064    0.0315
          19   -0.0000    0.0275    0.0063    0.0000    0.0000    0.0182   -0.0001   -0.0000
          20   -0.0000    0.0751    0.0170    0.0000    0.0000   -0.0318    0.0002    0.0000
          21    0.0114    0.0001    0.0000   -0.0363   -0.0201   -0.0002   -0.0316   -0.0072
          22   -0.0000    0.0328    0.0055    0.0000    0.0000   -0.0194    0.0001    0.0000
          23    0.0000   -0.0265   -0.0068   -0.0000    0.0000    0.0557   -0.0002   -0.0000
          24   -0.0235   -0.0001   -0.0000    0.0060   -0.0046   -0.0002   -0.0422   -0.0147
          25   -0.0000    0.0211    0.0052    0.0000    0.0000    0.0147   -0.0001   -0.0000
          26    0.0000   -0.0071   -0.0135    0.0000    0.0000    0.0131   -0.0001   -0.0000
          27   -0.0237   -0.0000   -0.0000   -0.0269   -0.0128    0.0003    0.0341    0.0162
          28    0.0000   -0.0191    0.0488    0.0000    0.0000    0.0030   -0.0000   -0.0000
          29   -0.0000    0.0167    0.0319    0.0000    0.0000   -0.0016    0.0000   -0.0000
          30    0.0039    0.0000    0.0000    0.0051   -0.0230    0.0000    0.0139   -0.0446
          31   -0.0462   -0.0045   -0.0726   -0.0633    0.0966   -0.0064    0.0022   -0.0483
          32    0.0583    0.0148   -0.0635   -0.0217    0.0356   -0.0063   -0.0774    0.0809
          33    0.0229    0.0019    0.0088    0.0230   -0.0339    0.0010   -0.0038    0.0199
          34    0.0462   -0.0046   -0.0726    0.0633   -0.0967   -0.0062   -0.0021    0.0483
          35   -0.0583    0.0146   -0.0635    0.0217   -0.0356   -0.0055    0.0775   -0.0809
          36    0.0228   -0.0019   -0.0087    0.0230   -0.0338   -0.0010   -0.0037    0.0198
          37   -0.0679    0.0037    0.0103   -0.0359   -0.0220   -0.0409   -0.0753   -0.0284
          38    0.0169   -0.0470   -0.0076   -0.0758   -0.0366   -0.0983    0.0075    0.0155
          39   -0.0226   -0.0010    0.0013   -0.0207   -0.0112   -0.0150   -0.0218   -0.0067
          40    0.0679    0.0040    0.0103    0.0359    0.0220   -0.0399    0.0757    0.0285
          41   -0.0169   -0.0471   -0.0076    0.0760    0.0368   -0.0987   -0.0067   -0.0154
          42   -0.0225    0.0008   -0.0013   -0.0205   -0.0110    0.0144   -0.0218   -0.0067
          43    0.0001   -0.1273    0.0534   -0.0000   -0.0000    0.0032   -0.0000   -0.0000
          44   -0.0001   -0.0092   -0.0409    0.0000   -0.0001    0.0021   -0.0000    0.0001
          45    0.0962    0.0000   -0.0001   -0.0596    0.1295   -0.0001    0.0060   -0.0846
          46   -0.0000    0.1006   -0.0005    0.0001    0.0000    0.1909   -0.0008   -0.0002
          47    0.0000    0.0645    0.0184   -0.0001   -0.0001   -0.0630    0.0002    0.0001
          48   -0.0997   -0.0003   -0.0001    0.1574    0.0910    0.0006    0.0916    0.0066
          49    0.0000    0.0515    0.0139    0.0000    0.0000    0.0459   -0.0002   -0.0000
          50   -0.0001   -0.0062    0.0029    0.0001    0.0000    0.1385   -0.0007   -0.0002
          51    0.1298    0.0001    0.0000   -0.0915    0.0014    0.0012    0.1585    0.0562
          52   -0.0000    0.0698    0.0155    0.0000    0.0000    0.1919   -0.0008   -0.0002
          53   -0.0001   -0.0170   -0.0159   -0.0002   -0.0001   -0.0171    0.0002    0.0001
          54    0.1100    0.0000   -0.0000    0.1606    0.0629   -0.0010   -0.1290   -0.0613
          55   -0.0000    0.0187   -0.0492   -0.0000   -0.0000   -0.0053    0.0000    0.0000
          56   -0.0001    0.1061   -0.1899   -0.0000    0.0000   -0.0217    0.0001    0.0000
          57   -0.0435   -0.0001   -0.0000   -0.0021    0.0936   -0.0000   -0.0463    0.1775
          58   -0.0000    0.0328   -0.1311   -0.0000   -0.0000   -0.0028    0.0000    0.0000
          59   -0.0000   -0.0368    0.2257    0.0000    0.0000    0.0038   -0.0000    0.0000
          60   -0.0237   -0.0000   -0.0000   -0.0467    0.1227   -0.0002   -0.0606    0.1679


   Root No.      25        26        27        28        29        30        31        32

                25 A      26 A      27 A      28 A      29 A      30 A      31 A      32 A   

                1049.5    1053.8    1058.7    1071.7    1096.0    1141.5    1185.7    1216.9
  
           1   -0.0277   -0.0000   -0.0000   -0.0026    0.0215   -0.0003   -0.0123    0.0197
           2    0.0214   -0.0000   -0.0001   -0.0082    0.0073    0.0023    0.0062    0.0189
           3    0.0000    0.0062   -0.0024   -0.0000    0.0000    0.0000    0.0000    0.0000
           4    0.0000   -0.0000   -0.0001   -0.0099    0.0246   -0.0017   -0.0088    0.0103
           5    0.0027    0.0000    0.0001    0.0156    0.0053   -0.0007    0.0110    0.0101
           6   -0.0000    0.0048    0.0010   -0.0000    0.0000    0.0000    0.0000    0.0000
           7    0.0069    0.0000    0.0000    0.0073   -0.0362    0.0018   -0.0045    0.0000
           8    0.0010    0.0000    0.0000    0.0018   -0.0125    0.0004    0.0001    0.0033
           9    0.0000   -0.0364    0.0109   -0.0000   -0.0000   -0.0000    0.0000   -0.0000
          10    0.0010    0.0000    0.0001    0.0103   -0.0396    0.0010   -0.0012   -0.0193
          11    0.0003    0.0000    0.0001    0.0160    0.0476    0.0033   -0.0276   -0.0026
          12   -0.0000    0.0128   -0.0108    0.0000    0.0000    0.0000   -0.0000   -0.0000
          13   -0.0003   -0.0000   -0.0000   -0.0079    0.0052   -0.0002    0.0203   -0.0207
          14    0.0067    0.0000    0.0000    0.0076    0.0070   -0.0086   -0.0291   -0.0102
          15    0.0000   -0.0120    0.0010    0.0000    0.0000   -0.0000   -0.0000   -0.0000
          16    0.0038   -0.0000   -0.0001   -0.0119    0.0035    0.0038    0.0192   -0.0225
          17   -0.0441   -0.0000    0.0000   -0.0034   -0.0209    0.0068   -0.0084    0.0229
          18   -0.0001    0.0247   -0.0045   -0.0000   -0.0000    0.0000   -0.0000    0.0000
          19    0.0032    0.0000    0.0002    0.0234   -0.0153   -0.0017   -0.0077   -0.0212
          20   -0.0035   -0.0000   -0.0002   -0.0275    0.0009    0.0050    0.0085    0.0139
          21    0.0000   -0.0023    0.0320   -0.0001    0.0000   -0.0000    0.0000    0.0000
          22   -0.0008    0.0000    0.0000    0.0049   -0.0029   -0.0066    0.0014    0.0089
          23   -0.0003   -0.0000   -0.0000   -0.0116   -0.0007   -0.0072    0.0223   -0.0086
          24   -0.0000   -0.0122   -0.0338    0.0002   -0.0000    0.0000    0.0000   -0.0000
          25    0.0015   -0.0000   -0.0000   -0.0076    0.0027   -0.0020    0.0130   -0.0014
          26   -0.0118   -0.0000   -0.0001   -0.0211   -0.0246    0.0094    0.0123   -0.0068
          27   -0.0000    0.0081    0.0104   -0.0001   -0.0000    0.0000    0.0000   -0.0000
          28   -0.0091   -0.0000   -0.0000   -0.0012    0.0265   -0.0004   -0.0022    0.0011
          29    0.0023    0.0000    0.0000    0.0002   -0.0158   -0.0005    0.0082   -0.0066
          30   -0.0000    0.0233   -0.0066    0.0000    0.0000    0.0000   -0.0000    0.0000
          31   -0.0204    0.0437   -0.0132   -0.0053    0.0436   -0.0012   -0.0287    0.0434
          32    0.2077    0.2274   -0.0582   -0.0209    0.1033   -0.0089    0.0278   -0.0949
          33    0.0102   -0.0074    0.0026    0.0008   -0.0076   -0.0002    0.0120   -0.0234
          34   -0.0204   -0.0437    0.0131   -0.0053    0.0436   -0.0012   -0.0287    0.0434
          35    0.2081   -0.2273    0.0576   -0.0208    0.1031   -0.0089    0.0278   -0.0949
          36   -0.0100   -0.0077    0.0027   -0.0008    0.0076    0.0002   -0.0119    0.0232
          37   -0.0033    0.0108    0.0996   -0.0750    0.0479   -0.0476    0.0030    0.0537
          38    0.0150   -0.0590   -0.2760    0.1955   -0.0011    0.1061   -0.0367   -0.0200
          39    0.0005   -0.0032   -0.0010   -0.0005    0.0122   -0.0024   -0.0038    0.0191
          40   -0.0034   -0.0111   -0.1007   -0.0739    0.0479   -0.0474    0.0030    0.0537
          41    0.0152    0.0596    0.2788    0.1923   -0.0011    0.1057   -0.0367   -0.0199
          42   -0.0004   -0.0030   -0.0004    0.0009   -0.0121    0.0025    0.0037   -0.0191
          43    0.2607    0.0002   -0.0004   -0.0352   -0.1201    0.0474   -0.0439    0.1704
          44   -0.1737   -0.0001    0.0001    0.0073    0.0415   -0.0146    0.0235   -0.0739
          45   -0.0001   -0.0456    0.0017    0.0001    0.0000   -0.0000    0.0000   -0.0001
          46    0.0100    0.0002    0.0011    0.1522    0.0785    0.0688    0.2110    0.1409
          47   -0.0045   -0.0001   -0.0003   -0.0479   -0.0147   -0.0060   -0.0292   -0.0135
          48   -0.0001    0.0192   -0.0556    0.0001    0.0000    0.0000    0.0000    0.0000
          49    0.0204    0.0001    0.0003    0.0684   -0.0089   -0.1973   -0.1037    0.0305
          50    0.0267    0.0001    0.0003    0.0718   -0.0093   -0.2489   -0.1090    0.0168
          51    0.0000    0.0260    0.0583   -0.0002    0.0000   -0.0003   -0.0001    0.0000
          52   -0.0019   -0.0001   -0.0004   -0.0875    0.0255    0.2517   -0.2029   -0.0156
          53   -0.0118    0.0000   -0.0000   -0.0074   -0.0302   -0.0384    0.0526   -0.0053
          54   -0.0000   -0.0215   -0.0182    0.0001   -0.0000   -0.0001    0.0001   -0.0000
          55    0.0053    0.0000   -0.0000   -0.0003   -0.0235   -0.0012   -0.0001   -0.0175
          56    0.0369    0.0001   -0.0000    0.0017   -0.1375   -0.0027    0.0167   -0.0566
          57    0.0001   -0.0873    0.0224   -0.0000    0.0000   -0.0000   -0.0000    0.0000
          58    0.0098    0.0000    0.0000    0.0049   -0.0132    0.0027   -0.0143    0.0335
          59   -0.0175   -0.0000   -0.0000   -0.0065    0.0222   -0.0042    0.0223   -0.0456
          60    0.0001   -0.0733    0.0216   -0.0000   -0.0000    0.0000    0.0000    0.0000


   Root No.      33        34        35        36        37        38        39        40

                33 A      34 A      35 A      36 A      37 A      38 A      39 A      40 A   

                1298.6    1322.0    1335.8    1346.2    1372.5    1388.3    1426.5    1532.1
  
           1    0.0086   -0.0035    0.0116    0.0043    0.0241    0.0519    0.0215    0.0254
           2   -0.0352    0.0010    0.0811    0.0395   -0.0135   -0.0155    0.0176    0.0058
           3   -0.0000   -0.0000    0.0000    0.0000   -0.0000   -0.0000    0.0000   -0.0000
           4    0.0018   -0.0055    0.0153   -0.0012    0.0427   -0.0182   -0.0565    0.0127
           5   -0.0039   -0.0042   -0.0376    0.0147    0.0184   -0.0217    0.1083   -0.0475
           6   -0.0000   -0.0000   -0.0000    0.0000    0.0000   -0.0000    0.0001   -0.0000
           7   -0.0244    0.0258   -0.0681    0.0230    0.0033   -0.0262   -0.0572   -0.0307
           8   -0.0207    0.0017   -0.0158   -0.0184   -0.0001   -0.0055   -0.0074   -0.0040
           9    0.0000   -0.0000    0.0000   -0.0000    0.0000    0.0000    0.0000    0.0000
          10    0.0046   -0.0091    0.0149   -0.0135   -0.0102    0.0050    0.0394    0.0255
          11   -0.0201   -0.0154   -0.0261    0.0333   -0.0127    0.0150   -0.0295   -0.1057
          12   -0.0000   -0.0000   -0.0000    0.0000   -0.0000    0.0000   -0.0000   -0.0001
          13   -0.0040    0.0094    0.0096   -0.0042   -0.0011   -0.0105   -0.0051   -0.0061
          14   -0.0061    0.0092   -0.0260    0.0160    0.0019   -0.0197    0.0268    0.1576
          15   -0.0000    0.0000   -0.0000    0.0000   -0.0000   -0.0000    0.0000    0.0001
          16   -0.0069    0.0204    0.0287   -0.0079    0.0049   -0.0213    0.0018   -0.0416
          17    0.0347   -0.0100   -0.0344   -0.0212    0.0102    0.0238   -0.0104   -0.0210
          18    0.0000   -0.0000   -0.0000   -0.0000    0.0000    0.0000   -0.0000   -0.0000
          19   -0.0020   -0.0242    0.0192   -0.0059   -0.0194    0.0162    0.0435   -0.0328
          20    0.0089    0.0084    0.0228   -0.0144    0.0097   -0.0014   -0.0409    0.0230
          21    0.0000    0.0000    0.0000   -0.0000   -0.0000    0.0000   -0.0000    0.0000
          22   -0.0005   -0.0081   -0.0169    0.0065   -0.0022    0.0038    0.0148    0.0168
          23   -0.0078   -0.0206   -0.0048    0.0071   -0.0205    0.0193   -0.0465    0.0463
          24   -0.0000   -0.0000   -0.0000    0.0000   -0.0000    0.0000   -0.0001    0.0000
          25   -0.0095   -0.0202   -0.0181    0.0126   -0.0194    0.0148   -0.0216    0.0386
          26    0.0098    0.0147    0.0307   -0.0201    0.0063   -0.0031    0.0014   -0.0606
          27    0.0000    0.0000    0.0000   -0.0000    0.0000   -0.0000    0.0000   -0.0001
          28    0.0076   -0.0056    0.0106    0.0026   -0.0002    0.0065    0.0058   -0.0011
          29   -0.0035   -0.0026   -0.0031   -0.0344   -0.0003   -0.0010    0.0110    0.0140
          30    0.0000    0.0000    0.0000    0.0000   -0.0000   -0.0000   -0.0000   -0.0000
          31    0.0947   -0.0756   -0.0026   -0.0381   -0.0968   -0.1291   -0.0178   -0.0057
          32    0.0709    0.0038   -0.0748   -0.0775    0.0261    0.0277    0.0010   -0.0132
          33   -0.0484    0.0474   -0.0029    0.0195    0.0814    0.1198    0.0236    0.0192
          34    0.0947   -0.0756   -0.0026   -0.0381   -0.0968   -0.1292   -0.0178   -0.0058
          35    0.0708    0.0039   -0.0748   -0.0775    0.0262    0.0278    0.0010   -0.0131
          36    0.0484   -0.0473    0.0028   -0.0195   -0.0813   -0.1197   -0.0235   -0.0192
          37    0.0155    0.1205   -0.0452   -0.0059   -0.1221    0.0414    0.0568   -0.0107
          38    0.0188    0.0428    0.0752   -0.0368   -0.0525    0.0368   -0.1091    0.0306
          39    0.0133    0.0874   -0.0114   -0.0146   -0.1167    0.0496    0.0202    0.0034
          40    0.0155    0.1207   -0.0452   -0.0060   -0.1223    0.0415    0.0568   -0.0107
          41    0.0188    0.0430    0.0751   -0.0368   -0.0528    0.0369   -0.1089    0.0306
          42   -0.0132   -0.0871    0.0116    0.0145    0.1163   -0.0494   -0.0203   -0.0033
          43    0.0386   -0.0511    0.0095   -0.0009    0.0050    0.0672   -0.0098   -0.0578
          44    0.0136    0.0270   -0.0239   -0.0262    0.0117   -0.0204   -0.0040   -0.0158
          45    0.0000    0.0000   -0.0000   -0.0000    0.0000   -0.0000   -0.0000   -0.0000
          46    0.0513    0.0726   -0.0212   -0.0092    0.0689   -0.0560    0.0171    0.0725
          47   -0.0001   -0.0090    0.0316   -0.0147   -0.0049    0.0113   -0.0377    0.0020
          48    0.0000    0.0000   -0.0000   -0.0000    0.0000   -0.0000   -0.0000    0.0000
          49    0.0302    0.0517    0.0515   -0.0314    0.0501   -0.0299    0.0127   -0.0536
          50    0.0310    0.0556    0.0849   -0.0421    0.0438   -0.0225   -0.0523   -0.0459
          51    0.0000    0.0001    0.0001   -0.0000    0.0000   -0.0000   -0.0001   -0.0000
          52    0.0228    0.0790    0.0173   -0.0180    0.0480   -0.0553    0.0826    0.0021
          53    0.0044   -0.0024    0.0267   -0.0161   -0.0063    0.0097   -0.0190   -0.0566
          54    0.0000   -0.0000    0.0000   -0.0000   -0.0000    0.0000   -0.0000   -0.0001
          55    0.0604    0.0134    0.0016    0.0872    0.0040    0.0017   -0.0194   -0.0166
          56    0.1395    0.0441   -0.0183    0.1791    0.0106   -0.0114   -0.0458   -0.0184
          57   -0.0000   -0.0000   -0.0000   -0.0000   -0.0000    0.0000    0.0000   -0.0000
          58   -0.1305   -0.0098   -0.0443   -0.1332   -0.0065   -0.0139    0.0008    0.0064
          59    0.1558    0.0038    0.0553    0.1223    0.0071    0.0211    0.0144    0.0051
          60   -0.0000    0.0000   -0.0000   -0.0000   -0.0000   -0.0000   -0.0000    0.0000


   Root No.      41        42        43        44        45        46        47        48

                41 A      42 A      43 A      44 A      45 A      46 A      47 A      48 A   

                1828.5    1877.9    1904.6    1932.0    2925.7    2973.6    3004.6    3045.5
  
           1   -0.0079    0.0048   -0.0009   -0.0092   -0.0000   -0.0000   -0.0000   -0.0415
           2    0.0001    0.0115   -0.0112   -0.0117    0.0000    0.0000   -0.0000    0.0048
           3    0.0000    0.0000   -0.0000    0.0000   -0.0000   -0.0611    0.0000   -0.0000
           4   -0.0098    0.0015   -0.0129    0.0123    0.0000   -0.0000   -0.0366   -0.0000
           5   -0.0248   -0.0103   -0.0017   -0.0055    0.0001   -0.0000   -0.0135   -0.0000
           6   -0.0000   -0.0000   -0.0000   -0.0000   -0.0610    0.0000   -0.0000    0.0000
           7   -0.0047    0.0110   -0.0048   -0.0519   -0.0000    0.0000   -0.0001   -0.0006
           8    0.0174   -0.0919    0.1052    0.1390    0.0000    0.0000    0.0001   -0.0006
           9   -0.0000    0.0000   -0.0000    0.0000   -0.0001   -0.0001    0.0000   -0.0000
          10    0.0149    0.0394   -0.0936    0.1634    0.0000    0.0000    0.0006    0.0006
          11    0.0013    0.0351   -0.0462    0.0415    0.0000   -0.0000   -0.0000    0.0002
          12    0.0000    0.0000   -0.0000    0.0000   -0.0003   -0.0001    0.0000   -0.0000
          13   -0.1171    0.1119    0.1003    0.0322   -0.0000   -0.0000   -0.0003    0.0009
          14   -0.0117   -0.0150    0.0011   -0.0214   -0.0000    0.0000   -0.0000   -0.0004
          15    0.0000   -0.0000   -0.0000   -0.0000    0.0001   -0.0003    0.0000   -0.0000
          16    0.1107   -0.0782   -0.0617   -0.0308    0.0000    0.0000    0.0001   -0.0002
          17    0.0044   -0.0075   -0.0055   -0.0112   -0.0000    0.0000   -0.0001    0.0015
          18   -0.0000    0.0000    0.0000   -0.0000   -0.0000   -0.0002   -0.0000    0.0000
          19   -0.0054   -0.0477    0.0869   -0.1276   -0.0000   -0.0000   -0.0000    0.0000
          20    0.0050   -0.0148    0.0207   -0.0301   -0.0000    0.0000    0.0037    0.0004
          21    0.0000   -0.0000    0.0000   -0.0000   -0.0001   -0.0000    0.0000    0.0000
          22    0.1414    0.0604    0.0433   -0.0036   -0.0000   -0.0000    0.0031   -0.0007
          23    0.0820    0.0356    0.0240   -0.0004   -0.0000   -0.0000   -0.0031    0.0005
          24    0.0001    0.0000    0.0000   -0.0000   -0.0000    0.0000   -0.0000    0.0000
          25   -0.1268   -0.0944   -0.0692   -0.0069    0.0000    0.0000    0.0003   -0.0002
          26   -0.0491   -0.0003   -0.0001    0.0085    0.0000    0.0000    0.0001   -0.0004
          27   -0.0000    0.0000    0.0000    0.0000   -0.0003   -0.0001    0.0000   -0.0000
          28    0.0027   -0.0122    0.0125    0.0193   -0.0000   -0.0000    0.0000   -0.0000
          29   -0.0155    0.0743   -0.0809   -0.0973   -0.0000   -0.0000    0.0000    0.0001
          30    0.0000   -0.0000    0.0000    0.0000    0.0000   -0.0001    0.0000   -0.0000
          31   -0.0042    0.0029    0.0013    0.0000    0.0001    0.2837   -0.0000    0.2483
          32    0.0177   -0.0193    0.0003    0.0090    0.0000   -0.0326    0.0000   -0.0283
          33    0.0019   -0.0056   -0.0007   -0.0065    0.0001    0.3697   -0.0001    0.3830
          34   -0.0042    0.0029    0.0013    0.0000   -0.0001   -0.2837   -0.0000    0.2475
          35    0.0177   -0.0193    0.0003    0.0089   -0.0000    0.0322    0.0000   -0.0279
          36   -0.0018    0.0056    0.0007    0.0065    0.0001    0.3706    0.0001   -0.3828
          37   -0.0029    0.0029   -0.0093    0.0101   -0.2692    0.0000    0.2198    0.0002
          38   -0.0174   -0.0127    0.0008   -0.0081   -0.0998    0.0000    0.0815    0.0001
          39    0.0034   -0.0008   -0.0010    0.0022    0.3680   -0.0001   -0.3602   -0.0003
          40   -0.0029    0.0029   -0.0092    0.0101    0.2688   -0.0000    0.2190    0.0002
          41   -0.0174   -0.0127    0.0008   -0.0081    0.0990   -0.0000    0.0806    0.0001
          42   -0.0034    0.0008    0.0010   -0.0022    0.3690   -0.0001    0.3604    0.0003
          43    0.0057   -0.0080   -0.0086   -0.0102    0.0000   -0.0000    0.0004   -0.0075
          44    0.0801   -0.0619   -0.0482   -0.0367    0.0000   -0.0000    0.0009   -0.0113
          45    0.0001   -0.0000   -0.0000   -0.0000   -0.0000   -0.0012    0.0000   -0.0000
          46   -0.0054   -0.0044   -0.0152    0.0190    0.0000   -0.0000   -0.0096   -0.0010
          47    0.0053   -0.0328    0.0543   -0.0814    0.0000   -0.0000   -0.0387   -0.0053
          48    0.0000   -0.0000    0.0000   -0.0000   -0.0015   -0.0001   -0.0000   -0.0000
          49    0.0401    0.0240    0.0138    0.0031    0.0000   -0.0000   -0.0390    0.0078
          50   -0.0906   -0.0280   -0.0256    0.0098   -0.0000   -0.0000    0.0266   -0.0062
          51   -0.0001   -0.0000   -0.0000    0.0000   -0.0017    0.0001    0.0000   -0.0000
          52   -0.0025    0.0217    0.0227   -0.0021   -0.0000   -0.0000    0.0010    0.0011
          53   -0.0988   -0.0304   -0.0233    0.0097    0.0000   -0.0000    0.0026    0.0065
          54   -0.0001   -0.0000   -0.0000    0.0000   -0.0008    0.0000    0.0000    0.0000
          55    0.0115   -0.0570    0.0628    0.0726    0.0000    0.0000    0.0003   -0.0016
          56    0.0000   -0.0021    0.0033   -0.0141   -0.0000   -0.0000   -0.0001    0.0001
          57   -0.0000    0.0000   -0.0000    0.0000    0.0000    0.0005    0.0000   -0.0000
          58   -0.0112    0.0537   -0.0572   -0.0701    0.0000   -0.0000   -0.0008    0.0005
          59   -0.0036    0.0195   -0.0248   -0.0243    0.0000   -0.0000   -0.0007    0.0002
          60    0.0000   -0.0000    0.0000    0.0000   -0.0001   -0.0009    0.0000   -0.0000


   Root No.      49        50        51        52        53        54

                49 A      50 A      51 A      52 A      53 A      54 A   

                3049.8    3060.6    3071.1    3135.4    3136.8    3145.5
  
           1    0.0008   -0.0004    0.0000   -0.0017    0.0000   -0.0001
           2   -0.0001    0.0001    0.0000    0.0002    0.0003    0.0004
           3    0.0000   -0.0000   -0.0000   -0.0000   -0.0000    0.0000
           4   -0.0021   -0.0032    0.0022    0.0001   -0.0000    0.0000
           5   -0.0006   -0.0013    0.0009    0.0000   -0.0000    0.0000
           6   -0.0000    0.0000    0.0000    0.0000   -0.0000    0.0000
           7    0.0000   -0.0004    0.0001    0.0000   -0.0013    0.0002
           8    0.0000   -0.0001   -0.0000    0.0006    0.0060   -0.0038
           9   -0.0000   -0.0000    0.0000    0.0000   -0.0000    0.0000
          10   -0.0003    0.0051   -0.0007    0.0013   -0.0002    0.0002
          11    0.0001    0.0016    0.0003    0.0010   -0.0002   -0.0005
          12    0.0000    0.0000    0.0000    0.0000   -0.0000   -0.0000
          13    0.0001    0.0005   -0.0013    0.0062    0.0005   -0.0001
          14    0.0001    0.0004    0.0002    0.0002   -0.0001    0.0001
          15    0.0000    0.0000    0.0000   -0.0000   -0.0000    0.0000
          16   -0.0000   -0.0002    0.0003   -0.0360   -0.0025    0.0004
          17   -0.0002    0.0000   -0.0003   -0.0613   -0.0044    0.0006
          18   -0.0000    0.0000   -0.0000   -0.0000   -0.0000    0.0000
          19    0.0010   -0.0152    0.0010   -0.0005    0.0006    0.0001
          20    0.0034   -0.0618    0.0042   -0.0004    0.0016    0.0004
          21    0.0000   -0.0000    0.0000   -0.0000    0.0000    0.0000
          22   -0.0343   -0.0008    0.0260   -0.0003   -0.0000    0.0000
          23    0.0253    0.0013   -0.0142   -0.0000   -0.0000   -0.0000
          24    0.0000    0.0000   -0.0000   -0.0000    0.0000   -0.0000
          25   -0.0032   -0.0014   -0.0123   -0.0001   -0.0000   -0.0000
          26   -0.0254   -0.0065   -0.0444    0.0004    0.0000   -0.0000
          27   -0.0000   -0.0000   -0.0000    0.0000    0.0000    0.0000
          28    0.0001   -0.0012    0.0001    0.0018   -0.0256   -0.0672
          29    0.0001   -0.0011    0.0000    0.0045   -0.0481    0.0156
          30   -0.0000    0.0000   -0.0000   -0.0000    0.0000   -0.0000
          31   -0.0044    0.0019   -0.0002    0.0065    0.0001    0.0005
          32    0.0005   -0.0003    0.0001   -0.0028    0.0001    0.0003
          33   -0.0068    0.0030   -0.0003    0.0098    0.0001    0.0007
          34   -0.0044    0.0019   -0.0002    0.0065    0.0001    0.0005
          35    0.0005   -0.0003    0.0001   -0.0028    0.0001    0.0003
          36    0.0068   -0.0030    0.0003   -0.0098   -0.0001   -0.0007
          37    0.0125    0.0197   -0.0109   -0.0004   -0.0001   -0.0002
          38    0.0075    0.0039   -0.0053   -0.0001    0.0001   -0.0001
          39   -0.0212   -0.0294    0.0179    0.0006    0.0000    0.0002
          40    0.0124    0.0196   -0.0109   -0.0004   -0.0001   -0.0002
          41    0.0074    0.0038   -0.0053   -0.0001    0.0001   -0.0001
          42    0.0212    0.0294   -0.0179   -0.0006   -0.0000   -0.0002
          43    0.0007   -0.0004    0.0015    0.3577    0.0252   -0.0033
          44    0.0008   -0.0010    0.0019    0.7092    0.0500   -0.0065
          45    0.0000   -0.0000    0.0000    0.0005    0.0000   -0.0000
          46   -0.0075    0.1229   -0.0079    0.0004   -0.0026   -0.0005
          47   -0.0438    0.7153   -0.0456    0.0025   -0.0176   -0.0054
          48   -0.0000    0.0004   -0.0000    0.0000   -0.0000   -0.0000
          49    0.3919    0.0098   -0.2487    0.0003    0.0001   -0.0002
          50   -0.3104   -0.0081    0.1919   -0.0002   -0.0001    0.0001
          51   -0.0004   -0.0000    0.0003   -0.0000    0.0000   -0.0000
          52    0.0538    0.0141    0.0937   -0.0011   -0.0001    0.0001
          53    0.3052    0.0765    0.4978   -0.0026   -0.0004    0.0002
          54    0.0003    0.0001    0.0005   -0.0000    0.0000   -0.0000
          55    0.0001   -0.0006   -0.0002    0.0242   -0.1803    0.6649
          56    0.0000   -0.0005    0.0001   -0.0086    0.0591   -0.2777
          57    0.0000    0.0000   -0.0000    0.0000   -0.0000    0.0000
          58   -0.0009    0.0142   -0.0008   -0.0458    0.4981    0.1298
          59   -0.0008    0.0137   -0.0008   -0.0406    0.4433    0.1370
          60    0.0000   -0.0000    0.0000    0.0000   -0.0001   -0.0000


           MASS-WEIGHTED COORDINATE ANALYSIS (NORMAL COORDINATES)


   Root No.       1         2         3         4         5         6         7         8

                 1 A       2 A       3 A       4 A       5 A       6 A       7 A       8 A   

                  80.5     170.1     197.0     274.8     289.8     391.4     468.1     503.6
  
           1   -0.0001   -0.0001    0.0002   -0.0864    0.0000    0.0003   -0.0376   -0.0001
           2    0.0001    0.0001   -0.0002   -0.0318    0.0001    0.0001   -0.3214    0.0003
           3   -0.3532   -0.0976    0.3752    0.0002   -0.0767    0.0744   -0.0001    0.0199
           4    0.0001    0.0002    0.0001   -0.1120    0.0001   -0.0001   -0.1983    0.0000
           5    0.0004    0.0003    0.0002    0.2502    0.0000   -0.0000   -0.1610    0.0001
           6   -0.3137   -0.3371   -0.1100    0.0001   -0.0939    0.0339   -0.0002   -0.0130
           7   -0.0000    0.0000   -0.0000   -0.0266   -0.0000    0.0001   -0.2783    0.0003
           8   -0.0000   -0.0001    0.0000   -0.1090    0.0001    0.0002   -0.0033   -0.0002
           9    0.0196    0.1471    0.0937   -0.0001   -0.2039   -0.3300    0.0003    0.5723
          10   -0.0000   -0.0000    0.0000   -0.1153   -0.0000   -0.0000   -0.0666    0.0002
          11   -0.0000   -0.0003    0.0001   -0.2003    0.0002    0.0000    0.3322   -0.0001
          12   -0.0382    0.4297   -0.1081   -0.0003   -0.3082   -0.3005    0.0000   -0.1408
          13   -0.0000   -0.0001   -0.0001   -0.1040   -0.0000    0.0000    0.2018   -0.0002
          14   -0.0001   -0.0001    0.0003   -0.1831    0.0002   -0.0002    0.3126    0.0001
          15    0.0617    0.1696   -0.3585   -0.0003   -0.2865   -0.0075   -0.0002   -0.4187
          16   -0.0000   -0.0001   -0.0001   -0.1285    0.0001   -0.0000    0.3139   -0.0002
          17    0.0000    0.0001    0.0003   -0.1060   -0.0002    0.0001   -0.0812    0.0003
          18   -0.1503   -0.1546   -0.3739    0.0001    0.3977   -0.1486   -0.0001    0.0133
          19   -0.0000   -0.0000    0.0000   -0.2232   -0.0001   -0.0002   -0.0004    0.0001
          20    0.0001   -0.0002   -0.0000    0.0397   -0.0003   -0.0002    0.1802    0.0001
          21   -0.2337    0.4194    0.0082   -0.0000    0.3945    0.2299    0.0002   -0.0501
          22    0.0000   -0.0001    0.0000   -0.0054    0.0000    0.0000   -0.0854    0.0001
          23   -0.0002    0.0002   -0.0004    0.2271   -0.0002    0.0004   -0.1926    0.0003
          24    0.2091   -0.1717    0.4002    0.0002    0.1488   -0.3486   -0.0003   -0.1310
          25    0.0000   -0.0001   -0.0000    0.0656   -0.0000    0.0002   -0.1187    0.0001
          26   -0.0004   -0.0000   -0.0001    0.0157    0.0000   -0.0006   -0.0094   -0.0003
          27    0.3616    0.1142    0.0206   -0.0001   -0.1588    0.4611    0.0003    0.2008
          28    0.0001    0.0002   -0.0002    0.6302   -0.0002   -0.0002    0.1771   -0.0001
          29    0.0000   -0.0001   -0.0001    0.0033    0.0001    0.0002    0.0797   -0.0004
          30    0.4650   -0.2928   -0.0594    0.0001    0.0697    0.0937   -0.0001   -0.1058
          31    0.0882    0.0306   -0.1718   -0.0233    0.0643   -0.1619   -0.0165    0.2161
          32    0.0093    0.0305    0.0815   -0.0013   -0.0874    0.0051   -0.1641    0.0655
          33   -0.1673   -0.0485    0.2448   -0.0001   -0.0787    0.1456   -0.0009   -0.1547
          34   -0.0884   -0.0308    0.1720   -0.0231   -0.0643    0.1622   -0.0166   -0.2163
          35   -0.0092   -0.0305   -0.0818   -0.0013    0.0875   -0.0051   -0.1641   -0.0651
          36   -0.1672   -0.0485    0.2446    0.0003   -0.0785    0.1454    0.0007   -0.1545
          37   -0.0791   -0.1885   -0.0968   -0.0411   -0.1704    0.0326   -0.0524    0.1242
          38   -0.0780    0.0050   -0.0849    0.0954   -0.0297    0.1144   -0.0693    0.0657
          39   -0.1680   -0.2318   -0.1242   -0.0001   -0.1589    0.0648   -0.0019    0.1060
          40    0.0793    0.1889    0.0970   -0.0411    0.1707   -0.0327   -0.0527   -0.1244
          41    0.0785   -0.0046    0.0853    0.0954    0.0300   -0.1147   -0.0695   -0.0659
          42   -0.1677   -0.2315   -0.1239    0.0002   -0.1586    0.0645    0.0020    0.1057
          43    0.0000   -0.0000   -0.0001   -0.0599    0.0000   -0.0001    0.2114   -0.0001
          44   -0.0000    0.0001    0.0002   -0.0191   -0.0002    0.0001   -0.0846    0.0000
          45   -0.0489   -0.1289   -0.1901    0.0001    0.3347   -0.0400    0.0000    0.1492
          46   -0.0000   -0.0000   -0.0000   -0.1231   -0.0000   -0.0001    0.0956   -0.0001
          47    0.0001   -0.0001   -0.0000    0.0224   -0.0002   -0.0001    0.0350   -0.0000
          48   -0.1036    0.2072    0.0564    0.0000    0.3341    0.2002    0.0003    0.1225
          49    0.0000   -0.0001    0.0000    0.0231    0.0000    0.0000   -0.0298    0.0000
          50   -0.0002    0.0001   -0.0003    0.0969   -0.0002    0.0003   -0.0600    0.0001
          51    0.1311   -0.0885    0.2926    0.0001    0.1392   -0.2595    0.0000    0.0015
          52    0.0000   -0.0000    0.0000    0.0829    0.0000    0.0001   -0.1386    0.0002
          53   -0.0002   -0.0000   -0.0001   -0.0072    0.0000   -0.0004    0.0171   -0.0004
          54    0.2106    0.0754    0.0618   -0.0001   -0.0467    0.3322    0.0005    0.3030
          55    0.0000    0.0001   -0.0001    0.2597   -0.0001   -0.0001    0.1326   -0.0001
          56    0.0000    0.0000   -0.0001    0.1796    0.0000    0.0000    0.2089   -0.0003
          57    0.1614   -0.2230    0.0180    0.0001    0.0920    0.1566   -0.0001   -0.0457
          58    0.0000    0.0001   -0.0001    0.3103   -0.0001   -0.0001    0.1855   -0.0001
          59    0.0000   -0.0001    0.0000   -0.1357    0.0001    0.0001   -0.1186   -0.0000
          60    0.2230   -0.0624   -0.0941   -0.0001    0.0265    0.0265   -0.0001   -0.2500


   Root No.       9        10        11        12        13        14        15        16

                 9 A      10 A      11 A      12 A      13 A      14 A      15 A      16 A   

                 532.2     537.7     597.5     683.5     713.2     763.1     798.5     812.2
  
           1   -0.3254   -0.1540   -0.0000   -0.3810    0.0001    0.0004    0.1770   -0.0008
           2   -0.1143    0.0645    0.0000    0.2298    0.0000   -0.0001    0.0278    0.0000
           3    0.0000    0.0001   -0.0057    0.0002   -0.0533    0.0948   -0.0011   -0.2639
           4    0.4514    0.0830    0.0001   -0.1710    0.0000   -0.0003   -0.3593    0.0014
           5   -0.0281   -0.1404    0.0001   -0.0331    0.0001    0.0000   -0.1572    0.0008
           6    0.0002   -0.0001   -0.0486   -0.0003   -0.1320   -0.2306   -0.0008   -0.2550
           7   -0.1381   -0.2929    0.0000   -0.0718    0.0001    0.0004    0.2270   -0.0008
           8   -0.2169    0.2209   -0.0001   -0.2803    0.0000   -0.0000   -0.0986    0.0004
           9   -0.0003    0.0004   -0.0320   -0.0006   -0.2785   -0.0141    0.0004    0.0994
          10    0.0808   -0.2956    0.0000    0.0869   -0.0000   -0.0001   -0.0651    0.0003
          11    0.0835   -0.0125   -0.0001    0.0143   -0.0003    0.0001    0.0158   -0.0001
          12   -0.0004    0.0002    0.1357    0.0000    0.5304   -0.2191    0.0004    0.0699
          13   -0.2034    0.0526   -0.0002    0.1830   -0.0002   -0.0003   -0.1188    0.0003
          14    0.2058   -0.0577    0.0002    0.0266    0.0002   -0.0001    0.1849   -0.0009
          15    0.0001   -0.0001   -0.2705    0.0002   -0.2451    0.3345    0.0003    0.1708
          16   -0.1960    0.0116   -0.0002    0.0366   -0.0001   -0.0003   -0.0794    0.0001
          17    0.0033    0.0612   -0.0001    0.4848   -0.0002   -0.0006   -0.1212    0.0004
          18   -0.0001    0.0001    0.0708    0.0003    0.0675    0.0987   -0.0008   -0.1632
          19    0.2601   -0.1592    0.0001   -0.0058    0.0000   -0.0002   -0.1601    0.0007
          20   -0.1668   -0.3792   -0.0000    0.2179    0.0000   -0.0000    0.0149    0.0003
          21   -0.0001   -0.0003   -0.0573    0.0002    0.0672   -0.0091   -0.0003   -0.1037
          22    0.0439    0.4547    0.0001    0.1750    0.0001    0.0004    0.2891   -0.0009
          23    0.0985   -0.1785    0.0001   -0.1573    0.0001   -0.0002   -0.2163    0.0006
          24   -0.0001   -0.0002   -0.0437   -0.0001   -0.1157   -0.0591    0.0003    0.0964
          25   -0.0922    0.3337    0.0000    0.1703   -0.0000   -0.0000    0.0363   -0.0001
          26    0.4212    0.0879    0.0001   -0.1924    0.0003    0.0011    0.5187   -0.0019
          27    0.0005    0.0001    0.0243   -0.0003   -0.1287   -0.1867    0.0010    0.0490
          28    0.0559   -0.0776    0.0000    0.0213   -0.0000    0.0002    0.1551   -0.0006
          29   -0.2159    0.3007   -0.0001   -0.3435    0.0001   -0.0001   -0.1787    0.0007
          30    0.0000   -0.0000    0.0180    0.0000    0.0059   -0.0034    0.0000    0.0110
          31   -0.0993   -0.0514   -0.1052   -0.1251   -0.0546    0.0902    0.0702   -0.2263
          32   -0.0278   -0.0167   -0.0355    0.0891   -0.0778   -0.0452    0.0794    0.1371
          33    0.0032    0.0018    0.0773    0.0089    0.0194   -0.0463   -0.0061    0.1112
          34   -0.0992   -0.0515    0.1053   -0.1250    0.0548   -0.0900    0.0720    0.2259
[...]
 REDUCED MASS        0.4762         C  1 -- C  3          +7.8% ( 36.3%)     21.5%
 EFFECTIVE MASS      5.8430
 FORCE CONSTANT      0.5085

 VIBRATION         37   37A           ATOM PAIR      ENERGY CONTRIBUTION    RADIAL
 FREQUENCY          1372.50         C  2 -- H 14         +16.6% ( 48.7%)      7.0%
 TRANSITION DIPOLE   0.1223         C  2 -- H 13         +16.6% ( 48.7%)      7.0%
 TRAVEL (Ang.)       0.3213         C  2 -- C  7         +11.3% ( 40.1%)     49.5%
 REDUCED MASS        0.4759         C  2 -- C  8         +10.9% ( 39.4%)     63.9%
 EFFECTIVE MASS      4.4936
 FORCE CONSTANT      0.5282

 VIBRATION         38   38A           ATOM PAIR      ENERGY CONTRIBUTION    RADIAL
 FREQUENCY          1388.32         C  1 -- H 12         +15.7% ( 52.1%)      7.3%
 TRANSITION DIPOLE   0.0284         C  1 -- H 11         +15.7% ( 52.1%)      7.3%
 TRAVEL (Ang.)       0.2600         C  1 -- C  6         +14.4% ( 50.0%)     73.9%
 REDUCED MASS        0.7185         C  1 -- C  3         +11.9% ( 45.4%)     36.6%
 EFFECTIVE MASS      6.2236
 FORCE CONSTANT      0.8159

 VIBRATION         39   39A           ATOM PAIR      ENERGY CONTRIBUTION    RADIAL
 FREQUENCY          1426.54         C  2 -- C  7         +20.4% ( 70.9%)     89.6%
 TRANSITION DIPOLE   0.0554         C  2 -- C  8         +17.5% ( 65.6%)     64.0%
 TRAVEL (Ang.)       0.1279         C  2 -- H 13         +14.3% ( 59.3%)      0.2%
 REDUCED MASS        2.8914         C  2 -- H 14         +14.3% ( 59.3%)      0.2%
 EFFECTIVE MASS     10.5758
 FORCE CONSTANT      3.4668

 VIBRATION         40   40A           ATOM PAIR      ENERGY CONTRIBUTION    RADIAL
 FREQUENCY          1532.07         C  4 -- C  5         +26.4% ( 77.2%)     91.3%
 TRANSITION DIPOLE   0.1419         C  5 -- C  9         +20.5% ( 68.0%)     59.1%
 TRAVEL (Ang.)       0.1153         C  5 -- C  6         +16.1% ( 60.3%)     13.5%
 REDUCED MASS        3.3102         C  3 -- C  4          +6.8% ( 39.3%)     69.1%
 EFFECTIVE MASS     11.7326
 FORCE CONSTANT      4.5779

 VIBRATION         41   41A           ATOM PAIR      ENERGY CONTRIBUTION    RADIAL
 FREQUENCY          1828.48         C  8 -- C  9         +28.5% ( 79.2%)     99.4%
 TRANSITION DIPOLE   0.5339         C  5 -- C  6         +16.4% ( 60.1%)     98.8%
 TRAVEL (Ang.)       0.1115         C  2 -- C  8         +11.0% ( 49.1%)     54.1%
 REDUCED MASS        2.9658         C  5 -- C  9         +10.9% ( 49.0%)     16.7%
 EFFECTIVE MASS     11.9048         C  8 -- H 17         +10.1% ( 47.1%)      4.6%
 FORCE CONSTANT      5.8422

 VIBRATION         42   42A           ATOM PAIR      ENERGY CONTRIBUTION    RADIAL
 FREQUENCY          1877.94         C  5 -- C  6         +15.3% ( 58.6%)     95.2%
 TRANSITION DIPOLE   0.1362         C  5 -- C  9         +14.0% ( 56.0%)     67.8%
 TRAVEL (Ang.)       0.1429         C  3 -- C 10         +12.6% ( 53.1%)     99.9%
 REDUCED MASS        1.7571         C  8 -- C  9         +10.7% ( 49.0%)     97.8%
 EFFECTIVE MASS     11.9099
 FORCE CONSTANT      3.6511

 VIBRATION         43   43A           ATOM PAIR      ENERGY CONTRIBUTION    RADIAL
 FREQUENCY          1904.62         C  4 -- C  7         +14.4% ( 56.5%)     99.9%
 TRANSITION DIPOLE   0.4010         C  3 -- C 10         +13.9% ( 55.5%)     99.4%
 TRAVEL (Ang.)       0.1449         C  4 -- C  5         +11.1% ( 49.6%)     16.5%
 REDUCED MASS        1.6856         C  3 -- C  4         +10.7% ( 48.6%)      0.3%
 EFFECTIVE MASS     11.9220
 FORCE CONSTANT      3.6027

 VIBRATION         44   44A           ATOM PAIR      ENERGY CONTRIBUTION    RADIAL
 FREQUENCY          1931.97         C  4 -- C  7         +24.5% ( 73.5%)     98.0%
 TRANSITION DIPOLE   0.5552         C  3 -- C  4         +20.0% ( 66.3%)     99.7%
 TRAVEL (Ang.)       0.1079         C  3 -- C 10         +17.3% ( 61.7%)     98.5%
 REDUCED MASS        2.9960         C  4 -- C  5         +10.6% ( 48.3%)     34.4%
 EFFECTIVE MASS     11.9311
 FORCE CONSTANT      6.5885

 VIBRATION         45   45A           ATOM PAIR      ENERGY CONTRIBUTION    RADIAL
 FREQUENCY          2925.75         C  2 -- H 14         +49.0% ( 72.6%)     96.6%
 TRANSITION DIPOLE   0.0568         C  2 -- H 13         +48.9% ( 72.5%)     96.6%
 TRAVEL (Ang.)       0.2111         C  2 -- C  8          +1.1% ( 10.8%)      0.0%
 REDUCED MASS        0.5174         C  2 -- C  7          +1.1% ( 10.8%)      0.0%
 EFFECTIVE MASS      1.5338
 FORCE CONSTANT      2.6093

 VIBRATION         46   46A           ATOM PAIR      ENERGY CONTRIBUTION    RADIAL
 FREQUENCY          2973.62         C  1 -- H 12         +49.0% ( 72.5%)     96.7%
 TRANSITION DIPOLE   0.0669         C  1 -- H 11         +48.9% ( 72.4%)     96.7%
 TRAVEL (Ang.)       0.2093         C  1 -- C  3          +1.1% ( 10.8%)      0.0%
 REDUCED MASS        0.5178         C  1 -- C  6          +1.1% ( 10.8%)      0.0%
 EFFECTIVE MASS      1.5354
 FORCE CONSTANT      2.6975

 VIBRATION         47   47A           ATOM PAIR      ENERGY CONTRIBUTION    RADIAL
 FREQUENCY          3004.61         C  2 -- H 13         +48.8% ( 68.9%)     97.8%
 TRANSITION DIPOLE   0.1411         C  2 -- H 14         +48.7% ( 68.8%)     97.8%
 TRAVEL (Ang.)       0.2176         C  8 -- H 17          +0.7% (  8.0%)    100.0%
 REDUCED MASS        0.4738         C  2 -- C  8          +0.7% (  8.0%)     20.3%
 EFFECTIVE MASS      1.2806
 FORCE CONSTANT      2.5203

 VIBRATION         48   48A           ATOM PAIR      ENERGY CONTRIBUTION    RADIAL
 FREQUENCY          3045.53         C  1 -- H 11         +49.3% ( 69.3%)     97.5%
 TRANSITION DIPOLE   0.1525         C  1 -- H 12         +49.2% ( 69.2%)     97.4%
 TRAVEL (Ang.)       0.2140         C  1 -- C  3          +0.7% (  8.3%)     36.4%
 REDUCED MASS        0.4834         C  1 -- C  6          +0.7% (  8.3%)     33.8%
 EFFECTIVE MASS      1.2848
 FORCE CONSTANT      2.6415

 VIBRATION         49   49A           ATOM PAIR      ENERGY CONTRIBUTION    RADIAL
 FREQUENCY          3049.79         C  8 -- H 17         +69.8% ( 84.8%)    100.0%
 TRANSITION DIPOLE   0.2886         C  9 -- H 18         +26.8% ( 52.6%)    100.0%
 TRAVEL (Ang.)       0.2010         C  8 -- C  9          +1.1% ( 10.8%)      3.0%
 REDUCED MASS        0.5471         C  2 -- C  8          +1.0% (  9.9%)     20.3%
 EFFECTIVE MASS      1.4653
 FORCE CONSTANT      2.9980

 VIBRATION         50   50A           ATOM PAIR      ENERGY CONTRIBUTION    RADIAL
 FREQUENCY          3060.62         C  7 -- H 16         +95.3% ( 99.1%)    100.0%
 TRANSITION DIPOLE   0.3438         C  4 -- C  7          +1.6% ( 12.7%)     40.7%
 TRAVEL (Ang.)       0.1566         C  2 -- C  7          +1.4% ( 12.1%)     19.4%
 REDUCED MASS        0.8983         C  9 -- H 18          +1.1% ( 10.6%)    100.0%
 EFFECTIVE MASS      1.5237
 FORCE CONSTANT      4.9576

 VIBRATION         51   51A           ATOM PAIR      ENERGY CONTRIBUTION    RADIAL
 FREQUENCY          3071.15         C  9 -- H 18         +69.0% ( 84.3%)    100.0%
 TRANSITION DIPOLE   0.3003         C  8 -- H 17         +26.5% ( 52.3%)     99.8%
 TRAVEL (Ang.)       0.2003         C  8 -- C  9          +2.0% ( 14.3%)     91.8%
 REDUCED MASS        0.5474         C  5 -- C  9          +1.2% ( 10.9%)     17.7%
 EFFECTIVE MASS      1.5875
 FORCE CONSTANT      3.0420

 VIBRATION         52   52A           ATOM PAIR      ENERGY CONTRIBUTION    RADIAL
 FREQUENCY          3135.36         C  6 -- H 15         +95.9% ( 99.6%)    100.0%
 TRANSITION DIPOLE   0.4627         C  5 -- C  6          +1.8% ( 13.5%)     49.6%
 TRAVEL (Ang.)       0.1532         C  1 -- C  6          +1.6% ( 13.0%)     24.8%
 REDUCED MASS        0.9164         C 10 -- H 20          +0.6% (  7.6%)     99.3%
 EFFECTIVE MASS      1.5530
 FORCE CONSTANT      5.3079

 VIBRATION         53   53A           ATOM PAIR      ENERGY CONTRIBUTION    RADIAL
 FREQUENCY          3136.78         C 10 -- H 20         +90.6% ( 95.7%)     99.6%
 TRANSITION DIPOLE   0.2927         C 10 -- H 19          +7.2% ( 27.0%)     50.0%
 TRAVEL (Ang.)       0.1643         C  3 -- C 10          +1.5% ( 12.1%)     68.8%
 REDUCED MASS        0.7966         C  6 -- H 15          +0.7% (  8.1%)    100.0%
 EFFECTIVE MASS      1.4410
 FORCE CONSTANT      4.6180

 VIBRATION         54   54A           ATOM PAIR      ENERGY CONTRIBUTION    RADIAL
 FREQUENCY          3145.50         C 10 -- H 19         +90.2% ( 96.8%)     99.8%
 TRANSITION DIPOLE   0.2589         C 10 -- H 20          +8.4% ( 29.5%)     76.0%
 TRAVEL (Ang.)       0.1605         C  3 -- C 10          +1.4% ( 11.8%)     19.0%
 REDUCED MASS        0.8325
 EFFECTIVE MASS      1.5525
 FORCE CONSTANT      4.8529

      SYMMETRY NUMBER FOR POINT-GROUP C1  =  1


          SYSTEM IS A GROUND STATE



 InChI=1S/C10H10/c1-8-6-7-9-4-2-3-5-10(8)9/h2,4-5,7H,1,3,6H2


          MOLECULE IS NOT LINEAR

          THERE ARE 54 GENUINE VIBRATIONS IN THIS SYSTEM
          THIS THERMODYNAMICS CALCULATION IS LIMITED TO
          MOLECULES WHICH HAVE NO INTERNAL ROTATIONS




                    CALCULATED THERMODYNAMIC PROPERTIES
                                          *
   TEMP. (K)   PARTITION FUNCTION   H.O.F.    ENTHALPY  HEAT CAPACITY ENTROPY
                                   KCAL/MOL   CAL/MOLE    CAL/K/MOL  CAL/K/MOL


 298.00  VIB.     0.3833D+02                  3313.7516    26.9268    18.3659
         ROT.     0.5268D+06                   888.2803     2.9808    29.1614
         INT.     0.2019D+08                  4202.0319    29.9076    47.5273
         TRA.     0.1436D+28                  1480.4672     4.9680    40.5022
         TOT.                       54.751    5682.4991    34.8756    88.0295

 200.00  VIB.     0.7004D+01                  1254.5196    15.2953    10.1408
         ROT.     0.2897D+06                   596.1613     2.9808    27.9728
         INT.     0.2029D+07                  1850.6808    18.2761    38.1135
         TRA.     0.7896D+27                   993.6021     4.9680    38.5210
         TOT.                       51.913    2844.2830    23.2441    76.6346

 210.00  VIB.     0.8216D+01                  1413.0169    16.4087    10.9139
         ROT.     0.3116D+06                   625.9693     2.9808    28.1182
         INT.     0.2560D+07                  2038.9863    19.3895    39.0321
         TRA.     0.8496D+27                  1043.2822     4.9680    38.7634
         TOT.                       52.151    3082.2685    24.3575    77.7955

 220.00  VIB.     0.9670D+01                  1582.7774    17.5474    11.7034
         ROT.     0.3342D+06                   655.7774     2.9808    28.2569
         INT.     0.3231D+07                  2238.5548    20.5282    39.9603
         TRA.     0.9110D+27                  1092.9623     4.9680    38.9945
         TOT.                       52.400    3331.5171    25.4962    78.9548

 230.00  VIB.     0.1142D+02                  1764.0391    18.7084    12.5089
         ROT.     0.3572D+06                   685.5855     2.9808    28.3894
         INT.     0.4079D+07                  2449.6245    21.6892    40.8983
         TRA.     0.9738D+27                  1142.6424     4.9680    39.2154
         TOT.                       52.661    3592.2670    26.6572    80.1137

 240.00  VIB.     0.1353D+02                  1957.0079    19.8883    13.3300
         ROT.     0.3808D+06                   715.3935     2.9808    28.5162
         INT.     0.5150D+07                  2672.4015    22.8691    41.8463
         TRA.     0.1038D+28                  1192.3226     4.9680    39.4268
         TOT.                       52.934    3864.7240    27.8371    81.2731

 250.00  VIB.     0.1607D+02                  2161.8557    21.0836    14.1661
         ROT.     0.4048D+06                   745.2016     2.9808    28.6379
         INT.     0.6506D+07                  2907.0573    24.0644    42.8040
         TRA.     0.1103D+28                  1242.0027     4.9680    39.6296
         TOT.                       53.218    4149.0599    29.0324    82.4336

 260.00  VIB.     0.1916D+02                  2378.7189    22.2908    15.0165
         ROT.     0.4293D+06                   775.0097     2.9808    28.7548
         INT.     0.8225D+07                  3153.7285    25.2716    43.7713
         TRA.     0.1170D+28                  1291.6828     4.9680    39.8245
         TOT.                       53.514    4445.4113    30.2396    83.5958

 270.00  VIB.     0.2290D+02                  2607.6989    23.5064    15.8805
         ROT.     0.4543D+06                   804.8177     2.9808    28.8673
         INT.     0.1041D+08                  3412.5167    26.4872    44.7478
         TRA.     0.1239D+28                  1341.3629     4.9680    40.0120
         TOT.                       53.823    4753.8795    31.4552    84.7598

 280.00  VIB.     0.2746D+02                  2848.8630    24.7270    16.7574
         ROT.     0.4798D+06                   834.6258     2.9808    28.9757
         INT.     0.1317D+08                  3683.4888    27.7078    45.7332
         TRA.     0.1308D+28                  1391.0430     4.9680    40.1926
         TOT.                       54.143    5074.5318    32.6758    85.9258

 290.00  VIB.     0.3301D+02                  3102.2454    25.9495    17.6465
         ROT.     0.5057D+06                   864.4339     2.9808    29.0803
         INT.     0.1670D+08                  3966.6792    28.9303    46.7268
         TRA.     0.1379D+28                  1440.7231     4.9680    40.3670
         TOT.                       54.476    5407.4023    33.8983    87.0938

 300.00  VIB.     0.3980D+02                  3367.8493    27.1708    18.5468
         ROT.     0.5321D+06                   894.2419     2.9808    29.1814
         INT.     0.2118D+08                  4262.0912    30.1517    47.7282
         TRA.     0.1451D+28                  1490.4032     4.9680    40.5354
         TOT.                       54.821    5752.4944    35.1197    88.2636

 310.00  VIB.     0.4811D+02                  3645.6493    28.3883    19.4576
         ROT.     0.5590D+06                   924.0500     2.9808    29.2791
         INT.     0.2689D+08                  4569.6993    31.3691    48.7367
         TRA.     0.1524D+28                  1540.0833     4.9680    40.6983
         TOT.                       55.179    6109.7826    36.3371    89.4350

 320.00  VIB.     0.5830D+02                  3935.5935    29.5993    20.3780
         ROT.     0.5862D+06                   953.8580     2.9808    29.3738
         INT.     0.3418D+08                  4889.4515    32.5801    49.7518
         TRA.     0.1598D+28                  1589.7634     4.9680    40.8560
         TOT.                       55.548    6479.2149    37.5481    90.6078

 330.00  VIB.     0.7083D+02                  4237.6061    30.8016    21.3073
         ROT.     0.6139D+06                   983.6661     2.9808    29.4655
         INT.     0.4348D+08                  5221.2722    33.7824    50.7727
         TRA.     0.1674D+28                  1639.4435     4.9680    41.0089
         TOT.                       55.930    6860.7157    38.7504    91.7816

 340.00  VIB.     0.8625D+02                  4551.5901    31.9932    22.2445
         ROT.     0.6420D+06                  1013.4742     2.9808    29.5545
         INT.     0.5538D+08                  5565.0642    34.9741    51.7990
         TRA.     0.1750D+28                  1689.1236     4.9680    41.1572
         TOT.                       56.323    7254.1879    39.9421    92.9562

 350.00  VIB.     0.1053D+03                  4877.4295    33.1724    23.1890
         ROT.     0.6706D+06                  1043.2822     2.9808    29.6409
         INT.     0.7059D+08                  5920.7118    36.1532    52.8298
         TRA.     0.1828D+28                  1738.8037     4.9680    41.3012
         TOT.                       56.728    7659.5155    41.1213    94.1310

 360.00  VIB.     0.1288D+03                  5214.9922    34.3377    24.1398
         ROT.     0.6995D+06                  1073.0903     2.9808    29.7248
         INT.     0.9007D+08                  6288.0825    37.3185    53.8647
         TRA.     0.1907D+28                  1788.4838     4.9680    41.4412
         TOT.                       57.145    8076.5664    42.2865    95.3058

 370.00  VIB.     0.1578D+03                  5564.1318    35.4876    25.0964
         ROT.     0.7288D+06                  1102.8984     2.9808    29.8065
         INT.     0.1150D+09                  6667.0302    38.4684    54.9029
         TRA.     0.1987D+28                  1838.1639     4.9680    41.5773
         TOT.                       57.574    8505.1941    43.4364    96.4802

 380.00  VIB.     0.1938D+03                  5924.6901    36.6212    26.0578
         ROT.     0.7586D+06                  1132.7064     2.9808    29.8860
         INT.     0.1470D+09                  7057.3965    39.6020    55.9438
         TRA.     0.2068D+28                  1887.8440     4.9680    41.7098
         TOT.                       58.014    8945.2406    44.5700    97.6536

 390.00  VIB.     0.2385D+03                  6296.4990    37.7376    27.0236
         ROT.     0.7887D+06                  1162.5145     2.9808    29.9634
         INT.     0.1881D+09                  7459.0134    40.7184    56.9870
         TRA.     0.2150D+28                  1937.5242     4.9680    41.8388
         TOT.                       58.465    9396.5376    45.6864    98.8258

 400.00  VIB.     0.2940D+03                  6679.3823    38.8360    27.9929
         ROT.     0.8193D+06                  1192.3226     2.9808    30.0389
         INT.     0.2409D+09                  7871.7049    41.8168    58.0318
         TRA.     0.2233D+28                  1987.2043     4.9680    41.9646
         TOT.                       58.928    9858.9091    46.7848    99.9964

   *: NOTE: HEATS OF FORMATION ARE RELATIVE TO THE
            ELEMENTS IN THEIR STANDARD STATE AT 298K
              (=  Standard Enthalpy of Formation).

            Hvib:  Zero-point energy is not included.
                   frequencies of less than zero cm-1 are not included.
            Hrot = (3/2)RT
            Htra = (3/2)RT + pV = (5/2)RT

            Heat capacity is Cp, not Cv

          For more information, see: HTTP://OpenMOPAC.net/Manual/thermochemistry.html


           FORCE CONSTANT IN CARTESIAN COORDINATES (Millidynes/A)

    ATOM   CHEMICAL       X               Y               Z
   NUMBER   SYMBOL  FORCE CONSTANT  FORCE CONSTANT  FORCE CONSTANT

      1       C        9.680053        7.936901        7.868599
      2       C        8.965792        9.214150        7.609690
      3       C        8.998416       16.635844        2.603419
      4       C       16.294874       10.562557        2.355205
      5       C       16.504250       10.752491        2.337074
      6       C       13.917763       10.633868        2.276890
      7       C       14.101573       10.576926        2.327836
      8       C       14.527218       10.009127        2.375977
      9       C       14.432137       11.210131        2.210387
     10       C        9.336959       15.151124        1.929845
     11       H        2.097869        0.662686        3.539792
     12       H        2.093246        0.662122        3.544594
     13       H        1.886619        0.832453        3.428267
     14       H        1.880438        0.828720        3.437562
     15       H        1.647784        4.441616        0.330919
     16       H        0.877973        5.021720        0.344120
     17       H        3.463957        2.434213        0.344888
     18       H        0.882008        5.012789        0.345171
     19       H        4.739731        1.365357        0.326028
     20       H        3.285828        2.813988        0.331138

 **********************
 *                    *
 * JOB ENDED NORMALLY *
 *                    *
 **********************



 TOTAL JOB TIME:             1.99 SECONDS

 == MOPAC DONE ==
