 *******************************************************************************
 **                                                                           **
 **                              MOPAC v23.1.2                                **
 **                                                                           **
 *******************************************************************************
 **          Digital Object Identifier (DOI): 10.5281/zenodo.6511958          **
 **    Visit the DOI location for information on how to cite this program.    **
 *******************************************************************************

                              PM3 CALCULATION RESULTS

 *******************************************************************************
 *  CALCULATION DONE: (MAX THREADS = 1)              Tue Jun  3 16:30:14 2025  *
 *  PM3        - The PM3 Hamiltonian to be used
 *  PRECISE    - TIGHTER CRITERIA TO BE USED
 *  NOSYM      - POINT-GROUP SYMMETRY SET TO C1
 *  THREADS=1  - MULTI-THREADING NOT USED
 *  T=         - A TIME OF 172800.0 SECONDS REQUESTED
 *  DUMP=N     - RESTART FILE WRITTEN EVERY 7200.0 SECONDS REQUESTED
 *******************************************************************************
pm3  precise nosym THREADS=1
 InChI=1S/C9H10/c1-8(2)9-6-4-3-5-7-9/h3-7H,1H2,2H3

   ATOM   CHEMICAL          X               Y               Z
  NUMBER   SYMBOL      (ANGSTROMS)     (ANGSTROMS)     (ANGSTROMS)

     1       C         -2.16150000  *  -0.63380000  *  -1.17340000  *
     2       C         -1.48240000  *  -0.12950000  *   0.07130000  *
     3       C         -0.00500000  *   0.04770000  *   0.09390000  *
     4       C          0.82740000  *  -0.83230000  *  -0.62390000  *
     5       C          0.58630000  *   1.10350000  *   0.81620000  *
     6       C          2.21560000  *  -0.66540000  *  -0.61040000  *
     7       C          1.97510000  *   1.26580000  *   0.82520000  *
     8       C          2.78890000  *   0.38180000  *   0.11400000  *
     9       C         -2.21340000  *   0.06970000  *   1.17480000  *
    10       H         -3.18900000  *  -0.21940000  *  -1.26180000  *
    11       H         -2.21910000  *  -1.74200000  *  -1.14310000  *
    12       H         -1.59500000  *  -0.32300000  *  -2.07670000  *
    13       H          0.40690000  *  -1.65810000  *  -1.18360000  *
    14       H         -0.02460000  *   1.81430000  *   1.35800000  *
    15       H          2.84750000  *  -1.35020000  *  -1.16110000  *
    16       H          2.42020000  *   2.08120000  *   1.38080000  *
    17       H          3.86370000  *   0.50950000  *   0.12220000  *
    18       H         -3.28430000  *  -0.09240000  *   1.16900000  *
    19       H         -1.75720000  *   0.37270000  *   2.10840000  *



          CARTESIAN COORDINATES 

    NO.       ATOM           X           Y           Z

     1         C         -2.1615     -0.6338     -1.1734
     2         C         -1.4824     -0.1295      0.0713
     3         C         -0.0050      0.0477      0.0939
     4         C          0.8274     -0.8323     -0.6239
     5         C          0.5863      1.1035      0.8162
     6         C          2.2156     -0.6654     -0.6104
     7         C          1.9751      1.2658      0.8252
     8         C          2.7889      0.3818      0.1140
     9         C         -2.2134      0.0697      1.1748
    10         H         -3.1890     -0.2194     -1.2618
    11         H         -2.2191     -1.7420     -1.1431
    12         H         -1.5950     -0.3230     -2.0767
    13         H          0.4069     -1.6581     -1.1836
    14         H         -0.0246      1.8143      1.3580
    15         H          2.8475     -1.3502     -1.1611
    16         H          2.4202      2.0812      1.3808
    17         H          3.8637      0.5095      0.1222
    18         H         -3.2843     -0.0924      1.1690
    19         H         -1.7572      0.3727      2.1084

  H: (PM3): J. J. P. STEWART, J. COMP. CHEM. 10, 209 (1989).
  C: (PM3): J. J. P. STEWART, J. COMP. CHEM. 10, 209 (1989).

           Empirical Formula: C9 H10  =    19 atoms



      MOLECULAR POINT GROUP   :   C1  


      RHF CALCULATION, NO. OF DOUBLY OCCUPIED LEVELS = 23


          Geometry optimization using EF

          DIAGONAL MATRIX USED AS START HESSIAN

 CYCLE:     1 TIME:   0.008 TIME LEFT:  2.00D  GRAD.:    60.040 HEAT:  33.17194
 CYCLE:     2 TIME:   0.012 TIME LEFT:  2.00D  GRAD.:    37.868 HEAT:  32.36148
 CYCLE:     3 TIME:   0.008 TIME LEFT:  2.00D  GRAD.:    37.778 HEAT:  32.08069
 CYCLE:     4 TIME:   0.012 TIME LEFT:  2.00D  GRAD.:    30.488 HEAT:  31.92935
 CYCLE:     5 TIME:   0.004 TIME LEFT:  2.00D  GRAD.:    19.467 HEAT:  31.78084
 CYCLE:     6 TIME:   0.012 TIME LEFT:  2.00D  GRAD.:    25.041 HEAT:  31.75502
 CYCLE:     7 TIME:   0.004 TIME LEFT:  2.00D  GRAD.:    20.709 HEAT:  31.67001
 CYCLE:     8 TIME:   0.008 TIME LEFT:  2.00D  GRAD.:    19.316 HEAT:  31.62185
 CYCLE:     9 TIME:   0.008 TIME LEFT:  2.00D  GRAD.:    10.867 HEAT:  31.55522
 CYCLE:    10 TIME:   0.012 TIME LEFT:  2.00D  GRAD.:    12.342 HEAT:  31.53249
 CYCLE:    11 TIME:   0.004 TIME LEFT:  2.00D  GRAD.:    12.651 HEAT:  31.51612
 CYCLE:    12 TIME:   0.008 TIME LEFT:  2.00D  GRAD.:     8.082 HEAT:  31.48017
 CYCLE:    13 TIME:   0.008 TIME LEFT:  2.00D  GRAD.:     6.383 HEAT:  31.46203
 CYCLE:    14 TIME:   0.008 TIME LEFT:  2.00D  GRAD.:     6.418 HEAT:  31.43907
 CYCLE:    15 TIME:   0.008 TIME LEFT:  2.00D  GRAD.:     4.372 HEAT:  31.40745
 CYCLE:    16 TIME:   0.004 TIME LEFT:  2.00D  GRAD.:    11.834 HEAT:  31.39674
 CYCLE:    17 TIME:   0.012 TIME LEFT:  2.00D  GRAD.:    11.598 HEAT:  31.38439
 CYCLE:    18 TIME:   0.008 TIME LEFT:  2.00D  GRAD.:     9.085 HEAT:  31.37415
 CYCLE:    19 TIME:   0.004 TIME LEFT:  2.00D  GRAD.:     6.993 HEAT:  31.35373
 CYCLE:    20 TIME:   0.008 TIME LEFT:  2.00D  GRAD.:     4.182 HEAT:  31.33970
 CYCLE:    21 TIME:   0.004 TIME LEFT:  2.00D  GRAD.:     3.206 HEAT:  31.33107
 CYCLE:    22 TIME:   0.008 TIME LEFT:  2.00D  GRAD.:     3.267 HEAT:  31.32037
 CYCLE:    23 TIME:   0.008 TIME LEFT:  2.00D  GRAD.:     2.689 HEAT:  31.30798
 CYCLE:    24 TIME:   0.008 TIME LEFT:  2.00D  GRAD.:     3.192 HEAT:  31.30384
 CYCLE:    25 TIME:   0.008 TIME LEFT:  2.00D  GRAD.:     1.931 HEAT:  31.29888
 CYCLE:    26 TIME:   0.008 TIME LEFT:  2.00D  GRAD.:     2.057 HEAT:  31.29385
 CYCLE:    27 TIME:   0.004 TIME LEFT:  2.00D  GRAD.:     2.902 HEAT:  31.28106
 CYCLE:    28 TIME:   0.008 TIME LEFT:  2.00D  GRAD.:     2.674 HEAT:  31.26893
 CYCLE:    29 TIME:   0.008 TIME LEFT:  2.00D  GRAD.:     3.093 HEAT:  31.26089
 CYCLE:    30 TIME:   0.008 TIME LEFT:  2.00D  GRAD.:     3.011 HEAT:  31.25181
 CYCLE:    31 TIME:   0.008 TIME LEFT:  2.00D  GRAD.:     3.039 HEAT:  31.24028
 CYCLE:    32 TIME:   0.004 TIME LEFT:  2.00D  GRAD.:     2.157 HEAT:  31.22594
 CYCLE:    33 TIME:   0.008 TIME LEFT:  2.00D  GRAD.:     1.979 HEAT:  31.21849
 CYCLE:    34 TIME:   0.008 TIME LEFT:  2.00D  GRAD.:     2.072 HEAT:  31.20923
 CYCLE:    35 TIME:   0.020 TIME LEFT:  2.00D  GRAD.:     2.181 HEAT:  31.20109
 CYCLE:    36 TIME:   0.008 TIME LEFT:  2.00D  GRAD.:     2.262 HEAT:  31.19310
 CYCLE:    37 TIME:   0.008 TIME LEFT:  2.00D  GRAD.:     2.483 HEAT:  31.18439
 CYCLE:    38 TIME:   0.004 TIME LEFT:  2.00D  GRAD.:     2.177 HEAT:  31.17545
 CYCLE:    39 TIME:   0.008 TIME LEFT:  2.00D  GRAD.:     1.597 HEAT:  31.17064
 CYCLE:    40 TIME:   0.008 TIME LEFT:  2.00D  GRAD.:     1.375 HEAT:  31.16779
 CYCLE:    41 TIME:   0.008 TIME LEFT:  2.00D  GRAD.:     1.335 HEAT:  31.16462
 CYCLE:    42 TIME:   0.008 TIME LEFT:  2.00D  GRAD.:     2.403 HEAT:  31.15488
 CYCLE:    43 TIME:   0.004 TIME LEFT:  2.00D  GRAD.:     3.221 HEAT:  31.14544
 CYCLE:    44 TIME:   0.008 TIME LEFT:  2.00D  GRAD.:     3.011 HEAT:  31.13246
 CYCLE:    45 TIME:   0.008 TIME LEFT:  2.00D  GRAD.:     2.335 HEAT:  31.12087
 CYCLE:    46 TIME:   0.008 TIME LEFT:  2.00D  GRAD.:     3.283 HEAT:  31.09535
 CYCLE:    47 TIME:   0.004 TIME LEFT:  2.00D  GRAD.:     4.532 HEAT:  31.06003
 CYCLE:    48 TIME:   0.008 TIME LEFT:  2.00D  GRAD.:     6.228 HEAT:  31.03745
 CYCLE:    49 TIME:   0.016 TIME LEFT:  2.00D  GRAD.:     3.837 HEAT:  31.01642
 CYCLE:    50 TIME:   0.008 TIME LEFT:  2.00D  GRAD.:     1.620 HEAT:  30.99738
 CYCLE:    51 TIME:   0.012 TIME LEFT:  2.00D  GRAD.:     2.023 HEAT:  30.98853
 CYCLE:    52 TIME:   0.004 TIME LEFT:  2.00D  GRAD.:     3.811 HEAT:  30.98516
 CYCLE:    53 TIME:   0.008 TIME LEFT:  2.00D  GRAD.:     1.822 HEAT:  30.97986
 CYCLE:    54 TIME:   0.004 TIME LEFT:  2.00D  GRAD.:     1.429 HEAT:  30.97511
 CYCLE:    55 TIME:   0.008 TIME LEFT:  2.00D  GRAD.:     2.347 HEAT:  30.96628
 CYCLE:    56 TIME:   0.012 TIME LEFT:  2.00D  GRAD.:     1.783 HEAT:  30.96035
 CYCLE:    57 TIME:   0.008 TIME LEFT:  2.00D  GRAD.:     2.257 HEAT:  30.94873
 CYCLE:    58 TIME:   0.004 TIME LEFT:  2.00D  GRAD.:     1.333 HEAT:  30.94031
 CYCLE:    59 TIME:   0.008 TIME LEFT:  2.00D  GRAD.:     4.385 HEAT:  30.94367
 CYCLE:    60 TIME:   0.004 TIME LEFT:  2.00D  GRAD.:     1.089 HEAT:  30.93424
 CYCLE:    61 TIME:   0.008 TIME LEFT:  2.00D  GRAD.:     0.922 HEAT:  30.93172
 CYCLE:    62 TIME:   0.008 TIME LEFT:  2.00D  GRAD.:     3.645 HEAT:  30.93059
 CYCLE:    63 TIME:   0.004 TIME LEFT:  2.00D  GRAD.:     0.997 HEAT:  30.92468
 CYCLE:    64 TIME:   0.008 TIME LEFT:  2.00D  GRAD.:     0.896 HEAT:  30.92285
 CYCLE:    65 TIME:   0.008 TIME LEFT:  2.00D  GRAD.:     5.192 HEAT:  30.93266
 CYCLE:    66 TIME:   0.004 TIME LEFT:  2.00D  GRAD.:     0.636 HEAT:  30.91868
 CYCLE:    67 TIME:   0.004 TIME LEFT:  2.00D  GRAD.:     0.591 HEAT:  30.91757
 CYCLE:    68 TIME:   0.012 TIME LEFT:  2.00D  GRAD.:     2.236 HEAT:  30.91738
 CYCLE:    69 TIME:   0.008 TIME LEFT:  2.00D  GRAD.:     0.594 HEAT:  30.91516
 CYCLE:    70 TIME:   0.004 TIME LEFT:  2.00D  GRAD.:     0.432 HEAT:  30.91487
 CYCLE:    71 TIME:   0.008 TIME LEFT:  2.00D  GRAD.:     0.824 HEAT:  30.91416
 CYCLE:    72 TIME:   0.008 TIME LEFT:  2.00D  GRAD.:     0.486 HEAT:  30.91352
 CYCLE:    73 TIME:   0.004 TIME LEFT:  2.00D  GRAD.:     0.465 HEAT:  30.91258
 CYCLE:    74 TIME:   0.008 TIME LEFT:  2.00D  GRAD.:     0.764 HEAT:  30.91195
 CYCLE:    75 TIME:   0.008 TIME LEFT:  2.00D  GRAD.:     1.383 HEAT:  30.91157
 CYCLE:    76 TIME:   0.008 TIME LEFT:  2.00D  GRAD.:     0.899 HEAT:  30.91070
 CYCLE:    77 TIME:   0.004 TIME LEFT:  2.00D  GRAD.:     0.337 HEAT:  30.90997
 CYCLE:    78 TIME:   0.008 TIME LEFT:  2.00D  GRAD.:     0.705 HEAT:  30.90964
 CYCLE:    79 TIME:   0.008 TIME LEFT:  2.00D  GRAD.:     0.530 HEAT:  30.90920
 CYCLE:    80 TIME:   0.008 TIME LEFT:  2.00D  GRAD.:     0.304 HEAT:  30.90881
 CYCLE:    81 TIME:   0.004 TIME LEFT:  2.00D  GRAD.:     0.196 HEAT:  30.90867
 CYCLE:    82 TIME:   0.008 TIME LEFT:  2.00D  GRAD.:     0.522 HEAT:  30.90889
 CYCLE:    83 TIME:   0.008 TIME LEFT:  2.00D  GRAD.:     0.154 HEAT:  30.90856
 CYCLE:    84 TIME:   0.008 TIME LEFT:  2.00D  GRAD.:     0.195 HEAT:  30.90859
 CYCLE:    85 TIME:   0.004 TIME LEFT:  2.00D  GRAD.:     0.185 HEAT:  30.90855
 CYCLE:    86 TIME:   0.008 TIME LEFT:  2.00D  GRAD.:     2.094 HEAT:  30.91222
 CYCLE:    87 TIME:   0.008 TIME LEFT:  2.00D  GRAD.:     0.157 HEAT:  30.90845
 CYCLE:    88 TIME:   0.008 TIME LEFT:  2.00D  GRAD.:     0.118 HEAT:  30.90843
 CYCLE:    89 TIME:   0.004 TIME LEFT:  2.00D  GRAD.:     0.086 HEAT:  30.90839
 CYCLE:    90 TIME:   0.008 TIME LEFT:  2.00D  GRAD.:     0.110 HEAT:  30.90835
 CYCLE:    91 TIME:   0.004 TIME LEFT:  2.00D  GRAD.:     0.095 HEAT:  30.90833
 CYCLE:    92 TIME:   0.008 TIME LEFT:  2.00D  GRAD.:     0.076 HEAT:  30.90830
 CYCLE:    93 TIME:   0.008 TIME LEFT:  2.00D  GRAD.:     0.180 HEAT:  30.90827
 CYCLE:    94 TIME:   0.008 TIME LEFT:  2.00D  GRAD.:     0.143 HEAT:  30.90824
 CYCLE:    95 TIME:   0.004 TIME LEFT:  2.00D  GRAD.:     0.313 HEAT:  30.90806
 CYCLE:    96 TIME:   0.008 TIME LEFT:  2.00D  GRAD.:     0.612 HEAT:  30.90790
 CYCLE:    97 TIME:   0.008 TIME LEFT:  2.00D  GRAD.:     0.637 HEAT:  30.90766
 CYCLE:    98 TIME:   0.008 TIME LEFT:  2.00D  GRAD.:     0.450 HEAT:  30.90712
 CYCLE:    99 TIME:   0.008 TIME LEFT:  2.00D  GRAD.:     0.215 HEAT:  30.90701
 CYCLE:   100 TIME:   0.008 TIME LEFT:  2.00D  GRAD.:     0.547 HEAT:  30.90707
 CYCLE:   101 TIME:   0.008 TIME LEFT:  2.00D  GRAD.:     0.117 HEAT:  30.90693
 CYCLE:   102 TIME:   0.004 TIME LEFT:  2.00D  GRAD.:     0.078 HEAT:  30.90693
 CYCLE:   103 TIME:   0.008 TIME LEFT:  2.00D  GRAD.:     0.079 HEAT:  30.90693
 CYCLE:   104 TIME:   0.008 TIME LEFT:  2.00D  GRAD.:     0.134 HEAT:  30.90693
 CYCLE:   105 TIME:   0.008 TIME LEFT:  2.00D  GRAD.:     0.046 HEAT:  30.90691

     GRADIENT =  0.04649 IS LESS THAN CUTOFF =  0.05000



 -------------------------------------------------------------------------------
 pm3  precise nosym THREADS=1
 InChI=1S/C9H10/c1-8(2)9-6-4-3-5-7-9/h3-7H,1H2,2H3



     GEOMETRY OPTIMISED USING EIGENVECTOR FOLLOWING (EF).     
     SCF FIELD WAS ACHIEVED                                   


                              PM3 CALCULATION
                                                       MOPAC v23.1.2 MacOS
                                                       Tue Jun  3 16:30:15 2025




          FINAL HEAT OF FORMATION =         30.90691 KCAL/MOL =     129.31453 KJ/MOL


          COSMO AREA              =        168.74 SQUARE ANGSTROMS
          COSMO VOLUME            =        167.22 CUBIC ANGSTROMS

          GRADIENT NORM           =          0.04649          =       0.01067 PER ATOM
          IONIZATION POTENTIAL    =          9.378359 EV
          HOMO LUMO ENERGIES (EV) =         -9.378  0.194
          NO. OF FILLED LEVELS    =         23
          MOLECULAR WEIGHT        =        118.1780         POINT GROUP:  C1  

          MOLECULAR DIMENSIONS (Angstroms)

            Atom       Atom       Distance
            H    18    H    17     7.22465
            H    16    H    11     4.59770
            H    15    H    12     3.12983


          SCF CALCULATIONS        =        116

          WALL-CLOCK TIME         =      0.785 SECONDS
          COMPUTATION TIME        =      0.437 SECONDS




   ATOM   CHEMICAL          X               Y               Z
  NUMBER   SYMBOL      (ANGSTROMS)     (ANGSTROMS)     (ANGSTROMS)

     1       C         -2.11907924  *  -0.33686218  *  -1.22567626  *
     2       C         -1.46991350  *  -0.16352098  *   0.10074105  *
     3       C         -0.00874828  *   0.01702690  *   0.09707581  *
     4       C          0.82337792  *  -0.96835219  *  -0.43828092  *
     5       C          0.55155745  *   1.17689477  *   0.63685778  *
     6       C          2.20226745  *  -0.79117862  *  -0.43438523  *
     7       C          1.93085966  *   1.35032212  *   0.63339169  *
     8       C          2.75719523  *   0.36764207  *   0.09848278  *
     9       C         -2.16241846  *  -0.16196722  *   1.24095958  *
    10       H         -3.20360809  *  -0.48558031  *  -1.14146617  *
    11       H         -1.70322380  *  -1.20510203  *  -1.75582791  *
    12       H         -1.95073936  *   0.54686391  *  -1.85561247  *
    13       H          0.38848349  *  -1.88223220  *  -0.85845969  *
    14       H         -0.10077325  *   1.94635123  *   1.06437078  *
    15       H          2.85223112  *  -1.56687888  *  -0.85214350  *
    16       H          2.36641282  *   2.26245160  *   1.05404556  *
    17       H          3.84316701  *   0.50559500  *   0.09779015  *
    18       H         -3.23993054  *  -0.29552349  *   1.27401750  *
    19       H         -1.69350443  *  -0.02774159  *   2.21128236  *

                             CARTESIAN COORDINATES

   1    C       -2.119079244    -0.336862179    -1.225676255
   2    C       -1.469913499    -0.163520979     0.100741052
   3    C       -0.008748275     0.017026898     0.097075812
   4    C        0.823377920    -0.968352189    -0.438280918
   5    C        0.551557446     1.176894770     0.636857780
   6    C        2.202267451    -0.791178616    -0.434385226
   7    C        1.930859661     1.350322123     0.633391690
   8    C        2.757195229     0.367642073     0.098482781
   9    C       -2.162418456    -0.161967222     1.240959584
  10    H       -3.203608090    -0.485580308    -1.141466172
  11    H       -1.703223797    -1.205102029    -1.755827906
  12    H       -1.950739360     0.546863907    -1.855612469
  13    H        0.388483492    -1.882232199    -0.858459695
  14    H       -0.100773252     1.946351230     1.064370779
  15    H        2.852231123    -1.566878880    -0.852143499
  16    H        2.366412822     2.262451604     1.054045563
  17    H        3.843167005     0.505595004     0.097790151
  18    H       -3.239930538    -0.295523491     1.274017503
  19    H       -1.693504430    -0.027741585     2.211282361


           Empirical Formula: C9 H10  =    19 atoms



      MOLECULAR POINT GROUP   :   C1  


                  EIGENVALUES  
 -40.31549 -35.30410 -29.73503 -28.41396 -26.84115 -21.93494 -21.45481 -19.23402
 -17.65315 -16.51912 -15.84379 -15.30583 -14.92793 -14.68219 -14.07240 -13.31268
 -13.09044 -12.84228 -12.37729 -12.19855 -10.29498  -9.75670  -9.37836   0.19416
   0.40566   1.17283   2.82782   3.04453   3.35118   3.50064   3.54259   3.68316
   3.89871   4.00862   4.03688   4.34160   4.41233   4.47835   4.94465   5.03726
   5.04910   5.25178   5.61775   5.82308   6.22827   6.34481


              NET ATOMIC CHARGES AND DIPOLE CONTRIBUTIONS

  ATOM NO.   TYPE          CHARGE      No. of ELECS.   s-Pop       p-Pop       
    1          C          -0.068172        4.0682     1.12526     2.94291
    2          C          -0.070862        4.0709     1.18072     2.89015
    3          C          -0.040574        4.0406     1.16739     2.87319
    4          C          -0.093033        4.0930     1.17759     2.91544
    5          C          -0.093128        4.0931     1.17867     2.91446
    6          C          -0.101873        4.1019     1.17895     2.92293
    7          C          -0.101808        4.1018     1.17899     2.92282
    8          C          -0.103286        4.1033     1.17931     2.92398
    9          C          -0.161479        4.1615     1.18202     2.97946
   10          H           0.043296        0.9567     0.95670
   11          H           0.047287        0.9527     0.95271
   12          H           0.049129        0.9509     0.95087
   13          H           0.107565        0.8924     0.89244
   14          H           0.108163        0.8918     0.89184
   15          H           0.102474        0.8975     0.89753
   16          H           0.102626        0.8974     0.89737
   17          H           0.102566        0.8974     0.89743
   18          H           0.084483        0.9155     0.91552
   19          H           0.086626        0.9134     0.91337
 DIPOLE           X         Y         Z       TOTAL
 POINT-CHG.    -0.052    -0.006    -0.229     0.235
 HYBRID         0.012    -0.005     0.010     0.017
 SUM           -0.040    -0.011    -0.218     0.222


          ATOMIC ORBITAL ELECTRON POPULATIONS

     Atom    s        px        py        pz   
    1  C   1.12526   0.99013   1.00871   0.94406
    2  C   1.18072   0.92950   0.99943   0.96121
    3  C   1.16739   0.92950   0.95635   0.98733
    4  C   1.17759   0.94249   0.97888   0.99408
    5  C   1.17867   0.95396   0.96870   0.99180
    6  C   1.17895   0.95388   0.97326   0.99579
    7  C   1.17899   0.94595   0.98141   0.99546
    8  C   1.17931   0.98177   0.95263   0.98958
    9  C   1.18202   0.99377   1.01844   0.96725
   10  H   0.95670
   11  H   0.95271
   12  H   0.95087
   13  H   0.89244
   14  H   0.89184
   15  H   0.89753
   16  H   0.89737
   17  H   0.89743
   18  H   0.91552
   19  H   0.91337
 *******************************************************************************
 **                                                                           **
 **                              MOPAC v23.1.2                                **
 **                                                                           **
 *******************************************************************************
 **          Digital Object Identifier (DOI): 10.5281/zenodo.6511958          **
 **    Visit the DOI location for information on how to cite this program.    **
 *******************************************************************************

                              PM3 CALCULATION RESULTS

 *******************************************************************************
 *  CALCULATION DONE: (MAX THREADS = 1)              Tue Jun  3 16:30:15 2025  *
 *  PM3        - The PM3 Hamiltonian to be used
 *  OLDGEO     - PREVIOUS GEOMETRY TO BE USED
 *  PRECISE    - TIGHTER CRITERIA TO BE USED
 *  NOSYM      - POINT-GROUP SYMMETRY SET TO C1
 *  THREADS=1  - MULTI-THREADING NOT USED
 *  T=         - A TIME OF 172800.0 SECONDS REQUESTED
 *  DUMP=N     - RESTART FILE WRITTEN EVERY 7200.0 SECONDS REQUESTED
 *  THERMO     - THERMODYNAMIC QUANTITIES TO BE CALCULATED
 *******************************************************************************
oldgeo thermo nosym precise THREADS=1  pm3
 InChI=1S/C9H10/c1-8(2)9-6-4-3-5-7-9/h3-7H,1H2,2H3

   ATOM   CHEMICAL          X               Y               Z
  NUMBER   SYMBOL      (ANGSTROMS)     (ANGSTROMS)     (ANGSTROMS)

     1       C         -2.11907924  *  -0.33686218  *  -1.22567626  *
     2       C         -1.46991350  *  -0.16352098  *   0.10074105  *
     3       C         -0.00874828  *   0.01702690  *   0.09707581  *
     4       C          0.82337792  *  -0.96835219  *  -0.43828092  *
     5       C          0.55155745  *   1.17689477  *   0.63685778  *
     6       C          2.20226745  *  -0.79117862  *  -0.43438523  *
     7       C          1.93085966  *   1.35032212  *   0.63339169  *
     8       C          2.75719523  *   0.36764207  *   0.09848278  *
     9       C         -2.16241846  *  -0.16196722  *   1.24095958  *
    10       H         -3.20360809  *  -0.48558031  *  -1.14146617  *
    11       H         -1.70322380  *  -1.20510203  *  -1.75582791  *
    12       H         -1.95073936  *   0.54686391  *  -1.85561247  *
    13       H          0.38848349  *  -1.88223220  *  -0.85845969  *
    14       H         -0.10077325  *   1.94635123  *   1.06437078  *
    15       H          2.85223112  *  -1.56687888  *  -0.85214350  *
    16       H          2.36641282  *   2.26245160  *   1.05404556  *
    17       H          3.84316701  *   0.50559500  *   0.09779015  *
    18       H         -3.23993054  *  -0.29552349  *   1.27401750  *
    19       H         -1.69350443  *  -0.02774159  *   2.21128236  *



          CARTESIAN COORDINATES 

    NO.       ATOM           X           Y           Z

     1         C         -2.1191     -0.3369     -1.2257
     2         C         -1.4699     -0.1635      0.1007
     3         C         -0.0087      0.0170      0.0971
     4         C          0.8234     -0.9684     -0.4383
     5         C          0.5516      1.1769      0.6369
     6         C          2.2023     -0.7912     -0.4344
     7         C          1.9309      1.3503      0.6334
     8         C          2.7572      0.3676      0.0985
     9         C         -2.1624     -0.1620      1.2410
    10         H         -3.2036     -0.4856     -1.1415
    11         H         -1.7032     -1.2051     -1.7558
    12         H         -1.9507      0.5469     -1.8556
    13         H          0.3885     -1.8822     -0.8585
    14         H         -0.1008      1.9464      1.0644
    15         H          2.8522     -1.5669     -0.8521
    16         H          2.3664      2.2625      1.0540
    17         H          3.8432      0.5056      0.0978
    18         H         -3.2399     -0.2955      1.2740
    19         H         -1.6935     -0.0277      2.2113

  H: (PM3): J. J. P. STEWART, J. COMP. CHEM. 10, 209 (1989).
  C: (PM3): J. J. P. STEWART, J. COMP. CHEM. 10, 209 (1989).

           Empirical Formula: C9 H10  =    19 atoms



      MOLECULAR POINT GROUP   :   C1  


      RHF CALCULATION, NO. OF DOUBLY OCCUPIED LEVELS = 23



          HEAT OF FORMATION =      30.906914 KCALS/MOLE


          CARTESIAN COORDINATE DERIVATIVES

   NUMBER  ATOM         X            Y            Z

     1       C      0.016718     0.002685     0.013153
     2       C      0.004589    -0.010952    -0.002527
     3       C     -0.000984    -0.000486     0.000387
     4       C     -0.003886    -0.000579     0.001686
     5       C      0.001144    -0.000336     0.001041
     6       C      0.000137     0.002006     0.003104
     7       C      0.000018    -0.003713    -0.001519
     8       C     -0.002740     0.001066    -0.005211
     9       C     -0.007014     0.002535     0.000569
    10       H     -0.001880    -0.006650     0.006903
    11       H      0.002082     0.014643    -0.026619
    12       H     -0.005979     0.000723     0.006158
    13       H     -0.002367    -0.001348     0.003337
    14       H      0.003400     0.006035     0.003835
    15       H     -0.000815    -0.001149    -0.001029
    16       H     -0.002620    -0.001095     0.000643
    17       H      0.000683    -0.001015     0.001038
    18       H     -0.000648    -0.003152    -0.004003
    19       H      0.000161     0.000782    -0.000946



          GRADIENT NORM =   0.04439

          MOLECULAR WEIGHT =  118.18



          ROTATIONAL CONSTANTS IN CM(-1)

          A =    0.11911500   B =    0.03898290   C =    0.03303993



           PRINCIPAL MOMENTS OF INERTIA IN UNITS OF 10**(-40)*GRAM-CM**2

          A =      235.0061   B =      718.0777   C =      847.2400


          ORIENTATION OF MOLECULE IN FORCE CALCULATION

    NO.       ATOM         X         Y         Z

     1          C      -2.2240   -1.5509   -0.0032
     2          C      -0.7371   -1.5509   -0.0032
     3          C      -0.0814   -0.2327   -0.0032
     4          C      -0.3106    0.6702   -1.0436
     5          C       0.7800    0.1173    1.0390
     6          C       0.3156    1.9114   -1.0373
     7          C       1.3993    1.3619    1.0419
     8          C       1.1683    2.2596    0.0050
     9          C      -0.0221   -2.6771    0.0040
    10          H      -2.6397   -2.5668   -0.0234
    11          H      -2.6166   -1.0121   -0.8769
    12          H      -2.6094   -1.0498    0.8948
    13          H      -0.9818    0.3980   -1.8659
    14          H       0.9662   -0.5943    1.8510
    15          H       0.1362    2.6160   -1.8559
    16          H       2.0710    1.6343    1.8624
    17          H       1.6579    3.2387    0.0085
    18          H      -0.4786   -3.6628    0.0015
    19          H       1.0638   -2.6818    0.0121


    FIRST DERIVATIVES WILL BE USED IN THE CALCULATION OF SECOND DERIVATIVES

          ESTIMATED TIME TO COMPLETE CALCULATION =        0.89 SECONDS

    FOR POINT-GROUP C1   THERE ARE   1 UNIQUE SYMMETRY FUNCTIONS.

 STEP:   1 TIME =     0.02 SECS, INTEGRAL =      0.02 TIME LEFT: 172799.98
 STEP:   2 TIME =     0.02 SECS, INTEGRAL =      0.03 TIME LEFT: 172799.96
 STEP:   3 TIME =     0.02 SECS, INTEGRAL =      0.05 TIME LEFT: 172799.95
 STEP:   4 TIME =     0.02 SECS, INTEGRAL =      0.07 TIME LEFT: 172799.93
 STEP:   5 TIME =     0.02 SECS, INTEGRAL =      0.08 TIME LEFT: 172799.91
 STEP:   6 TIME =     0.02 SECS, INTEGRAL =      0.10 TIME LEFT: 172799.90
 STEP:   7 TIME =     0.02 SECS, INTEGRAL =      0.12 TIME LEFT: 172799.88
 STEP:   8 TIME =     0.02 SECS, INTEGRAL =      0.13 TIME LEFT: 172799.86
 STEP:   9 TIME =     0.02 SECS, INTEGRAL =      0.15 TIME LEFT: 172799.84
 STEP:  10 TIME =     0.02 SECS, INTEGRAL =      0.17 TIME LEFT: 172799.83
 STEP:  11 TIME =     0.02 SECS, INTEGRAL =      0.19 TIME LEFT: 172799.81
 STEP:  12 TIME =     0.02 SECS, INTEGRAL =      0.21 TIME LEFT: 172799.79
 STEP:  13 TIME =     0.02 SECS, INTEGRAL =      0.23 TIME LEFT: 172799.77
 STEP:  14 TIME =     0.02 SECS, INTEGRAL =      0.25 TIME LEFT: 172799.75
 STEP:  15 TIME =     0.02 SECS, INTEGRAL =      0.27 TIME LEFT: 172799.73
 STEP:  16 TIME =     0.02 SECS, INTEGRAL =      0.29 TIME LEFT: 172799.71
 STEP:  17 TIME =     0.02 SECS, INTEGRAL =      0.31 TIME LEFT: 172799.69
 STEP:  18 TIME =     0.02 SECS, INTEGRAL =      0.33 TIME LEFT: 172799.67
 STEP:  19 TIME =     0.02 SECS, INTEGRAL =      0.35 TIME LEFT: 172799.65
 STEP:  20 TIME =     0.02 SECS, INTEGRAL =      0.37 TIME LEFT: 172799.63
 STEP:  21 TIME =     0.02 SECS, INTEGRAL =      0.39 TIME LEFT: 172799.61
 STEP:  22 TIME =     0.02 SECS, INTEGRAL =      0.41 TIME LEFT: 172799.59
 STEP:  23 TIME =     0.02 SECS, INTEGRAL =      0.43 TIME LEFT: 172799.57
 STEP:  24 TIME =     0.02 SECS, INTEGRAL =      0.45 TIME LEFT: 172799.55
 STEP:  25 TIME =     0.02 SECS, INTEGRAL =      0.47 TIME LEFT: 172799.53
 STEP:  26 TIME =     0.02 SECS, INTEGRAL =      0.48 TIME LEFT: 172799.51
 STEP:  27 TIME =     0.02 SECS, INTEGRAL =      0.50 TIME LEFT: 172799.49
 STEP:  28 TIME =     0.02 SECS, INTEGRAL =      0.52 TIME LEFT: 172799.47
 STEP:  29 TIME =     0.02 SECS, INTEGRAL =      0.54 TIME LEFT: 172799.45
 STEP:  30 TIME =     0.02 SECS, INTEGRAL =      0.56 TIME LEFT: 172799.43
 STEP:  31 TIME =     0.02 SECS, INTEGRAL =      0.58 TIME LEFT: 172799.41
 STEP:  32 TIME =     0.02 SECS, INTEGRAL =      0.60 TIME LEFT: 172799.39
 STEP:  33 TIME =     0.02 SECS, INTEGRAL =      0.62 TIME LEFT: 172799.38
 STEP:  34 TIME =     0.02 SECS, INTEGRAL =      0.64 TIME LEFT: 172799.36
 STEP:  35 TIME =     0.02 SECS, INTEGRAL =      0.65 TIME LEFT: 172799.34
 STEP:  36 TIME =     0.02 SECS, INTEGRAL =      0.67 TIME LEFT: 172799.33
 STEP:  37 TIME =     0.02 SECS, INTEGRAL =      0.69 TIME LEFT: 172799.31
 STEP:  38 TIME =     0.02 SECS, INTEGRAL =      0.70 TIME LEFT: 172799.29
 STEP:  39 TIME =     0.02 SECS, INTEGRAL =      0.72 TIME LEFT: 172799.28
 STEP:  40 TIME =     0.02 SECS, INTEGRAL =      0.73 TIME LEFT: 172799.26
 STEP:  41 TIME =     0.02 SECS, INTEGRAL =      0.75 TIME LEFT: 172799.24
 STEP:  42 TIME =     0.02 SECS, INTEGRAL =      0.77 TIME LEFT: 172799.22
 STEP:  43 TIME =     0.02 SECS, INTEGRAL =      0.79 TIME LEFT: 172799.20
 STEP:  44 TIME =     0.02 SECS, INTEGRAL =      0.81 TIME LEFT: 172799.18
 STEP:  45 TIME =     0.02 SECS, INTEGRAL =      0.83 TIME LEFT: 172799.16
 STEP:  46 TIME =     0.02 SECS, INTEGRAL =      0.85 TIME LEFT: 172799.14
 STEP:  47 TIME =     0.02 SECS, INTEGRAL =      0.87 TIME LEFT: 172799.12
 STEP:  48 TIME =     0.02 SECS, INTEGRAL =      0.89 TIME LEFT: 172799.11
 STEP:  49 TIME =     0.02 SECS, INTEGRAL =      0.91 TIME LEFT: 172799.09
 STEP:  50 TIME =     0.02 SECS, INTEGRAL =      0.93 TIME LEFT: 172799.07
 STEP:  51 TIME =     0.02 SECS, INTEGRAL =      0.95 TIME LEFT: 172799.05
 STEP:  52 TIME =     0.02 SECS, INTEGRAL =      0.97 TIME LEFT: 172799.03
 STEP:  53 TIME =     0.02 SECS, INTEGRAL =      0.98 TIME LEFT: 172799.01
 STEP:  54 TIME =     0.02 SECS, INTEGRAL =      1.00 TIME LEFT: 172798.99
 STEP:  55 TIME =     0.02 SECS, INTEGRAL =      1.02 TIME LEFT: 172798.98
 STEP:  56 TIME =     0.02 SECS, INTEGRAL =      1.04 TIME LEFT: 172798.96
 STEP:  57 TIME =     0.02 SECS, INTEGRAL =      1.06 TIME LEFT: 172798.94

(To convert to Hartree/Bohr^2, multiply by (10^(-21) x N x a0^2)/(4.184 x 627.51) =  0.0642)


           FORCE MATRIX IN MILLIDYNES/ANGSTROM


                  C  1       C  2       C  3       C  4       C  5       C  6
 ------------------------------------------------------------------------------
     C    1  14.678055
     C    2   4.970610  18.664796
     C    3   0.628512   5.216212  17.955337
     C    4   0.057437   0.747490   6.739175  17.292195
     C    5   0.029808   0.756629   6.713034   2.431322  17.311384
     C    6   0.009326   0.101060   2.472295   7.016729   1.844772  17.274744
     C    7   0.012582   0.101119   2.480926   1.857512   7.018916   2.530777
     C    8   0.003977   0.015002   1.846805   2.525536   2.515550   6.992479
     C    9   0.834064  10.645096   0.889830   0.044072   0.060324   0.015448
     H   10   4.736258   0.472610   0.045388   0.002419   0.005206   0.001358
     H   11   4.683588   0.454378   0.020392   0.015696   0.002158   0.000859
     H   12   4.717261   0.446911   0.015186   0.002311   0.001484   0.000620
     H   13   0.015251   0.043723   0.451455   4.830275   0.084428   0.437277
     H   14   0.004588   0.046956   0.450243   0.083743   4.842047   0.010822
     H   15   0.000803   0.008039   0.091583   0.437705   0.011047   4.862134
     H   16   0.001047   0.008378   0.091897   0.011020   0.437761   0.089926
     H   17   0.001054   0.009541   0.008625   0.089222   0.089416   0.439998
     H   18   0.090360   0.471528   0.129270   0.017027   0.014757   0.004718
     H   19   0.131335   0.477816   0.093958   0.012438   0.015475   0.003587


                  C  7       C  8       C  9       H 10       H 11       H 12
 ------------------------------------------------------------------------------
     C    7  17.269343
     C    8   7.017523  17.262245
     C    9   0.012082   0.003881  18.019821
     H   10   0.002089   0.000369   0.047409   5.454790
     H   11   0.000732   0.000646   0.035848   0.559630   5.403821
     H   12   0.000593   0.000127   0.035001   0.560421   0.572912   5.430176
     H   13   0.010868   0.090555   0.005447   0.001723   0.022647   0.000883
     H   14   0.436406   0.090284   0.010901   0.000925   0.000584   0.000611
     H   15   0.089692   0.439498   0.001382   0.000163   0.000306   0.000188
     H   16   4.862998   0.439462   0.001002   0.000232   0.000171   0.000200
     H   17   0.439669   4.866710   0.001375   0.000213   0.000198   0.000183
     H   18   0.004230   0.001423   5.085916   0.029518   0.011280   0.011454
     H   19   0.004287   0.000997   5.102318   0.002557   0.017896   0.017892


                  H 13       H 14       H 15       H 16       H 17       H 18
 ------------------------------------------------------------------------------
     H   13   5.201479
     H   14   0.006969   5.211135
     H   15   0.042158   0.007971   5.227396
     H   16   0.008109   0.041872   0.007063   5.228129
     H   17   0.007021   0.006895   0.041287   0.041355   5.233252
     H   18   0.002077   0.001982   0.000657   0.000396   0.000493   5.473957
     H   19   0.000991   0.004126   0.000377   0.000661   0.000394   0.410116


                  H 19
 ------------------
     H   19   5.484708


          HEAT OF FORMATION =      30.906914 KCALS/MOLE

          ZERO POINT ENERGY     100.352 KCAL/MOL


           NORMAL COORDINATE ANALYSIS (Total motion = 1 Angstrom)


   Root No.       1         2         3         4         5         6         7         8

                 1 A       2 A       3 A       4 A       5 A       6 A       7 A       8 A   

                  37.1     113.6     130.2     209.9     319.9     349.0     358.9     514.8
  
           1   -0.0020    0.0038   -0.0082    0.0040    0.0347   -0.0030   -0.0018   -0.0268
           2   -0.0066    0.0153   -0.0418    0.0228    0.0393    0.0499   -0.0203   -0.0092
           3   -0.0628    0.0071   -0.0054   -0.0359    0.0030   -0.0036    0.0022   -0.0000
           4   -0.0018    0.0040   -0.0090    0.0053    0.0325   -0.0065   -0.0006   -0.0215
           5    0.0011   -0.0025    0.0057   -0.0034   -0.0164    0.0103   -0.0024    0.0149
           6    0.0030   -0.0019    0.0037    0.0148   -0.0206    0.0065   -0.0004   -0.0148
           7   -0.0026    0.0106   -0.0337    0.0128    0.0054   -0.0079    0.0014    0.0482
           8    0.0013   -0.0059    0.0181   -0.0071   -0.0054    0.0014    0.0005   -0.0205
           9    0.0008   -0.0057    0.0212    0.0483   -0.0189    0.0077   -0.0023   -0.0166
          10   -0.0285    0.0069   -0.0255   -0.0071   -0.0313    0.0035    0.0452    0.0181
          11    0.0162   -0.0045    0.0165   -0.0260    0.0155   -0.0285   -0.0131   -0.0170
          12    0.0192   -0.0036    0.0183    0.0348    0.0064   -0.0169   -0.0247   -0.0019
          13    0.0276    0.0077   -0.0302    0.0180   -0.0387   -0.0092   -0.0389    0.0249
          14   -0.0131   -0.0048    0.0134    0.0204    0.0054   -0.0186    0.0271   -0.0064
          15   -0.0188   -0.0038    0.0200    0.0334    0.0117    0.0128    0.0229    0.0023
          16   -0.0266   -0.0050    0.0162   -0.0191   -0.0203   -0.0220   -0.0342   -0.0314
          17    0.0152    0.0015   -0.0043   -0.0224    0.0096   -0.0188    0.0280    0.0058
          18    0.0188    0.0041   -0.0050   -0.0028    0.0084   -0.0001    0.0280    0.0193
          19    0.0303   -0.0049    0.0106    0.0114   -0.0182    0.0103    0.0419   -0.0227
          20   -0.0146    0.0014   -0.0069    0.0266   -0.0059   -0.0315   -0.0118    0.0182
          21   -0.0192    0.0042   -0.0027   -0.0062    0.0059   -0.0058   -0.0273    0.0222
          22    0.0029   -0.0130    0.0429   -0.0040    0.0264   -0.0247    0.0064    0.0301
          23    0.0000    0.0053   -0.0202    0.0025   -0.0230   -0.0270    0.0108   -0.0195
          24   -0.0004    0.0094   -0.0213   -0.0233   -0.0185    0.0051    0.0005   -0.0236
          25    0.0002   -0.0073    0.0278   -0.0170    0.0111    0.0482   -0.0161   -0.0035
          26    0.0022   -0.0094    0.0284   -0.0172   -0.0296    0.0468   -0.0126    0.0285
          27    0.0644   -0.0102   -0.0205   -0.0398    0.0111   -0.0013   -0.0000    0.0011
          28    0.0046   -0.0087    0.0251   -0.0137   -0.0117   -0.0318    0.0113    0.0051
          29   -0.0096    0.0156   -0.0568    0.0306    0.0590    0.0632   -0.0263   -0.0233
          30   -0.0534    0.2572    0.0584   -0.0630    0.0077   -0.0103    0.0057    0.0082
          31    0.0313    0.0134   -0.0167    0.0442    0.0398    0.0218   -0.0085   -0.0591
          32   -0.0331   -0.1958   -0.1131    0.0379    0.0628    0.0678   -0.0289   -0.0246
          33   -0.0941   -0.1275   -0.0455   -0.0452    0.0149   -0.0045    0.0004    0.0057
          34   -0.0438    0.0082   -0.0332   -0.0211    0.0790    0.0078   -0.0089   -0.0310
          35    0.0151    0.2426    0.0056    0.0206    0.0545    0.0625   -0.0241   -0.0227
          36   -0.0929   -0.1181   -0.0428   -0.0457    0.0142   -0.0056    0.0010    0.0055
          37   -0.0497    0.0101   -0.0432   -0.0137   -0.0572    0.0333    0.1122   -0.0011
          38    0.0292   -0.0076    0.0268   -0.0482    0.0345   -0.0546   -0.0438   -0.0197
          39    0.0320   -0.0050    0.0294    0.0470    0.0212   -0.0325   -0.0690    0.0145
          40    0.0492    0.0126   -0.0504    0.0316   -0.0795   -0.0241   -0.1068    0.0116
          41   -0.0245   -0.0073    0.0209    0.0426    0.0176   -0.0212    0.0638    0.0061
          42   -0.0334   -0.0071    0.0313    0.0491    0.0318    0.0139    0.0705    0.0161
          43   -0.0479   -0.0093    0.0315   -0.0377   -0.0381   -0.0313   -0.1043   -0.1201
          44    0.0261    0.0037   -0.0095   -0.0416    0.0261   -0.0094    0.0618    0.0418
          45    0.0328    0.0069   -0.0128   -0.0151    0.0264    0.0104    0.0722    0.0699
          46    0.0538   -0.0091    0.0209    0.0208   -0.0319    0.0408    0.1089   -0.1033
          47   -0.0272    0.0037   -0.0145    0.0501   -0.0044   -0.0384   -0.0484    0.0703
          48   -0.0342    0.0069   -0.0086   -0.0216    0.0165   -0.0287   -0.0698    0.0710
          49    0.0045   -0.0249    0.0854   -0.0060    0.0825   -0.0411    0.0075    0.0849
          50   -0.0008    0.0112   -0.0413    0.0036   -0.0509   -0.0189    0.0103   -0.0467
          51   -0.0007    0.0172   -0.0466   -0.0538   -0.0477    0.0139    0.0009   -0.0699
          52    0.0025   -0.0176    0.0611   -0.0382   -0.0137    0.1103   -0.0340    0.0307
          53    0.0012   -0.0047    0.0131   -0.0075   -0.0184    0.0198   -0.0049    0.0138
          54    0.0680   -0.0025   -0.0419   -0.1051    0.0393   -0.0128    0.0037    0.0229
          55   -0.0000   -0.0073    0.0281   -0.0175    0.0107    0.0497   -0.0166   -0.0026
          56    0.0047   -0.0204    0.0646   -0.0407   -0.0554    0.1204   -0.0343    0.0677
          57    0.1154   -0.0251   -0.0205   -0.0247    0.0134    0.0029   -0.0040   -0.0009


   Root No.       9        10        11        12        13        14        15        16

                 9 A      10 A      11 A      12 A      13 A      14 A      15 A      16 A   

                 554.0     556.6     625.2     628.4     669.1     784.1     821.0     848.3
  
           1    0.0331    0.0135   -0.0078    0.0053   -0.0075   -0.0098    0.0353   -0.0006
           2   -0.0150   -0.0014   -0.0009   -0.0008   -0.0008   -0.0001    0.0074   -0.0011
           3    0.0008   -0.0032   -0.0065    0.0048    0.0032    0.0030   -0.0003    0.0007
           4    0.0270    0.0101   -0.0050    0.0022   -0.0051   -0.0039    0.0094   -0.0005
           5    0.0555    0.0099    0.0021   -0.0013    0.0024    0.0006    0.0376   -0.0004
           6   -0.0215    0.0830   -0.0318    0.0250    0.0255    0.0103    0.0010   -0.0008
           7    0.0199    0.0012    0.0216    0.0023    0.0450    0.0416   -0.0027   -0.0002
           8    0.0396    0.0101   -0.0108   -0.0012   -0.0217   -0.0180   -0.0188    0.0002
           9    0.0049   -0.0176    0.0036    0.0274   -0.0316   -0.0266   -0.0033    0.0001
          10   -0.0165   -0.0063    0.0025    0.0532   -0.0074   -0.0085   -0.0034   -0.0243
          11    0.0005    0.0036    0.0052    0.0375    0.0070    0.0067   -0.0300    0.0128
          12   -0.0200   -0.0246    0.0264    0.0363    0.0030    0.0041    0.0181    0.0153
          13    0.0099   -0.0011   -0.0021    0.0016   -0.0089   -0.0073   -0.0202    0.0252
          14   -0.0120   -0.0035   -0.0055   -0.0653    0.0015    0.0049   -0.0212   -0.0121
          15    0.0310   -0.0142    0.0263    0.0360    0.0038    0.0080   -0.0174   -0.0162
          16   -0.0148   -0.0077    0.0083   -0.0048    0.0168   -0.0148    0.0098   -0.0248
          17   -0.0080    0.0060    0.0005    0.0717   -0.0038    0.0102   -0.0407    0.0131
          18   -0.0245    0.0018   -0.0142   -0.0469   -0.0132    0.0056    0.0507    0.0152
          19    0.0092   -0.0072    0.0048   -0.0603    0.0137   -0.0126   -0.0407    0.0250
          20   -0.0176   -0.0056   -0.0069   -0.0388   -0.0114    0.0072   -0.0144   -0.0118
          21    0.0192    0.0114   -0.0140   -0.0472   -0.0124    0.0121   -0.0488   -0.0151
          22   -0.0277    0.0054   -0.0141   -0.0084   -0.0084   -0.0264    0.0238   -0.0006
          23   -0.0451   -0.0162    0.0068    0.0043    0.0030    0.0086    0.0554   -0.0007
          24    0.0006    0.0004   -0.0014   -0.0311    0.0047    0.0159    0.0019    0.0004
          25   -0.0317   -0.0045   -0.0004    0.0018   -0.0005   -0.0021   -0.0099   -0.0000
          26    0.0228    0.0001    0.0059   -0.0029    0.0052    0.0018    0.0388   -0.0003
          27    0.0027   -0.0103    0.0022    0.0004   -0.0014    0.0001    0.0003   -0.0004
          28    0.1028    0.0259   -0.0000    0.0035    0.0057    0.0059    0.1074   -0.0034
          29   -0.0459   -0.0055   -0.0044    0.0002   -0.0065   -0.0069   -0.0232    0.0002
          30    0.0188   -0.0704   -0.0091   -0.0046   -0.0072   -0.0063   -0.0003    0.0013
          31   -0.0356    0.1210   -0.0173    0.0291    0.0021   -0.0026    0.0050    0.0046
          32   -0.0499   -0.0004   -0.0029    0.0002   -0.0076   -0.0077   -0.0217    0.0012
          33    0.0120   -0.0533   -0.0039   -0.0053   -0.0054   -0.0050   -0.0034   -0.0001
          34    0.0277   -0.1088   -0.0094   -0.0140   -0.0361   -0.0392    0.0095   -0.0000
          35   -0.0455   -0.0125   -0.0070    0.0010   -0.0078   -0.0080   -0.0215    0.0010
          36    0.0151   -0.0519   -0.0044   -0.0047   -0.0055   -0.0056    0.0036   -0.0002
          37   -0.0246   -0.0038   -0.0418    0.0733   -0.1469    0.0135   -0.0034    0.1646
          38   -0.0331    0.0114    0.0121    0.0000    0.0806   -0.0067   -0.0113   -0.0845
          39   -0.0021   -0.0290    0.0600    0.0321    0.0924   -0.0094    0.0122   -0.1064
          40   -0.0110   -0.0142   -0.0346    0.0431   -0.1510    0.0164   -0.0199   -0.1635
          41   -0.0316   -0.0175    0.0259   -0.0593    0.0702   -0.0083   -0.0022    0.0832
          42    0.0183   -0.0232    0.0608    0.0316    0.0964   -0.0089   -0.0010    0.1102
          43    0.0095   -0.0163    0.0175   -0.0328   -0.0151    0.1663   -0.0148    0.1660
          44    0.0046    0.0314   -0.0214    0.0612    0.0148   -0.0749   -0.0973   -0.0798
          45   -0.0185    0.0254   -0.0347   -0.0496    0.0098   -0.1074    0.0093   -0.1065
          46    0.0237   -0.0320    0.0276   -0.0688   -0.0212    0.1676   -0.0407   -0.1619
          47    0.0075   -0.0018   -0.0004   -0.0100    0.0046   -0.0780   -0.0815    0.0822
          48   -0.0013    0.0301   -0.0345   -0.0495    0.0108   -0.1069   -0.0284    0.1067
          49   -0.0359    0.0229   -0.0460    0.0497   -0.1038    0.1725    0.0453    0.0022
          50   -0.0409   -0.0249    0.0226   -0.0249    0.0504   -0.0901    0.0443   -0.0021
          51    0.0042   -0.0034    0.0255    0.0311    0.0745   -0.1128   -0.0131   -0.0010
          52   -0.1203   -0.0308    0.0096   -0.0005    0.0173    0.0232   -0.0917    0.0008
          53    0.0621    0.0115    0.0010   -0.0017   -0.0021   -0.0091    0.0766   -0.0006
          54   -0.0141    0.0604    0.2704   -0.0873   -0.1215   -0.0408   -0.0045    0.0014
          55   -0.0345   -0.0039    0.0013    0.0015   -0.0005   -0.0015   -0.0126   -0.0001
          56   -0.0739   -0.0295    0.0182   -0.0069    0.0246    0.0286   -0.0310    0.0012
          57    0.0495   -0.2038   -0.2179    0.0512    0.0736    0.0164   -0.0015    0.0032


   Root No.      17        18        19        20        21        22        23        24

                17 A      18 A      19 A      20 A      21 A      22 A      23 A      24 A   

                 935.4     948.8     974.9     977.5    1002.9    1016.1    1025.5    1037.0
  
           1   -0.0103    0.0387   -0.0001   -0.0008   -0.0184   -0.0000    0.0198   -0.0039
           2   -0.0077    0.0049    0.0011    0.0031    0.0438   -0.0142   -0.0008   -0.0002
           3   -0.0060   -0.0041    0.0248    0.0178   -0.0010    0.0046   -0.0002   -0.0321
           4    0.0016   -0.0074    0.0008    0.0014    0.0137   -0.0026   -0.0091    0.0007
           5   -0.0029    0.0017   -0.0002   -0.0005   -0.0041    0.0017    0.0044    0.0000
           6    0.0001    0.0014   -0.0129   -0.0090   -0.0018   -0.0058    0.0023    0.0495
           7   -0.0232   -0.0165   -0.0027   -0.0023   -0.0055    0.0175   -0.0067    0.0109
           8    0.0099    0.0085    0.0014    0.0016    0.0007   -0.0036   -0.0284   -0.0028
           9    0.0145    0.0114    0.0018    0.0019    0.0037   -0.0108   -0.0044   -0.0045
          10    0.0246    0.0109   -0.0125    0.0207   -0.0025   -0.0245    0.0319   -0.0114
          11   -0.0114   -0.0054    0.0061   -0.0106    0.0026    0.0099    0.0033    0.0028
          12   -0.0146   -0.0095    0.0085   -0.0134    0.0045    0.0078    0.0576   -0.0023
          13    0.0245    0.0115    0.0157   -0.0181   -0.0037   -0.0174   -0.0249   -0.0067
          14   -0.0109   -0.0059   -0.0080    0.0085    0.0034    0.0055    0.0319    0.0038
          15   -0.0165   -0.0087   -0.0091    0.0130   -0.0046    0.0216   -0.0495    0.0037
          16    0.0022    0.0029    0.0156   -0.0180    0.0102    0.0291   -0.0047    0.0056
          17    0.0002   -0.0014   -0.0090    0.0078   -0.0030   -0.0171    0.0130    0.0002
          18   -0.0030   -0.0022   -0.0094    0.0125   -0.0099   -0.0140   -0.0279   -0.0047
          19    0.0026    0.0026   -0.0128    0.0212    0.0095    0.0259    0.0229    0.0014
          20   -0.0004   -0.0011    0.0068   -0.0101   -0.0046   -0.0139   -0.0001   -0.0045
          21    0.0007   -0.0019    0.0085   -0.0141   -0.0045   -0.0210    0.0231   -0.0070
          22   -0.0257   -0.0137   -0.0030   -0.0033   -0.0127   -0.0285   -0.0175   -0.0023
          23    0.0102    0.0068    0.0013    0.0018    0.0047    0.0190   -0.0230    0.0041
          24    0.0159    0.0094    0.0016    0.0018    0.0091    0.0191    0.0023    0.0045
          25    0.0210   -0.0456    0.0007    0.0014    0.0183   -0.0044   -0.0046    0.0025
          26    0.0075   -0.0171   -0.0005   -0.0015   -0.0204    0.0058    0.0198   -0.0006
          27    0.0009   -0.0016   -0.0265   -0.0195    0.0062    0.0089   -0.0031   -0.0459
          28   -0.0718    0.0928    0.0059    0.0121    0.1890   -0.0664    0.0297   -0.0063
          29    0.0183   -0.0172   -0.0003   -0.0017   -0.0466    0.0146   -0.0042   -0.0008
          30    0.0087    0.0053   -0.0379   -0.0287    0.0037   -0.0063   -0.0015    0.0451
          31   -0.0114    0.0150    0.1098    0.0706   -0.1712    0.0640    0.0337   -0.1432
          32    0.0171   -0.0106   -0.0019   -0.0044   -0.0576    0.0171    0.0007    0.0013
          33    0.0093   -0.0010   -0.0292   -0.0210    0.0061   -0.0056   -0.0047    0.0347
          34    0.0451    0.0554   -0.1213   -0.0952   -0.1514    0.0190    0.0344    0.1373
          35    0.0172   -0.0107   -0.0003   -0.0028   -0.0575    0.0171    0.0009   -0.0025
          36    0.0053    0.0105   -0.0288   -0.0212   -0.0015   -0.0049    0.0042    0.0327
          37   -0.1038   -0.0511    0.0544   -0.0922    0.0138    0.0617    0.0379    0.0165
          38    0.0553    0.0293   -0.0218    0.0525   -0.0253   -0.0219   -0.0712   -0.0281
          39    0.0680    0.0295   -0.0370    0.0575    0.0009   -0.0523    0.0800   -0.0150
          40   -0.1043   -0.0511   -0.0643    0.0796   -0.0054    0.0695   -0.0575    0.0278
          41    0.0548    0.0265    0.0353   -0.0404   -0.0019   -0.0333   -0.0324   -0.0031
          42    0.0702    0.0339    0.0469   -0.0520   -0.0091   -0.0317   -0.1008   -0.0101
          43   -0.0193   -0.0172   -0.0705    0.0784   -0.0425   -0.0892   -0.0935   -0.0005
          44    0.0123    0.0121    0.0321   -0.0413    0.0224    0.0476   -0.0570    0.0260
          45    0.0120    0.0138    0.0449   -0.0509    0.0235    0.0676   -0.0689    0.0188
          46   -0.0135   -0.0174    0.0580   -0.0920   -0.0343   -0.0920   -0.0143   -0.0203
          47    0.0097    0.0072   -0.0250    0.0491    0.0034    0.0612   -0.0889   -0.0075
          48    0.0106    0.0116   -0.0387    0.0589    0.0287    0.0506    0.0833    0.0116
          49    0.1300    0.0707    0.0105    0.0121    0.0503    0.1009   -0.0018    0.0278
          50   -0.0672   -0.0352   -0.0054   -0.0058   -0.0267   -0.0450   -0.0330   -0.0108
          51   -0.0856   -0.0454   -0.0114   -0.0125   -0.0238   -0.0727   -0.0141    0.0186
          52   -0.0760    0.1423   -0.0021   -0.0002    0.0265   -0.0057   -0.0470   -0.0030
          53    0.0504   -0.1003    0.0004   -0.0011   -0.0266    0.0074    0.0402    0.0012
          54    0.0082    0.0154    0.1043    0.0771   -0.0224   -0.0409    0.0091    0.1796
          55    0.0190   -0.0423   -0.0004    0.0008    0.0202   -0.0045   -0.0065    0.0014
          56   -0.1026    0.2056   -0.0019   -0.0049   -0.0595    0.0160    0.0042   -0.0070
          57   -0.0129   -0.0045    0.1381    0.1002   -0.0253   -0.0289    0.0117    0.1458


   Root No.      25        26        27        28        29        30        31        32

                25 A      26 A      27 A      28 A      29 A      30 A      31 A      32 A   

                1093.1    1099.6    1148.9    1152.8    1215.1    1237.7    1318.5    1340.8
  
           1    0.0142   -0.0017    0.0039   -0.0013   -0.0032   -0.0219    0.0109   -0.0024
           2    0.0061   -0.0033    0.0006    0.0007   -0.0012   -0.0141    0.0002   -0.0013
           3   -0.0004    0.0046    0.0010   -0.0013    0.0004   -0.0007   -0.0010    0.0003
           4   -0.0109    0.0026   -0.0030    0.0007    0.0024    0.0491    0.0308   -0.0016
           5   -0.0017    0.0012   -0.0014    0.0000    0.0019    0.0311   -0.0143   -0.0010
           6   -0.0004   -0.0089   -0.0007    0.0019   -0.0049    0.0011    0.0008   -0.0026
           7   -0.0120    0.0056   -0.0022   -0.0058    0.0121    0.0163   -0.0062    0.0565
           8   -0.0300    0.0029   -0.0022    0.0036   -0.0045    0.0415   -0.0058   -0.0274
           9   -0.0012    0.0076   -0.0021   -0.0106    0.0211    0.0012    0.0006    0.1013
          10    0.0094   -0.0137    0.0010   -0.0028   -0.0037    0.0244   -0.0019    0.0201
          11    0.0016   -0.0125   -0.0098   -0.0032   -0.0202    0.0129   -0.0039    0.1025
          12    0.0157   -0.0126    0.0090   -0.0018    0.0103    0.0252   -0.0014   -0.0484
          13   -0.0061    0.0022   -0.0049    0.0062    0.0139   -0.0054    0.0000   -0.0703
          14    0.0148    0.0168    0.0008    0.0052    0.0180    0.0241   -0.0025   -0.0762
          15   -0.0169   -0.0092   -0.0086    0.0054    0.0072   -0.0287    0.0007   -0.0502
          16    0.0045   -0.0057    0.0057   -0.0003   -0.0109    0.0080    0.0002   -0.0714
          17   -0.0036    0.0075    0.0016   -0.0011   -0.0112   -0.0247    0.0048   -0.0772
          18    0.0084   -0.0142    0.0075    0.0008   -0.0086    0.0314   -0.0036   -0.0510
          19   -0.0068   -0.0070   -0.0021    0.0026   -0.0005   -0.0256    0.0024    0.0178
          20   -0.0001   -0.0015    0.0061   -0.0029    0.0145   -0.0119   -0.0016    0.1029
          21   -0.0121   -0.0102   -0.0074    0.0063   -0.0116   -0.0301    0.0046   -0.0504
          22   -0.0178    0.0071    0.0001    0.0010   -0.0122   -0.0167    0.0015    0.0518
          23   -0.0368    0.0025   -0.0003   -0.0001    0.0031   -0.0357    0.0040   -0.0274
          24    0.0015    0.0093    0.0004    0.0017   -0.0210    0.0016   -0.0006    0.1009
          25    0.0004   -0.0018   -0.0003    0.0003   -0.0006   -0.0093    0.0072    0.0027
          26    0.0142   -0.0004    0.0026   -0.0016    0.0005   -0.0191   -0.0170    0.0018
          27    0.0003    0.0042    0.0001   -0.0008    0.0012   -0.0002    0.0002    0.0021
          28    0.0605   -0.0245    0.0061    0.0044   -0.0048   -0.1513   -0.0885   -0.0041
          29   -0.0128    0.0064   -0.0001   -0.0017   -0.0007    0.0364    0.0334   -0.0015
          30    0.0029   -0.0100   -0.0052    0.0043    0.0045    0.0037    0.0073    0.0103
          31    0.0094    0.0232    0.0089   -0.0074    0.0007   -0.0620   -0.1043    0.0068
          32   -0.0063    0.0028   -0.0011    0.0002    0.0017    0.0106   -0.0118   -0.0004
          33   -0.0042   -0.0042   -0.0026    0.0016    0.0009    0.0268    0.0355   -0.0016
          34    0.0143   -0.0166    0.0011    0.0021   -0.0039   -0.0608   -0.1034   -0.0005
          35   -0.0075    0.0052    0.0010   -0.0016   -0.0010    0.0099   -0.0153   -0.0088
          36    0.0061   -0.0067   -0.0008    0.0016    0.0002   -0.0247   -0.0328    0.0054
          37    0.0395   -0.0504   -0.0282    0.0239    0.0375    0.0230   -0.0009    0.0088
          38    0.1249   -0.1736   -0.1571    0.1330    0.1851    0.0058    0.0085    0.0442
          39   -0.0470    0.0683    0.0823   -0.0703   -0.0896    0.0350   -0.0068   -0.0194
          40    0.1248    0.0942   -0.1352   -0.0053   -0.1187   -0.0074    0.0001   -0.0281
          41    0.1467    0.1156   -0.1355   -0.0068   -0.1228    0.0322   -0.0001   -0.0290
          42    0.0653    0.0546   -0.0996   -0.0031   -0.0845   -0.0276    0.0036   -0.0182
          43    0.0902    0.0331    0.0921   -0.1912    0.0881   -0.0067    0.0000   -0.0251
          44    0.0910    0.0483    0.0936   -0.2093    0.0967   -0.0444    0.0059   -0.0244
          45    0.0724    0.0130    0.0700   -0.1357    0.0621    0.0244   -0.0037   -0.0156
          46    0.0097   -0.0284    0.0401    0.0319   -0.0281   -0.0277    0.0042    0.0061
          47    0.1058   -0.1155    0.2355    0.1513   -0.1358   -0.0066    0.0084    0.0355
          48   -0.0616    0.0461   -0.1194   -0.0667    0.0598   -0.0370    0.0006   -0.0188
          49   -0.0028    0.1148    0.0460    0.1293    0.0614   -0.0254    0.0001    0.0171
          50   -0.0466   -0.0519   -0.0217   -0.0658   -0.0346   -0.0369    0.0055   -0.0102
          51    0.0294    0.2144    0.0863    0.2470    0.1197   -0.0110   -0.0039    0.0349
          52   -0.0428    0.0041   -0.0088    0.0040    0.0023    0.0974   -0.2429   -0.0225
          53    0.0346   -0.0028    0.0067   -0.0035   -0.0007   -0.0688    0.1090    0.0146
          54   -0.0015   -0.0124   -0.0009    0.0007    0.0024    0.0011   -0.0020    0.0093
          55   -0.0013   -0.0017   -0.0006    0.0004   -0.0004   -0.0055    0.0005    0.0026
          56   -0.0061    0.0090    0.0014   -0.0027    0.0027    0.0133    0.2862    0.0195
          57   -0.0015   -0.0132    0.0005    0.0025   -0.0056    0.0000   -0.0019   -0.0092


   Root No.      33        34        35        36        37        38        39        40

                33 A      34 A      35 A      36 A      37 A      38 A      39 A      40 A   

                1378.4    1393.4    1403.1    1457.6    1536.7    1621.6    1776.5    1798.7
  
           1   -0.0381   -0.0023   -0.0208   -0.0644    0.0034    0.0220    0.0012   -0.0067
           2    0.0216    0.0095   -0.0210   -0.0079   -0.0005    0.0020    0.0009    0.0007
           3    0.0048   -0.0413   -0.0045   -0.0002    0.0012   -0.0001   -0.0008    0.0002
           4   -0.0030   -0.0002   -0.0118    0.0675   -0.0057   -0.0599   -0.0012    0.0313
           5   -0.0143   -0.0006   -0.0132    0.0409   -0.0049   -0.0286    0.0071   -0.0098
           6   -0.0000   -0.0013   -0.0004    0.0003   -0.0090   -0.0010    0.0054    0.0006
           7    0.0100    0.0000    0.0083   -0.0098    0.0367    0.0519   -0.0657   -0.0401
           8    0.0220    0.0017    0.0164   -0.0183   -0.0211    0.0977    0.0326   -0.0748
           9   -0.0003   -0.0007   -0.0005    0.0045    0.0690    0.0012   -0.1220   -0.0021
          10    0.0047    0.0001    0.0036   -0.0050   -0.0406    0.0129    0.0147    0.0348
          11    0.0124   -0.0005    0.0120   -0.0328   -0.0441   -0.0218   -0.0571    0.1133
          12   -0.0024    0.0001   -0.0039    0.0157   -0.0278    0.0378    0.0661   -0.0346
          13    0.0081    0.0006    0.0078   -0.0223    0.0162   -0.0235    0.0529    0.0712
          14    0.0125    0.0011    0.0104   -0.0194    0.0622    0.0032    0.0195    0.0945
          15    0.0025    0.0001    0.0041   -0.0203   -0.0219   -0.0377    0.0656    0.0370
          16    0.0069    0.0008    0.0061   -0.0162    0.0208   -0.0452   -0.0515   -0.0640
          17   -0.0065    0.0004   -0.0050    0.0070    0.0644   -0.0412   -0.0142   -0.0886
          18    0.0156    0.0010    0.0133   -0.0305   -0.0176   -0.0376   -0.0681   -0.0303
          19   -0.0100   -0.0007   -0.0077    0.0112   -0.0402   -0.0085   -0.0184   -0.0327
          20   -0.0006   -0.0012    0.0015   -0.0157   -0.0496   -0.0644    0.0533   -0.1024
          21   -0.0148   -0.0001   -0.0129    0.0288   -0.0239    0.0362   -0.0687    0.0275
          22   -0.0071   -0.0004   -0.0061    0.0158    0.0321    0.0228    0.0672    0.0215
          23   -0.0137   -0.0002   -0.0119    0.0275   -0.0202    0.0434   -0.0350    0.0408
          24   -0.0005   -0.0004   -0.0002    0.0033    0.0646    0.0018    0.1296    0.0019
          25    0.0116    0.0005    0.0088   -0.0071   -0.0020    0.0175    0.0034   -0.0164
          26   -0.0146   -0.0004   -0.0100   -0.0087    0.0072   -0.0180   -0.0085    0.0240
          27    0.0002   -0.0002    0.0001   -0.0000    0.0015    0.0005   -0.0014   -0.0005
          28    0.0675   -0.0215    0.1847    0.0703   -0.0042    0.0066    0.0010    0.0020
          29   -0.0236    0.0034   -0.0839   -0.0507    0.0018    0.0053    0.0016   -0.0021
          30   -0.0437    0.4107    0.0390    0.0025   -0.0008   -0.0003   -0.0000   -0.0003
          31    0.1200    0.1576    0.0471    0.0899   -0.0017   -0.0133   -0.0004   -0.0017
          32   -0.1235    0.1511    0.1983    0.0527   -0.0030   -0.0088    0.0009    0.0012
          33   -0.1390    0.0072    0.1007   -0.0215    0.0015    0.0065   -0.0009   -0.0006
          34    0.1471   -0.1120    0.0172    0.0850   -0.0069   -0.0110    0.0020   -0.0020
          35   -0.0869   -0.2648    0.1597    0.0471   -0.0015   -0.0074   -0.0001    0.0014
          36    0.1229    0.0885   -0.0842    0.0232   -0.0023   -0.0066    0.0003    0.0009
          37   -0.0015   -0.0048   -0.0040    0.0061   -0.0296    0.0385    0.0367    0.0067
          38   -0.0199   -0.0091   -0.0214    0.0494    0.0398    0.0777    0.0392   -0.0416
          39    0.0149    0.0067    0.0142   -0.0216   -0.0767   -0.0054    0.0256    0.0444
          40   -0.0137   -0.0000   -0.0120    0.0277   -0.0563    0.0381   -0.0087   -0.0384
          41   -0.0090    0.0006   -0.0104    0.0372   -0.0084    0.0752   -0.0526   -0.0199
          42   -0.0130   -0.0004   -0.0106    0.0178   -0.0788   -0.0007    0.0264   -0.0422
          43   -0.0129   -0.0001   -0.0115    0.0267   -0.0562    0.0457    0.0065    0.0291
          44   -0.0301   -0.0009   -0.0260    0.0581   -0.0114    0.0581    0.0562    0.0086
          45    0.0030    0.0003    0.0020   -0.0027   -0.0784    0.0255   -0.0326    0.0388
          46   -0.0163   -0.0005   -0.0137    0.0277   -0.0295    0.0175   -0.0407   -0.0119
          47   -0.0271   -0.0001   -0.0249    0.0649    0.0400    0.0728   -0.0397    0.0277
          48   -0.0043   -0.0008   -0.0022   -0.0060   -0.0760   -0.0290   -0.0318   -0.0387
          49   -0.0087   -0.0006   -0.0070    0.0124   -0.0622    0.0245   -0.0282    0.0241
          50   -0.0159   -0.0001   -0.0141    0.0357    0.0269    0.0526    0.0133    0.0490
          51   -0.0013   -0.0010   -0.0002   -0.0077   -0.1159   -0.0026   -0.0535   -0.0003
          52   -0.0889   -0.0004   -0.0667    0.0205    0.0040   -0.0442   -0.0034    0.0240
          53    0.0336    0.0001    0.0251   -0.0197    0.0049    0.0068   -0.0071    0.0102
          54   -0.0009    0.0008   -0.0005    0.0004    0.0069   -0.0002   -0.0081   -0.0001
          55    0.0099    0.0006    0.0071   -0.0054   -0.0023    0.0174    0.0039   -0.0194
          56    0.0783    0.0003    0.0452    0.0502   -0.0100   -0.0027    0.0033   -0.0063
          57   -0.0003   -0.0010   -0.0002   -0.0005   -0.0084   -0.0007    0.0077    0.0003


   Root No.      41        42        43        44        45        46        47        48

                41 A      42 A      43 A      44 A      45 A      46 A      47 A      48 A   

                1875.9    3052.4    3054.7    3061.6    3066.9    3069.0    3076.8    3079.9
  
           1    0.0261   -0.0003   -0.0000   -0.0002   -0.0007    0.0001   -0.0006    0.0000
           2   -0.0093    0.0018    0.0004    0.0018    0.0108   -0.0023   -0.0489    0.0005
           3    0.0008   -0.0041   -0.0008   -0.0049   -0.0348    0.0097   -0.0148   -0.0010
           4   -0.1136   -0.0001   -0.0001    0.0001   -0.0001   -0.0001    0.0003   -0.0001
           5    0.2040    0.0002   -0.0000    0.0002    0.0000    0.0000   -0.0004   -0.0001
           6   -0.0035   -0.0002   -0.0002    0.0000   -0.0001   -0.0001   -0.0000   -0.0000
           7   -0.0159    0.0002    0.0006   -0.0005    0.0001    0.0005    0.0004    0.0004
           8   -0.0562   -0.0008    0.0000   -0.0009    0.0001   -0.0002    0.0001    0.0008
           9    0.0066    0.0010    0.0009   -0.0001    0.0001    0.0009    0.0001    0.0001
          10   -0.0005   -0.0212   -0.0034   -0.0097    0.0009   -0.0074   -0.0006    0.0056
          11    0.0161   -0.0080   -0.0015   -0.0041    0.0001   -0.0037   -0.0002    0.0029
          12   -0.0117   -0.0265   -0.0040   -0.0117    0.0013   -0.0085   -0.0007    0.0063
          13    0.0100   -0.0004   -0.0053    0.0033   -0.0009   -0.0019   -0.0001   -0.0013
          14    0.0156    0.0020    0.0180   -0.0125    0.0043    0.0096    0.0003    0.0074
          15    0.0070   -0.0020   -0.0216    0.0143   -0.0046   -0.0100   -0.0003   -0.0075
          16   -0.0024    0.0043   -0.0003   -0.0010   -0.0013   -0.0030   -0.0000    0.0035
          17   -0.0040   -0.0140    0.0029    0.0082    0.0047    0.0133    0.0002   -0.0119
          18    0.0003    0.0175   -0.0027   -0.0078   -0.0057   -0.0149   -0.0001    0.0146
          19   -0.0030   -0.0016    0.0156    0.0020   -0.0041   -0.0120   -0.0003   -0.0123
          20   -0.0109   -0.0009    0.0059    0.0021   -0.0020   -0.0054   -0.0001   -0.0045
          21    0.0046   -0.0018    0.0194    0.0015   -0.0047   -0.0143   -0.0004   -0.0154
          22   -0.0004    0.0040   -0.0065   -0.0104    0.0022    0.0014   -0.0001   -0.0110
          23    0.0036    0.0086   -0.0124   -0.0212    0.0037    0.0011   -0.0003   -0.0221
          24   -0.0035   -0.0004   -0.0006    0.0002    0.0005    0.0014    0.0000   -0.0000
          25    0.0977   -0.0000   -0.0001    0.0000   -0.0000   -0.0000    0.0001    0.0000
          26   -0.1557   -0.0000    0.0000   -0.0000    0.0001   -0.0000   -0.0005   -0.0000
          27    0.0005   -0.0000   -0.0000    0.0000   -0.0001    0.0000   -0.0000   -0.0000
          28   -0.0509   -0.0046   -0.0012   -0.0049   -0.0306    0.0065    0.1632   -0.0017
          29    0.0238   -0.0108   -0.0029   -0.0115   -0.0740    0.0159    0.4050   -0.0045
          30   -0.0003   -0.0023   -0.0005   -0.0028   -0.0192    0.0052    0.0012   -0.0006
          31    0.0309    0.0156    0.0032    0.0174    0.1156   -0.0306   -0.0420    0.0033
          32    0.0007   -0.0215   -0.0044   -0.0246   -0.1665    0.0445    0.0379   -0.0048
          33   -0.0021    0.0348    0.0072    0.0391    0.2620   -0.0693   -0.1096    0.0076
          34    0.0259   -0.0072   -0.0014   -0.0099   -0.0762    0.0225   -0.1155   -0.0020
          35    0.0017    0.0110    0.0022    0.0148    0.1126   -0.0328    0.1389    0.0031
          36    0.0009    0.0159    0.0031    0.0223    0.1742   -0.0518    0.2864    0.0047
          37   -0.0059    0.2441    0.0398    0.1075   -0.0115    0.0801    0.0066   -0.0564
          38   -0.0184    0.0971    0.0163    0.0440   -0.0043    0.0334    0.0027   -0.0237
          39   -0.0011    0.3015    0.0489    0.1319   -0.0140    0.0977    0.0077   -0.0686
          40   -0.0063    0.0062    0.0574   -0.0372    0.0119    0.0257    0.0008    0.0182
          41   -0.0098   -0.0238   -0.2120    0.1415   -0.0463   -0.1008   -0.0031   -0.0723
          42   -0.0105    0.0272    0.2457   -0.1623    0.0528    0.1144    0.0035    0.0817
          43    0.0004   -0.0451    0.0064    0.0194    0.0142    0.0368    0.0003   -0.0344
          44   -0.0021    0.1719   -0.0295   -0.0843   -0.0545   -0.1464   -0.0016    0.1319
          45    0.0012   -0.2017    0.0326    0.0949    0.0638    0.1694    0.0018   -0.1544
          46    0.0005    0.0178   -0.1835   -0.0199    0.0456    0.1347    0.0036    0.1334
          47    0.0023    0.0079   -0.0737   -0.0104    0.0191    0.0554    0.0015    0.0534
          48   -0.0025    0.0212   -0.2249   -0.0225    0.0553    0.1640    0.0044    0.1637
          49    0.0023   -0.0484    0.0738    0.1224   -0.0224   -0.0092    0.0014    0.1192
          50    0.0029   -0.0985    0.1461    0.2458   -0.0439   -0.0155    0.0029    0.2388
          51    0.0000    0.0009    0.0019    0.0005   -0.0010   -0.0022   -0.0000    0.0009
          52   -0.0989   -0.0001   -0.0003    0.0002   -0.0005   -0.0000    0.0030    0.0001
          53   -0.0957   -0.0002   -0.0005    0.0002   -0.0014    0.0001    0.0084    0.0002
          54    0.0016    0.0002    0.0001    0.0000    0.0004   -0.0000    0.0002    0.0000
          55    0.1275    0.0008    0.0011   -0.0001    0.0022    0.0001   -0.0108   -0.0004
          56    0.0559   -0.0000   -0.0001    0.0001   -0.0001   -0.0001    0.0001   -0.0001
          57    0.0004   -0.0001   -0.0001    0.0000   -0.0005    0.0001   -0.0003   -0.0001


   Root No.      49        50        51

                49 A      50 A      51 A   

                3138.8    3142.9    3167.1
  
           1   -0.0005   -0.0003   -0.0242
           2    0.0011   -0.0015   -0.0012
           3    0.0002   -0.0000    0.0017
           4   -0.0036    0.0019   -0.0005
           5    0.0050   -0.0041    0.0001
           6   -0.0000    0.0000   -0.0000
           7   -0.0001   -0.0001    0.0001
           8    0.0005    0.0006    0.0001
           9   -0.0000   -0.0001   -0.0000
          10    0.0000    0.0001    0.0003
          11   -0.0001    0.0001    0.0001
          12    0.0001    0.0001    0.0004
          13   -0.0000    0.0000   -0.0000
          14    0.0001   -0.0000    0.0000
          15   -0.0001    0.0001   -0.0000
          16   -0.0000   -0.0000   -0.0000
          17    0.0000   -0.0001   -0.0000
          18   -0.0000    0.0000    0.0000
          19    0.0000   -0.0000   -0.0000
          20    0.0000   -0.0000   -0.0000
          21    0.0000   -0.0000   -0.0000
          22    0.0000   -0.0000   -0.0000
          23    0.0001   -0.0001   -0.0000
          24    0.0000    0.0000   -0.0000
          25   -0.0127   -0.0701    0.0013
          26   -0.0614   -0.0055    0.0008
          27   -0.0001   -0.0005    0.0000
          28    0.0007    0.0079    0.1080
          29   -0.0015    0.0176    0.3110
          30    0.0001    0.0004    0.0070
          31    0.0049    0.0010    0.0886
          32   -0.0066   -0.0023   -0.1471
          33    0.0118    0.0030    0.2404
          34    0.0055    0.0012    0.0951
          35   -0.0071   -0.0024   -0.1494
          36   -0.0138   -0.0035   -0.2677
          37   -0.0001   -0.0007   -0.0036
          38   -0.0001   -0.0002   -0.0015
          39   -0.0000   -0.0008   -0.0043
          40    0.0002   -0.0003    0.0000
          41   -0.0008    0.0014   -0.0002
          42    0.0010   -0.0009    0.0001
          43    0.0001   -0.0001   -0.0000
          44   -0.0003    0.0003    0.0002
          45    0.0003   -0.0004   -0.0002
          46   -0.0003    0.0003    0.0000
          47   -0.0001    0.0001    0.0000
          48   -0.0004    0.0004    0.0000
          49   -0.0003    0.0003    0.0000
          50   -0.0007    0.0006    0.0000
          51    0.0000   -0.0000   -0.0000
          52    0.3249    0.0351   -0.0057
          53    0.6856    0.1130   -0.0113
          54    0.0019    0.0001   -0.0000
          55   -0.1338    0.7721   -0.0083
          56   -0.0163   -0.0017    0.0002
          57   -0.0009    0.0049   -0.0000


           MASS-WEIGHTED COORDINATE ANALYSIS (NORMAL COORDINATES)


   Root No.       1         2         3         4         5         6         7         8

                 1 A       2 A       3 A       4 A       5 A       6 A       7 A       8 A   

                  37.1     113.6     130.2     209.9     319.9     349.0     358.9     514.8
  
           1   -0.0143    0.0285   -0.0638    0.0306    0.2747   -0.0231   -0.0128   -0.2038
           2   -0.0485    0.1148   -0.3246    0.1747    0.3110    0.3803   -0.1475   -0.0703
           3   -0.4586    0.0535   -0.0418   -0.2757    0.0238   -0.0275    0.0162   -0.0003
           4   -0.0128    0.0300   -0.0701    0.0408    0.2578   -0.0492   -0.0046   -0.1636
           5    0.0080   -0.0184    0.0439   -0.0261   -0.1299    0.0787   -0.0174    0.1137
           6    0.0218   -0.0141    0.0285    0.1135   -0.1634    0.0499   -0.0027   -0.1128
           7   -0.0193    0.0792   -0.2616    0.0984    0.0427   -0.0601    0.0105    0.3673
           8    0.0095   -0.0439    0.1406   -0.0548   -0.0428    0.0104    0.0033   -0.1564
           9    0.0060   -0.0425    0.1649    0.3711   -0.1495    0.0584   -0.0166   -0.1262
          10   -0.2085    0.0517   -0.1978   -0.0544   -0.2478    0.0267    0.3278    0.1379
          11    0.1184   -0.0334    0.1284   -0.1995    0.1228   -0.2175   -0.0948   -0.1298
          12    0.1400   -0.0266    0.1420    0.2669    0.0509   -0.1287   -0.1790   -0.0146
          13    0.2016    0.0572   -0.2344    0.1383   -0.3068   -0.0703   -0.2822    0.1894
          14   -0.0960   -0.0361    0.1037    0.1568    0.0426   -0.1415    0.1967   -0.0487
          15   -0.1372   -0.0281    0.1555    0.2565    0.0929    0.0979    0.1662    0.0178
          16   -0.1941   -0.0378    0.1261   -0.1470   -0.1605   -0.1678   -0.2480   -0.2391
          17    0.1108    0.0112   -0.0335   -0.1723    0.0763   -0.1436    0.2033    0.0441
          18    0.1370    0.0308   -0.0388   -0.0212    0.0662   -0.0005    0.2028    0.1466
          19    0.2215   -0.0363    0.0821    0.0875   -0.1442    0.0785    0.3035   -0.1727
          20   -0.1070    0.0105   -0.0536    0.2040   -0.0467   -0.2397   -0.0855    0.1389
          21   -0.1402    0.0315   -0.0207   -0.0474    0.0467   -0.0439   -0.1975    0.1692
          22    0.0213   -0.0972    0.3330   -0.0306    0.2094   -0.1886    0.0463    0.2291
          23    0.0001    0.0397   -0.1572    0.0189   -0.1822   -0.2059    0.0785   -0.1484
          24   -0.0026    0.0702   -0.1656   -0.1791   -0.1468    0.0386    0.0036   -0.1796
          25    0.0017   -0.0549    0.2157   -0.1306    0.0880    0.3673   -0.1164   -0.0263
          26    0.0163   -0.0701    0.2203   -0.1323   -0.2345    0.3564   -0.0911    0.2169
          27    0.4708   -0.0766   -0.1592   -0.3054    0.0877   -0.0100   -0.0001    0.0085
          28    0.0098   -0.0188    0.0565   -0.0306   -0.0268   -0.0701    0.0238    0.0112
          29   -0.0203    0.0337   -0.1277    0.0680    0.1354    0.1396   -0.0552   -0.0514
          30   -0.1130    0.5575    0.1313   -0.1400    0.0177   -0.0227    0.0120    0.0181
          31    0.0662    0.0290   -0.0377    0.0983    0.0913    0.0482   -0.0179   -0.1304
          32   -0.0701   -0.4244   -0.2544    0.0843    0.1441    0.1497   -0.0606   -0.0542
          33   -0.1991   -0.2765   -0.1024   -0.1006    0.0342   -0.0099    0.0008    0.0126
          34   -0.0928    0.0177   -0.0746   -0.0470    0.1814    0.0172   -0.0187   -0.0683
          35    0.0320    0.5259    0.0127    0.0458    0.1252    0.1380   -0.0507   -0.0500
          36   -0.1966   -0.2559   -0.0962   -0.1017    0.0326   -0.0123    0.0022    0.0121
          37   -0.1052    0.0219   -0.0972   -0.0305   -0.1313    0.0734    0.2356   -0.0023
          38    0.0618   -0.0164    0.0603   -0.1073    0.0793   -0.1204   -0.0920   -0.0434
          39    0.0677   -0.0108    0.0662    0.1045    0.0486   -0.0718   -0.1448    0.0321
          40    0.1042    0.0274   -0.1134    0.0703   -0.1825   -0.0531   -0.2243    0.0255
          41   -0.0518   -0.0159    0.0471    0.0948    0.0404   -0.0468    0.1340    0.0134
          42   -0.0707   -0.0155    0.0704    0.1093    0.0729    0.0307    0.1480    0.0356
          43   -0.1013   -0.0202    0.0709   -0.0838   -0.0875   -0.0692   -0.2190   -0.2648
          44    0.0553    0.0079   -0.0214   -0.0926    0.0599   -0.0208    0.1297    0.0923
          45    0.0695    0.0150   -0.0288   -0.0336    0.0607    0.0229    0.1517    0.1541
          46    0.1139   -0.0198    0.0470    0.0463   -0.0731    0.0900    0.2286   -0.2278
          47   -0.0576    0.0080   -0.0327    0.1115   -0.0101   -0.0847   -0.1017    0.1550
          48   -0.0724    0.0151   -0.0193   -0.0480    0.0378   -0.0633   -0.1466    0.1566
          49    0.0096   -0.0539    0.1921   -0.0134    0.1894   -0.0907    0.0157    0.1873
          50   -0.0017    0.0243   -0.0930    0.0080   -0.1168   -0.0417    0.0216   -0.1031
          51   -0.0016    0.0372   -0.1049   -0.1197   -0.1096    0.0307    0.0019   -0.1541
          52    0.0054   -0.0381    0.1374   -0.0849   -0.0314    0.2435   -0.0714    0.0676
          53    0.0025   -0.0102    0.0295   -0.0166   -0.0423    0.0438   -0.0103    0.0304
          54    0.1440   -0.0053   -0.0942   -0.2338    0.0902   -0.0283    0.0078    0.0505
          55   -0.0000   -0.0159    0.0631   -0.0389    0.0246    0.1097   -0.0348   -0.0057
          56    0.0100   -0.0443    0.1452   -0.0905   -0.1272    0.2658   -0.0720    0.1493
          57    0.2444   -0.0544   -0.0462   -0.0550    0.0307    0.0063   -0.0085   -0.0021


   Root No.       9        10        11        12        13        14        15        16

                 9 A      10 A      11 A      12 A      13 A      14 A      15 A      16 A   

                 554.0     556.6     625.2     628.4     669.1     784.1     821.0     848.3
  
           1    0.2339    0.1031   -0.0624    0.0299   -0.0606   -0.0743    0.2286   -0.0046
           2   -0.1061   -0.0105   -0.0075   -0.0047   -0.0065   -0.0004    0.0480   -0.0077
           3    0.0055   -0.0243   -0.0521    0.0267    0.0259    0.0230   -0.0022    0.0052
           4    0.1905    0.0773   -0.0397    0.0121   -0.0416   -0.0294    0.0609   -0.0033
           5    0.3923    0.0759    0.0169   -0.0070    0.0197    0.0047    0.2439   -0.0026
           6   -0.1521    0.6365   -0.2530    0.1400    0.2062    0.0782    0.0062   -0.0061
           7    0.1405    0.0089    0.1725    0.0126    0.3642    0.3160   -0.0175   -0.0017
           8    0.2796    0.0772   -0.0861   -0.0065   -0.1755   -0.1369   -0.1219    0.0017
           9    0.0344   -0.1348    0.0291    0.1534   -0.2555   -0.2021   -0.0214    0.0009
          10   -0.1162   -0.0485    0.0196    0.2976   -0.0602   -0.0648   -0.0218   -0.1755
          11    0.0034    0.0276    0.0415    0.2100    0.0564    0.0505   -0.1947    0.0923
          12   -0.1411   -0.1887    0.2106    0.2029    0.0245    0.0311    0.1176    0.1102
          13    0.0697   -0.0083   -0.0167    0.0087   -0.0723   -0.0556   -0.1309    0.1820
          14   -0.0845   -0.0266   -0.0440   -0.3650    0.0123    0.0368   -0.1374   -0.0872
          15    0.2188   -0.1086    0.2091    0.2011    0.0310    0.0607   -0.1128   -0.1166
          16   -0.1049   -0.0587    0.0664   -0.0267    0.1362   -0.1126    0.0633   -0.1787
          17   -0.0563    0.0461    0.0038    0.4013   -0.0311    0.0777   -0.2638    0.0942
          18   -0.1730    0.0135   -0.1129   -0.2625   -0.1066    0.0424    0.3290    0.1098
          19    0.0647   -0.0551    0.0383   -0.3371    0.1110   -0.0957   -0.2641    0.1802
          20   -0.1244   -0.0426   -0.0552   -0.2173   -0.0921    0.0550   -0.0933   -0.0849
          21    0.1358    0.0875   -0.1114   -0.2643   -0.1000    0.0919   -0.3164   -0.1088
          22   -0.1959    0.0414   -0.1126   -0.0468   -0.0676   -0.2003    0.1546   -0.0040
          23   -0.3188   -0.1239    0.0539    0.0243    0.0246    0.0656    0.3590   -0.0052
          24    0.0043    0.0029   -0.0115   -0.1739    0.0384    0.1205    0.0126    0.0031
          25   -0.2241   -0.0343   -0.0031    0.0103   -0.0040   -0.0160   -0.0644   -0.0001
          26    0.1609    0.0010    0.0473   -0.0163    0.0422    0.0134    0.2519   -0.0020
          27    0.0190   -0.0787    0.0172    0.0025   -0.0117    0.0008    0.0021   -0.0030
          28    0.2103    0.0574   -0.0001    0.0056    0.0132    0.0129    0.2017   -0.0070
          29   -0.0940   -0.0122   -0.0101    0.0003   -0.0153   -0.0152   -0.0437    0.0004
          30    0.0384   -0.1564   -0.0211   -0.0075   -0.0169   -0.0139   -0.0005    0.0026
          31   -0.0729    0.2687   -0.0399    0.0471    0.0050   -0.0058    0.0094    0.0096
          32   -0.1020   -0.0008   -0.0067    0.0004   -0.0178   -0.0168   -0.0408    0.0024
          33    0.0245   -0.1183   -0.0091   -0.0087   -0.0127   -0.0110   -0.0064   -0.0003
          34    0.0567   -0.2416   -0.0217   -0.0226   -0.0845   -0.0862    0.0178   -0.0001
[...]
 REDUCED MASS        0.4254         C  1 -- C  2          +7.5% ( 31.7%)     48.3%
 EFFECTIVE MASS      4.1926
 FORCE CONSTANT      0.4762

 VIBRATION         34   34A           ATOM PAIR      ENERGY CONTRIBUTION    RADIAL
 FREQUENCY          1393.37         C  1 -- H 10         +51.5% ( 62.1%)      0.2%
 TRANSITION DIPOLE   0.0702         C  1 -- H 12         +28.0% ( 45.8%)      5.3%
 TRAVEL (Ang.)       0.3416         C  1 -- H 11         +15.2% ( 33.7%)     22.7%
 REDUCED MASS        0.4148         C  1 -- C  2          +5.0% ( 19.4%)      0.3%
 EFFECTIVE MASS      1.5643
 FORCE CONSTANT      0.4745

 VIBRATION         35   35A           ATOM PAIR      ENERGY CONTRIBUTION    RADIAL
 FREQUENCY          1403.08         C  1 -- H 11         +23.9% ( 49.6%)      0.0%
 TRANSITION DIPOLE   0.0742         C  1 -- H 10         +19.9% ( 45.3%)     11.1%
 TRAVEL (Ang.)       0.4222         C  1 -- H 12         +16.4% ( 41.1%)      0.5%
 REDUCED MASS        0.2696         C  2 -- C  3          +5.3% ( 23.3%)     98.2%
 EFFECTIVE MASS      2.9637
 FORCE CONSTANT      0.3127

 VIBRATION         36   36A           ATOM PAIR      ENERGY CONTRIBUTION    RADIAL
 FREQUENCY          1457.62         C  1 -- C  2         +20.5% ( 66.8%)     87.9%
 TRANSITION DIPOLE   0.3972         C  2 -- C  3         +11.9% ( 50.8%)     80.5%
 TRAVEL (Ang.)       0.1634         C  2 -- C  9          +9.5% ( 45.5%)      0.0%
 REDUCED MASS        1.7317         C  1 -- H 11          +7.5% ( 40.4%)      3.0%
 EFFECTIVE MASS      9.9402
 FORCE CONSTANT      2.1678

 VIBRATION         37   37A           ATOM PAIR      ENERGY CONTRIBUTION    RADIAL
 FREQUENCY          1536.71         C  5 -- C  7         +13.0% ( 53.3%)    100.0%
 TRANSITION DIPOLE   0.4811         C  4 -- C  6         +12.9% ( 53.2%)     99.2%
 TRAVEL (Ang.)       0.1689         C  3 -- C  4         +11.7% ( 50.5%)     30.8%
 REDUCED MASS        1.5390         C  3 -- C  5         +11.5% ( 50.1%)     22.7%
 EFFECTIVE MASS     10.9736         C  7 -- C  8         +10.5% ( 47.9%)     25.0%
 FORCE CONSTANT      2.1413         C  6 -- C  8         +10.4% ( 47.6%)     16.0%

 VIBRATION         38   38A           ATOM PAIR      ENERGY CONTRIBUTION    RADIAL
 FREQUENCY          1621.64         C  2 -- C  3         +17.3% ( 61.0%)     93.2%
 TRANSITION DIPOLE   0.4595         C  3 -- C  4         +14.4% ( 55.7%)     56.2%
 TRAVEL (Ang.)       0.1430         C  3 -- C  5         +14.2% ( 55.3%)     61.1%
 REDUCED MASS        2.0346         C  7 -- C  8          +8.3% ( 42.3%)     58.8%
 EFFECTIVE MASS     11.2368
 FORCE CONSTANT      3.1525

 VIBRATION         39   39A           ATOM PAIR      ENERGY CONTRIBUTION    RADIAL
 FREQUENCY          1776.46         C  7 -- C  8         +15.8% ( 54.9%)     88.1%
 TRANSITION DIPOLE   0.0715         C  6 -- C  8         +15.5% ( 54.4%)     86.8%
 TRAVEL (Ang.)       0.1246         C  3 -- C  4         +14.5% ( 52.5%)     89.5%
 REDUCED MASS        2.4442         C  3 -- C  5         +14.3% ( 52.2%)     89.1%
 EFFECTIVE MASS     11.8867
 FORCE CONSTANT      4.5446

 VIBRATION         40   40A           ATOM PAIR      ENERGY CONTRIBUTION    RADIAL
 FREQUENCY          1798.72         C  4 -- C  6         +16.0% ( 55.6%)     99.9%
 TRANSITION DIPOLE   0.2298         C  5 -- C  7         +15.8% ( 55.2%)     99.8%
 TRAVEL (Ang.)       0.1317         C  3 -- C  5         +11.9% ( 47.9%)     46.2%
 REDUCED MASS        2.1629         C  3 -- C  4         +11.7% ( 47.5%)     42.4%
 EFFECTIVE MASS     11.8351
 FORCE CONSTANT      4.1230

 VIBRATION         41   41A           ATOM PAIR      ENERGY CONTRIBUTION    RADIAL
 FREQUENCY          1875.91         C  2 -- C  9         +43.0% ( 96.7%)     99.9%
 TRANSITION DIPOLE   0.2570         C  2 -- C  3         +18.4% ( 63.2%)     46.4%
 TRAVEL (Ang.)       0.0828         C  1 -- C  2         +16.8% ( 60.4%)     30.0%
 REDUCED MASS        5.2492         C  9 -- H 19          +9.4% ( 45.2%)     11.4%
 EFFECTIVE MASS     11.8604
 FORCE CONSTANT     10.8834

 VIBRATION         42   42A           ATOM PAIR      ENERGY CONTRIBUTION    RADIAL
 FREQUENCY          3052.44         C  4 -- H 13         +62.4% ( 80.3%)    100.0%
 TRANSITION DIPOLE   0.1985         C  6 -- H 15         +28.2% ( 54.0%)    100.0%
 TRAVEL (Ang.)       0.2179         C  8 -- H 17          +4.7% ( 22.1%)     99.9%
 REDUCED MASS        0.4653         C  4 -- C  6          +1.3% ( 11.4%)      1.5%
 EFFECTIVE MASS      1.4987
 FORCE CONSTANT      2.5542

 VIBRATION         43   43A           ATOM PAIR      ENERGY CONTRIBUTION    RADIAL
 FREQUENCY          3054.66         C  5 -- H 14         +45.6% ( 68.7%)    100.0%
 TRANSITION DIPOLE   0.1347         C  7 -- H 16         +37.7% ( 62.4%)    100.0%
 TRAVEL (Ang.)       0.2485         C  8 -- H 17         +11.3% ( 34.2%)    100.0%
 REDUCED MASS        0.3575         C  4 -- H 13          +1.8% ( 13.5%)    100.0%
 EFFECTIVE MASS      1.4934
 FORCE CONSTANT      1.9656

 VIBRATION         44   44A           ATOM PAIR      ENERGY CONTRIBUTION    RADIAL
 FREQUENCY          3061.63         C  8 -- H 17         +41.7% ( 65.7%)    100.0%
 TRANSITION DIPOLE   0.3204         C  5 -- H 14         +26.4% ( 52.3%)    100.0%
 TRAVEL (Ang.)       0.2810         C  4 -- H 13         +17.1% ( 42.0%)    100.0%
 REDUCED MASS        0.2789         C  6 -- H 15          +9.1% ( 30.7%)     99.8%
 EFFECTIVE MASS      1.5160
 FORCE CONSTANT      1.5403

 VIBRATION         45   45A           ATOM PAIR      ENERGY CONTRIBUTION    RADIAL
 FREQUENCY          3066.93         C  1 -- H 11         +57.7% ( 78.2%)     98.7%
 TRANSITION DIPOLE   0.2089         C  1 -- H 12         +26.4% ( 52.9%)     92.7%
 TRAVEL (Ang.)       0.2269         C  1 -- H 10          +4.3% ( 21.3%)     53.5%
 REDUCED MASS        0.4269         C  6 -- H 15          +3.7% ( 19.7%)    100.0%
 EFFECTIVE MASS      1.5052
 FORCE CONSTANT      2.3660

 VIBRATION         46   46A           ATOM PAIR      ENERGY CONTRIBUTION    RADIAL
 FREQUENCY          3068.98         C  6 -- H 15         +32.4% ( 57.9%)    100.0%
 TRANSITION DIPOLE   0.5514         C  7 -- H 16         +30.3% ( 55.9%)    100.0%
 TRAVEL (Ang.)       0.3063         C  5 -- H 14         +15.0% ( 39.4%)    100.0%
 REDUCED MASS        0.2341         C  4 -- H 13         +10.7% ( 33.3%)    100.0%
 EFFECTIVE MASS      1.5401
 FORCE CONSTANT      1.2992

 VIBRATION         47   47A           ATOM PAIR      ENERGY CONTRIBUTION    RADIAL
 FREQUENCY          3076.83         C  1 -- H 10         +58.4% ( 78.9%)     98.4%
 TRANSITION DIPOLE   0.0567         C  1 -- H 12         +35.2% ( 61.2%)     94.0%
 TRAVEL (Ang.)       0.2097         C  1 -- H 11          +5.3% ( 23.8%)     55.0%
 REDUCED MASS        0.4982         C  1 -- C  2          +1.0% ( 10.6%)      0.0%
 EFFECTIVE MASS      1.5124
 FORCE CONSTANT      2.7786

 VIBRATION         48   48A           ATOM PAIR      ENERGY CONTRIBUTION    RADIAL
 FREQUENCY          3079.93         C  8 -- H 17         +37.7% ( 62.3%)    100.0%
 TRANSITION DIPOLE   0.3397         C  7 -- H 16         +25.1% ( 50.8%)    100.0%
 TRAVEL (Ang.)       0.2885         C  6 -- H 15         +22.5% ( 48.0%)    100.0%
 REDUCED MASS        0.2630         C  5 -- H 14          +6.5% ( 25.8%)     99.9%
 EFFECTIVE MASS      1.6008
 FORCE CONSTANT      1.4697

 VIBRATION         49   49A           ATOM PAIR      ENERGY CONTRIBUTION    RADIAL
 FREQUENCY          3138.83         C  9 -- H 18         +95.1% ( 98.3%)     99.8%
 TRANSITION DIPOLE   0.2925         C  9 -- H 19          +3.3% ( 18.4%)     17.8%
 TRAVEL (Ang.)       0.1566         C  2 -- C  9          +1.4% ( 12.1%)     58.4%
 REDUCED MASS        0.8761
 EFFECTIVE MASS      1.4614
 FORCE CONSTANT      5.0858

 VIBRATION         50   50A           ATOM PAIR      ENERGY CONTRIBUTION    RADIAL
 FREQUENCY          3142.94         C  9 -- H 19         +94.5% ( 98.8%)    100.0%
 TRANSITION DIPOLE   0.2441         C  9 -- H 18          +4.1% ( 20.6%)     59.2%
 TRAVEL (Ang.)       0.1551         C  2 -- C  9          +1.4% ( 11.9%)     26.9%
 REDUCED MASS        0.8920
 EFFECTIVE MASS      1.5309
 FORCE CONSTANT      5.1913

 VIBRATION         51   51A           ATOM PAIR      ENERGY CONTRIBUTION    RADIAL
 FREQUENCY          3167.06         C  1 -- H 10         +36.4% ( 58.1%)     97.5%
 TRANSITION DIPOLE   0.0650         C  1 -- H 12         +34.4% ( 56.5%)     97.3%
 TRAVEL (Ang.)       0.2544         C  1 -- H 11         +28.7% ( 51.6%)     96.3%
 REDUCED MASS        0.3290         C  1 -- C  2          +0.3% (  5.3%)     99.2%
 EFFECTIVE MASS      1.1392
 FORCE CONSTANT      1.9444

      SYMMETRY NUMBER FOR POINT-GROUP C1  =  1


          SYSTEM IS A GROUND STATE



 InChI=1S/C9H10/c1-8(2)9-6-4-3-5-7-9/h3-7H,1H2,2H3


          MOLECULE IS NOT LINEAR

          THERE ARE 51 GENUINE VIBRATIONS IN THIS SYSTEM
          THIS THERMODYNAMICS CALCULATION IS LIMITED TO
          MOLECULES WHICH HAVE NO INTERNAL ROTATIONS




                    CALCULATED THERMODYNAMIC PROPERTIES
                                          *
   TEMP. (K)   PARTITION FUNCTION   H.O.F.    ENTHALPY  HEAT CAPACITY ENTROPY
                                   KCAL/MOL   CAL/MOLE    CAL/K/MOL  CAL/K/MOL


 298.00  VIB.     0.1564D+03                  3522.6311    26.0167    21.8615
         ROT.     0.4265D+06                   888.2803     2.9808    28.7419
         INT.     0.6673D+08                  4410.9114    28.9975    50.6034
         TRA.     0.1242D+28                  1480.4672     4.9680    40.2136
         TOT.                       30.907    5891.3786    33.9655    90.8170

 200.00  VIB.     0.2359D+02                  1485.0244    15.7579    13.7061
         ROT.     0.2345D+06                   596.1613     2.9808    27.5532
         INT.     0.5532D+07                  2081.1857    18.7387    41.2594
         TRA.     0.6829D+27                   993.6021     4.9680    38.2325
         TOT.                       28.090    3074.7878    23.7067    79.4919

 210.00  VIB.     0.2845D+02                  1647.4827    16.7376    14.4986
         ROT.     0.2523D+06                   625.9693     2.9808    27.6987
         INT.     0.7179D+07                  2273.4521    19.7184    42.1972
         TRA.     0.7347D+27                  1043.2822     4.9680    38.4749
         TOT.                       28.332    3316.7343    24.6864    80.6721

 220.00  VIB.     0.3435D+02                  1819.8478    17.7389    15.3002
         ROT.     0.2706D+06                   655.7774     2.9808    27.8373
         INT.     0.9295D+07                  2475.6252    20.7197    43.1376
         TRA.     0.7878D+27                  1092.9623     4.9680    38.7060
         TOT.                       28.584    3568.5876    25.6877    81.8436

 230.00  VIB.     0.4154D+02                  2002.3254    18.7597    16.1112
         ROT.     0.2892D+06                   685.5855     2.9808    27.9698
         INT.     0.1201D+08                  2687.9109    21.7405    44.0810
         TRA.     0.8422D+27                  1142.6424     4.9680    38.9268
         TOT.                       28.846    3830.5533    26.7085    83.0079

 240.00  VIB.     0.5028D+02                  2195.0982    19.7975    16.9315
         ROT.     0.3083D+06                   715.3935     2.9808    28.0967
         INT.     0.1550D+08                  2910.4917    22.7783    45.0282
         TRA.     0.8977D+27                  1192.3226     4.9680    39.1383
         TOT.                       29.118    4102.8143    27.7463    84.1665

 250.00  VIB.     0.6095D+02                  2398.3238    20.8498    17.7610
         ROT.     0.3278D+06                   745.2016     2.9808    28.2184
         INT.     0.1998D+08                  3143.5254    23.8306    45.9793
         TRA.     0.9544D+27                  1242.0027     4.9680    39.3411
         TOT.                       29.401    4385.5281    28.7986    85.3204

 260.00  VIB.     0.7399D+02                  2612.1333    21.9138    18.5994
         ROT.     0.3476D+06                   775.0097     2.9808    28.3353
         INT.     0.2572D+08                  3387.1429    24.8946    46.9347
         TRA.     0.1012D+28                  1291.6828     4.9680    39.5359
         TOT.                       29.694    4678.8257    29.8626    86.4706

 270.00  VIB.     0.8993D+02                  2836.6304    22.9869    19.4465
         ROT.     0.3679D+06                   804.8177     2.9808    28.4478
         INT.     0.3308D+08                  3641.4481    25.9677    47.8943
         TRA.     0.1071D+28                  1341.3629     4.9680    39.7234
         TOT.                       29.998    4982.8110    30.9357    87.6177

 280.00  VIB.     0.1095D+03                  3071.8918    24.0662    20.3020
         ROT.     0.3885D+06                   834.6258     2.9808    28.5562
         INT.     0.4252D+08                  3906.5176    27.0470    48.8582
         TRA.     0.1131D+28                  1391.0430     4.9680    39.9041
         TOT.                       30.313    5297.5606    32.0151    88.7623

 290.00  VIB.     0.1334D+03                  3317.9674    25.1493    21.1654
         ROT.     0.4095D+06                   864.4339     2.9808    28.6608
         INT.     0.5463D+08                  4182.4013    28.1301    49.8262
         TRA.     0.1192D+28                  1440.7231     4.9680    40.0784
         TOT.                       30.639    5623.1243    33.0981    89.9046

 300.00  VIB.     0.1628D+03                  3574.8813    26.2335    22.0363
         ROT.     0.4309D+06                   894.2419     2.9808    28.7618
         INT.     0.7015D+08                  4469.1232    29.2143    50.7981
         TRA.     0.1255D+28                  1490.4032     4.9680    40.2469
         TOT.                       30.975    5959.5264    34.1823    91.0450

 310.00  VIB.     0.1990D+03                  3842.6332    27.3165    22.9141
         ROT.     0.4526D+06                   924.0500     2.9808    28.8596
         INT.     0.9005D+08                  4766.6832    30.2973    51.7737
         TRA.     0.1318D+28                  1540.0833     4.9680    40.4098
         TOT.                       31.322    6306.7665    35.2653    92.1835

 320.00  VIB.     0.2435D+03                  4121.2000    28.3961    23.7984
         ROT.     0.4746D+06                   953.8580     2.9808    28.9542
         INT.     0.1156D+09                  5075.0580    31.3769    52.7527
         TRA.     0.1382D+28                  1589.7634     4.9680    40.5675
         TOT.                       31.680    6664.8214    36.3449    93.3202

 330.00  VIB.     0.2983D+03                  4410.5372    29.4703    24.6887
         ROT.     0.4971D+06                   983.6661     2.9808    29.0459
         INT.     0.1483D+09                  5394.2033    32.4511    53.7346
         TRA.     0.1447D+28                  1639.4435     4.9680    40.7204
         TOT.                       32.049    7033.6469    37.4191    94.4550

 340.00  VIB.     0.3660D+03                  4710.5814    30.5372    25.5843
         ROT.     0.5198D+06                  1013.4742     2.9808    29.1349
         INT.     0.1903D+09                  5724.0556    33.5180    54.7193
         TRA.     0.1514D+28                  1689.1236     4.9680    40.8687
         TOT.                       32.429    7413.1792    38.4860    95.5879

 350.00  VIB.     0.4496D+03                  5021.2516    31.5952    26.4848
         ROT.     0.5429D+06                  1043.2822     2.9808    29.2213
         INT.     0.2441D+09                  6064.5338    34.5760    55.7062
         TRA.     0.1581D+28                  1738.8037     4.9680    41.0127
         TOT.                       32.819    7803.3375    39.5440    96.7188

 360.00  VIB.     0.5529D+03                  5342.4511    32.6429    27.3896
         ROT.     0.5664D+06                  1073.0903     2.9808    29.3053
         INT.     0.3131D+09                  6415.5414    35.6237    56.6949
         TRA.     0.1649D+28                  1788.4838     4.9680    41.1526
         TOT.                       33.220    8204.0252    40.5917    97.8475

 370.00  VIB.     0.6807D+03                  5674.0699    33.6789    28.2981
         ROT.     0.5901D+06                  1102.8984     2.9808    29.3870
         INT.     0.4017D+09                  6776.9682    36.6597    57.6851
         TRA.     0.1718D+28                  1838.1639     4.9680    41.2888
         TOT.                       33.631    8615.1322    41.6277    98.9739

 380.00  VIB.     0.8390D+03                  6015.9858    34.7021    29.2099
         ROT.     0.6142D+06                  1132.7064     2.9808    29.4665
         INT.     0.5153D+09                  7148.6922    37.6829    58.6764
         TRA.     0.1788D+28                  1887.8440     4.9680    41.4213
         TOT.                       34.052    9036.5363    42.6509   100.0976

 390.00  VIB.     0.1035D+04                  6368.0668    35.7117    30.1244
         ROT.     0.6386D+06                  1162.5145     2.9808    29.5439
         INT.     0.6612D+09                  7530.5813    38.6925    59.6683
         TRA.     0.1860D+28                  1937.5242     4.9680    41.5503
         TOT.                       34.484    9468.1054    43.6605   101.2186

 400.00  VIB.     0.1279D+04                  6730.1720    36.7069    31.0411
         ROT.     0.6633D+06                  1192.3226     2.9808    29.6194
         INT.     0.8482D+09                  7922.4946    39.6877    60.6605
         TRA.     0.1932D+28                  1987.2043     4.9680    41.6761
         TOT.                       34.925    9909.6989    44.6557   102.3366

   *: NOTE: HEATS OF FORMATION ARE RELATIVE TO THE
            ELEMENTS IN THEIR STANDARD STATE AT 298K
              (=  Standard Enthalpy of Formation).

            Hvib:  Zero-point energy is not included.
                   frequencies of less than zero cm-1 are not included.
            Hrot = (3/2)RT
            Htra = (3/2)RT + pV = (5/2)RT

            Heat capacity is Cp, not Cv

          For more information, see: HTTP://OpenMOPAC.net/Manual/thermochemistry.html


           FORCE CONSTANT IN CARTESIAN COORDINATES (Millidynes/A)

    ATOM   CHEMICAL       X               Y               Z
   NUMBER   SYMBOL  FORCE CONSTANT  FORCE CONSTANT  FORCE CONSTANT

      1       C        8.931686        8.511627        7.950224
      2       C       11.343705       14.127354        2.959281
      3       C        6.903939       11.506939        9.529451
      4       C        6.298638       10.762102        9.495567
      5       C        6.249007       10.890667        9.437979
      6       C        6.248610       10.642952        9.640305
      7       C        6.260189       10.640762        9.622860
      8       C        6.253260       10.688999        9.571588
      9       C       10.979662       13.607603        1.946925
     10       H        1.351859        4.765332        0.653991
     11       H        1.208911        1.788816        3.656912
     12       H        1.171582        1.642775        3.850175
     13       H        2.153961        0.967469        3.135232
     14       H        0.646925        2.531038        3.074394
     15       H        0.634254        2.521468        3.118391
     16       H        2.172802        0.971206        3.129304
     17       H        1.396901        4.226806        0.655501
     18       H        1.549254        4.576572        0.332427
     19       H        5.430980        0.689372        0.330098

 **********************
 *                    *
 * JOB ENDED NORMALLY *
 *                    *
 **********************



 TOTAL JOB TIME:             2.76 SECONDS

 == MOPAC DONE ==
