 *******************************************************************************
 **                                                                           **
 **                              MOPAC v23.1.2                                **
 **                                                                           **
 *******************************************************************************
 **          Digital Object Identifier (DOI): 10.5281/zenodo.6511958          **
 **    Visit the DOI location for information on how to cite this program.    **
 *******************************************************************************

                              PM3 CALCULATION RESULTS

 *******************************************************************************
 *  CALCULATION DONE: (MAX THREADS = 1)              Tue Jun  3 16:31:03 2025  *
 *  PM3        - The PM3 Hamiltonian to be used
 *  PRECISE    - TIGHTER CRITERIA TO BE USED
 *  NOSYM      - POINT-GROUP SYMMETRY SET TO C1
 *  THREADS=1  - MULTI-THREADING NOT USED
 *  T=         - A TIME OF 172800.0 SECONDS REQUESTED
 *  DUMP=N     - RESTART FILE WRITTEN EVERY 7200.0 SECONDS REQUESTED
 *******************************************************************************
pm3  precise nosym THREADS=1
 InChI=1S/C10H10/c1-2-3-7-10-8-5-4-6-9-10/h2-9H,1H2

   ATOM   CHEMICAL          X               Y               Z
  NUMBER   SYMBOL      (ANGSTROMS)     (ANGSTROMS)     (ANGSTROMS)

     1       C          0.07250000  *  -0.73130000  *   0.15270000  *
     2       C          0.66070000  *  -2.00210000  *   0.02730000  *
     3       C         -1.30570000  *  -0.64560000  *   0.44160000  *
     4       C          0.93590000  *   0.46730000  *   0.01170000  *
     5       C         -0.11190000  *  -3.15960000  *   0.16160000  *
     6       C         -2.07310000  *  -1.80720000  *   0.57550000  *
     7       C         -1.47810000  *  -3.06230000  *   0.43240000  *
     8       C          0.47300000  *   1.69170000  *  -0.26890000  *
     9       C          1.39470000  *   2.83190000  *  -0.40530000  *
    10       C          0.94620000  *   4.04910000  *  -0.69880000  *
    11       H          2.00750000  *   0.32630000  *   0.10350000  *
    12       H          1.71900000  *  -2.09890000  *  -0.18300000  *
    13       H         -1.79310000  *   0.30770000  *   0.58900000  *
    14       H          0.34980000  *  -4.13290000  *   0.05650000  *
    15       H         -3.12990000  *  -1.73380000  *   0.79790000  *
    16       H         -2.07440000  *  -3.95940000  *   0.53770000  *
    17       H         -0.58380000  *   1.86170000  *  -0.42600000  *
    18       H          2.45950000  *   2.68660000  *  -0.26480000  *
    19       H         -0.11010000  *   4.23780000  *  -0.84660000  *
    20       H          1.64130000  *   4.87310000  *  -0.79390000  *



          CARTESIAN COORDINATES 

    NO.       ATOM           X           Y           Z

     1         C          0.0725     -0.7313      0.1527
     2         C          0.6607     -2.0021      0.0273
     3         C         -1.3057     -0.6456      0.4416
     4         C          0.9359      0.4673      0.0117
     5         C         -0.1119     -3.1596      0.1616
     6         C         -2.0731     -1.8072      0.5755
     7         C         -1.4781     -3.0623      0.4324
     8         C          0.4730      1.6917     -0.2689
     9         C          1.3947      2.8319     -0.4053
    10         C          0.9462      4.0491     -0.6988
    11         H          2.0075      0.3263      0.1035
    12         H          1.7190     -2.0989     -0.1830
    13         H         -1.7931      0.3077      0.5890
    14         H          0.3498     -4.1329      0.0565
    15         H         -3.1299     -1.7338      0.7979
    16         H         -2.0744     -3.9594      0.5377
    17         H         -0.5838      1.8617     -0.4260
    18         H          2.4595      2.6866     -0.2648
    19         H         -0.1101      4.2378     -0.8466
    20         H          1.6413      4.8731     -0.7939

  H: (PM3): J. J. P. STEWART, J. COMP. CHEM. 10, 209 (1989).
  C: (PM3): J. J. P. STEWART, J. COMP. CHEM. 10, 209 (1989).

           Empirical Formula: C10 H10  =    20 atoms



      MOLECULAR POINT GROUP   :   C1  


      RHF CALCULATION, NO. OF DOUBLY OCCUPIED LEVELS = 25


          Geometry optimization using EF

          DIAGONAL MATRIX USED AS START HESSIAN

 CYCLE:     1 TIME:   0.008 TIME LEFT:  2.00D  GRAD.:    72.212 HEAT:  55.66099
 CYCLE:     2 TIME:   0.012 TIME LEFT:  2.00D  GRAD.:    65.341 HEAT:  55.07968
 CYCLE:     3 TIME:   0.008 TIME LEFT:  2.00D  GRAD.:    79.815 HEAT:  55.05563
 CYCLE:     4 TIME:   0.012 TIME LEFT:  2.00D  GRAD.:    31.261 HEAT:  54.13488
 CYCLE:     5 TIME:   0.012 TIME LEFT:  2.00D  GRAD.:    21.230 HEAT:  53.95596
 CYCLE:     6 TIME:   0.008 TIME LEFT:  2.00D  GRAD.:    21.707 HEAT:  53.85170
 CYCLE:     7 TIME:   0.004 TIME LEFT:  2.00D  GRAD.:    29.124 HEAT:  53.81058
 CYCLE:     8 TIME:   0.008 TIME LEFT:  2.00D  GRAD.:    19.672 HEAT:  53.68107
 CYCLE:     9 TIME:   0.008 TIME LEFT:  2.00D  GRAD.:    14.867 HEAT:  53.61957
 CYCLE:    10 TIME:   0.012 TIME LEFT:  2.00D  GRAD.:     8.067 HEAT:  53.58593
 CYCLE:    11 TIME:   0.008 TIME LEFT:  2.00D  GRAD.:    10.830 HEAT:  53.58343
 CYCLE:    12 TIME:   0.004 TIME LEFT:  2.00D  GRAD.:     4.332 HEAT:  53.55417
 CYCLE:    13 TIME:   0.008 TIME LEFT:  2.00D  GRAD.:     8.593 HEAT:  53.55162
 CYCLE:    14 TIME:   0.008 TIME LEFT:  2.00D  GRAD.:     6.403 HEAT:  53.53729
 CYCLE:    15 TIME:   0.004 TIME LEFT:  2.00D  GRAD.:     5.794 HEAT:  53.53025
 CYCLE:    16 TIME:   0.008 TIME LEFT:  2.00D  GRAD.:     2.941 HEAT:  53.51679
 CYCLE:    17 TIME:   0.008 TIME LEFT:  2.00D  GRAD.:     5.230 HEAT:  53.51254
 CYCLE:    18 TIME:   0.004 TIME LEFT:  2.00D  GRAD.:     5.559 HEAT:  53.50598
 CYCLE:    19 TIME:   0.008 TIME LEFT:  2.00D  GRAD.:     3.209 HEAT:  53.49734
 CYCLE:    20 TIME:   0.008 TIME LEFT:  2.00D  GRAD.:     2.677 HEAT:  53.49249
 CYCLE:    21 TIME:   0.004 TIME LEFT:  2.00D  GRAD.:     1.887 HEAT:  53.48763
 CYCLE:    22 TIME:   0.008 TIME LEFT:  2.00D  GRAD.:     3.199 HEAT:  53.48246
 CYCLE:    23 TIME:   0.008 TIME LEFT:  2.00D  GRAD.:     2.500 HEAT:  53.47411
 CYCLE:    24 TIME:   0.008 TIME LEFT:  2.00D  GRAD.:     2.833 HEAT:  53.46151
 CYCLE:    25 TIME:   0.004 TIME LEFT:  2.00D  GRAD.:     4.404 HEAT:  53.44387
 CYCLE:    26 TIME:   0.008 TIME LEFT:  2.00D  GRAD.:     5.681 HEAT:  53.41953
 CYCLE:    27 TIME:   0.004 TIME LEFT:  2.00D  GRAD.:     5.299 HEAT:  53.38103
 CYCLE:    28 TIME:   0.008 TIME LEFT:  2.00D  GRAD.:     4.754 HEAT:  53.33882
 CYCLE:    29 TIME:   0.008 TIME LEFT:  2.00D  GRAD.:     4.543 HEAT:  53.31227
 CYCLE:    30 TIME:   0.008 TIME LEFT:  2.00D  GRAD.:     4.663 HEAT:  53.28004
 CYCLE:    31 TIME:   0.008 TIME LEFT:  2.00D  GRAD.:     4.392 HEAT:  53.25493
 CYCLE:    32 TIME:   0.004 TIME LEFT:  2.00D  GRAD.:     6.049 HEAT:  53.23144
 CYCLE:    33 TIME:   0.008 TIME LEFT:  2.00D  GRAD.:     4.560 HEAT:  53.20249
 CYCLE:    34 TIME:   0.004 TIME LEFT:  2.00D  GRAD.:     3.376 HEAT:  53.17042
 CYCLE:    35 TIME:   0.008 TIME LEFT:  2.00D  GRAD.:     3.702 HEAT:  53.14187
 CYCLE:    36 TIME:   0.008 TIME LEFT:  2.00D  GRAD.:     2.907 HEAT:  53.12518
 CYCLE:    37 TIME:   0.008 TIME LEFT:  2.00D  GRAD.:     2.415 HEAT:  53.10537
 CYCLE:    38 TIME:   0.008 TIME LEFT:  2.00D  GRAD.:     2.287 HEAT:  53.09248
 CYCLE:    39 TIME:   0.004 TIME LEFT:  2.00D  GRAD.:     1.796 HEAT:  53.08401
 CYCLE:    40 TIME:   0.008 TIME LEFT:  2.00D  GRAD.:     1.425 HEAT:  53.07690
 CYCLE:    41 TIME:   0.008 TIME LEFT:  2.00D  GRAD.:     2.041 HEAT:  53.07296
 CYCLE:    42 TIME:   0.008 TIME LEFT:  2.00D  GRAD.:     1.475 HEAT:  53.06804
 CYCLE:    43 TIME:   0.008 TIME LEFT:  2.00D  GRAD.:     1.381 HEAT:  53.06319
 CYCLE:    44 TIME:   0.008 TIME LEFT:  2.00D  GRAD.:     1.343 HEAT:  53.05811
 CYCLE:    45 TIME:   0.008 TIME LEFT:  2.00D  GRAD.:     1.016 HEAT:  53.05495
 CYCLE:    46 TIME:   0.004 TIME LEFT:  2.00D  GRAD.:     0.761 HEAT:  53.05184
 CYCLE:    47 TIME:   0.008 TIME LEFT:  2.00D  GRAD.:     0.921 HEAT:  53.04910
 CYCLE:    48 TIME:   0.008 TIME LEFT:  2.00D  GRAD.:     1.258 HEAT:  53.04488
 CYCLE:    49 TIME:   0.008 TIME LEFT:  2.00D  GRAD.:     1.729 HEAT:  53.03822
 CYCLE:    50 TIME:   0.008 TIME LEFT:  2.00D  GRAD.:     3.130 HEAT:  53.02853
 CYCLE:    51 TIME:   0.008 TIME LEFT:  2.00D  GRAD.:     1.930 HEAT:  53.01923
 CYCLE:    52 TIME:   0.004 TIME LEFT:  2.00D  GRAD.:     1.304 HEAT:  53.00536
 CYCLE:    53 TIME:   0.008 TIME LEFT:  2.00D  GRAD.:     1.606 HEAT:  52.99964
 CYCLE:    54 TIME:   0.008 TIME LEFT:  2.00D  GRAD.:     1.259 HEAT:  52.99591
 CYCLE:    55 TIME:   0.008 TIME LEFT:  2.00D  GRAD.:     0.751 HEAT:  52.99311
 CYCLE:    56 TIME:   0.008 TIME LEFT:  2.00D  GRAD.:     0.644 HEAT:  52.99172
 CYCLE:    57 TIME:   0.004 TIME LEFT:  2.00D  GRAD.:     0.490 HEAT:  52.99109
 CYCLE:    58 TIME:   0.008 TIME LEFT:  2.00D  GRAD.:     0.552 HEAT:  52.99039
 CYCLE:    59 TIME:   0.008 TIME LEFT:  2.00D  GRAD.:     0.752 HEAT:  52.98951
 CYCLE:    60 TIME:   0.008 TIME LEFT:  2.00D  GRAD.:     1.264 HEAT:  52.98777
 CYCLE:    61 TIME:   0.004 TIME LEFT:  2.00D  GRAD.:     0.997 HEAT:  52.98620
 CYCLE:    62 TIME:   0.008 TIME LEFT:  2.00D  GRAD.:     2.436 HEAT:  52.98143
 CYCLE:    63 TIME:   0.008 TIME LEFT:  2.00D  GRAD.:     2.354 HEAT:  52.97853
 CYCLE:    64 TIME:   0.008 TIME LEFT:  2.00D  GRAD.:     1.170 HEAT:  52.97472
 CYCLE:    65 TIME:   0.008 TIME LEFT:  2.00D  GRAD.:     0.789 HEAT:  52.97188
 CYCLE:    66 TIME:   0.008 TIME LEFT:  2.00D  GRAD.:     0.675 HEAT:  52.97063
 CYCLE:    67 TIME:   0.008 TIME LEFT:  2.00D  GRAD.:     0.471 HEAT:  52.97015
 CYCLE:    68 TIME:   0.008 TIME LEFT:  2.00D  GRAD.:     0.796 HEAT:  52.96975
 CYCLE:    69 TIME:   0.004 TIME LEFT:  2.00D  GRAD.:     0.290 HEAT:  52.96921
 CYCLE:    70 TIME:   0.012 TIME LEFT:  2.00D  GRAD.:     0.188 HEAT:  52.96908
 CYCLE:    71 TIME:   0.008 TIME LEFT:  2.00D  GRAD.:     0.328 HEAT:  52.96893
 CYCLE:    72 TIME:   0.008 TIME LEFT:  2.00D  GRAD.:     0.217 HEAT:  52.96882
 CYCLE:    73 TIME:   0.004 TIME LEFT:  2.00D  GRAD.:     0.325 HEAT:  52.96862
 CYCLE:    74 TIME:   0.008 TIME LEFT:  2.00D  GRAD.:     0.233 HEAT:  52.96852
 CYCLE:    75 TIME:   0.004 TIME LEFT:  2.00D  GRAD.:     0.395 HEAT:  52.96836
 CYCLE:    76 TIME:   0.008 TIME LEFT:  2.00D  GRAD.:     0.281 HEAT:  52.96820
 CYCLE:    77 TIME:   0.008 TIME LEFT:  2.00D  GRAD.:     0.215 HEAT:  52.96805
 CYCLE:    78 TIME:   0.008 TIME LEFT:  2.00D  GRAD.:     0.192 HEAT:  52.96793
 CYCLE:    79 TIME:   0.008 TIME LEFT:  2.00D  GRAD.:     0.132 HEAT:  52.96791
 CYCLE:    80 TIME:   0.004 TIME LEFT:  2.00D  GRAD.:     0.068 HEAT:  52.96786
 CYCLE:    81 TIME:   0.008 TIME LEFT:  2.00D  GRAD.:     0.043 HEAT:  52.96785

     GRADIENT =  0.04303 IS LESS THAN CUTOFF =  0.05000



 -------------------------------------------------------------------------------
 pm3  precise nosym THREADS=1
 InChI=1S/C10H10/c1-2-3-7-10-8-5-4-6-9-10/h2-9H,1H2



     GEOMETRY OPTIMISED USING EIGENVECTOR FOLLOWING (EF).     
     SCF FIELD WAS ACHIEVED                                   


                              PM3 CALCULATION
                                                       MOPAC v23.1.2 MacOS
                                                       Tue Jun  3 16:31:04 2025




          FINAL HEAT OF FORMATION =         52.96785 KCAL/MOL =     221.61749 KJ/MOL


          COSMO AREA              =        185.81 SQUARE ANGSTROMS
          COSMO VOLUME            =        180.15 CUBIC ANGSTROMS

          GRADIENT NORM           =          0.04303          =       0.00962 PER ATOM
          IONIZATION POTENTIAL    =          8.744883 EV
          HOMO LUMO ENERGIES (EV) =         -8.745 -0.458
          NO. OF FILLED LEVELS    =         25
          MOLECULAR WEIGHT        =        130.1890         POINT GROUP:  C1  

          MOLECULAR DIMENSIONS (Angstroms)

            Atom       Atom       Distance
            H    20    H    16     9.60233
            H    15    H    12     4.76407
            H    18    H    19     0.00500


          SCF CALCULATIONS        =         87

          WALL-CLOCK TIME         =      0.598 SECONDS
          COMPUTATION TIME        =      0.373 SECONDS




   ATOM   CHEMICAL          X               Y               Z
  NUMBER   SYMBOL      (ANGSTROMS)     (ANGSTROMS)     (ANGSTROMS)

     1       C          0.11826688  *  -0.75851594  *   0.06349470  *
     2       C          0.68619370  *  -2.03676928  *   0.10664528  *
     3       C         -1.26136647  *  -0.61733805  *   0.24614288  *
     4       C          0.97037108  *   0.40183835  *  -0.17037880  *
     5       C         -0.11579747  *  -3.14925912  *   0.32854908  *
     6       C         -2.05880744  *  -1.73233586  *   0.46790882  *
     7       C         -1.48743329  *  -3.00000659  *   0.50936034  *
     8       C          0.49186047  *   1.65440260  *  -0.22319326  *
     9       C          1.34678022  *   2.80479583  *  -0.45628334  *
    10       C          0.86739142  *   4.04669044  *  -0.50622058  *
    11       H          2.04188063  *   0.20117256  *  -0.30395773  *
    12       H          1.76593297  *  -2.16027363  *  -0.03504751  *
    13       H         -1.69712683  *   0.39311277  *   0.20993517  *
    14       H          0.33365193  *  -4.14715213  *   0.36108746  *
    15       H         -3.13764087  *  -1.61214862  *   0.60997790  *
    16       H         -2.11599032  *  -3.87913587  *   0.68385130  *
    17       H         -0.58838123  *   1.83285860  *  -0.08630505  *
    18       H          2.41808707  *   2.60866635  *  -0.59146046  *
    19       H         -0.18520568  *   4.28396972  *  -0.37765010  *
    20       H          1.50125851  *   4.91064030  *  -0.67997503  *

                             CARTESIAN COORDINATES

   1    C        0.118266878    -0.758515940     0.063494704
   2    C        0.686193701    -2.036769279     0.106645278
   3    C       -1.261366470    -0.617338046     0.246142883
   4    C        0.970371078     0.401838349    -0.170378795
   5    C       -0.115797475    -3.149259119     0.328549084
   6    C       -2.058807444    -1.732335862     0.467908822
   7    C       -1.487433291    -3.000006591     0.509360338
   8    C        0.491860467     1.654402597    -0.223193256
   9    C        1.346780224     2.804795832    -0.456283337
  10    C        0.867391416     4.046690441    -0.506220584
  11    H        2.041880634     0.201172561    -0.303957735
  12    H        1.765932974    -2.160273633    -0.035047506
  13    H       -1.697126831     0.393112768     0.209935170
  14    H        0.333651930    -4.147152132     0.361087456
  15    H       -3.137640874    -1.612148617     0.609977899
  16    H       -2.115990320    -3.879135865     0.683851295
  17    H       -0.588381226     1.832858599    -0.086305052
  18    H        2.418087067     2.608666349    -0.591460463
  19    H       -0.185205683     4.283969722    -0.377650103
  20    H        1.501258514     4.910640300    -0.679975026


           Empirical Formula: C10 H10  =    20 atoms



      MOLECULAR POINT GROUP   :   C1  


                  EIGENVALUES  
 -40.17219 -35.91683 -31.46360 -29.74218 -27.07521 -22.64080 -21.82256 -20.16157
 -19.22416 -18.15093 -16.85754 -15.94328 -15.50146 -15.03261 -14.60963 -14.31983
 -13.54932 -13.31687 -12.66287 -12.38688 -12.06507 -12.03428 -10.38163  -9.80047
  -8.74488  -0.45778   0.38725   0.86063   2.11104   2.99869   3.00516   3.20394
   3.40850   3.47058   3.60298   3.63537   3.76861   3.93786   3.98548   4.08676
   4.67964   4.76779   5.00189   5.16298   5.25324   5.41613   5.86867   5.89729
   6.22267   6.36518


              NET ATOMIC CHARGES AND DIPOLE CONTRIBUTIONS

  ATOM NO.   TYPE          CHARGE      No. of ELECS.   s-Pop       p-Pop       
    1          C          -0.048688        4.0487     1.16724     2.88145
    2          C          -0.090044        4.0900     1.17951     2.91054
    3          C          -0.098868        4.0989     1.18000     2.91887
    4          C          -0.086695        4.0867     1.18057     2.90613
    5          C          -0.102851        4.1029     1.17904     2.92381
    6          C          -0.098890        4.0989     1.17795     2.92094
    7          C          -0.100010        4.1000     1.17956     2.92045
    8          C          -0.115446        4.1154     1.18485     2.93060
    9          C          -0.104245        4.1042     1.17963     2.92461
   10          C          -0.146956        4.1470     1.18390     2.96306
   11          H           0.102934        0.8971     0.89707
   12          H           0.104911        0.8951     0.89509
   13          H           0.110285        0.8897     0.88971
   14          H           0.102725        0.8973     0.89728
   15          H           0.102821        0.8972     0.89718
   16          H           0.102739        0.8973     0.89726
   17          H           0.107501        0.8925     0.89250
   18          H           0.098503        0.9015     0.90150
   19          H           0.080881        0.9191     0.91912
   20          H           0.079394        0.9206     0.92061
 DIPOLE           X         Y         Z       TOTAL
 POINT-CHG.    -0.027     0.006     0.003     0.028
 HYBRID         0.005     0.002    -0.001     0.005
 SUM           -0.023     0.007     0.002     0.024


          ATOMIC ORBITAL ELECTRON POPULATIONS

     Atom    s        px        py        pz   
    1  C   1.16724   0.94211   0.93921   1.00012
    2  C   1.17951   0.98165   0.93287   0.99602
    3  C   1.18000   0.94142   0.98022   0.99722
    4  C   1.18057   0.97862   0.93100   0.99650
    5  C   1.17904   0.94858   0.97538   0.99985
    6  C   1.17795   0.98166   0.93971   0.99958
    7  C   1.17956   0.95499   0.96776   0.99770
    8  C   1.18485   0.98841   0.93965   1.00254
    9  C   1.17963   0.98089   0.94204   1.00168
   10  C   1.18390   1.00417   0.96209   0.99680
   11  H   0.89707
   12  H   0.89509
   13  H   0.88971
   14  H   0.89728
   15  H   0.89718
   16  H   0.89726
   17  H   0.89250
   18  H   0.90150
   19  H   0.91912
   20  H   0.92061
 *******************************************************************************
 **                                                                           **
 **                              MOPAC v23.1.2                                **
 **                                                                           **
 *******************************************************************************
 **          Digital Object Identifier (DOI): 10.5281/zenodo.6511958          **
 **    Visit the DOI location for information on how to cite this program.    **
 *******************************************************************************

                              PM3 CALCULATION RESULTS

 *******************************************************************************
 *  CALCULATION DONE: (MAX THREADS = 1)              Tue Jun  3 16:31:04 2025  *
 *  PM3        - The PM3 Hamiltonian to be used
 *  OLDGEO     - PREVIOUS GEOMETRY TO BE USED
 *  PRECISE    - TIGHTER CRITERIA TO BE USED
 *  NOSYM      - POINT-GROUP SYMMETRY SET TO C1
 *  THREADS=1  - MULTI-THREADING NOT USED
 *  T=         - A TIME OF 172800.0 SECONDS REQUESTED
 *  DUMP=N     - RESTART FILE WRITTEN EVERY 7200.0 SECONDS REQUESTED
 *  THERMO     - THERMODYNAMIC QUANTITIES TO BE CALCULATED
 *******************************************************************************
oldgeo thermo nosym precise THREADS=1  pm3
 InChI=1S/C10H10/c1-2-3-7-10-8-5-4-6-9-10/h2-9H,1H2

   ATOM   CHEMICAL          X               Y               Z
  NUMBER   SYMBOL      (ANGSTROMS)     (ANGSTROMS)     (ANGSTROMS)

     1       C          0.11826688  *  -0.75851594  *   0.06349470  *
     2       C          0.68619370  *  -2.03676928  *   0.10664528  *
     3       C         -1.26136647  *  -0.61733805  *   0.24614288  *
     4       C          0.97037108  *   0.40183835  *  -0.17037880  *
     5       C         -0.11579747  *  -3.14925912  *   0.32854908  *
     6       C         -2.05880744  *  -1.73233586  *   0.46790882  *
     7       C         -1.48743329  *  -3.00000659  *   0.50936034  *
     8       C          0.49186047  *   1.65440260  *  -0.22319326  *
     9       C          1.34678022  *   2.80479583  *  -0.45628334  *
    10       C          0.86739142  *   4.04669044  *  -0.50622058  *
    11       H          2.04188063  *   0.20117256  *  -0.30395773  *
    12       H          1.76593297  *  -2.16027363  *  -0.03504751  *
    13       H         -1.69712683  *   0.39311277  *   0.20993517  *
    14       H          0.33365193  *  -4.14715213  *   0.36108746  *
    15       H         -3.13764087  *  -1.61214862  *   0.60997790  *
    16       H         -2.11599032  *  -3.87913587  *   0.68385130  *
    17       H         -0.58838123  *   1.83285860  *  -0.08630505  *
    18       H          2.41808707  *   2.60866635  *  -0.59146046  *
    19       H         -0.18520568  *   4.28396972  *  -0.37765010  *
    20       H          1.50125851  *   4.91064030  *  -0.67997503  *



          CARTESIAN COORDINATES 

    NO.       ATOM           X           Y           Z

     1         C          0.1183     -0.7585      0.0635
     2         C          0.6862     -2.0368      0.1066
     3         C         -1.2614     -0.6173      0.2461
     4         C          0.9704      0.4018     -0.1704
     5         C         -0.1158     -3.1493      0.3285
     6         C         -2.0588     -1.7323      0.4679
     7         C         -1.4874     -3.0000      0.5094
     8         C          0.4919      1.6544     -0.2232
     9         C          1.3468      2.8048     -0.4563
    10         C          0.8674      4.0467     -0.5062
    11         H          2.0419      0.2012     -0.3040
    12         H          1.7659     -2.1603     -0.0350
    13         H         -1.6971      0.3931      0.2099
    14         H          0.3337     -4.1472      0.3611
    15         H         -3.1376     -1.6121      0.6100
    16         H         -2.1160     -3.8791      0.6839
    17         H         -0.5884      1.8329     -0.0863
    18         H          2.4181      2.6087     -0.5915
    19         H         -0.1852      4.2840     -0.3777
    20         H          1.5013      4.9106     -0.6800

  H: (PM3): J. J. P. STEWART, J. COMP. CHEM. 10, 209 (1989).
  C: (PM3): J. J. P. STEWART, J. COMP. CHEM. 10, 209 (1989).

           Empirical Formula: C10 H10  =    20 atoms



      MOLECULAR POINT GROUP   :   C1  


      RHF CALCULATION, NO. OF DOUBLY OCCUPIED LEVELS = 25



          HEAT OF FORMATION =      52.967851 KCALS/MOLE


          CARTESIAN COORDINATE DERIVATIVES

   NUMBER  ATOM         X            Y            Z

     1       C     -0.010901     0.004352    -0.003910
     2       C      0.009964     0.002900    -0.006590
     3       C     -0.005765    -0.013394    -0.000419
     4       C      0.003406     0.002188    -0.004279
     5       C     -0.001335    -0.013360    -0.004916
     6       C      0.011956    -0.002726    -0.006702
     7       C     -0.003454    -0.003598    -0.004420
     8       C     -0.005365    -0.000748     0.002084
     9       C     -0.011531     0.003446     0.005105
    10       C      0.006363     0.009284    -0.004377
    11       H     -0.001968     0.007718     0.003830
    12       H     -0.004356     0.006464     0.001110
    13       H     -0.003015     0.009228     0.012239
    14       H      0.001900     0.001503     0.006964
    15       H      0.004994    -0.011460    -0.004485
    16       H     -0.006612     0.009361     0.008728
    17       H      0.003131    -0.007209     0.001171
    18       H      0.001750    -0.004654    -0.000313
    19       H     -0.000343     0.005014     0.000412
    20       H      0.011181    -0.004308    -0.001233



          GRADIENT NORM =   0.04927

          MOLECULAR WEIGHT =  130.19



          ROTATIONAL CONSTANTS IN CM(-1)

          A =    0.15348966   B =    0.02041520   C =    0.01801860



           PRINCIPAL MOMENTS OF INERTIA IN UNITS OF 10**(-40)*GRAM-CM**2

          A =      182.3755   B =     1371.1721   C =     1553.5475


          ORIENTATION OF MOLECULE IN FORCE CALCULATION

    NO.       ATOM         X         Y         Z

     1          C       0.5734    0.0843    0.0004
     2          C       1.9728    0.0843    0.0004
     3          C      -0.1098    1.3049    0.0004
     4          C      -0.1479   -1.1833    0.0005
     5          C       2.6704    1.2858    0.0005
     6          C       0.5919    2.5033    0.0003
     7          C       1.9829    2.4957    0.0005
     8          C      -1.4878   -1.2555   -0.0001
     9          C      -2.1989   -2.5216   -0.0002
    10          C      -3.5293   -2.5883   -0.0025
    11          H       0.4661   -2.0939    0.0010
    12          H       2.5195   -0.8656    0.0004
    13          H      -1.2108    1.2927    0.0006
    14          H       3.7653    1.2801    0.0008
    15          H       0.0486    3.4537    0.0001
    16          H       2.5363    3.4403    0.0007
    17          H      -2.0850   -0.3277   -0.0005
    18          H      -1.5891   -3.4341    0.0015
    19          H      -4.1693   -1.7101   -0.0042
    20          H      -4.0666   -3.5316   -0.0027


    FIRST DERIVATIVES WILL BE USED IN THE CALCULATION OF SECOND DERIVATIVES

          ESTIMATED TIME TO COMPLETE CALCULATION =        1.88 SECONDS

    FOR POINT-GROUP C1   THERE ARE   1 UNIQUE SYMMETRY FUNCTIONS.

 STEP:   1 TIME =     0.02 SECS, INTEGRAL =      0.02 TIME LEFT: 172799.97
 STEP:   2 TIME =     0.02 SECS, INTEGRAL =      0.04 TIME LEFT: 172799.95
 STEP:   3 TIME =     0.02 SECS, INTEGRAL =      0.07 TIME LEFT: 172799.93
 STEP:   4 TIME =     0.02 SECS, INTEGRAL =      0.09 TIME LEFT: 172799.90
 STEP:   5 TIME =     0.02 SECS, INTEGRAL =      0.11 TIME LEFT: 172799.88
 STEP:   6 TIME =     0.02 SECS, INTEGRAL =      0.13 TIME LEFT: 172799.86
 STEP:   7 TIME =     0.02 SECS, INTEGRAL =      0.15 TIME LEFT: 172799.84
 STEP:   8 TIME =     0.03 SECS, INTEGRAL =      0.18 TIME LEFT: 172799.81
 STEP:   9 TIME =     0.02 SECS, INTEGRAL =      0.20 TIME LEFT: 172799.79
 STEP:  10 TIME =     0.02 SECS, INTEGRAL =      0.22 TIME LEFT: 172799.77
 STEP:  11 TIME =     0.02 SECS, INTEGRAL =      0.24 TIME LEFT: 172799.75
 STEP:  12 TIME =     0.02 SECS, INTEGRAL =      0.26 TIME LEFT: 172799.73
 STEP:  13 TIME =     0.02 SECS, INTEGRAL =      0.28 TIME LEFT: 172799.71
 STEP:  14 TIME =     0.03 SECS, INTEGRAL =      0.31 TIME LEFT: 172799.68
 STEP:  15 TIME =     0.02 SECS, INTEGRAL =      0.33 TIME LEFT: 172799.66
 STEP:  16 TIME =     0.02 SECS, INTEGRAL =      0.35 TIME LEFT: 172799.64
 STEP:  17 TIME =     0.02 SECS, INTEGRAL =      0.38 TIME LEFT: 172799.62
 STEP:  18 TIME =     0.02 SECS, INTEGRAL =      0.40 TIME LEFT: 172799.59
 STEP:  19 TIME =     0.02 SECS, INTEGRAL =      0.42 TIME LEFT: 172799.57
 STEP:  20 TIME =     0.02 SECS, INTEGRAL =      0.45 TIME LEFT: 172799.55
 STEP:  21 TIME =     0.02 SECS, INTEGRAL =      0.47 TIME LEFT: 172799.52
 STEP:  22 TIME =     0.02 SECS, INTEGRAL =      0.49 TIME LEFT: 172799.50
 STEP:  23 TIME =     0.02 SECS, INTEGRAL =      0.51 TIME LEFT: 172799.48
 STEP:  24 TIME =     0.02 SECS, INTEGRAL =      0.53 TIME LEFT: 172799.46
 STEP:  25 TIME =     0.02 SECS, INTEGRAL =      0.55 TIME LEFT: 172799.44
 STEP:  26 TIME =     0.02 SECS, INTEGRAL =      0.57 TIME LEFT: 172799.43
 STEP:  27 TIME =     0.02 SECS, INTEGRAL =      0.59 TIME LEFT: 172799.40
 STEP:  28 TIME =     0.02 SECS, INTEGRAL =      0.61 TIME LEFT: 172799.38
 STEP:  29 TIME =     0.02 SECS, INTEGRAL =      0.63 TIME LEFT: 172799.36
 STEP:  30 TIME =     0.02 SECS, INTEGRAL =      0.66 TIME LEFT: 172799.34
 STEP:  31 TIME =     0.02 SECS, INTEGRAL =      0.68 TIME LEFT: 172799.32
 STEP:  32 TIME =     0.02 SECS, INTEGRAL =      0.70 TIME LEFT: 172799.30
 STEP:  33 TIME =     0.02 SECS, INTEGRAL =      0.72 TIME LEFT: 172799.27
 STEP:  34 TIME =     0.02 SECS, INTEGRAL =      0.74 TIME LEFT: 172799.25
 STEP:  35 TIME =     0.02 SECS, INTEGRAL =      0.76 TIME LEFT: 172799.23
 STEP:  36 TIME =     0.02 SECS, INTEGRAL =      0.78 TIME LEFT: 172799.21
 STEP:  37 TIME =     0.02 SECS, INTEGRAL =      0.80 TIME LEFT: 172799.20
 STEP:  38 TIME =     0.02 SECS, INTEGRAL =      0.82 TIME LEFT: 172799.18
 STEP:  39 TIME =     0.02 SECS, INTEGRAL =      0.84 TIME LEFT: 172799.15
 STEP:  40 TIME =     0.02 SECS, INTEGRAL =      0.86 TIME LEFT: 172799.13
 STEP:  41 TIME =     0.02 SECS, INTEGRAL =      0.88 TIME LEFT: 172799.11
 STEP:  42 TIME =     0.02 SECS, INTEGRAL =      0.91 TIME LEFT: 172799.09
 STEP:  43 TIME =     0.02 SECS, INTEGRAL =      0.93 TIME LEFT: 172799.07
 STEP:  44 TIME =     0.02 SECS, INTEGRAL =      0.95 TIME LEFT: 172799.05
 STEP:  45 TIME =     0.02 SECS, INTEGRAL =      0.97 TIME LEFT: 172799.02
 STEP:  46 TIME =     0.02 SECS, INTEGRAL =      0.98 TIME LEFT: 172799.01
 STEP:  47 TIME =     0.02 SECS, INTEGRAL =      1.00 TIME LEFT: 172798.99
 STEP:  48 TIME =     0.02 SECS, INTEGRAL =      1.02 TIME LEFT: 172798.97
 STEP:  49 TIME =     0.02 SECS, INTEGRAL =      1.04 TIME LEFT: 172798.95
 STEP:  50 TIME =     0.02 SECS, INTEGRAL =      1.06 TIME LEFT: 172798.93
 STEP:  51 TIME =     0.02 SECS, INTEGRAL =      1.08 TIME LEFT: 172798.91
 STEP:  52 TIME =     0.02 SECS, INTEGRAL =      1.10 TIME LEFT: 172798.89
 STEP:  53 TIME =     0.02 SECS, INTEGRAL =      1.12 TIME LEFT: 172798.87
 STEP:  54 TIME =     0.02 SECS, INTEGRAL =      1.14 TIME LEFT: 172798.85
 STEP:  55 TIME =     0.02 SECS, INTEGRAL =      1.16 TIME LEFT: 172798.83
 STEP:  56 TIME =     0.02 SECS, INTEGRAL =      1.18 TIME LEFT: 172798.82
 STEP:  57 TIME =     0.02 SECS, INTEGRAL =      1.20 TIME LEFT: 172798.80
 STEP:  58 TIME =     0.02 SECS, INTEGRAL =      1.21 TIME LEFT: 172798.78
 STEP:  59 TIME =     0.02 SECS, INTEGRAL =      1.23 TIME LEFT: 172798.76
 STEP:  60 TIME =     0.02 SECS, INTEGRAL =      1.26 TIME LEFT: 172798.73

(To convert to Hartree/Bohr^2, multiply by (10^(-21) x N x a0^2)/(4.184 x 627.51) =  0.0642)


           FORCE MATRIX IN MILLIDYNES/ANGSTROM


                  C  1       C  2       C  3       C  4       C  5       C  6
 ------------------------------------------------------------------------------
     C    1  18.020336
     C    2   6.611418  17.297955
     C    3   6.634588   2.368334  17.266329
     C    4   5.320097   0.934504   0.828353  18.281984
     C    5   2.440925   7.045416   1.853772   0.130188  17.234487
     C    6   2.413474   1.824575   7.066411   0.105612   2.547104  17.280878
     C    7   1.793426   2.509219   2.529670   0.035182   6.967770   6.977447
     C    8   1.069552   0.090937   0.122216  10.031305   0.039907   0.018366
     C    9   0.165829   0.027384   0.023079   1.113428   0.012174   0.007769
     C   10   0.037260   0.008857   0.008299   0.119324   0.003548   0.002969
     H   11   0.442316   0.047766   0.042507   4.746956   0.002107   0.008594
     H   12   0.448259   4.824536   0.082553   0.053302   0.437581   0.010792
     H   13   0.452123   0.083174   4.655490   0.050245   0.010979   0.436874
     H   14   0.092063   0.438360   0.010822   0.008434   4.861019   0.089266
     H   15   0.091971   0.010384   0.437876   0.008544   0.089671   4.864481
     H   16   0.008466   0.088842   0.088828   0.009814   0.439252   0.439074
     H   17   0.086164   0.003091   0.101774   0.468200   0.002862   0.005125
     H   18   0.003137   0.000829   0.000566   0.039022   0.000188   0.000695
     H   19   0.005869   0.000647   0.001024   0.006080   0.000420   0.000296
     H   20   0.010980   0.000598   0.000563   0.008238   0.000661   0.000216


                  C  7       C  8       C  9       C 10       H 11       H 12
 ------------------------------------------------------------------------------
     C    7  17.238141
     C    8   0.015314  18.276961
     C    9   0.003378   5.633403  18.431480
     C   10   0.001367   1.105970  10.734870  17.858004
     H   11   0.001488   0.466037   0.086605   0.006095   5.120490
     H   12   0.091276   0.003728   0.002221   0.000654   0.029463   5.199078
     H   13   0.090019   0.100925   0.006245   0.001048   0.002092   0.006861
     H   14   0.439885   0.001488   0.000572   0.000382   0.000654   0.042867
     H   15   0.439617   0.001073   0.000594   0.000419   0.001347   0.008131
     H   16   4.867047   0.000919   0.000601   0.000426   0.000374   0.007136
     H   17   0.000676   4.577345   0.443239   0.035367   0.102578   0.001478
     H   18   0.000188   0.447380   4.770960   0.452081   0.027988   0.000544
     H   19   0.000316   0.102125   0.487928   5.075958   0.003107   0.000317
     H   20   0.000234   0.137989   0.459788   5.113779   0.004612   0.000195


                  H 13       H 14       H 15       H 16       H 17       H 18
 ------------------------------------------------------------------------------
     H   13   5.063568
     H   14   0.007935   5.225085
     H   15   0.041192   0.007174   5.229187
     H   16   0.006978   0.041399   0.041289   5.232896
     H   17   0.074913   0.000295   0.000609   0.000460   4.988669
     H   18   0.001098   0.000151   0.000128   0.000151   0.035543   5.138329
     H   19   0.000886   0.000170   0.000268   0.000220   0.024413   0.117733
     H   20   0.000365   0.000131   0.000166   0.000165   0.002501   0.079055


                  H 19       H 20
 ------------------------------
     H   19   5.469090
     H   20   0.421314   5.497210


          HEAT OF FORMATION =      52.967851 KCALS/MOLE

          ZERO POINT ENERGY     103.583 KCAL/MOL


           NORMAL COORDINATE ANALYSIS (Total motion = 1 Angstrom)


   Root No.       1         2         3         4         5         6         7         8

                 1 A       2 A       3 A       4 A       5 A       6 A       7 A       8 A   

                  42.9     102.1     133.7     136.5     252.6     331.3     360.0     365.9
  
           1    0.0000   -0.0000    0.0210   -0.0004   -0.0000    0.0355   -0.0001   -0.0171
           2   -0.0000    0.0000   -0.0236    0.0005    0.0000   -0.0261    0.0000    0.0058
           3   -0.0245   -0.0398    0.0004    0.0169   -0.0081    0.0000    0.0035   -0.0000
           4    0.0000   -0.0000    0.0205   -0.0004   -0.0000    0.0364   -0.0001   -0.0229
           5    0.0000   -0.0000    0.0072   -0.0002   -0.0000   -0.0024   -0.0001   -0.0367
           6    0.0156   -0.0193    0.0006    0.0237   -0.0438   -0.0001   -0.0654    0.0002
           7    0.0000    0.0000   -0.0035    0.0001   -0.0000    0.0161   -0.0001   -0.0381
           8   -0.0000    0.0001   -0.0364    0.0008    0.0000   -0.0379    0.0000   -0.0069
           9   -0.0390   -0.0356    0.0002    0.0094   -0.0448   -0.0000    0.0664   -0.0001
          10    0.0000   -0.0001    0.0331   -0.0007   -0.0000   -0.0132    0.0000    0.0075
          11   -0.0000    0.0000   -0.0322    0.0007    0.0000    0.0032    0.0000    0.0138
          12   -0.0437   -0.0437   -0.0004   -0.0144    0.0675    0.0001    0.0026   -0.0001
          13    0.0000    0.0000   -0.0069    0.0001   -0.0000    0.0071   -0.0001   -0.0222
          14    0.0000   -0.0000    0.0240   -0.0005   -0.0000    0.0181   -0.0001   -0.0437
          15    0.0433    0.0215    0.0001    0.0017   -0.0101    0.0000    0.0627   -0.0001
          16   -0.0000    0.0001   -0.0322    0.0007    0.0000   -0.0166   -0.0000   -0.0296
          17   -0.0000    0.0000   -0.0208    0.0004    0.0000   -0.0232   -0.0000   -0.0168
          18   -0.0137    0.0006   -0.0005   -0.0182   -0.0105   -0.0001   -0.0645    0.0002
          19   -0.0000    0.0001   -0.0323    0.0007    0.0000   -0.0174   -0.0001   -0.0293
          20    0.0000   -0.0000    0.0095   -0.0002   -0.0000    0.0047   -0.0001   -0.0473
          21    0.0286    0.0344   -0.0007   -0.0282    0.0443    0.0000    0.0007   -0.0000
          22    0.0000   -0.0001    0.0324   -0.0007    0.0000   -0.0205    0.0000    0.0121
          23   -0.0000    0.0001   -0.0195    0.0004   -0.0000    0.0537    0.0001    0.0549
          24   -0.0252    0.0459    0.0018    0.0648    0.0380    0.0001   -0.0048   -0.0001
          25    0.0000   -0.0000   -0.0106    0.0003    0.0001   -0.0141    0.0001    0.0639
          26   -0.0000    0.0000    0.0063   -0.0002   -0.0001    0.0507    0.0001    0.0394
          27   -0.0262    0.0580   -0.0007   -0.0316   -0.0232   -0.0001   -0.0005    0.0000
          28   -0.0001    0.0001   -0.0146    0.0003    0.0000   -0.0087    0.0001    0.0683
          29    0.0000   -0.0001    0.0727   -0.0014    0.0001   -0.0349    0.0001    0.0353
          30    0.0747   -0.0252   -0.0005   -0.0145   -0.0060   -0.0000    0.0005    0.0001
          31    0.0001   -0.0000    0.0330   -0.0006    0.0000   -0.0483    0.0000   -0.0049
          32   -0.0000    0.0000   -0.0313    0.0006    0.0001   -0.0203    0.0000    0.0055
          33   -0.0678   -0.1125   -0.0034   -0.1253    0.1226    0.0001    0.0049   -0.0000
          34    0.0000   -0.0001    0.0415   -0.0009   -0.0001    0.0564   -0.0001   -0.0439
          35    0.0000   -0.0000    0.0195   -0.0004   -0.0000    0.0097   -0.0001   -0.0488
          36    0.0268   -0.0294    0.0010    0.0411   -0.0791   -0.0001   -0.1818    0.0005
          37    0.0000    0.0000   -0.0035    0.0001   -0.0000    0.0156   -0.0001   -0.0379
          38   -0.0000    0.0001   -0.0527    0.0011    0.0001   -0.0491    0.0000   -0.0047
          39   -0.0675   -0.0514    0.0005    0.0215   -0.0765   -0.0000    0.1686   -0.0003
          40   -0.0000    0.0000   -0.0068    0.0001   -0.0000    0.0074   -0.0001   -0.0226
          41    0.0000   -0.0001    0.0485   -0.0010   -0.0001    0.0461   -0.0001   -0.0413
          42    0.0768    0.0447    0.0002    0.0039   -0.0157    0.0000    0.1702   -0.0003
          43   -0.0000    0.0001   -0.0543    0.0011    0.0001   -0.0411    0.0000   -0.0122
          44   -0.0000    0.0001   -0.0333    0.0007    0.0000   -0.0373   -0.0000   -0.0072
          45   -0.0259    0.0056   -0.0009   -0.0339   -0.0157   -0.0001   -0.1787    0.0004
          46   -0.0000    0.0001   -0.0529    0.0011    0.0000   -0.0385   -0.0000   -0.0207
          47    0.0000   -0.0000    0.0216   -0.0004   -0.0000    0.0170   -0.0001   -0.0524
          48    0.0502    0.0699   -0.0014   -0.0568    0.1151    0.0001    0.0012   -0.0001
          49    0.0000   -0.0001    0.0459   -0.0011   -0.0000   -0.0141    0.0000    0.0038
          50   -0.0000    0.0000   -0.0094    0.0002   -0.0001    0.0562    0.0001    0.0486
          51   -0.0029    0.1048    0.0049    0.1824    0.0123    0.0001   -0.0053   -0.0001
          52    0.0002   -0.0001   -0.0489    0.0012    0.0001    0.0178    0.0002    0.0854
          53   -0.0001    0.0001   -0.0186    0.0002   -0.0002    0.0701    0.0001    0.0539
          54   -0.1086    0.1323   -0.0031   -0.1313   -0.1074   -0.0003    0.0049   -0.0000
          55   -0.0003    0.0002    0.0299   -0.0007   -0.0000   -0.0763    0.0002    0.0712
          56    0.0001   -0.0002    0.1055   -0.0020    0.0002   -0.0854    0.0001    0.0376
          57    0.1590   -0.1027    0.0018    0.0826    0.0814    0.0002   -0.0055    0.0002
          58   -0.0001    0.0002   -0.0636    0.0014    0.0000    0.0663    0.0001    0.0701
          59    0.0000   -0.0002    0.1008   -0.0020    0.0001   -0.0784    0.0001    0.0354
          60    0.0799   -0.0227   -0.0027   -0.0971   -0.0779   -0.0001    0.0074    0.0000


   Root No.       9        10        11        12        13        14        15        16

                 9 A      10 A      11 A      12 A      13 A      14 A      15 A      16 A   

                 471.5     536.0     613.3     623.9     632.8     654.8     770.1     849.8
  
           1   -0.0000   -0.0170    0.0001    0.0245    0.0472    0.0000    0.0000   -0.0000
           2    0.0000    0.0147    0.0001    0.0572    0.0188    0.0000    0.0000   -0.0000
           3    0.0655   -0.0001    0.0140   -0.0001   -0.0001    0.0570    0.0373   -0.0020
           4   -0.0000   -0.0218    0.0001    0.0393    0.0469    0.0001    0.0000   -0.0000
           5   -0.0000    0.0003   -0.0000    0.0220   -0.0783   -0.0000    0.0000    0.0000
           6    0.0084   -0.0000   -0.0148    0.0001    0.0001   -0.0158   -0.0146    0.0323
           7   -0.0000   -0.0198   -0.0001   -0.0651    0.0511    0.0000   -0.0000    0.0000
           8    0.0000    0.0182    0.0000    0.0013    0.0296    0.0000    0.0000    0.0000
           9    0.0049   -0.0000   -0.0175    0.0001    0.0001   -0.0191   -0.0124   -0.0252
          10    0.0001    0.0606   -0.0000    0.0073    0.0091    0.0000   -0.0000   -0.0000
          11   -0.0000   -0.0316    0.0002    0.0676    0.0392    0.0000   -0.0000   -0.0000
          12   -0.0172    0.0001    0.0192   -0.0001   -0.0000   -0.0109    0.0034   -0.0021
          13   -0.0000   -0.0070    0.0001    0.0817   -0.0470    0.0000    0.0000    0.0000
          14   -0.0000   -0.0139   -0.0000   -0.0069   -0.0308   -0.0000    0.0000   -0.0000
          15   -0.0376    0.0000    0.0146   -0.0001   -0.0001    0.0232   -0.0171    0.0292
          16    0.0000   -0.0009   -0.0001   -0.0248   -0.0401   -0.0000   -0.0000   -0.0000
          17    0.0000    0.0095   -0.0000   -0.0336    0.0818    0.0001   -0.0000    0.0000
          18   -0.0359    0.0001    0.0151   -0.0001   -0.0001    0.0235   -0.0166   -0.0325
          19   -0.0000    0.0004   -0.0001   -0.0194   -0.0465   -0.0000    0.0000   -0.0000
          20   -0.0000   -0.0112   -0.0001   -0.0644   -0.0190   -0.0000   -0.0000   -0.0000
          21    0.0449   -0.0001   -0.0149    0.0001    0.0001   -0.0155   -0.0278   -0.0028
          22    0.0001    0.0581   -0.0000    0.0073    0.0110    0.0000    0.0000   -0.0000
          23   -0.0000   -0.0045   -0.0000   -0.0168   -0.0161   -0.0000   -0.0000    0.0000
          24   -0.0127    0.0001    0.0128   -0.0000    0.0000   -0.0135   -0.0127   -0.0028
          25   -0.0000   -0.0304    0.0000   -0.0177   -0.0130   -0.0001   -0.0000    0.0000
          26    0.0000    0.0520   -0.0001   -0.0161   -0.0138   -0.0000   -0.0000   -0.0000
          27   -0.0049   -0.0001   -0.0417    0.0002    0.0001    0.0221    0.0062    0.0005
          28   -0.0000   -0.0282   -0.0000   -0.0233   -0.0171   -0.0000    0.0000    0.0000
          29   -0.0000   -0.0234   -0.0000   -0.0076   -0.0069   -0.0000   -0.0000   -0.0000
          30    0.0034   -0.0000    0.0051   -0.0000   -0.0000   -0.0015    0.0006    0.0002
          31    0.0001    0.0881    0.0000    0.0337    0.0186    0.0000    0.0000   -0.0000
          32   -0.0000   -0.0124    0.0002    0.0854    0.0447    0.0000   -0.0000   -0.0000
          33   -0.0987    0.0000   -0.0361    0.0002    0.0001   -0.0426   -0.0677    0.0237
          34   -0.0000   -0.0360    0.0001   -0.0046    0.0529    0.0000   -0.0000    0.0000
          35   -0.0000   -0.0083   -0.0001   -0.0034   -0.0747   -0.0000    0.0000    0.0000
          36   -0.0342   -0.0000   -0.0604    0.0004    0.0004   -0.1834    0.0538   -0.2053
          37   -0.0000   -0.0195   -0.0001   -0.0647    0.0511   -0.0000    0.0000    0.0000
          38    0.0000    0.0319   -0.0001   -0.0314   -0.0329   -0.0000    0.0000    0.0000
          39   -0.0408   -0.0000   -0.0568    0.0004    0.0004   -0.1771    0.0415    0.1890
          40    0.0000   -0.0073    0.0001    0.0818   -0.0464    0.0000   -0.0000    0.0001
          41   -0.0000   -0.0292    0.0001    0.0345    0.0340    0.0000   -0.0000    0.0000
          42   -0.1374    0.0002    0.0503   -0.0002   -0.0001    0.0103    0.2027   -0.1961
          43    0.0000    0.0188   -0.0000    0.0214   -0.0427   -0.0000   -0.0000   -0.0000
          44    0.0000    0.0209    0.0000   -0.0073    0.0800    0.0001    0.0000    0.0001
          45   -0.1312    0.0002    0.0541   -0.0003   -0.0001    0.0160    0.1958    0.2096
          46   -0.0000    0.0129   -0.0001   -0.0655    0.0145    0.0000   -0.0001   -0.0000
          47   -0.0000   -0.0186   -0.0001   -0.0370   -0.0545   -0.0000   -0.0000   -0.0000
          48    0.1257   -0.0002   -0.0581    0.0004    0.0004   -0.1322    0.2046    0.0210
          49    0.0001    0.1046   -0.0002   -0.0285    0.0011    0.0000   -0.0000    0.0000
          50    0.0000    0.0263   -0.0001   -0.0385   -0.0220   -0.0000    0.0000    0.0000
          51    0.0370    0.0003    0.0935   -0.0003   -0.0001   -0.0398    0.0043    0.0207
          52   -0.0001   -0.0404   -0.0001   -0.0336   -0.0275   -0.0000   -0.0000    0.0000
          53    0.0001    0.0428   -0.0000   -0.0260   -0.0232   -0.0000    0.0000    0.0000
          54    0.0381   -0.0001    0.0284   -0.0001   -0.0000    0.0021    0.0182    0.0012
          55    0.0000   -0.1189    0.0003   -0.0210   -0.0141   -0.0001   -0.0000    0.0000
          56   -0.0001   -0.0921   -0.0001   -0.0055   -0.0046    0.0001    0.0000    0.0000
          57   -0.0522   -0.0002   -0.1561    0.0006    0.0002    0.0765    0.0244    0.0006
          58   -0.0001    0.0703   -0.0005   -0.0337   -0.0257    0.0002    0.0000   -0.0000
          59   -0.0000   -0.0820    0.0002   -0.0025   -0.0026   -0.0001   -0.0000    0.0000
          60    0.0694    0.0003    0.2364   -0.0010   -0.0004   -0.1177   -0.0382   -0.0032


   Root No.      17        18        19        20        21        22        23        24

                17 A      18 A      19 A      20 A      21 A      22 A      23 A      24 A   

                 899.7     903.4     926.0     940.0     950.5     973.7     981.8    1018.7
  
           1    0.0104    0.0000   -0.0000   -0.0000   -0.0046   -0.0000    0.0000    0.0000
           2    0.0190   -0.0000   -0.0000   -0.0000   -0.0071   -0.0000    0.0000    0.0000
           3    0.0000   -0.0004   -0.0002   -0.0210    0.0001   -0.0232    0.0103    0.0233
           4   -0.0012   -0.0000   -0.0000   -0.0000   -0.0012   -0.0000    0.0000    0.0000
           5   -0.0315   -0.0000    0.0000    0.0000    0.0078    0.0000   -0.0000   -0.0000
           6    0.0000    0.0194    0.0080    0.0194   -0.0001    0.0257    0.0265   -0.0264
           7   -0.0157    0.0000    0.0000    0.0000    0.0102    0.0000   -0.0000   -0.0000
           8   -0.0250    0.0000    0.0000    0.0000    0.0010   -0.0000   -0.0000   -0.0000
           9   -0.0000    0.0198    0.0040    0.0194   -0.0001   -0.0051   -0.0346   -0.0318
          10    0.0092    0.0000    0.0000   -0.0000   -0.0203   -0.0000    0.0000    0.0000
          11    0.0700   -0.0000   -0.0000   -0.0000   -0.0021    0.0000   -0.0000   -0.0000
          12   -0.0000   -0.0368   -0.0193    0.0096   -0.0001    0.0346   -0.0140   -0.0116
          13   -0.0625   -0.0000    0.0000    0.0000    0.0147    0.0000    0.0000   -0.0000
          14   -0.0019    0.0000    0.0000    0.0000    0.0008    0.0000    0.0000   -0.0000
          15   -0.0000   -0.0059   -0.0055    0.0029   -0.0000   -0.0053   -0.0384    0.0338
          16    0.0308   -0.0000   -0.0000   -0.0000   -0.0057   -0.0000    0.0000   -0.0000
          17   -0.0603   -0.0000    0.0000    0.0000    0.0130    0.0000    0.0000    0.0000
          18   -0.0000   -0.0006    0.0057    0.0029   -0.0000    0.0265    0.0196    0.0374
          19    0.0264    0.0000   -0.0000   -0.0000   -0.0048    0.0000    0.0000    0.0000
          20    0.0488    0.0000   -0.0000   -0.0000   -0.0085   -0.0000    0.0000    0.0000
          21   -0.0000   -0.0202   -0.0076   -0.0207    0.0001   -0.0223    0.0169   -0.0369
          22    0.0191   -0.0000    0.0000   -0.0000   -0.0110    0.0000   -0.0000   -0.0000
          23   -0.0149   -0.0000    0.0000   -0.0000   -0.0314   -0.0000    0.0000    0.0000
          24    0.0000    0.0234   -0.0204    0.0246   -0.0000   -0.0320    0.0172    0.0042
          25   -0.0025   -0.0000    0.0000    0.0001    0.0128   -0.0000    0.0000   -0.0000
          26   -0.0004    0.0000   -0.0000   -0.0000   -0.0049    0.0000   -0.0000    0.0000
          27   -0.0000    0.0135   -0.0182   -0.0251    0.0000    0.0114   -0.0040    0.0094
          28   -0.0066    0.0000    0.0000    0.0000    0.0160   -0.0000    0.0000    0.0000
          29    0.0091    0.0000   -0.0000    0.0001    0.0594    0.0001   -0.0000   -0.0000
          30   -0.0000    0.0000   -0.0028   -0.0107   -0.0000    0.0164   -0.0093   -0.0183
          31    0.0604   -0.0000   -0.0001   -0.0000   -0.0306    0.0000   -0.0000   -0.0000
          32    0.1051    0.0001    0.0000   -0.0001   -0.0088   -0.0000    0.0000    0.0000
          33    0.0000    0.1637    0.2075   -0.0877    0.0003   -0.1050    0.0259    0.0304
          34    0.0103    0.0000   -0.0000   -0.0000   -0.0040    0.0000    0.0000    0.0000
          35   -0.0255   -0.0000    0.0000    0.0000    0.0065    0.0000   -0.0000   -0.0000
          36   -0.0001   -0.0934   -0.0371   -0.0833    0.0003   -0.1119   -0.1111    0.0808
          37   -0.0160   -0.0000   -0.0000    0.0000    0.0105    0.0000    0.0000    0.0000
          38   -0.0300   -0.0000    0.0000   -0.0000   -0.0230   -0.0000    0.0000   -0.0000
          39    0.0000   -0.1012   -0.0330   -0.0840    0.0003    0.0169    0.1677    0.1117
          40   -0.0644   -0.0000    0.0000    0.0000    0.0152    0.0000   -0.0000    0.0000
          41   -0.0452   -0.0000    0.0000    0.0000    0.0084    0.0000   -0.0000    0.0000
          42   -0.0001    0.0295    0.0285   -0.0205    0.0001    0.0218    0.1636   -0.1105
          43   -0.0272   -0.0000    0.0000    0.0000   -0.0029   -0.0000    0.0000    0.0000
          44   -0.0957   -0.0000    0.0000    0.0000    0.0150   -0.0000   -0.0000   -0.0000
          45    0.0001    0.0010   -0.0277   -0.0201    0.0001   -0.1178   -0.0877   -0.1254
          46    0.0208   -0.0000   -0.0000   -0.0000   -0.0044   -0.0000    0.0000   -0.0000
          47    0.0523   -0.0000   -0.0000   -0.0000   -0.0087   -0.0000    0.0000   -0.0000
          48    0.0001    0.1167    0.0398    0.1073   -0.0004    0.0982   -0.0705    0.1217
          49   -0.0238    0.0000   -0.0001    0.0000   -0.0588   -0.0001    0.0001    0.0000
          50   -0.0418   -0.0000    0.0001   -0.0001   -0.0631   -0.0000    0.0000    0.0000
          51    0.0001   -0.0513    0.2343   -0.1337    0.0003    0.1030   -0.0772   -0.0207
          52   -0.0332    0.0002   -0.0002   -0.0003   -0.0669    0.0001   -0.0000    0.0000
          53   -0.0207   -0.0002    0.0002    0.0001   -0.0592   -0.0001    0.0000   -0.0000
          54    0.0002   -0.1609    0.1740    0.1498   -0.0000   -0.0554    0.0170   -0.0269
          55   -0.0605    0.0000   -0.0000   -0.0004   -0.2056    0.0000   -0.0000   -0.0001
          56   -0.0313   -0.0001    0.0002   -0.0000   -0.1095   -0.0001    0.0000    0.0000
          57    0.0001   -0.0962    0.1043    0.1147   -0.0003   -0.0870    0.0431    0.0635
          58    0.0454    0.0001   -0.0001    0.0002    0.2752    0.0003   -0.0001   -0.0001
          59   -0.0222   -0.0000    0.0000   -0.0001   -0.0916   -0.0001    0.0001    0.0001
          60   -0.0000    0.0461   -0.0221    0.0426    0.0005   -0.0805    0.0455    0.0753


   Root No.      25        26        27        28        29        30        31        32

                25 A      26 A      27 A      28 A      29 A      30 A      31 A      32 A   

                1032.6    1050.5    1109.5    1124.6    1153.3    1164.3    1175.4    1228.7
  
           1   -0.0000   -0.0044    0.0058   -0.0190   -0.0126    0.0091   -0.0023    0.0154
           2    0.0000   -0.0022   -0.0087   -0.0114    0.0073   -0.0010    0.0005   -0.0029
           3   -0.0131    0.0000    0.0000    0.0000    0.0000   -0.0000    0.0000   -0.0000
           4    0.0000   -0.0367   -0.0069   -0.0196    0.0047   -0.0163    0.0081    0.0096
           5   -0.0000    0.0333    0.0311    0.0163   -0.0016    0.0138   -0.0115    0.0119
           6    0.0093   -0.0000    0.0000   -0.0000   -0.0000    0.0000   -0.0000    0.0000
           7   -0.0000    0.0555   -0.0067    0.0398   -0.0035    0.0135   -0.0111    0.0048
           8    0.0000   -0.0183   -0.0136   -0.0064   -0.0042   -0.0132   -0.0051   -0.0115
           9    0.0120   -0.0000    0.0000   -0.0000   -0.0000    0.0000    0.0000    0.0000
          10   -0.0000    0.0039    0.0015   -0.0063   -0.0024    0.0091   -0.0076   -0.0036
          11    0.0000    0.0260    0.0077    0.0169   -0.0042    0.0116   -0.0137    0.0109
          12    0.0186   -0.0000    0.0000   -0.0000   -0.0000    0.0000   -0.0000   -0.0000
          13   -0.0000    0.0205   -0.0183   -0.0134    0.0061   -0.0122    0.0094   -0.0070
          14    0.0000   -0.0105    0.0031   -0.0021   -0.0019    0.0090    0.0006    0.0119
          15   -0.0082    0.0000   -0.0000   -0.0000    0.0000   -0.0000    0.0000    0.0000
          16    0.0000   -0.0161   -0.0106    0.0184    0.0052    0.0034   -0.0027   -0.0073
          17   -0.0000    0.0085    0.0058   -0.0163    0.0001   -0.0065    0.0110   -0.0113
          18   -0.0099    0.0000   -0.0000    0.0000   -0.0000    0.0000   -0.0000    0.0000
          19   -0.0000   -0.0075    0.0010   -0.0217    0.0049   -0.0059    0.0075   -0.0167
          20    0.0000   -0.0082   -0.0153   -0.0340    0.0026   -0.0059    0.0170    0.0012
          21    0.0081   -0.0000   -0.0000   -0.0000    0.0000   -0.0000    0.0000   -0.0000
          22    0.0000    0.0090   -0.0004   -0.0010   -0.0021    0.0115   -0.0124   -0.0004
          23   -0.0000   -0.0018    0.0008   -0.0088   -0.0032    0.0081   -0.0242   -0.0065
          24   -0.0274    0.0000   -0.0000    0.0000    0.0000   -0.0000    0.0000    0.0000
          25   -0.0001   -0.0017   -0.0004   -0.0014   -0.0006    0.0017   -0.0059   -0.0021
          26    0.0000    0.0042    0.0029    0.0027    0.0010    0.0036    0.0093   -0.0194
          27    0.0434    0.0000    0.0000   -0.0000   -0.0000    0.0000   -0.0000    0.0000
          28    0.0001   -0.0032   -0.0015   -0.0016    0.0002    0.0013   -0.0078   -0.0082
          29   -0.0000   -0.0051   -0.0009    0.0015    0.0010   -0.0066    0.0094    0.0093
          30   -0.0543   -0.0000   -0.0000   -0.0000   -0.0000    0.0000   -0.0000   -0.0000
          31    0.0000    0.0510    0.0348    0.1284    0.0145   -0.0718    0.1114   -0.0459
          32    0.0000    0.0579    0.0308    0.1083    0.0069   -0.0429    0.0640   -0.0173
          33   -0.0481    0.0000    0.0000    0.0000    0.0000   -0.0000    0.0000   -0.0000
          34    0.0000   -0.1361    0.1641    0.0739   -0.0953   -0.1621   -0.0659   -0.0999
          35    0.0000   -0.0227    0.1323    0.0728   -0.0587   -0.0682   -0.0563   -0.0511
          36   -0.0292    0.0000    0.0000    0.0000   -0.0000   -0.0000    0.0000   -0.0000
          37   -0.0000    0.0575   -0.0068    0.0426   -0.0049    0.0158   -0.0116    0.0052
          38    0.0000   -0.0970   -0.1032    0.0867    0.0290   -0.1282   -0.1507    0.1598
          39   -0.0471   -0.0000   -0.0000    0.0000   -0.0000   -0.0000    0.0000   -0.0000
          40   -0.0000    0.0195   -0.0185   -0.0143    0.0088   -0.0137    0.0102   -0.0085
          41    0.0000   -0.1702   -0.0971    0.1614    0.2727    0.0965    0.0128   -0.0866
          42    0.0242    0.0000   -0.0000    0.0000    0.0000    0.0000    0.0000   -0.0000
          43    0.0000   -0.1882    0.0549    0.0789   -0.1849    0.1658    0.0645    0.0627
          44    0.0000   -0.0902    0.0421    0.0159   -0.1099    0.0845    0.0503    0.0282
          45    0.0313   -0.0000    0.0000   -0.0000   -0.0000   -0.0000    0.0000   -0.0000
          46   -0.0000   -0.0258    0.2372   -0.0883    0.2220    0.0230   -0.0076    0.0697
          47    0.0000    0.0002   -0.1549    0.0021   -0.1238   -0.0226    0.0284   -0.0505
          48   -0.0239    0.0000    0.0000   -0.0000    0.0000    0.0000    0.0000    0.0000
          49   -0.0000   -0.0008   -0.0362    0.0373    0.0136   -0.0464   -0.0425    0.1153
          50    0.0000   -0.0077   -0.0219    0.0164    0.0069   -0.0293   -0.0444    0.0671
          51    0.0862   -0.0000   -0.0000   -0.0000   -0.0000   -0.0000   -0.0000    0.0000
          52    0.0002    0.0052    0.0128    0.0436    0.0198   -0.0750    0.2291    0.0986
          53   -0.0001    0.0092    0.0121    0.0328    0.0145   -0.0469    0.1651    0.0452
          54   -0.1219   -0.0000    0.0000    0.0001    0.0000   -0.0001    0.0002    0.0001
          55   -0.0003    0.0108    0.0013    0.0003    0.0017    0.0076   -0.0068   -0.0342
          56    0.0001    0.0058    0.0016    0.0029    0.0021   -0.0015    0.0114   -0.0099
          57    0.1783    0.0001    0.0000   -0.0000   -0.0000    0.0000   -0.0000   -0.0001
          58   -0.0003   -0.0236   -0.0088    0.0039    0.0049   -0.0237    0.0151    0.0210
          59    0.0001    0.0065    0.0033   -0.0012   -0.0013    0.0069   -0.0015   -0.0078
          60    0.2054   -0.0000   -0.0000    0.0000    0.0000   -0.0000    0.0000    0.0000


   Root No.      33        34        35        36        37        38        39        40

                33 A      34 A      35 A      36 A      37 A      38 A      39 A      40 A   

                1243.2    1278.8    1286.1    1349.7    1355.3    1405.3    1543.2    1610.6
  
           1   -0.0061    0.0004   -0.0061    0.0420   -0.0239    0.0271    0.0665    0.0533
           2   -0.0083    0.0039   -0.0081    0.0000    0.0484    0.0441   -0.0399    0.0935
           3    0.0000    0.0000    0.0000   -0.0000   -0.0000   -0.0000    0.0000   -0.0000
           4    0.0175   -0.0089    0.0149   -0.0241    0.0422    0.0266    0.0047   -0.0484
           5   -0.0068   -0.0045    0.0033   -0.0076    0.0377    0.0200    0.0622    0.0070
           6   -0.0000   -0.0000    0.0000   -0.0000    0.0000    0.0000    0.0000    0.0000
           7   -0.0090   -0.0023    0.0025    0.0057    0.0016    0.0078   -0.0512    0.0324
           8   -0.0160    0.0054   -0.0114    0.0422   -0.0311    0.0376   -0.0372   -0.0355
           9    0.0000   -0.0000    0.0000   -0.0000    0.0000   -0.0000    0.0000   -0.0000
          10   -0.0137   -0.0234   -0.0074    0.0167    0.0196   -0.0237   -0.0046    0.0015
          11   -0.0153    0.0156    0.0070   -0.0194   -0.0220   -0.0410    0.0079   -0.0361
          12    0.0000   -0.0000   -0.0000    0.0000    0.0000    0.0000    0.0000    0.0000
          13    0.0123    0.0015    0.0038   -0.0156   -0.0211   -0.0374   -0.0492    0.0114
          14    0.0017    0.0010    0.0005    0.0367   -0.0473    0.0217   -0.0411   -0.0698
          15    0.0000    0.0000    0.0000   -0.0000   -0.0000   -0.0000   -0.0000    0.0000
          16   -0.0083   -0.0029    0.0008   -0.0194    0.0569    0.0303    0.0075   -0.0657
          17    0.0082   -0.0004    0.0015   -0.0258    0.0131   -0.0272    0.0631   -0.0274
          18   -0.0000   -0.0000    0.0000    0.0000    0.0000    0.0000   -0.0000   -0.0000
          19   -0.0047    0.0113   -0.0155    0.0241   -0.0448   -0.0168    0.0626    0.0224
          20    0.0199   -0.0017    0.0065   -0.0292    0.0080   -0.0330   -0.0344    0.0440
          21   -0.0000    0.0000   -0.0000    0.0000   -0.0000   -0.0000    0.0000    0.0000
          22   -0.0203   -0.0010    0.0052   -0.0102   -0.0074   -0.0290   -0.0106   -0.0321
          23    0.0157   -0.0335   -0.0401    0.0300    0.0333   -0.0315   -0.0102   -0.0126
          24   -0.0000    0.0000    0.0000   -0.0000   -0.0000   -0.0000   -0.0000   -0.0000
          25    0.0019   -0.0135   -0.0119   -0.0170   -0.0141    0.0076   -0.0005   -0.0054
          26   -0.0002    0.0147    0.0531   -0.0281   -0.0344    0.0332    0.0060    0.0083
          27   -0.0000   -0.0000   -0.0001   -0.0000    0.0000   -0.0000   -0.0000   -0.0000
          28    0.0114    0.0061    0.0104   -0.0207   -0.0207    0.0279    0.0052    0.0152
          29   -0.0041   -0.0045   -0.0142    0.0047    0.0061   -0.0030   -0.0003    0.0010
          30    0.0000    0.0000    0.0000   -0.0000   -0.0000    0.0001    0.0000    0.0000
          31    0.2134   -0.0835   -0.0248    0.0801   -0.0165    0.0382    0.0299    0.0098
          32    0.1377   -0.0214   -0.0049    0.0192   -0.0472   -0.0015    0.0306   -0.0351
          33    0.0000   -0.0000   -0.0000    0.0000    0.0000    0.0000   -0.0000    0.0000
          34   -0.0634    0.0369   -0.0264   -0.0360   -0.0030   -0.0537   -0.0887    0.0538
          35   -0.0567    0.0226   -0.0214   -0.0137    0.0145   -0.0242    0.0178    0.0747
          36    0.0000    0.0000   -0.0000    0.0000   -0.0000   -0.0000   -0.0000   -0.0000
          37   -0.0102   -0.0022    0.0020    0.0075    0.0024    0.0109   -0.0602    0.0394
          38    0.0078   -0.1340    0.1515    0.0176   -0.0636   -0.0592    0.0726    0.0966
          39   -0.0000   -0.0000    0.0000    0.0000   -0.0000    0.0000    0.0000   -0.0000
          40    0.0135    0.0020    0.0040   -0.0181   -0.0242   -0.0437   -0.0577    0.0145
          41   -0.0408    0.0276   -0.0446   -0.0048   -0.0245   -0.0671    0.0663    0.0798
          42    0.0000    0.0000    0.0000   -0.0000    0.0000   -0.0000   -0.0000    0.0000
          43    0.0544   -0.0014    0.0166   -0.0222   -0.0114   -0.0313   -0.0823    0.0658
          44    0.0456    0.0001    0.0112   -0.0296   -0.0287   -0.0694    0.0227    0.0498
          45    0.0000    0.0000   -0.0000   -0.0000    0.0000    0.0000   -0.0000    0.0000
          46    0.0453   -0.0105    0.0267   -0.0043   -0.0344   -0.0189   -0.1053    0.0322
          47   -0.0072    0.0118   -0.0185   -0.0150   -0.0011   -0.0392    0.0644    0.0487
          48    0.0000   -0.0000    0.0000   -0.0000    0.0000   -0.0000   -0.0000    0.0000
          49    0.0617    0.2276   -0.1351   -0.0907   -0.0329    0.0276    0.0154   -0.0099
          50    0.0721    0.1128   -0.1319   -0.0191    0.0199    0.0042    0.0064    0.0035
          51    0.0000    0.0001   -0.0001   -0.0001   -0.0000    0.0000    0.0000   -0.0000
          52   -0.1477   -0.0272   -0.0510    0.0203    0.0306   -0.0408   -0.0068   -0.0095
          53   -0.0976    0.0061    0.0315   -0.0037   -0.0065    0.0038    0.0029    0.0081
          54   -0.0001   -0.0000   -0.0001    0.0000    0.0001   -0.0001   -0.0000   -0.0000
          55    0.0357    0.1327    0.1590    0.1194    0.0888   -0.0473   -0.0013   -0.0029
          56    0.0111    0.0808    0.0902    0.1002    0.0802   -0.0551   -0.0051   -0.0129
          57    0.0001    0.0002    0.0002    0.0001    0.0001   -0.0000    0.0000    0.0000
          58    0.0247    0.1148    0.0676    0.1633    0.1409   -0.0856   -0.0062   -0.0076
          59   -0.0109   -0.0598   -0.0394   -0.0939   -0.0813    0.0603    0.0066    0.0156
          60    0.0000    0.0002    0.0001    0.0004    0.0003   -0.0002   -0.0000   -0.0000


   Root No.      41        42        43        44        45        46        47        48

                41 A      42 A      43 A      44 A      45 A      46 A      47 A      48 A   

                1776.6    1796.2    1835.9    1870.6    2977.3    3013.2    3029.3    3035.9
  
           1   -0.1166   -0.0341    0.0305    0.0211    0.0002    0.0009    0.0006   -0.0000
           2    0.0699   -0.0705    0.0272    0.0148    0.0007   -0.0016    0.0003   -0.0001
           3   -0.0000    0.0000    0.0000   -0.0000    0.0000    0.0000    0.0000    0.0000
           4    0.0855    0.0866   -0.0152    0.0019    0.0001   -0.0002    0.0009   -0.0003
           5    0.0026    0.0788   -0.0033    0.0082   -0.0001    0.0007   -0.0027    0.0007
           6    0.0000    0.0000   -0.0000    0.0000   -0.0000    0.0000    0.0000    0.0000
           7    0.0426    0.0229   -0.0044   -0.0022    0.0212   -0.0479    0.0020   -0.0022
           8   -0.0677    0.1209   -0.0125    0.0032    0.0004   -0.0004    0.0007   -0.0001
           9    0.0000   -0.0000    0.0000   -0.0000   -0.0000    0.0000   -0.0000    0.0000
          10   -0.0064   -0.0072   -0.1031   -0.1467   -0.0040   -0.0005    0.0378   -0.0062
          11   -0.0085    0.0106   -0.0353   -0.0361   -0.0002   -0.0014   -0.0501    0.0068
          12   -0.0000   -0.0000   -0.0000   -0.0001   -0.0000    0.0000    0.0000   -0.0000
          13   -0.0472   -0.0231    0.0028   -0.0016    0.0001   -0.0001   -0.0005    0.0001
          14    0.0606   -0.1099    0.0009   -0.0111   -0.0001    0.0001    0.0001   -0.0000
          15   -0.0000   -0.0000    0.0000   -0.0000   -0.0000    0.0000   -0.0000    0.0000
          16   -0.0843   -0.0786    0.0098   -0.0010   -0.0013    0.0042   -0.0002    0.0003
          17    0.0045   -0.0754    0.0056   -0.0032    0.0007   -0.0036    0.0002   -0.0003
          18   -0.0000    0.0000   -0.0000    0.0000   -0.0000    0.0000    0.0000    0.0000
          19    0.1207    0.0182   -0.0067   -0.0019   -0.0001    0.0002   -0.0001    0.0000
          20   -0.0678    0.0415    0.0013    0.0043    0.0001    0.0000   -0.0000    0.0000
          21    0.0000    0.0000   -0.0000   -0.0000   -0.0000    0.0000    0.0000    0.0000
          22    0.0153    0.0140    0.0750    0.1635    0.0303    0.0112   -0.0044    0.0041
          23    0.0075    0.0019    0.0042    0.0544   -0.0420   -0.0155   -0.0010   -0.0032
          24    0.0000    0.0000    0.0000    0.0001    0.0000    0.0000   -0.0000    0.0000
          25    0.0063    0.0202    0.1440   -0.1161   -0.0015   -0.0017    0.0063    0.0343
          26   -0.0018    0.0026    0.0278   -0.0448    0.0034    0.0028   -0.0077   -0.0459
          27    0.0000    0.0000    0.0002   -0.0002   -0.0000   -0.0000    0.0000    0.0001
          28   -0.0081   -0.0206   -0.1348    0.0823    0.0001    0.0002   -0.0002   -0.0018
          29   -0.0005   -0.0017   -0.0107    0.0043   -0.0005   -0.0003    0.0005    0.0038
          30   -0.0000   -0.0000   -0.0002    0.0001    0.0000    0.0000   -0.0000   -0.0000
          31   -0.0315   -0.0023    0.0070    0.0022   -0.0001   -0.0133   -0.4000    0.0557
          32   -0.0205    0.0162    0.0535    0.0935   -0.0057    0.0185    0.5953   -0.0868
          33   -0.0000   -0.0000   -0.0000   -0.0000    0.0000   -0.0000   -0.0004    0.0001
          34   -0.0005   -0.0600    0.0068   -0.0025   -0.0023    0.0067   -0.0171    0.0045
          35   -0.0536   -0.0009    0.0121    0.0089    0.0040   -0.0114    0.0252   -0.0071
          36   -0.0000   -0.0000    0.0000    0.0000    0.0000   -0.0000    0.0000   -0.0000
          37    0.0477    0.0288   -0.0049   -0.0029   -0.2408    0.5456   -0.0220    0.0251
          38    0.0312   -0.0574    0.0137    0.0047   -0.0000    0.0012    0.0005   -0.0001
          39   -0.0000    0.0000    0.0000    0.0000    0.0000   -0.0001    0.0000   -0.0000
          40   -0.0564   -0.0266    0.0030   -0.0023   -0.0008    0.0015    0.0062   -0.0016
          41   -0.0232    0.0411    0.0011    0.0040   -0.0000    0.0001   -0.0002    0.0001
          42   -0.0000   -0.0000    0.0000   -0.0000   -0.0000    0.0000    0.0000   -0.0000
          43   -0.0024    0.0492   -0.0030    0.0017    0.0112   -0.0388    0.0023   -0.0029
          44    0.0610   -0.0081   -0.0018   -0.0023   -0.0168    0.0614   -0.0038    0.0048
          45   -0.0000    0.0000    0.0000    0.0000    0.0000   -0.0000    0.0000   -0.0000
          46   -0.0484    0.0289   -0.0002    0.0017   -0.0014    0.0019    0.0003   -0.0000
          47    0.0319    0.0447   -0.0029    0.0029   -0.0021    0.0022    0.0006   -0.0001
          48   -0.0000    0.0000    0.0000    0.0000   -0.0000    0.0000    0.0000   -0.0000
          49   -0.0058    0.0020    0.0179   -0.0306   -0.3241   -0.1200   -0.0072   -0.0263
          50   -0.0064   -0.0083   -0.0519   -0.0949    0.5001    0.1857    0.0057    0.0480
          51   -0.0000    0.0000    0.0000   -0.0000   -0.0002   -0.0001   -0.0000   -0.0000
          52    0.0042    0.0028    0.0160    0.0240    0.0255    0.0212   -0.0604   -0.3613
          53   -0.0052   -0.0132   -0.0865    0.0632   -0.0327   -0.0298    0.0953    0.5484
          54    0.0000    0.0000    0.0001   -0.0001    0.0001    0.0001   -0.0002   -0.0010
          55   -0.0005   -0.0005   -0.0084    0.0077   -0.0029   -0.0015   -0.0020   -0.0047
          56    0.0060    0.0161    0.1040   -0.0673    0.0018    0.0013    0.0021    0.0030
          57   -0.0000   -0.0000   -0.0001    0.0001   -0.0000   -0.0000   -0.0000   -0.0000
          58    0.0007   -0.0006   -0.0108    0.0104   -0.0006    0.0003   -0.0041   -0.0258
          59   -0.0069   -0.0162   -0.1035    0.0574   -0.0001    0.0012   -0.0087   -0.0535
          60    0.0000    0.0000    0.0001   -0.0000   -0.0000   -0.0000   -0.0000   -0.0000


   Root No.      49        50        51        52        53        54

                49 A      50 A      51 A      52 A      53 A      54 A   

                3051.5    3059.0    3066.9    3078.8    3136.4    3147.4
  
           1   -0.0013   -0.0007    0.0009    0.0006   -0.0000    0.0000
           2   -0.0001   -0.0005   -0.0002    0.0006   -0.0000    0.0000
           3   -0.0000   -0.0000    0.0000    0.0000   -0.0000    0.0000
           4    0.0199    0.0078   -0.0072   -0.0039   -0.0000    0.0000
           5   -0.0330   -0.0141    0.0147    0.0086    0.0000   -0.0000
           6    0.0000   -0.0000    0.0000    0.0000   -0.0000    0.0000
           7   -0.0007   -0.0033   -0.0037    0.0037    0.0001   -0.0001
           8    0.0002   -0.0006   -0.0012    0.0009   -0.0000   -0.0000
           9    0.0000    0.0000    0.0000   -0.0000   -0.0000    0.0000
          10   -0.0009   -0.0003    0.0001    0.0001   -0.0000   -0.0004
          11    0.0015    0.0006   -0.0003   -0.0003    0.0002   -0.0001
          12   -0.0000   -0.0000    0.0000    0.0000   -0.0000   -0.0000
          13   -0.0243    0.0098   -0.0276   -0.0220   -0.0000    0.0000
          14    0.0012    0.0015   -0.0008    0.0009   -0.0000    0.0000
          15   -0.0000    0.0000   -0.0000   -0.0000   -0.0000    0.0000
          16    0.0019   -0.0096   -0.0144    0.0113    0.0000   -0.0000
          17   -0.0036    0.0192    0.0255   -0.0179   -0.0001    0.0000
          18    0.0000   -0.0000   -0.0000    0.0000    0.0000   -0.0000
          19    0.0054   -0.0140    0.0040   -0.0143   -0.0000    0.0000
          20    0.0082   -0.0246    0.0025   -0.0246   -0.0000    0.0001
          21    0.0000   -0.0000    0.0000   -0.0000   -0.0000    0.0000
          22    0.0001    0.0003    0.0003   -0.0002    0.0002    0.0011
          23    0.0000   -0.0004   -0.0004    0.0002    0.0004   -0.0000
          24    0.0000    0.0000    0.0000   -0.0000    0.0000    0.0000
          25    0.0001    0.0001    0.0000   -0.0000   -0.0042    0.0089
          26   -0.0002   -0.0001    0.0000    0.0000   -0.0013   -0.0040
          27    0.0000    0.0000    0.0000   -0.0000   -0.0000    0.0000
          28    0.0000    0.0000    0.0000   -0.0001    0.0380   -0.0412
          29    0.0000    0.0000   -0.0000    0.0000   -0.0605   -0.0459
          30   -0.0000   -0.0000   -0.0000   -0.0000    0.0001   -0.0000
          31    0.0129    0.0048   -0.0027   -0.0016    0.0012   -0.0002
          32   -0.0169   -0.0062    0.0032    0.0018   -0.0019   -0.0001
          33    0.0000    0.0000   -0.0000   -0.0000    0.0000    0.0000
          34   -0.2235   -0.0908    0.0883    0.0480    0.0001   -0.0002
          35    0.3816    0.1578   -0.1557   -0.0853   -0.0002    0.0003
          36   -0.0000   -0.0000   -0.0000   -0.0000   -0.0000    0.0000
          37    0.0046    0.0332    0.0357   -0.0323   -0.0011    0.0009
          38   -0.0003    0.0015    0.0019   -0.0013   -0.0000   -0.0000
          39   -0.0000   -0.0000   -0.0000    0.0000    0.0000   -0.0000
          40    0.2873   -0.1115    0.3121    0.2373    0.0003   -0.0005
          41   -0.0034   -0.0024   -0.0004   -0.0024   -0.0000    0.0000
          42    0.0001   -0.0000    0.0001    0.0001    0.0000   -0.0000
          43   -0.0227    0.1210    0.1649   -0.1147   -0.0003    0.0003
          44    0.0411   -0.2157   -0.2880    0.1974    0.0006   -0.0005
          45   -0.0000    0.0000    0.0001   -0.0000   -0.0000    0.0000
          46   -0.0587    0.1660   -0.0273    0.1566    0.0003   -0.0003
          47   -0.0973    0.2849   -0.0393    0.2674    0.0005   -0.0006
          48   -0.0000    0.0001   -0.0000    0.0001    0.0000   -0.0000
          49    0.0000   -0.0028   -0.0029    0.0019    0.0041   -0.0022
          50    0.0002    0.0045    0.0045   -0.0031   -0.0024    0.0047
          51   -0.0000   -0.0000   -0.0000    0.0000    0.0000   -0.0000
          52   -0.0014   -0.0007    0.0000    0.0003   -0.0089   -0.0357
          53    0.0020    0.0010    0.0001   -0.0005    0.0064    0.0484
          54   -0.0000   -0.0000    0.0000    0.0000   -0.0000   -0.0001
          55   -0.0000   -0.0001   -0.0002    0.0004   -0.4667    0.0550
          56    0.0000    0.0001    0.0002   -0.0006    0.6437   -0.1045
          57    0.0000   -0.0000   -0.0000    0.0000   -0.0013    0.0002
          58   -0.0002   -0.0001   -0.0000    0.0003    0.0670    0.3587
          59   -0.0003   -0.0002   -0.0001    0.0006    0.0836    0.6475
          60   -0.0000   -0.0000   -0.0000    0.0000    0.0001    0.0001


           MASS-WEIGHTED COORDINATE ANALYSIS (NORMAL COORDINATES)


   Root No.       1         2         3         4         5         6         7         8

                 1 A       2 A       3 A       4 A       5 A       6 A       7 A       8 A   

                  42.9     102.1     133.7     136.5     252.6     331.3     360.0     365.9
  
           1    0.0002   -0.0002    0.1509   -0.0037   -0.0004    0.2640   -0.0004   -0.1013
           2   -0.0000    0.0002   -0.1697    0.0040    0.0002   -0.1939    0.0002    0.0346
           3   -0.1761   -0.2955    0.0028    0.1370   -0.0600    0.0002    0.0213   -0.0002
           4    0.0002   -0.0002    0.1473   -0.0036   -0.0004    0.2712   -0.0004   -0.1357
           5    0.0001   -0.0001    0.0520   -0.0012   -0.0001   -0.0178   -0.0005   -0.2180
           6    0.1124   -0.1432    0.0042    0.1927   -0.3244   -0.0004   -0.3974    0.0010
           7    0.0000    0.0001   -0.0254    0.0005   -0.0002    0.1198   -0.0005   -0.2262
           8   -0.0001    0.0004   -0.2618    0.0062    0.0003   -0.2819    0.0001   -0.0410
           9   -0.2809   -0.2642    0.0012    0.0760   -0.3318   -0.0001    0.4034   -0.0008
          10    0.0003   -0.0004    0.2385   -0.0055   -0.0001   -0.0979    0.0002    0.0444
          11   -0.0001    0.0004   -0.2321    0.0054    0.0001    0.0237    0.0002    0.0817
          12   -0.3147   -0.3245   -0.0029   -0.1171    0.5004    0.0006    0.0159   -0.0003
          13    0.0000    0.0001   -0.0501    0.0011   -0.0001    0.0531   -0.0004   -0.1318
          14    0.0002   -0.0003    0.1731   -0.0041   -0.0003    0.1344   -0.0007   -0.2592
          15    0.3117    0.1596    0.0005    0.0136   -0.0747    0.0000    0.3807   -0.0008
          16   -0.0001    0.0004   -0.2323    0.0054    0.0001   -0.1236   -0.0003   -0.1756
          17   -0.0000    0.0002   -0.1495    0.0035    0.0002   -0.1724   -0.0002   -0.0998
          18   -0.0983    0.0041   -0.0037   -0.1479   -0.0775   -0.0004   -0.3918    0.0009
          19   -0.0001    0.0004   -0.2329    0.0054    0.0001   -0.1296   -0.0003   -0.1742
          20    0.0001   -0.0001    0.0684   -0.0016   -0.0001    0.0349   -0.0007   -0.2810
          21    0.2058    0.2555   -0.0050   -0.2291    0.3283    0.0004    0.0042   -0.0001
          22    0.0003   -0.0007    0.2335   -0.0057    0.0000   -0.1528    0.0003    0.0721
          23   -0.0002    0.0004   -0.1405    0.0032   -0.0004    0.3997    0.0005    0.3262
          24   -0.1813    0.3406    0.0130    0.5261    0.2815    0.0005   -0.0291   -0.0004
          25    0.0003   -0.0003   -0.0761    0.0022    0.0005   -0.1052    0.0009    0.3791
          26   -0.0002    0.0001    0.0454   -0.0015   -0.0006    0.3774    0.0004    0.2337
          27   -0.1888    0.4308   -0.0049   -0.2568   -0.1718   -0.0006   -0.0028    0.0002
          28   -0.0009    0.0008   -0.1054    0.0026    0.0003   -0.0648    0.0009    0.4053
          29    0.0003   -0.0011    0.5237   -0.0117    0.0005   -0.2594    0.0005    0.2096
          30    0.5379   -0.1873   -0.0035   -0.1176   -0.0447   -0.0000    0.0028    0.0005
          31    0.0001   -0.0001    0.0688   -0.0015    0.0000   -0.1041    0.0000   -0.0084
          32   -0.0000    0.0000   -0.0653    0.0014    0.0001   -0.0438    0.0000    0.0095
          33   -0.1414   -0.2418   -0.0070   -0.2949    0.2630    0.0001    0.0086   -0.0001
          34    0.0001   -0.0001    0.0867   -0.0021   -0.0002    0.1217   -0.0002   -0.0754
          35    0.0001   -0.0001    0.0407   -0.0010   -0.0001    0.0209   -0.0002   -0.0839
          36    0.0559   -0.0632    0.0022    0.0968   -0.1697   -0.0003   -0.3198    0.0008
          37    0.0000    0.0000   -0.0074    0.0002   -0.0001    0.0337   -0.0001   -0.0652
          38   -0.0001    0.0002   -0.1099    0.0026    0.0001   -0.1058    0.0001   -0.0081
          39   -0.1407   -0.1105    0.0010    0.0506   -0.1642   -0.0000    0.2967   -0.0006
          40   -0.0000    0.0000   -0.0142    0.0003   -0.0000    0.0160   -0.0002   -0.0389
          41    0.0001   -0.0002    0.1012   -0.0024   -0.0002    0.0994   -0.0002   -0.0710
          42    0.1601    0.0961    0.0004    0.0092   -0.0336    0.0000    0.2995   -0.0006
          43   -0.0000    0.0002   -0.1132    0.0027    0.0001   -0.0886    0.0000   -0.0210
          44   -0.0000    0.0001   -0.0696    0.0016    0.0001   -0.0805   -0.0000   -0.0124
          45   -0.0541    0.0120   -0.0019   -0.0799   -0.0337   -0.0003   -0.3144    0.0008
          46   -0.0001    0.0002   -0.1105    0.0026    0.0001   -0.0829   -0.0001   -0.0356
          47    0.0000   -0.0001    0.0450   -0.0011   -0.0001    0.0366   -0.0002   -0.0902
          48    0.1048    0.1504   -0.0029   -0.1337    0.2470    0.0003    0.0021   -0.0001
          49    0.0000   -0.0003    0.0958   -0.0025   -0.0000   -0.0304    0.0001    0.0066
          50   -0.0001    0.0001   -0.0197    0.0005   -0.0001    0.1211    0.0001    0.0835
          51   -0.0060    0.2254    0.0103    0.4291    0.0265    0.0003   -0.0093   -0.0002
          52    0.0004   -0.0002   -0.1021    0.0027    0.0003    0.0385    0.0003    0.1468
          53   -0.0002    0.0003   -0.0387    0.0005   -0.0004    0.1511    0.0002    0.0927
          54   -0.2264    0.2845   -0.0064   -0.3090   -0.2306   -0.0006    0.0086   -0.0000
          55   -0.0006    0.0004    0.0624   -0.0016   -0.0000   -0.1646    0.0003    0.1225
          56    0.0002   -0.0005    0.2202   -0.0047    0.0005   -0.1841    0.0002    0.0647
          57    0.3315   -0.2208    0.0038    0.1944    0.1748    0.0003   -0.0097    0.0003
          58   -0.0003    0.0004   -0.1327    0.0033    0.0001    0.1429    0.0002    0.1205
          59    0.0001   -0.0004    0.2102   -0.0048    0.0002   -0.1690    0.0002    0.0608
          60    0.1666   -0.0488   -0.0055   -0.2285   -0.1672   -0.0002    0.0130    0.0000


   Root No.       9        10        11        12        13        14        15        16

                 9 A      10 A      11 A      12 A      13 A      14 A      15 A      16 A   

[...]
 EFFECTIVE MASS      8.0803
 FORCE CONSTANT      0.6450

 VIBRATION         37   37A           ATOM PAIR      ENERGY CONTRIBUTION    RADIAL
 FREQUENCY          1355.28         C  2 -- C  5         +12.9% ( 58.6%)     98.7%
 TRANSITION DIPOLE   0.1972         C  6 -- C  7         +11.8% ( 56.1%)     99.7%
 TRAVEL (Ang.)       0.2203         C  1 -- C  2          +9.4% ( 50.1%)     97.5%
 REDUCED MASS        1.0254         C  1 -- C  3          +8.0% ( 46.2%)     96.0%
 EFFECTIVE MASS     10.1243
 FORCE CONSTANT      1.1097

 VIBRATION         38   38A           ATOM PAIR      ENERGY CONTRIBUTION    RADIAL
 FREQUENCY          1405.27         C  1 -- C  4         +13.4% ( 55.9%)    100.0%
 TRANSITION DIPOLE   0.2343         C  8 -- C  9          +8.0% ( 43.1%)    100.0%
 TRAVEL (Ang.)       0.2299         C  5 -- C  7          +7.8% ( 42.6%)     97.6%
 REDUCED MASS        0.9081         C  3 -- C  6          +7.3% ( 41.3%)     42.3%
 EFFECTIVE MASS     10.5253
 FORCE CONSTANT      1.0566

 VIBRATION         39   39A           ATOM PAIR      ENERGY CONTRIBUTION    RADIAL
 FREQUENCY          1543.21         C  3 -- C  6         +12.6% ( 52.4%)    100.0%
 TRANSITION DIPOLE   0.5242         C  2 -- C  5         +12.5% ( 52.2%)     99.8%
 TRAVEL (Ang.)       0.1696         C  1 -- C  2         +11.7% ( 50.5%)     26.8%
 REDUCED MASS        1.5188         C  1 -- C  3         +11.7% ( 50.4%)     25.8%
 EFFECTIVE MASS     10.9074         C  6 -- C  7         +10.4% ( 47.6%)     24.7%
 FORCE CONSTANT      2.1311         C  5 -- C  7         +10.3% ( 47.4%)     19.5%

 VIBRATION         40   40A           ATOM PAIR      ENERGY CONTRIBUTION    RADIAL
 FREQUENCY          1610.59         C  1 -- C  2         +15.6% ( 57.8%)     58.0%
 TRANSITION DIPOLE   0.5376         C  1 -- C  3         +15.5% ( 57.5%)     61.4%
 TRAVEL (Ang.)       0.1435         C  1 -- C  4         +14.4% ( 55.4%)     98.1%
 REDUCED MASS        2.0333         C  5 -- C  7          +8.9% ( 43.5%)     66.9%
 EFFECTIVE MASS     11.0620
 FORCE CONSTANT      3.1075

 VIBRATION         41   41A           ATOM PAIR      ENERGY CONTRIBUTION    RADIAL
 FREQUENCY          1776.58         C  6 -- C  7         +15.5% ( 54.4%)     89.3%
 TRANSITION DIPOLE   0.0785         C  1 -- C  2         +15.1% ( 53.8%)     90.0%
 TRAVEL (Ang.)       0.1253         C  1 -- C  3         +14.6% ( 52.8%)     88.4%
 REDUCED MASS        2.4182         C  5 -- C  7         +14.5% ( 52.7%)     84.7%
 EFFECTIVE MASS     11.8576
 FORCE CONSTANT      4.4969

 VIBRATION         42   42A           ATOM PAIR      ENERGY CONTRIBUTION    RADIAL
 FREQUENCY          1796.18         C  3 -- C  6         +16.6% ( 56.8%)     99.7%
 TRANSITION DIPOLE   0.2414         C  2 -- C  5         +16.1% ( 55.9%)    100.0%
 TRAVEL (Ang.)       0.1301         C  1 -- C  3         +12.0% ( 48.1%)     48.6%
 REDUCED MASS        2.2196         C  1 -- C  2         +10.8% ( 45.7%)     39.5%
 EFFECTIVE MASS     11.8253
 FORCE CONSTANT      4.2191

 VIBRATION         43   43A           ATOM PAIR      ENERGY CONTRIBUTION    RADIAL
 FREQUENCY          1835.92         C  9 -- C 10         +31.6% ( 82.9%)     99.2%
 TRANSITION DIPOLE   0.0458         C  4 -- C  8         +12.8% ( 52.8%)     97.3%
 TRAVEL (Ang.)       0.1110         C  8 -- C  9         +11.4% ( 49.7%)     55.6%
 REDUCED MASS        2.9833         C  9 -- H 18         +10.1% ( 46.9%)      5.0%
 EFFECTIVE MASS     11.8478
 FORCE CONSTANT      5.9245

 VIBRATION         44   44A           ATOM PAIR      ENERGY CONTRIBUTION    RADIAL
 FREQUENCY          1870.60         C  4 -- C  8         +29.7% ( 81.1%)     94.8%
 TRANSITION DIPOLE   0.0693         C  8 -- C  9         +19.0% ( 64.8%)     56.7%
 TRAVEL (Ang.)       0.1044         C  9 -- C 10         +12.6% ( 52.8%)     96.3%
 REDUCED MASS        3.3060         C  8 -- H 17         +10.8% ( 48.9%)      1.6%
 EFFECTIVE MASS     11.7710
 FORCE CONSTANT      6.8157

 VIBRATION         45   45A           ATOM PAIR      ENERGY CONTRIBUTION    RADIAL
 FREQUENCY          2977.30         C  8 -- H 17         +82.7% ( 92.6%)    100.0%
 TRANSITION DIPOLE   0.3157         C  3 -- H 13         +13.8% ( 37.8%)    100.0%
 TRAVEL (Ang.)       0.1802         C  4 -- C  8          +1.3% ( 11.6%)     35.0%
 REDUCED MASS        0.6973         C  8 -- C  9          +1.2% ( 11.3%)     18.8%
 EFFECTIVE MASS      1.5178
 FORCE CONSTANT      3.6419

 VIBRATION         46   46A           ATOM PAIR      ENERGY CONTRIBUTION    RADIAL
 FREQUENCY          3013.23         C  3 -- H 13         +81.8% ( 91.6%)    100.0%
 TRANSITION DIPOLE   0.1829         C  8 -- H 17         +13.2% ( 36.7%)    100.0%
 TRAVEL (Ang.)       0.1818         C  6 -- H 15          +1.5% ( 12.2%)     98.9%
 REDUCED MASS        0.6771         C  1 -- C  3          +1.3% ( 11.6%)     25.9%
 EFFECTIVE MASS      1.5173
 FORCE CONSTANT      3.6223

 VIBRATION         47   47A           ATOM PAIR      ENERGY CONTRIBUTION    RADIAL
 FREQUENCY          3029.31         C  4 -- H 11         +94.4% ( 98.6%)    100.0%
 TRANSITION DIPOLE   0.3308         C  9 -- H 18          +2.3% ( 15.5%)    100.0%
 TRAVEL (Ang.)       0.1590         C  4 -- C  8          +1.5% ( 12.4%)     37.3%
 REDUCED MASS        0.8802         C  1 -- C  4          +1.4% ( 11.9%)     16.5%
 EFFECTIVE MASS      1.5201
 FORCE CONSTANT      4.7590

 VIBRATION         48   48A           ATOM PAIR      ENERGY CONTRIBUTION    RADIAL
 FREQUENCY          3035.88         C  9 -- H 18         +93.3% ( 98.0%)    100.0%
 TRANSITION DIPOLE   0.1914         C  4 -- H 11          +2.3% ( 15.4%)    100.0%
 TRAVEL (Ang.)       0.1609         C  9 -- C 10          +1.4% ( 12.1%)     29.8%
 REDUCED MASS        0.8582         C  8 -- C  9          +1.3% ( 11.7%)     18.5%
 EFFECTIVE MASS      1.5094
 FORCE CONSTANT      4.6603

 VIBRATION         49   49A           ATOM PAIR      ENERGY CONTRIBUTION    RADIAL
 FREQUENCY          3051.53         C  2 -- H 12         +64.7% ( 81.8%)    100.0%
 TRANSITION DIPOLE   0.1757         C  5 -- H 14         +27.3% ( 53.2%)    100.0%
 TRAVEL (Ang.)       0.2127         C  7 -- H 16          +4.3% ( 21.1%)     99.9%
 REDUCED MASS        0.4883         C  2 -- C  5          +1.3% ( 11.5%)      1.8%
 EFFECTIVE MASS      1.5002
 FORCE CONSTANT      2.6791

 VIBRATION         50   50A           ATOM PAIR      ENERGY CONTRIBUTION    RADIAL
 FREQUENCY          3059.01         C  7 -- H 16         +48.7% ( 71.0%)    100.0%
 TRANSITION DIPOLE   0.1847         C  6 -- H 15         +27.4% ( 53.2%)    100.0%
 TRAVEL (Ang.)       0.2575         C  2 -- H 12         +14.8% ( 39.1%)    100.0%
 REDUCED MASS        0.3325         C  5 -- H 14          +5.6% ( 24.0%)     99.7%
 EFFECTIVE MASS      1.5020
 FORCE CONSTANT      1.8330

 VIBRATION         51   51A           ATOM PAIR      ENERGY CONTRIBUTION    RADIAL
 FREQUENCY          3066.92         C  6 -- H 15         +43.8% ( 67.2%)    100.0%
 TRANSITION DIPOLE   0.5163         C  5 -- H 14         +38.8% ( 63.2%)    100.0%
 TRAVEL (Ang.)       0.2486         C  2 -- H 12         +12.7% ( 36.2%)    100.0%
 REDUCED MASS        0.3557         C  7 -- H 16          +0.9% (  9.7%)     96.8%
 EFFECTIVE MASS      1.5350
 FORCE CONSTANT      1.9714

 VIBRATION         52   52A           ATOM PAIR      ENERGY CONTRIBUTION    RADIAL
 FREQUENCY          3078.80         C  7 -- H 16         +43.0% ( 66.5%)    100.0%
 TRANSITION DIPOLE   0.4473         C  5 -- H 14         +25.2% ( 50.9%)    100.0%
 TRAVEL (Ang.)       0.2676         C  6 -- H 15         +23.4% ( 49.0%)    100.0%
 REDUCED MASS        0.3058         C  2 -- H 12          +4.3% ( 21.0%)     99.9%
 EFFECTIVE MASS      1.5940
 FORCE CONSTANT      1.7081

 VIBRATION         53   53A           ATOM PAIR      ENERGY CONTRIBUTION    RADIAL
 FREQUENCY          3136.35         C 10 -- H 19         +95.1% ( 99.1%)    100.0%
 TRANSITION DIPOLE   0.2331         C 10 -- H 20          +3.5% ( 19.0%)     55.2%
 TRAVEL (Ang.)       0.1545         C  9 -- C 10          +1.3% ( 11.7%)     29.0%
 REDUCED MASS        0.9005
 EFFECTIVE MASS      1.5191
 FORCE CONSTANT      5.2187

 VIBRATION         54   54A           ATOM PAIR      ENERGY CONTRIBUTION    RADIAL
 FREQUENCY          3147.42         C 10 -- H 20         +94.9% ( 98.3%)     99.9%
 TRANSITION DIPOLE   0.3377         C 10 -- H 19          +2.8% ( 17.0%)     12.5%
 TRAVEL (Ang.)       0.1565         C  9 -- C 10          +1.5% ( 12.4%)     63.7%
 REDUCED MASS        0.8744         C  9 -- H 18          +0.7% (  8.2%)     94.9%
 EFFECTIVE MASS      1.4773
 FORCE CONSTANT      5.1037

      SYMMETRY NUMBER FOR POINT-GROUP C1  =  1


          SYSTEM IS A GROUND STATE



 InChI=1S/C10H10/c1-2-3-7-10-8-5-4-6-9-10/h2-9H,1H2


          MOLECULE IS NOT LINEAR

          THERE ARE 54 GENUINE VIBRATIONS IN THIS SYSTEM
          THIS THERMODYNAMICS CALCULATION IS LIMITED TO
          MOLECULES WHICH HAVE NO INTERNAL ROTATIONS




                    CALCULATED THERMODYNAMIC PROPERTIES
                                          *
   TEMP. (K)   PARTITION FUNCTION   H.O.F.    ENTHALPY  HEAT CAPACITY ENTROPY
                                   KCAL/MOL   CAL/MOLE    CAL/K/MOL  CAL/K/MOL


 298.00  VIB.     0.2710D+03                  3931.3810    28.4751    24.3250
         ROT.     0.7031D+06                   888.2803     2.9808    29.7351
         INT.     0.1905D+09                  4819.6613    31.4559    54.0601
         TRA.     0.1436D+28                  1480.4672     4.9680    40.5022
         TOT.                       52.968    6300.1285    36.4239    94.5623

 200.00  VIB.     0.3225D+02                  1686.0950    17.5592    15.3332
         ROT.     0.3866D+06                   596.1613     2.9808    28.5464
         INT.     0.1247D+08                  2282.2563    20.5400    43.8797
         TRA.     0.7896D+27                   993.6021     4.9680    38.5210
         TOT.                       49.944    3275.8584    25.5080    82.4007

 210.00  VIB.     0.3989D+02                  1866.8646    18.5989    16.2150
         ROT.     0.4159D+06                   625.9693     2.9808    28.6919
         INT.     0.1659D+08                  2492.8340    21.5797    44.9069
         TRA.     0.8496D+27                  1043.2822     4.9680    38.7634
         TOT.                       50.204    3536.1162    26.5477    83.6703

 220.00  VIB.     0.4939D+02                  2058.1509    19.6622    17.1047
         ROT.     0.4460D+06                   655.7774     2.9808    28.8305
         INT.     0.2203D+08                  2713.9283    22.6430    45.9352
         TRA.     0.9110D+27                  1092.9623     4.9680    38.9945
         TOT.                       50.475    3806.8907    27.6110    84.9297

 230.00  VIB.     0.6120D+02                  2260.1793    20.7469    18.0025
         ROT.     0.4768D+06                   685.5855     2.9808    28.9630
         INT.     0.2918D+08                  2945.7648    23.7277    46.9656
         TRA.     0.9738D+27                  1142.6424     4.9680    39.2154
         TOT.                       50.756    4088.4072    28.6957    86.1810

 240.00  VIB.     0.7592D+02                  2473.1518    21.8505    18.9088
         ROT.     0.5082D+06                   715.3935     2.9808    29.0899
         INT.     0.3858D+08                  3188.5453    24.8313    47.9987
         TRA.     0.1038D+28                  1192.3226     4.9680    39.4268
         TOT.                       51.049    4380.8679    29.7993    87.4255

 250.00  VIB.     0.9428D+02                  2697.2436    22.9703    19.8234
         ROT.     0.5403D+06                   745.2016     2.9808    29.2116
         INT.     0.5094D+08                  3442.4452    25.9511    49.0350
         TRA.     0.1103D+28                  1242.0027     4.9680    39.6296
         TOT.                       51.352    4684.4479    30.9191    88.6646

 260.00  VIB.     0.1172D+03                  2932.6010    24.1031    20.7464
         ROT.     0.5730D+06                   775.0097     2.9808    29.3285
         INT.     0.6717D+08                  3707.6106    27.0840    50.0749
         TRA.     0.1170D+28                  1291.6828     4.9680    39.8245
         TOT.                       51.667    4999.2934    32.0520    89.8993

 270.00  VIB.     0.1459D+03                  3179.3402    25.2461    21.6774
         ROT.     0.6064D+06                   804.8177     2.9808    29.4410
         INT.     0.8847D+08                  3984.1579    28.2269    51.1184
         TRA.     0.1239D+28                  1341.3629     4.9680    40.0120
         TOT.                       51.993    5325.5208    33.1950    91.1304

 280.00  VIB.     0.1818D+03                  3437.5474    26.3962    22.6163
         ROT.     0.6404D+06                   834.6258     2.9808    29.5494
         INT.     0.1164D+09                  4272.1732    29.3770    52.1657
         TRA.     0.1308D+28                  1391.0430     4.9680    40.1926
         TOT.                       52.331    5663.2162    34.3451    92.3584

 290.00  VIB.     0.2268D+03                  3707.2788    27.5505    23.5627
         ROT.     0.6750D+06                   864.4339     2.9808    29.6540
         INT.     0.1531D+09                  4571.7127    30.5313    53.2167
         TRA.     0.1379D+28                  1440.7231     4.9680    40.3670
         TOT.                       52.680    6012.4358    35.4993    93.5837

 300.00  VIB.     0.2833D+03                  3988.5622    28.7062    24.5162
         ROT.     0.7102D+06                   894.2419     2.9808    29.7551
         INT.     0.2012D+09                  4882.8042    31.6870    54.2713
         TRA.     0.1451D+28                  1490.4032     4.9680    40.5354
         TOT.                       53.041    6373.2074    36.6550    94.8067

 310.00  VIB.     0.3543D+03                  4281.3982    29.8606    25.4763
         ROT.     0.7460D+06                   924.0500     2.9808    29.8528
         INT.     0.2643D+09                  5205.4482    32.8414    55.3291
         TRA.     0.1524D+28                  1540.0833     4.9680    40.6983
         TOT.                       53.413    6745.5315    37.8094    96.0274

 320.00  VIB.     0.4436D+03                  4585.7618    31.0113    26.4425
         ROT.     0.7824D+06                   953.8580     2.9808    29.9474
         INT.     0.3471D+09                  5539.6199    33.9921    56.3900
         TRA.     0.1598D+28                  1589.7634     4.9680    40.8560
         TOT.                       53.797    7129.3833    38.9601    97.2460

 330.00  VIB.     0.5561D+03                  4901.6050    32.1562    27.4144
         ROT.     0.8194D+06                   983.6661     2.9808    30.0392
         INT.     0.4556D+09                  5885.2712    35.1370    57.4535
         TRA.     0.1674D+28                  1639.4435     4.9680    41.0089
         TOT.                       54.192    7524.7147    40.1050    98.4624

 340.00  VIB.     0.6979D+03                  5228.8585    33.2931    28.3912
         ROT.     0.8569D+06                  1013.4742     2.9808    30.1281
         INT.     0.5980D+09                  6242.3327    36.2739    58.5194
         TRA.     0.1750D+28                  1689.1236     4.9680    41.1572
         TOT.                       54.599    7931.4563    41.2419    99.6766

 350.00  VIB.     0.8767D+03                  5567.4337    34.4202    29.3726
         ROT.     0.8950D+06                  1043.2822     2.9808    30.2145
         INT.     0.7846D+09                  6610.7160    37.4010    59.5871
         TRA.     0.1828D+28                  1738.8037     4.9680    41.3012
         TOT.                       55.017    8349.5197    42.3691   100.8884

 360.00  VIB.     0.1103D+04                  5917.2256    35.5361    30.3579
         ROT.     0.9336D+06                  1073.0903     2.9808    30.2985
         INT.     0.1029D+10                  6990.3159    38.5169    60.6564
         TRA.     0.1907D+28                  1788.4838     4.9680    41.4412
         TOT.                       55.447    8778.7997    43.4849   102.0976

 370.00  VIB.     0.1388D+04                  6278.1139    36.6393    31.3466
         ROT.     0.9728D+06                  1102.8984     2.9808    30.3802
         INT.     0.1350D+10                  7381.0122    39.6201    61.7268
         TRA.     0.1987D+28                  1838.1639     4.9680    41.5773
         TOT.                       55.887    9219.1762    44.5881   103.3041

 380.00  VIB.     0.1749D+04                  6649.9659    37.7287    32.3382
         ROT.     0.1012D+07                  1132.7064     2.9808    30.4597
         INT.     0.1771D+10                  7782.6723    40.7095    62.7979
         TRA.     0.2068D+28                  1887.8440     4.9680    41.7098
         TOT.                       56.338    9670.5163    45.6775   104.5077

 390.00  VIB.     0.2206D+04                  7032.6379    38.8032    33.3322
         ROT.     0.1053D+07                  1162.5145     2.9808    30.5371
         INT.     0.2323D+10                  8195.1523    41.7840    63.8693
         TRA.     0.2150D+28                  1937.5242     4.9680    41.8388
         TOT.                       56.800   10132.6765    46.7520   105.7081

 400.00  VIB.     0.2786D+04                  7425.9771    39.8620    34.3280
         ROT.     0.1093D+07                  1192.3226     2.9808    30.6126
         INT.     0.3046D+10                  8618.2997    42.8428    64.9406
         TRA.     0.2233D+28                  1987.2043     4.9680    41.9646
         TOT.                       57.273   10605.5039    47.8108   106.9052

   *: NOTE: HEATS OF FORMATION ARE RELATIVE TO THE
            ELEMENTS IN THEIR STANDARD STATE AT 298K
              (=  Standard Enthalpy of Formation).

            Hvib:  Zero-point energy is not included.
                   frequencies of less than zero cm-1 are not included.
            Hrot = (3/2)RT
            Htra = (3/2)RT + pV = (5/2)RT

            Heat capacity is Cp, not Cv

          For more information, see: HTTP://OpenMOPAC.net/Manual/thermochemistry.html


           FORCE CONSTANT IN CARTESIAN COORDINATES (Millidynes/A)

    ATOM   CHEMICAL       X               Y               Z
   NUMBER   SYMBOL  FORCE CONSTANT  FORCE CONSTANT  FORCE CONSTANT

      1       C       12.551223       12.667249        2.575256
      2       C       11.966196       12.267999        2.328965
      3       C       11.874522       12.304604        2.327087
      4       C       15.089746       10.045497        2.209822
      5       C       12.107706       12.043008        2.322918
      6       C       12.070261       12.147512        2.318506
      7       C       12.058299       12.097545        2.323240
      8       C       15.005598       10.116376        2.178945
      9       C       15.389213        9.869449        2.196420
     10       C       15.233219        9.088287        1.933310
     11       H        2.126668        3.730463        0.347226
     12       H        1.878338        4.032688        0.350302
     13       H        4.975333        0.863513        0.373829
     14       H        5.157416        0.759550        0.352912
     15       H        1.842995        4.076045        0.352664
     16       H        1.884738        4.039868        0.351090
     17       H        2.066375        3.716608        0.371218
     18       H        2.082260        3.769889        0.354217
     19       H        2.327405        3.794494        0.336460
     20       H        1.832707        4.305842        0.331736

 **********************
 *                    *
 * JOB ENDED NORMALLY *
 *                    *
 **********************



 TOTAL JOB TIME:             2.59 SECONDS

 == MOPAC DONE ==
