 *******************************************************************************
 **                                                                           **
 **                              MOPAC v23.1.2                                **
 **                                                                           **
 *******************************************************************************
 **          Digital Object Identifier (DOI): 10.5281/zenodo.6511958          **
 **    Visit the DOI location for information on how to cite this program.    **
 *******************************************************************************

                              PM3 CALCULATION RESULTS

 *******************************************************************************
 *  CALCULATION DONE: (MAX THREADS = 1)              Tue Jun  3 16:34:12 2025  *
 *  PM3        - The PM3 Hamiltonian to be used
 *  PRECISE    - TIGHTER CRITERIA TO BE USED
 *  NOSYM      - POINT-GROUP SYMMETRY SET TO C1
 *  THREADS=1  - MULTI-THREADING NOT USED
 *  T=         - A TIME OF 172800.0 SECONDS REQUESTED
 *  DUMP=N     - RESTART FILE WRITTEN EVERY 7200.0 SECONDS REQUESTED
 *******************************************************************************
pm3  precise nosym THREADS=1
 InChI=1S/C9H8/c1-2-5-9-7-3-6-8(9)4-1/h1-6H,7H2

   ATOM   CHEMICAL          X               Y               Z
  NUMBER   SYMBOL      (ANGSTROMS)     (ANGSTROMS)     (ANGSTROMS)

     1       C         -1.61390000  *  -1.08600000  *  -0.07360000  *
     2       C         -0.20230000  *  -0.61550000  *  -0.00750000  *
     3       C         -0.16100000  *   0.75690000  *  -0.01050000  *
     4       C         -2.34770000  *   0.22850000  *  -0.11370000  *
     5       C         -1.51430000  *   1.26580000  *  -0.07740000  *
     6       C          0.96840000  *  -1.37270000  *   0.05150000  *
     7       C          1.04500000  *   1.45450000  *   0.04490000  *
     8       C          2.23730000  *   0.71340000  *   0.10500000  *
     9       C          2.19920000  *  -0.69610000  *   0.10820000  *
    10       H         -1.79670000  *  -1.66890000  *  -1.00090000  *
    11       H         -1.88500000  *  -1.66220000  *   0.83600000  *
    12       H         -3.42400000  *   0.32620000  *  -0.16580000  *
    13       H          1.06340000  *   2.53670000  *   0.04190000  *
    14       H         -1.80940000  *   2.30660000  *  -0.09540000  *
    15       H          3.18890000  *   1.22690000  *   0.14880000  *
    16       H          3.12180000  *  -1.25990000  *   0.15460000  *
    17       H          0.93020000  *  -2.45430000  *   0.05360000  *



          CARTESIAN COORDINATES 

    NO.       ATOM           X           Y           Z

     1         C         -1.6139     -1.0860     -0.0736
     2         C         -0.2023     -0.6155     -0.0075
     3         C         -0.1610      0.7569     -0.0105
     4         C         -2.3477      0.2285     -0.1137
     5         C         -1.5143      1.2658     -0.0774
     6         C          0.9684     -1.3727      0.0515
     7         C          1.0450      1.4545      0.0449
     8         C          2.2373      0.7134      0.1050
     9         C          2.1992     -0.6961      0.1082
    10         H         -1.7967     -1.6689     -1.0009
    11         H         -1.8850     -1.6622      0.8360
    12         H         -3.4240      0.3262     -0.1658
    13         H          1.0634      2.5367      0.0419
    14         H         -1.8094      2.3066     -0.0954
    15         H          3.1889      1.2269      0.1488
    16         H          3.1218     -1.2599      0.1546
    17         H          0.9302     -2.4543      0.0536

  H: (PM3): J. J. P. STEWART, J. COMP. CHEM. 10, 209 (1989).
  C: (PM3): J. J. P. STEWART, J. COMP. CHEM. 10, 209 (1989).

           Empirical Formula: C9 H8  =    17 atoms



      MOLECULAR POINT GROUP   :   C1  


      RHF CALCULATION, NO. OF DOUBLY OCCUPIED LEVELS = 22


          Geometry optimization using EF

          DIAGONAL MATRIX USED AS START HESSIAN

 CYCLE:     1 TIME:   0.008 TIME LEFT:  2.00D  GRAD.:   114.875 HEAT:  43.89709
 CYCLE:     2 TIME:   0.012 TIME LEFT:  2.00D  GRAD.:    47.573 HEAT:  41.80466
 CYCLE:     3 TIME:   0.008 TIME LEFT:  2.00D  GRAD.:    31.574 HEAT:  41.37185
 CYCLE:     4 TIME:   0.004 TIME LEFT:  2.00D  GRAD.:    29.561 HEAT:  41.06520
 CYCLE:     5 TIME:   0.008 TIME LEFT:  2.00D  GRAD.:    17.375 HEAT:  40.80104
 CYCLE:     6 TIME:   0.008 TIME LEFT:  2.00D  GRAD.:    15.092 HEAT:  40.71959
 CYCLE:     7 TIME:   0.008 TIME LEFT:  2.00D  GRAD.:    21.695 HEAT:  40.70501
 CYCLE:     8 TIME:   0.004 TIME LEFT:  2.00D  GRAD.:    20.824 HEAT:  40.67864
 CYCLE:     9 TIME:   0.004 TIME LEFT:  2.00D  GRAD.:    13.498 HEAT:  40.62095
 CYCLE:    10 TIME:   0.008 TIME LEFT:  2.00D  GRAD.:     9.076 HEAT:  40.59431
 CYCLE:    11 TIME:   0.008 TIME LEFT:  2.00D  GRAD.:     8.179 HEAT:  40.58359
 CYCLE:    12 TIME:   0.004 TIME LEFT:  2.00D  GRAD.:     5.988 HEAT:  40.57356
 CYCLE:    13 TIME:   0.012 TIME LEFT:  2.00D  GRAD.:     3.464 HEAT:  40.56341
 CYCLE:    14 TIME:   0.004 TIME LEFT:  2.00D  GRAD.:     5.264 HEAT:  40.56499
 CYCLE:    15 TIME:   0.004 TIME LEFT:  2.00D  GRAD.:     2.794 HEAT:  40.55823
 CYCLE:    16 TIME:   0.008 TIME LEFT:  2.00D  GRAD.:     4.272 HEAT:  40.56061
 CYCLE:    17 TIME:   0.004 TIME LEFT:  2.00D  GRAD.:     1.862 HEAT:  40.55547
 CYCLE:    18 TIME:   0.008 TIME LEFT:  2.00D  GRAD.:     1.828 HEAT:  40.55557
 CYCLE:    19 TIME:   0.004 TIME LEFT:  2.00D  GRAD.:     0.739 HEAT:  40.55396
 CYCLE:    20 TIME:   0.008 TIME LEFT:  2.00D  GRAD.:     1.261 HEAT:  40.55399
 CYCLE:    21 TIME:   0.008 TIME LEFT:  2.00D  GRAD.:     0.639 HEAT:  40.55339
 CYCLE:    22 TIME:   0.004 TIME LEFT:  2.00D  GRAD.:     0.800 HEAT:  40.55320
 CYCLE:    23 TIME:   0.004 TIME LEFT:  2.00D  GRAD.:     0.560 HEAT:  40.55294
 CYCLE:    24 TIME:   0.008 TIME LEFT:  2.00D  GRAD.:     0.541 HEAT:  40.55281
 CYCLE:    25 TIME:   0.004 TIME LEFT:  2.00D  GRAD.:     0.320 HEAT:  40.55270
 CYCLE:    26 TIME:   0.008 TIME LEFT:  2.00D  GRAD.:     0.313 HEAT:  40.55263
 CYCLE:    27 TIME:   0.004 TIME LEFT:  2.00D  GRAD.:     0.199 HEAT:  40.55258
 CYCLE:    28 TIME:   0.008 TIME LEFT:  2.00D  GRAD.:     0.247 HEAT:  40.55254
 CYCLE:    29 TIME:   0.004 TIME LEFT:  2.00D  GRAD.:     0.171 HEAT:  40.55251
 CYCLE:    30 TIME:   0.004 TIME LEFT:  2.00D  GRAD.:     0.102 HEAT:  40.55250
 CYCLE:    31 TIME:   0.004 TIME LEFT:  2.00D  GRAD.:     0.072 HEAT:  40.55249
 CYCLE:    32 TIME:   0.008 TIME LEFT:  2.00D  GRAD.:     0.049 HEAT:  40.55249

     GRADIENT =  0.04925 IS LESS THAN CUTOFF =  0.05000



 -------------------------------------------------------------------------------
 pm3  precise nosym THREADS=1
 InChI=1S/C9H8/c1-2-5-9-7-3-6-8(9)4-1/h1-6H,7H2



     GEOMETRY OPTIMISED USING EIGENVECTOR FOLLOWING (EF).     
     SCF FIELD WAS ACHIEVED                                   


                              PM3 CALCULATION
                                                       MOPAC v23.1.2 MacOS
                                                       Tue Jun  3 16:34:12 2025




          FINAL HEAT OF FORMATION =         40.55249 KCAL/MOL =     169.67160 KJ/MOL


          COSMO AREA              =        155.28 SQUARE ANGSTROMS
          COSMO VOLUME            =        151.01 CUBIC ANGSTROMS

          GRADIENT NORM           =          0.04925          =       0.01194 PER ATOM
          IONIZATION POTENTIAL    =          8.970598 EV
          HOMO LUMO ENERGIES (EV) =         -8.971 -0.077
          NO. OF FILLED LEVELS    =         22
          MOLECULAR WEIGHT        =        116.1622         POINT GROUP:  C1  

          MOLECULAR DIMENSIONS (Angstroms)

            Atom       Atom       Distance
            H    16    H    12     6.76584
            H    13    H    17     4.92189
            H    10    H    11     1.77777


          SCF CALCULATIONS        =         39

          WALL-CLOCK TIME         =      0.215 SECONDS
          COMPUTATION TIME        =      0.128 SECONDS




   ATOM   CHEMICAL          X               Y               Z
  NUMBER   SYMBOL      (ANGSTROMS)     (ANGSTROMS)     (ANGSTROMS)

     1       C         -1.61983936  *  -1.07776974  *  -0.07406017  *
     2       C         -0.18853568  *  -0.63375660  *  -0.00671994  *
     3       C         -0.14913851  *   0.77999700  *  -0.00999589  *
     4       C         -2.37182370  *   0.22706532  *  -0.11481882  *
     5       C         -1.52417541  *   1.27756868  *  -0.07783342  *
     6       C          0.97767929  *  -1.37401450  *   0.05206707  *
     7       C          1.05829110  *   1.45702612  *   0.04548200  *
     8       C          2.23150491  *   0.70413669  *   0.10464380  *
     9       C          2.19219480  *  -0.68722460  *   0.10790435  *
    10       H         -1.82069734  *  -1.69077424  *  -0.97156787  *
    11       H         -1.90631840  *  -1.68468518  *   0.80412931  *
    12       H         -3.45837391  *   0.26027808  *  -0.16712939  *
    13       H          1.08893168  *   2.55065424  *   0.04284939  *
    14       H         -1.77553255  *   2.33665251  *  -0.09364747  *
    15       H          3.19804791  *   1.21681348  *   0.14918185  *
    16       H          3.12801452  *  -1.25375639  *   0.15496413  *
    17       H          0.95080938  *  -2.46772075  *   0.05481756  *

                             CARTESIAN COORDINATES

   1    C       -1.619839363    -1.077769743    -0.074060169
   2    C       -0.188535681    -0.633756596    -0.006719936
   3    C       -0.149138508     0.779997002    -0.009995893
   4    C       -2.371823702     0.227065317    -0.114818818
   5    C       -1.524175406     1.277568681    -0.077833424
   6    C        0.977679292    -1.374014497     0.052067067
   7    C        1.058291097     1.457026116     0.045481999
   8    C        2.231504908     0.704136685     0.104643795
   9    C        2.192194801    -0.687224602     0.107904353
  10    H       -1.820697336    -1.690774239    -0.971567867
  11    H       -1.906318400    -1.684685180     0.804129314
  12    H       -3.458373905     0.260278084    -0.167129392
  13    H        1.088931681     2.550654237     0.042849392
  14    H       -1.775532552     2.336652510    -0.093647469
  15    H        3.198047908     1.216813481     0.149181852
  16    H        3.128014519    -1.253756394     0.154964132
  17    H        0.950809375    -2.467720749     0.054817556


           Empirical Formula: C9 H8  =    17 atoms



      MOLECULAR POINT GROUP   :   C1  


                  EIGENVALUES  
 -41.19057 -35.19223 -30.46640 -26.92244 -25.94997 -21.55453 -20.28113 -19.61270
 -17.70291 -16.29786 -15.31138 -15.18863 -14.88680 -14.77676 -13.69687 -12.97378
 -12.80146 -12.67036 -12.18383 -10.88862  -9.52378  -8.97060  -0.07711   0.42663
   1.45934   2.99179   3.11813   3.16246   3.46000   3.54000   3.61315   3.83244
   3.92386   4.02146   4.17866   4.38651   4.66222   5.03875   5.16629   5.33041
   5.52266   5.90000   6.22653   6.45567


              NET ATOMIC CHARGES AND DIPOLE CONTRIBUTIONS

  ATOM NO.   TYPE          CHARGE      No. of ELECS.   s-Pop       p-Pop       
    1          C          -0.022794        4.0228     1.13926     2.88353
    2          C          -0.095023        4.0950     1.19094     2.90408
    3          C          -0.063012        4.0630     1.17627     2.88674
    4          C          -0.151609        4.1516     1.20767     2.94394
    5          C          -0.097269        4.0973     1.18512     2.91215
    6          C          -0.083753        4.0838     1.17028     2.91348
    7          C          -0.073471        4.0735     1.17099     2.90248
    8          C          -0.107025        4.1070     1.17942     2.92760
    9          C          -0.101971        4.1020     1.17942     2.92255
   10          H           0.076168        0.9238     0.92383
   11          H           0.076168        0.9238     0.92383
   12          H           0.114153        0.8858     0.88585
   13          H           0.106217        0.8938     0.89378
   14          H           0.116182        0.8838     0.88382
   15          H           0.101063        0.8989     0.89894
   16          H           0.100708        0.8993     0.89929
   17          H           0.105268        0.8947     0.89473
 DIPOLE           X         Y         Z       TOTAL
 POINT-CHG.    -0.389    -0.328    -0.018     0.509
 HYBRID         0.001    -0.014     0.000     0.014
 SUM           -0.388    -0.342    -0.018     0.518


          ATOMIC ORBITAL ELECTRON POPULATIONS

     Atom    s        px        py        pz   
    1  C   1.13926   0.91404   0.95939   1.01011
    2  C   1.19094   0.95006   0.95160   1.00242
    3  C   1.17627   0.93990   0.94096   1.00588
    4  C   1.20767   0.98141   0.95323   1.00930
    5  C   1.18512   0.92558   0.97511   1.01146
    6  C   1.17028   0.92792   0.97738   1.00818
    7  C   1.17099   0.92652   0.97808   0.99788
    8  C   1.17942   0.97197   0.94754   1.00810
    9  C   1.17942   0.96857   0.94964   1.00434
   10  H   0.92383
   11  H   0.92383
   12  H   0.88585
   13  H   0.89378
   14  H   0.88382
   15  H   0.89894
   16  H   0.89929
   17  H   0.89473
 *******************************************************************************
 **                                                                           **
 **                              MOPAC v23.1.2                                **
 **                                                                           **
 *******************************************************************************
 **          Digital Object Identifier (DOI): 10.5281/zenodo.6511958          **
 **    Visit the DOI location for information on how to cite this program.    **
 *******************************************************************************

                              PM3 CALCULATION RESULTS

 *******************************************************************************
 *  CALCULATION DONE: (MAX THREADS = 1)              Tue Jun  3 16:34:12 2025  *
 *  PM3        - The PM3 Hamiltonian to be used
 *  OLDGEO     - PREVIOUS GEOMETRY TO BE USED
 *  PRECISE    - TIGHTER CRITERIA TO BE USED
 *  NOSYM      - POINT-GROUP SYMMETRY SET TO C1
 *  THREADS=1  - MULTI-THREADING NOT USED
 *  T=         - A TIME OF 172800.0 SECONDS REQUESTED
 *  DUMP=N     - RESTART FILE WRITTEN EVERY 7200.0 SECONDS REQUESTED
 *  THERMO     - THERMODYNAMIC QUANTITIES TO BE CALCULATED
 *******************************************************************************
oldgeo thermo nosym precise THREADS=1  pm3
 InChI=1S/C9H8/c1-2-5-9-7-3-6-8(9)4-1/h1-6H,7H2

   ATOM   CHEMICAL          X               Y               Z
  NUMBER   SYMBOL      (ANGSTROMS)     (ANGSTROMS)     (ANGSTROMS)

     1       C         -1.61983936  *  -1.07776974  *  -0.07406017  *
     2       C         -0.18853568  *  -0.63375660  *  -0.00671994  *
     3       C         -0.14913851  *   0.77999700  *  -0.00999589  *
     4       C         -2.37182370  *   0.22706532  *  -0.11481882  *
     5       C         -1.52417541  *   1.27756868  *  -0.07783342  *
     6       C          0.97767929  *  -1.37401450  *   0.05206707  *
     7       C          1.05829110  *   1.45702612  *   0.04548200  *
     8       C          2.23150491  *   0.70413669  *   0.10464380  *
     9       C          2.19219480  *  -0.68722460  *   0.10790435  *
    10       H         -1.82069734  *  -1.69077424  *  -0.97156787  *
    11       H         -1.90631840  *  -1.68468518  *   0.80412931  *
    12       H         -3.45837391  *   0.26027808  *  -0.16712939  *
    13       H          1.08893168  *   2.55065424  *   0.04284939  *
    14       H         -1.77553255  *   2.33665251  *  -0.09364747  *
    15       H          3.19804791  *   1.21681348  *   0.14918185  *
    16       H          3.12801452  *  -1.25375639  *   0.15496413  *
    17       H          0.95080938  *  -2.46772075  *   0.05481756  *



          CARTESIAN COORDINATES 

    NO.       ATOM           X           Y           Z

     1         C         -1.6198     -1.0778     -0.0741
     2         C         -0.1885     -0.6338     -0.0067
     3         C         -0.1491      0.7800     -0.0100
     4         C         -2.3718      0.2271     -0.1148
     5         C         -1.5242      1.2776     -0.0778
     6         C          0.9777     -1.3740      0.0521
     7         C          1.0583      1.4570      0.0455
     8         C          2.2315      0.7041      0.1046
     9         C          2.1922     -0.6872      0.1079
    10         H         -1.8207     -1.6908     -0.9716
    11         H         -1.9063     -1.6847      0.8041
    12         H         -3.4584      0.2603     -0.1671
    13         H          1.0889      2.5507      0.0428
    14         H         -1.7755      2.3367     -0.0936
    15         H          3.1980      1.2168      0.1492
    16         H          3.1280     -1.2538      0.1550
    17         H          0.9508     -2.4677      0.0548

  H: (PM3): J. J. P. STEWART, J. COMP. CHEM. 10, 209 (1989).
  C: (PM3): J. J. P. STEWART, J. COMP. CHEM. 10, 209 (1989).

           Empirical Formula: C9 H8  =    17 atoms



      MOLECULAR POINT GROUP   :   C1  


      RHF CALCULATION, NO. OF DOUBLY OCCUPIED LEVELS = 22



          HEAT OF FORMATION =      40.552487 KCALS/MOLE


          CARTESIAN COORDINATE DERIVATIVES

   NUMBER  ATOM         X            Y            Z

     1       C     -0.006251     0.000026    -0.001038
     2       C      0.016446    -0.015713     0.005342
     3       C      0.009072     0.019286    -0.002967
     4       C      0.009075     0.001219     0.001165
     5       C     -0.001348     0.000887     0.001285
     6       C     -0.014251     0.001964    -0.005337
     7       C     -0.023565     0.006301    -0.000345
     8       C     -0.004798    -0.031772    -0.003391
     9       C      0.026985     0.000630     0.007540
    10       H      0.002981     0.009985    -0.007637
    11       H     -0.006440     0.008947     0.005964
    12       H     -0.015197    -0.000099     0.000274
    13       H      0.008819    -0.001985    -0.002524
    14       H     -0.017260    -0.002161     0.001770
    15       H      0.011157    -0.001066     0.000524
    16       H      0.000021     0.009022    -0.002238
    17       H      0.004553    -0.005470     0.001614



          GRADIENT NORM =   0.07080

          MOLECULAR WEIGHT =  116.16



          ROTATIONAL CONSTANTS IN CM(-1)

          A =    0.12560314   B =    0.05322893   C =    0.03765145



           PRINCIPAL MOMENTS OF INERTIA IN UNITS OF 10**(-40)*GRAM-CM**2

          A =      222.8667   B =      525.8936   C =      743.4707


          ORIENTATION OF MOLECULE IN FORCE CALCULATION

    NO.       ATOM         X         Y         Z

     1          C      -1.9416   -0.5929    0.0001
     2          C      -0.4415   -0.5929    0.0001
     3          C       0.0144    0.7459    0.0001
     4          C      -2.2747    0.8764    0.0003
     5          C      -1.1533    1.6287    0.0003
     6          C       0.4548   -1.6456   -0.0001
     7          C       1.3694    1.0349   -0.0002
     8          C       2.2686   -0.0320   -0.0003
     9          C       1.8194   -1.3494   -0.0002
    10          H      -2.3550   -1.1032   -0.8890
    11          H      -2.3551   -1.1035    0.8888
    12          H      -3.3039    1.2301    0.0005
    13          H       1.7222    2.0705   -0.0003
    14          H      -1.0804    2.7149    0.0005
    15          H       3.3445    0.1713   -0.0005
    16          H       2.5467   -2.1679   -0.0003
    17          H       0.1055   -2.6824   -0.0000


    FIRST DERIVATIVES WILL BE USED IN THE CALCULATION OF SECOND DERIVATIVES

          ESTIMATED TIME TO COMPLETE CALCULATION =        1.59 SECONDS

    FOR POINT-GROUP C1   THERE ARE   1 UNIQUE SYMMETRY FUNCTIONS.

 STEP:   1 TIME =     0.01 SECS, INTEGRAL =      0.01 TIME LEFT: 172799.98
 STEP:   2 TIME =     0.02 SECS, INTEGRAL =      0.03 TIME LEFT: 172799.96
 STEP:   3 TIME =     0.02 SECS, INTEGRAL =      0.04 TIME LEFT: 172799.95
 STEP:   4 TIME =     0.02 SECS, INTEGRAL =      0.06 TIME LEFT: 172799.93
 STEP:   5 TIME =     0.02 SECS, INTEGRAL =      0.08 TIME LEFT: 172799.91
 STEP:   6 TIME =     0.02 SECS, INTEGRAL =      0.09 TIME LEFT: 172799.90
 STEP:   7 TIME =     0.02 SECS, INTEGRAL =      0.11 TIME LEFT: 172799.88
 STEP:   8 TIME =     0.02 SECS, INTEGRAL =      0.12 TIME LEFT: 172799.87
 STEP:   9 TIME =     0.02 SECS, INTEGRAL =      0.14 TIME LEFT: 172799.85
 STEP:  10 TIME =     0.02 SECS, INTEGRAL =      0.16 TIME LEFT: 172799.84
 STEP:  11 TIME =     0.01 SECS, INTEGRAL =      0.17 TIME LEFT: 172799.82
 STEP:  12 TIME =     0.02 SECS, INTEGRAL =      0.18 TIME LEFT: 172799.81
 STEP:  13 TIME =     0.02 SECS, INTEGRAL =      0.20 TIME LEFT: 172799.79
 STEP:  14 TIME =     0.02 SECS, INTEGRAL =      0.21 TIME LEFT: 172799.78
 STEP:  15 TIME =     0.02 SECS, INTEGRAL =      0.23 TIME LEFT: 172799.76
 STEP:  16 TIME =     0.02 SECS, INTEGRAL =      0.25 TIME LEFT: 172799.74
 STEP:  17 TIME =     0.02 SECS, INTEGRAL =      0.27 TIME LEFT: 172799.72
 STEP:  18 TIME =     0.02 SECS, INTEGRAL =      0.29 TIME LEFT: 172799.71
 STEP:  19 TIME =     0.02 SECS, INTEGRAL =      0.30 TIME LEFT: 172799.69
 STEP:  20 TIME =     0.02 SECS, INTEGRAL =      0.32 TIME LEFT: 172799.67
 STEP:  21 TIME =     0.02 SECS, INTEGRAL =      0.34 TIME LEFT: 172799.65
 STEP:  22 TIME =     0.02 SECS, INTEGRAL =      0.36 TIME LEFT: 172799.63
 STEP:  23 TIME =     0.02 SECS, INTEGRAL =      0.38 TIME LEFT: 172799.61
 STEP:  24 TIME =     0.02 SECS, INTEGRAL =      0.40 TIME LEFT: 172799.59
 STEP:  25 TIME =     0.02 SECS, INTEGRAL =      0.42 TIME LEFT: 172799.57
 STEP:  26 TIME =     0.02 SECS, INTEGRAL =      0.44 TIME LEFT: 172799.55
 STEP:  27 TIME =     0.02 SECS, INTEGRAL =      0.46 TIME LEFT: 172799.54
 STEP:  28 TIME =     0.02 SECS, INTEGRAL =      0.47 TIME LEFT: 172799.52
 STEP:  29 TIME =     0.02 SECS, INTEGRAL =      0.49 TIME LEFT: 172799.50
 STEP:  30 TIME =     0.02 SECS, INTEGRAL =      0.50 TIME LEFT: 172799.49
 STEP:  31 TIME =     0.02 SECS, INTEGRAL =      0.52 TIME LEFT: 172799.47
 STEP:  32 TIME =     0.02 SECS, INTEGRAL =      0.54 TIME LEFT: 172799.45
 STEP:  33 TIME =     0.02 SECS, INTEGRAL =      0.55 TIME LEFT: 172799.44
 STEP:  34 TIME =     0.02 SECS, INTEGRAL =      0.57 TIME LEFT: 172799.42
 STEP:  35 TIME =     0.02 SECS, INTEGRAL =      0.59 TIME LEFT: 172799.41
 STEP:  36 TIME =     0.02 SECS, INTEGRAL =      0.60 TIME LEFT: 172799.39
 STEP:  37 TIME =     0.02 SECS, INTEGRAL =      0.62 TIME LEFT: 172799.38
 STEP:  38 TIME =     0.01 SECS, INTEGRAL =      0.63 TIME LEFT: 172799.36
 STEP:  39 TIME =     0.02 SECS, INTEGRAL =      0.64 TIME LEFT: 172799.35
 STEP:  40 TIME =     0.02 SECS, INTEGRAL =      0.66 TIME LEFT: 172799.33
 STEP:  41 TIME =     0.02 SECS, INTEGRAL =      0.68 TIME LEFT: 172799.32
 STEP:  42 TIME =     0.02 SECS, INTEGRAL =      0.69 TIME LEFT: 172799.30
 STEP:  43 TIME =     0.01 SECS, INTEGRAL =      0.70 TIME LEFT: 172799.29
 STEP:  44 TIME =     0.02 SECS, INTEGRAL =      0.72 TIME LEFT: 172799.27
 STEP:  45 TIME =     0.02 SECS, INTEGRAL =      0.73 TIME LEFT: 172799.26
 STEP:  46 TIME =     0.01 SECS, INTEGRAL =      0.75 TIME LEFT: 172799.25
 STEP:  47 TIME =     0.02 SECS, INTEGRAL =      0.76 TIME LEFT: 172799.23
 STEP:  48 TIME =     0.02 SECS, INTEGRAL =      0.78 TIME LEFT: 172799.21
 STEP:  49 TIME =     0.01 SECS, INTEGRAL =      0.79 TIME LEFT: 172799.20
 STEP:  50 TIME =     0.02 SECS, INTEGRAL =      0.80 TIME LEFT: 172799.19
 STEP:  51 TIME =     0.02 SECS, INTEGRAL =      0.82 TIME LEFT: 172799.17

(To convert to Hartree/Bohr^2, multiply by (10^(-21) x N x a0^2)/(4.184 x 627.51) =  0.0642)


           FORCE MATRIX IN MILLIDYNES/ANGSTROM


                  C  1       C  2       C  3       C  4       C  5       C  6
 ------------------------------------------------------------------------------
     C    1  14.851313
     C    2   4.469563  18.263593
     C    3   0.960050   6.036197  18.683246
     C    4   4.310998   1.112015   1.605879  17.892558
     C    5   1.164918   1.204070   5.139963   9.823441  18.348757
     C    6   0.532172   7.273927   2.310816   0.059041   0.105565  17.317819
     C    7   0.099007   2.280223   7.077040   0.163974   0.798103   1.823124
     C    8   0.061275   1.817404   2.569666   0.105523   0.203175   2.517904
     C    9   0.122022   2.559315   1.828378   0.077385   0.113537   6.752092
     H   10   4.515077   0.430608   0.035771   0.422635   0.039978   0.015109
     H   11   4.515183   0.430659   0.035788   0.422648   0.039981   0.015090
     H   12   0.404316   0.043313   0.108611   5.061732   0.443176   0.010766
     H   13   0.009197   0.088419   0.449409   0.005076   0.039759   0.011129
     H   14   0.116444   0.046069   0.428170   0.445704   5.054606   0.007747
     H   15   0.008165   0.008767   0.090272   0.002072   0.007296   0.088167
     H   16   0.007020   0.088839   0.008562   0.001713   0.006983   0.436163
     H   17   0.039012   0.450508   0.090054   0.002592   0.008618   4.882163


                  C  7       C  8       C  9       H 10       H 11       H 12
 ------------------------------------------------------------------------------
     C    7  17.295343
     C    8   6.804186  17.030827
     C    9   2.521773   6.872631  17.023909
     H   10   0.011893   0.005162   0.011052   5.115753
     H   11   0.011890   0.005154   0.011044   0.547145   5.115910
     H   12   0.006471   0.005814   0.001648   0.011688   0.011694   5.456065
     H   13   4.883373   0.439284   0.088676   0.000792   0.000792   0.002153
     H   14   0.010949   0.002307   0.002138   0.015947   0.015945   0.044982
     H   15   0.436650   4.855071   0.438881   0.001105   0.001105   0.000455
     H   16   0.088277   0.437923   4.856312   0.001398   0.001398   0.001062
     H   17   0.010791   0.088115   0.440175   0.005607   0.005606   0.000597


                  H 13       H 14       H 15       H 16       H 17
 ------------------------------------------------------------------
     H   13   5.253973
     H   14   0.005972   5.446960
     H   15   0.040183   0.000632   5.219916
     H   16   0.006865   0.000462   0.043544   5.220823
     H   17   0.008969   0.001354   0.006959   0.039975   5.253084


          HEAT OF FORMATION =      40.552487 KCALS/MOLE

          ZERO POINT ENERGY      88.012 KCAL/MOL


           NORMAL COORDINATE ANALYSIS (Total motion = 1 Angstrom)


   Root No.       1         2         3         4         5         6         7         8

                 1 A       2 A       3 A       4 A       5 A       6 A       7 A       8 A   

                 182.2     197.8     360.9     403.6     419.8     503.5     555.0     601.0
  
           1   -0.0000   -0.0000    0.0000    0.0392    0.0000    0.0000   -0.0388   -0.0558
           2    0.0000   -0.0000   -0.0000   -0.0183    0.0000    0.0000    0.0228   -0.0320
           3   -0.0482    0.0445   -0.0167   -0.0000   -0.0096    0.0009    0.0000   -0.0000
           4   -0.0000   -0.0000    0.0000    0.0270    0.0000    0.0000   -0.0163   -0.0475
           5    0.0000    0.0000    0.0000    0.0518   -0.0000   -0.0000    0.0115    0.0195
           6   -0.0356   -0.0449   -0.0054    0.0000    0.0632   -0.0099    0.0000    0.0000
           7   -0.0000   -0.0000   -0.0000    0.0090   -0.0000    0.0000   -0.0253    0.0455
           8    0.0000    0.0000    0.0000    0.0581   -0.0000   -0.0000    0.0071   -0.0102
           9   -0.0320   -0.0531   -0.0284    0.0000    0.0228    0.0425    0.0000    0.0000
          10    0.0000    0.0000   -0.0000   -0.0131    0.0000    0.0000   -0.0593   -0.0029
          11   -0.0000   -0.0000   -0.0000   -0.0370    0.0000   -0.0000    0.0214   -0.0323
          12    0.0492    0.0422    0.0387   -0.0000    0.0217    0.0203    0.0000    0.0000
          13    0.0000   -0.0000   -0.0000   -0.0400   -0.0000   -0.0000   -0.0495    0.0180
          14   -0.0000    0.0000    0.0000    0.0095    0.0000    0.0000    0.0088   -0.0534
          15    0.0386   -0.0360   -0.0419    0.0000   -0.0290   -0.0343    0.0000   -0.0000
          16    0.0000   -0.0000    0.0000   -0.0211    0.0000    0.0000    0.0502   -0.0399
          17    0.0000    0.0000    0.0000    0.0176   -0.0000   -0.0000    0.0526    0.0488
          18    0.0175   -0.0519    0.0441   -0.0000   -0.0211   -0.0346   -0.0000    0.0000
          19   -0.0000    0.0000    0.0000    0.0262   -0.0000    0.0000    0.0029    0.0600
          20    0.0000    0.0000    0.0000    0.0023   -0.0000   -0.0000   -0.0727    0.0055
          21   -0.0474    0.0015    0.0465   -0.0000   -0.0301    0.0303   -0.0000   -0.0000
          22   -0.0000    0.0000   -0.0000   -0.0074    0.0000   -0.0000    0.0659    0.0685
          23   -0.0000   -0.0000   -0.0000   -0.0335    0.0000   -0.0000   -0.0284    0.0125
          24   -0.0020    0.0602   -0.0079    0.0000    0.0287   -0.0491   -0.0000   -0.0000
          25    0.0000    0.0000   -0.0000   -0.0173    0.0000    0.0000    0.0731   -0.0384
          26    0.0000    0.0000   -0.0000   -0.0304    0.0000   -0.0000   -0.0248    0.0499
          27    0.0519    0.0121   -0.0321    0.0000   -0.0118    0.0508   -0.0000    0.0000
          28    0.0134   -0.0650    0.0178    0.0678    0.0778   -0.0111   -0.0429   -0.0567
          29    0.0697   -0.0174    0.0621   -0.0424    0.0706    0.0306    0.0263   -0.0381
          30   -0.0952    0.0853   -0.0622    0.0001   -0.0890   -0.0121    0.0003    0.0029
          31   -0.0134    0.0650   -0.0177    0.0678   -0.0778    0.0111   -0.0429   -0.0568
          32   -0.0697    0.0174   -0.0621   -0.0424   -0.0706   -0.0306    0.0263   -0.0381
          33   -0.0952    0.0853   -0.0622   -0.0001   -0.0890   -0.0121   -0.0003   -0.0029
          34    0.0000    0.0000    0.0000   -0.0285    0.0000    0.0000   -0.0612    0.0135
          35   -0.0000   -0.0000   -0.0000   -0.0809   -0.0000   -0.0000    0.0194    0.0160
          36    0.1132    0.0947    0.1112   -0.0000    0.0537    0.0361    0.0000    0.0000
          37   -0.0000    0.0000    0.0000    0.0814   -0.0000    0.0000    0.0141    0.0490
          38   -0.0000    0.0000    0.0000   -0.0165   -0.0000   -0.0000   -0.0758    0.0096
          39   -0.0771    0.0160    0.1275   -0.0001   -0.1179    0.0458   -0.0000   -0.0000
          40    0.0000    0.0000   -0.0000   -0.1020    0.0000   -0.0000   -0.0563   -0.0025
          41   -0.0000    0.0000    0.0000    0.0135    0.0000    0.0000    0.0094   -0.0523
          42    0.0899   -0.0699   -0.0867    0.0000   -0.0911   -0.1379    0.0000   -0.0000
          43    0.0000    0.0000   -0.0000   -0.0021    0.0000   -0.0000    0.0576    0.0798
          44   -0.0000   -0.0000   -0.0000   -0.0598    0.0000   -0.0000    0.0180   -0.0470
          45    0.0016    0.1394   -0.0230    0.0000    0.0715   -0.1730   -0.0000   -0.0000
          46    0.0000    0.0000   -0.0000   -0.0370    0.0000    0.0000    0.0415   -0.0889
          47   -0.0000   -0.0000   -0.0000   -0.0474    0.0000   -0.0000   -0.0534    0.0051
          48    0.1164    0.0350   -0.0891    0.0000   -0.0480    0.1584   -0.0000    0.0000
          49    0.0000   -0.0000    0.0000   -0.0764   -0.0000   -0.0000    0.0543   -0.0261
          50    0.0000    0.0000    0.0000    0.0362   -0.0000   -0.0000    0.0505    0.0443
          51    0.0420   -0.0815    0.1215   -0.0000   -0.1046   -0.1065    0.0000   -0.0000


   Root No.       9        10        11        12        13        14        15        16

                 9 A      10 A      11 A      12 A      13 A      14 A      15 A      16 A   

                 701.8     743.9     773.2     788.2     859.5     866.7     931.3     936.3
  
           1   -0.0000   -0.0000   -0.0054    0.0000    0.0568   -0.0000    0.0000   -0.0328
           2   -0.0000   -0.0000   -0.0643    0.0000    0.0177   -0.0000   -0.0000   -0.0135
           3   -0.0129   -0.0221   -0.0000   -0.0144    0.0000    0.0287    0.0366    0.0000
           4   -0.0000   -0.0000   -0.0346    0.0000    0.0058   -0.0000   -0.0000   -0.0012
           5    0.0000    0.0000    0.0104   -0.0000   -0.0142    0.0000    0.0000   -0.0218
           6   -0.0567    0.0009    0.0000    0.0077   -0.0000   -0.0050   -0.0297   -0.0000
           7    0.0000   -0.0000   -0.0350    0.0000   -0.0218    0.0000    0.0000    0.0019
           8   -0.0000    0.0000    0.0113   -0.0000   -0.0149    0.0000   -0.0000    0.0235
           9    0.0670    0.0076    0.0000    0.0323   -0.0000   -0.0070    0.0313    0.0000
          10    0.0000    0.0000    0.0908   -0.0000   -0.0059    0.0000   -0.0000    0.0224
          11   -0.0000   -0.0000   -0.0265    0.0000    0.0087   -0.0000    0.0000   -0.0109
          12    0.0171   -0.0104   -0.0000   -0.0131   -0.0000   -0.0084   -0.0088    0.0000
          13    0.0000    0.0000    0.0344   -0.0000   -0.0210    0.0000    0.0000   -0.0195
          14    0.0000    0.0000    0.0639   -0.0000    0.0309   -0.0000   -0.0000    0.0489
          15    0.0001   -0.0188    0.0000   -0.0169   -0.0000   -0.0130   -0.0407   -0.0000
          16    0.0000    0.0000   -0.0045   -0.0000   -0.0291    0.0000   -0.0000    0.0027
          17    0.0000    0.0000    0.0624   -0.0000   -0.0326    0.0000    0.0000   -0.0462
          18    0.0161    0.0113   -0.0000   -0.0111   -0.0000   -0.0314    0.0157    0.0000
          19   -0.0000   -0.0000   -0.0479    0.0000   -0.0121    0.0000   -0.0000    0.0224
          20   -0.0000   -0.0000   -0.0456    0.0000   -0.0586    0.0000   -0.0000    0.0143
          21   -0.0119    0.0103   -0.0000   -0.0078    0.0000    0.0284   -0.0105    0.0000
          22    0.0000   -0.0000   -0.0030    0.0000    0.0696   -0.0000   -0.0000    0.0145
          23    0.0000   -0.0000   -0.0086    0.0000    0.0155   -0.0000   -0.0000   -0.0005
          24    0.0192    0.0132   -0.0000   -0.0179    0.0000    0.0201   -0.0190   -0.0000
          25   -0.0000    0.0000    0.0104   -0.0000   -0.0476    0.0000    0.0000   -0.0003
          26    0.0000   -0.0000    0.0017    0.0000    0.0559   -0.0000   -0.0000    0.0070
          27   -0.0144    0.0114   -0.0000   -0.0242   -0.0000   -0.0123    0.0146   -0.0000
          28   -0.0848   -0.0403   -0.0169   -0.0079    0.0910    0.0626   -0.0135   -0.1073
          29    0.0136   -0.0721   -0.0668   -0.0562    0.0035    0.0498    0.1272    0.0302
          30    0.0199    0.0412    0.0050    0.0235   -0.0068   -0.0318   -0.0336    0.0076
          31    0.0848    0.0403   -0.0169    0.0079    0.0909   -0.0626    0.0135   -0.1073
          32   -0.0136    0.0721   -0.0668    0.0562    0.0034   -0.0498   -0.1272    0.0301
          33    0.0199    0.0412   -0.0050    0.0236    0.0067   -0.0319   -0.0336   -0.0076
          34   -0.0000    0.0000    0.0889   -0.0000   -0.0383    0.0000    0.0000    0.0108
          35    0.0000   -0.0000   -0.0374   -0.0000   -0.0857    0.0000    0.0000   -0.0405
          36   -0.0593    0.1902    0.0000    0.1808   -0.0000   -0.0066   -0.0186   -0.0001
          37   -0.0000   -0.0000   -0.0673    0.0000   -0.0801   -0.0000   -0.0000    0.0917
          38   -0.0000   -0.0000   -0.0397    0.0000   -0.0367    0.0000    0.0000   -0.0081
          39   -0.1657   -0.1006    0.0001    0.0378   -0.0001   -0.1694    0.0408   -0.0000
          40   -0.0000    0.0000    0.0148   -0.0000   -0.0114    0.0000    0.0001   -0.1577
          41    0.0000   -0.0000    0.0658   -0.0000    0.0304   -0.0000   -0.0001    0.0595
          42   -0.1650    0.1031   -0.0000    0.0502    0.0001    0.1080    0.2141    0.0001
          43    0.0000   -0.0000   -0.0156    0.0000    0.0730   -0.0001    0.0000    0.0242
          44    0.0000    0.0000    0.0519   -0.0000    0.0001    0.0000    0.0000   -0.0437
          45    0.0268   -0.1168    0.0002    0.1684   -0.0001   -0.1298    0.1060    0.0000
          46   -0.0000   -0.0000   -0.0273    0.0000   -0.0759    0.0000   -0.0000    0.0384
          47   -0.0000   -0.0000   -0.0304    0.0000    0.0323   -0.0000   -0.0000    0.0399
          48   -0.0747   -0.1199    0.0002    0.1752    0.0001    0.0797   -0.0832    0.0000
          49    0.0000   -0.0000   -0.0213    0.0000    0.0144    0.0000   -0.0000    0.0871
          50    0.0000    0.0000    0.0687   -0.0000   -0.0479    0.0000    0.0000   -0.0765
          51    0.1167   -0.0787    0.0001    0.1195    0.0001    0.1800   -0.0657   -0.0000


   Root No.      17        18        19        20        21        22        23        24

                17 A      18 A      19 A      20 A      21 A      22 A      23 A      24 A   

                 947.1     987.8    1005.3    1042.1    1042.4    1079.0    1095.3    1109.4
  
           1   -0.0000   -0.0000    0.0000   -0.0004   -0.0129   -0.0067    0.0145   -0.0066
           2   -0.0000   -0.0000   -0.0000   -0.0013   -0.0404   -0.0026    0.0203   -0.0035
           3    0.0156    0.0301    0.0191    0.0004   -0.0000   -0.0000   -0.0000    0.0000
           4   -0.0000   -0.0000   -0.0000   -0.0000   -0.0012    0.0153   -0.0038    0.0055
           5   -0.0000   -0.0000    0.0000    0.0000    0.0009    0.0054    0.0018    0.0081
           6   -0.0084   -0.0279   -0.0175   -0.0367    0.0009    0.0000    0.0000   -0.0000
           7    0.0000   -0.0000    0.0000   -0.0002   -0.0069    0.0031   -0.0010   -0.0004
           8    0.0000    0.0000   -0.0000    0.0003    0.0078    0.0063    0.0041    0.0079
           9    0.0166   -0.0098    0.0101    0.0212   -0.0005   -0.0000   -0.0000    0.0000
          10    0.0000   -0.0000   -0.0000   -0.0007   -0.0228    0.0053    0.0098   -0.0027
          11    0.0000    0.0000    0.0000    0.0011    0.0337   -0.0007   -0.0128   -0.0033
          12   -0.0206   -0.0337   -0.0273    0.0401   -0.0010   -0.0000   -0.0000    0.0000
          13   -0.0000    0.0000    0.0000   -0.0002   -0.0045    0.0005    0.0103    0.0016
          14    0.0000    0.0000   -0.0000    0.0007    0.0203   -0.0087   -0.0290   -0.0024
          15    0.0106    0.0305    0.0113   -0.0253    0.0007    0.0000   -0.0000   -0.0000
          16   -0.0000    0.0000    0.0000    0.0002    0.0048   -0.0101    0.0003   -0.0133
          17   -0.0000   -0.0000    0.0000   -0.0005   -0.0136   -0.0226    0.0196   -0.0170
          18   -0.0308    0.0158    0.0341    0.0191   -0.0005   -0.0000   -0.0000    0.0000
          19    0.0000    0.0000   -0.0000    0.0003    0.0091   -0.0048   -0.0144    0.0016
          20    0.0000    0.0000   -0.0000    0.0001    0.0016   -0.0046   -0.0291   -0.0214
          21   -0.0373    0.0272   -0.0270   -0.0124    0.0003    0.0000    0.0000   -0.0000
          22    0.0000   -0.0000    0.0000   -0.0000   -0.0002    0.0205   -0.0260    0.0019
          23   -0.0000   -0.0000    0.0000   -0.0000   -0.0000    0.0081   -0.0097    0.0069
          24    0.0153   -0.0258    0.0422    0.0107   -0.0003   -0.0000    0.0000    0.0000
          25    0.0000    0.0000   -0.0000   -0.0002   -0.0052    0.0068   -0.0134    0.0020
          26    0.0000    0.0000   -0.0000    0.0002    0.0052   -0.0100    0.0244    0.0063
          27    0.0299    0.0065   -0.0447   -0.0127    0.0003    0.0000   -0.0000    0.0000
          28    0.0659    0.1084   -0.0138    0.2041    0.0806    0.0121    0.0311   -0.0280
          29   -0.0040    0.0039    0.0671   -0.1628   -0.1423   -0.0193    0.0333    0.0060
          30   -0.0141   -0.0250   -0.0147   -0.0020    0.0138    0.0014   -0.0129    0.0037
          31   -0.0660   -0.1083    0.0137   -0.1984    0.0911    0.0121    0.0311   -0.0280
          32    0.0040   -0.0040   -0.0671    0.1531   -0.1505   -0.0194    0.0333    0.0060
          33   -0.0141   -0.0251   -0.0147   -0.0028   -0.0138   -0.0014    0.0129   -0.0037
          34    0.0000    0.0000    0.0000    0.0007    0.0212    0.0839    0.0563   -0.0196
          35   -0.0000   -0.0000   -0.0000    0.0054    0.1617    0.2249    0.1179   -0.0517
          36    0.0999    0.1286    0.0837   -0.0900    0.0023    0.0000    0.0000   -0.0000
          37    0.0001   -0.0000    0.0000    0.0026    0.0802   -0.1265    0.1525    0.1506
          38    0.0000   -0.0000    0.0000   -0.0007   -0.0223    0.0371   -0.0886   -0.0725
          39    0.1656   -0.1162    0.0862    0.0334   -0.0009    0.0000   -0.0000   -0.0000
          40   -0.0000   -0.0000   -0.0000    0.0031    0.0956   -0.1969   -0.1422    0.0986
          41    0.0000    0.0000    0.0000    0.0005    0.0163    0.0040   -0.0212   -0.0087
          42   -0.0571   -0.1191   -0.0354    0.0659   -0.0017    0.0000    0.0000   -0.0000
          43   -0.0000    0.0000   -0.0000    0.0003    0.0090    0.0027   -0.0321   -0.0288
          44   -0.0000   -0.0000    0.0000   -0.0015   -0.0458    0.1073    0.0143    0.1774
          45   -0.0685    0.1043   -0.1477   -0.0264    0.0007   -0.0000    0.0000   -0.0000
          46   -0.0000    0.0000    0.0000    0.0009    0.0283    0.0102    0.0302    0.1384
          47    0.0000    0.0000   -0.0000    0.0011    0.0346   -0.0074    0.0657    0.1294
          48   -0.1457   -0.0278    0.1562    0.0309   -0.0008   -0.0000   -0.0000   -0.0000
          49    0.0000    0.0000   -0.0000    0.0022    0.0682   -0.1537    0.1561   -0.1594
          50   -0.0000   -0.0000    0.0000   -0.0012   -0.0356    0.0243   -0.0310    0.0319
          51    0.1430   -0.0741   -0.1172   -0.0615    0.0016    0.0000   -0.0000    0.0000


   Root No.      25        26        27        28        29        30        31        32

                25 A      26 A      27 A      28 A      29 A      30 A      31 A      32 A   

                1150.7    1174.2    1190.1    1299.0    1307.9    1335.8    1381.4    1442.2
  
           1   -0.0003    0.0125   -0.0099    0.0157    0.0729   -0.0206    0.0362   -0.0345
           2   -0.0036   -0.0177   -0.0013   -0.0294   -0.0565   -0.0069    0.0633    0.0136
           3   -0.0000   -0.0000    0.0000   -0.0000   -0.0000   -0.0000    0.0000    0.0000
           4    0.0006    0.0334    0.0099    0.0331   -0.0383   -0.0080   -0.0210    0.0344
           5   -0.0100    0.0075    0.0333    0.0206   -0.0341    0.0356   -0.0081   -0.0516
           6   -0.0000   -0.0000   -0.0000   -0.0000   -0.0000   -0.0000   -0.0000   -0.0000
           7    0.0045   -0.0187    0.0123    0.0087    0.0170   -0.0208   -0.0040    0.0586
           8    0.0076    0.0214    0.0295   -0.0188   -0.0253   -0.0568   -0.0310    0.0012
           9    0.0000    0.0000   -0.0000   -0.0000   -0.0000    0.0000   -0.0000   -0.0000
          10   -0.0039   -0.0015   -0.0021   -0.0179   -0.0221    0.0094    0.0118   -0.0029
          11    0.0040   -0.0175   -0.0128    0.0478    0.0267   -0.0311   -0.0426   -0.0180
          12    0.0000   -0.0000   -0.0000    0.0000    0.0000   -0.0000   -0.0000   -0.0000
          13   -0.0016   -0.0135    0.0006    0.0214   -0.0251   -0.0267   -0.0338   -0.0369
          14    0.0022   -0.0091   -0.0079   -0.0054    0.0193    0.0327    0.0180    0.0312
          15   -0.0000    0.0000   -0.0000   -0.0000    0.0000    0.0000    0.0000    0.0000
          16   -0.0064    0.0098   -0.0163    0.0322   -0.0272    0.0602    0.0025    0.0222
          17   -0.0099   -0.0073   -0.0080    0.0075    0.0344   -0.0001    0.0126    0.0175
          18   -0.0000   -0.0000    0.0000   -0.0000    0.0000   -0.0000    0.0000   -0.0000
          19    0.0003   -0.0160    0.0092    0.0145    0.0207    0.0679    0.0190    0.0163
          20    0.0129   -0.0080   -0.0173   -0.0309    0.0260   -0.0217    0.0088   -0.0176
          21   -0.0000    0.0000   -0.0000   -0.0000   -0.0000   -0.0000   -0.0000   -0.0000
          22    0.0083    0.0063    0.0019   -0.0279    0.0038   -0.0245    0.0003   -0.0432
          23    0.0062    0.0054   -0.0166    0.0096   -0.0273    0.0465    0.0048   -0.0683
          24   -0.0000   -0.0000    0.0000    0.0000    0.0000    0.0000   -0.0000    0.0000
          25    0.0029   -0.0069   -0.0134   -0.0310    0.0024   -0.0524   -0.0076    0.0016
          26   -0.0087    0.0145   -0.0124    0.0120   -0.0094   -0.0307   -0.0141    0.0761
          27    0.0000    0.0000    0.0000    0.0000   -0.0000    0.0000    0.0000   -0.0000
          28   -0.0011   -0.1111   -0.0335   -0.1360   -0.0588    0.0833   -0.1014    0.0412
          29   -0.0092    0.0806    0.0037   -0.0586    0.1152    0.1039   -0.1482   -0.0085
          30    0.0031    0.0014    0.0070    0.0778   -0.0328   -0.0988    0.1633   -0.0205
          31   -0.0011   -0.1112   -0.0335   -0.1361   -0.0588    0.0833   -0.1014    0.0412
          32   -0.0092    0.0807    0.0037   -0.0586    0.1152    0.1038   -0.1482   -0.0085
          33   -0.0031   -0.0014   -0.0070   -0.0778    0.0328    0.0988   -0.1634    0.0205
          34   -0.0070    0.0542    0.0027   -0.0609    0.0013    0.0421    0.0580    0.0106
          35   -0.0039    0.1420    0.0016   -0.0711    0.0978    0.0612    0.0851    0.0296
          36    0.0000    0.0000    0.0000   -0.0000    0.0000    0.0000    0.0000    0.0000
          37    0.1200    0.0283   -0.2010   -0.0355   -0.0104   -0.0091    0.0174   -0.0961
          38   -0.0253   -0.0240    0.0540   -0.0173    0.0397    0.0044    0.0110    0.0171
          39   -0.0000   -0.0000    0.0000    0.0000   -0.0000    0.0000   -0.0000    0.0000
          40    0.0268    0.1528    0.0960   -0.1234   -0.0109    0.0322    0.0599    0.0595
          41    0.0007   -0.0202   -0.0140    0.0043    0.0202    0.0297    0.0113    0.0287
          42   -0.0000   -0.0000   -0.0000    0.0000    0.0000    0.0000   -0.0000   -0.0000
          43   -0.0490    0.0245   -0.0242   -0.0337   -0.0164   -0.0285   -0.0028   -0.0757
          44    0.3095   -0.0911    0.1187    0.0199    0.0840    0.0563    0.0238    0.0551
          45    0.0000   -0.0000   -0.0000    0.0000   -0.0000    0.0000    0.0000    0.0000
          46   -0.2379   -0.0753    0.0852   -0.0476    0.0806   -0.0146    0.0245   -0.0782
          47   -0.2227   -0.0453    0.0745    0.0024    0.0596    0.0055    0.0138    0.0178
          48    0.0000    0.0000   -0.0000    0.0000   -0.0000   -0.0000   -0.0000    0.0000
          49    0.0977   -0.0269    0.2023   -0.0092    0.0239   -0.0037    0.0061   -0.0857
          50   -0.0475    0.0052   -0.0820    0.0243    0.0193    0.0233    0.0126    0.0591
          51   -0.0000    0.0000   -0.0000   -0.0000    0.0000   -0.0000   -0.0000    0.0000


   Root No.      33        34        35        36        37        38        39        40

                33 A      34 A      35 A      36 A      37 A      38 A      39 A      40 A   

                1578.0    1597.1    1766.5    1799.7    1827.1    2981.9    3050.5    3054.8
  
           1   -0.0461    0.0077    0.0044    0.0169    0.0191   -0.0000    0.0264    0.0002
           2   -0.0044   -0.0111    0.0104   -0.0036   -0.0081    0.0000    0.0325    0.0003
           3    0.0000   -0.0000   -0.0000   -0.0000   -0.0000   -0.0612   -0.0000    0.0000
           4    0.1174   -0.0128    0.0139   -0.0400   -0.1063   -0.0000    0.0007   -0.0001
           5    0.0352    0.0569   -0.0174    0.1267    0.0726    0.0000    0.0002   -0.0002
           6   -0.0000    0.0000   -0.0000    0.0000    0.0000   -0.0002   -0.0000   -0.0000
           7    0.0169    0.0826    0.0200   -0.0881    0.1527   -0.0000   -0.0006   -0.0000
           8   -0.1087   -0.0458   -0.0045   -0.0727    0.0072    0.0000   -0.0005   -0.0003
           9   -0.0000   -0.0000   -0.0000    0.0000   -0.0000   -0.0001   -0.0000    0.0000
          10    0.0168   -0.0130   -0.1605   -0.0050    0.0078   -0.0000   -0.0009    0.0000
          11    0.0065   -0.0129   -0.1266   -0.0137    0.0057   -0.0000    0.0012    0.0000
          12   -0.0000   -0.0000   -0.0000   -0.0000    0.0000   -0.0002    0.0000   -0.0000
          13   -0.0346   -0.0231    0.1684    0.0308   -0.0384    0.0000   -0.0003   -0.0000
          14    0.0237    0.0303    0.1039    0.0011    0.0033    0.0000    0.0003    0.0000
          15    0.0000    0.0000   -0.0000   -0.0000    0.0000   -0.0002    0.0000    0.0000
          16   -0.0457   -0.0736    0.0080    0.0164    0.1271    0.0000   -0.0002    0.0019
          17    0.0459   -0.0283    0.0114   -0.0667   -0.0572    0.0000   -0.0003    0.0085
          18    0.0000    0.0000   -0.0000   -0.0000   -0.0000   -0.0001   -0.0000   -0.0000
          19   -0.0705   -0.0046   -0.0356    0.0234   -0.1406    0.0000    0.0000    0.0037
          20    0.0486   -0.0535    0.0099    0.0506    0.0216   -0.0000   -0.0000    0.0080
          21    0.0000    0.0000    0.0000   -0.0000    0.0000   -0.0000    0.0000   -0.0000
          22    0.0457   -0.0507    0.0138    0.0008    0.0413   -0.0000    0.0005   -0.0303
          23   -0.0271    0.0681    0.0005   -0.1215   -0.0280   -0.0000    0.0000   -0.0050
          24   -0.0000    0.0000   -0.0000    0.0000   -0.0000   -0.0000   -0.0000    0.0000
          25   -0.0250    0.0919   -0.0206    0.0596   -0.0656   -0.0000   -0.0000    0.0205
          26   -0.0263    0.0179   -0.0153    0.0936   -0.0181   -0.0000    0.0002   -0.0220
          27    0.0000   -0.0000    0.0000   -0.0000    0.0000   -0.0001    0.0000   -0.0000
          28   -0.0006   -0.0159   -0.0173   -0.0155   -0.0053    0.1792   -0.1569   -0.0014
          29   -0.0021    0.0152    0.0274    0.0125    0.0080    0.2220   -0.1942   -0.0017
          30   -0.0177   -0.0043   -0.0048    0.0062   -0.0007    0.3710   -0.3830   -0.0033
          31   -0.0006   -0.0159   -0.0173   -0.0155   -0.0053   -0.1792   -0.1571   -0.0014
          32   -0.0021    0.0152    0.0274    0.0125    0.0080   -0.2220   -0.1945   -0.0017
          33    0.0177    0.0043    0.0048   -0.0062    0.0007    0.3707    0.3831    0.0033
          34    0.0113   -0.0017   -0.1203    0.0025    0.0091    0.0000    0.0129   -0.0001
          35   -0.0097    0.0287    0.1011    0.0022    0.0039   -0.0000   -0.0028    0.0001
          36   -0.0000    0.0000    0.0000    0.0000   -0.0000   -0.0010   -0.0000   -0.0000
          37    0.1081   -0.0058    0.0188    0.0161    0.0402    0.0000    0.0002   -0.0353
          38   -0.0108   -0.0653   -0.0092    0.0651   -0.0484    0.0000    0.0005   -0.0974
          39   -0.0000    0.0000   -0.0000   -0.0000   -0.0000    0.0001    0.0000    0.0000
          40   -0.0244    0.0099   -0.0388   -0.0310    0.0247    0.0000   -0.0011    0.0001
          41    0.0233    0.0317    0.1532    0.0030   -0.0020    0.0000   -0.0117   -0.0002
          42    0.0000    0.0000    0.0000    0.0000   -0.0000   -0.0007   -0.0000   -0.0000
          43    0.0430   -0.0238    0.0162   -0.0347    0.0398    0.0000   -0.0060    0.3508
          44    0.0244   -0.1103    0.0018    0.0460    0.0093    0.0000   -0.0011    0.0647
          45   -0.0000    0.0000   -0.0000    0.0000   -0.0000    0.0000    0.0000   -0.0001
          46    0.0616   -0.0280    0.0121   -0.0596   -0.0143   -0.0000    0.0015   -0.2336
          47    0.0500   -0.0997    0.0145   -0.0052    0.0333    0.0000   -0.0017    0.2606
          48   -0.0000    0.0000   -0.0000    0.0000   -0.0000    0.0000   -0.0000    0.0000
          49    0.0993    0.0286    0.0051   -0.0389   -0.0560   -0.0000    0.0019   -0.0307
          50    0.0060   -0.0719    0.0159   -0.0611   -0.0017   -0.0000    0.0046   -0.0974
          51   -0.0000   -0.0000   -0.0000    0.0000    0.0000    0.0002   -0.0000    0.0000


   Root No.      41        42        43        44        45

                41 A      42 A      43 A      44 A      45 A   

                3064.6    3076.1    3081.4    3128.0    3145.4
  
           1    0.0001    0.0000   -0.0000    0.0000   -0.0012
           2   -0.0001   -0.0002    0.0002    0.0003   -0.0016
           3    0.0000   -0.0000    0.0000    0.0000    0.0000
           4   -0.0005   -0.0011    0.0013    0.0002    0.0009
           5    0.0005    0.0014   -0.0007    0.0002   -0.0012
           6    0.0000    0.0000   -0.0000   -0.0000   -0.0000
           7   -0.0006    0.0016    0.0015   -0.0000    0.0018
           8   -0.0000    0.0004   -0.0002    0.0001   -0.0002
           9    0.0000   -0.0000   -0.0000    0.0000   -0.0000
          10   -0.0000   -0.0000   -0.0001   -0.0347   -0.0427
          11    0.0000    0.0000    0.0000    0.0123    0.0097
          12   -0.0000   -0.0000   -0.0000    0.0000    0.0000
          13    0.0001   -0.0001   -0.0001   -0.0025    0.0068
          14    0.0001   -0.0001   -0.0000   -0.0410    0.0400
          15    0.0000    0.0000    0.0000   -0.0000    0.0000
          16   -0.0045   -0.0101    0.0078   -0.0000   -0.0001
          17   -0.0166   -0.0299    0.0217    0.0000    0.0002
          18    0.0000    0.0000   -0.0000   -0.0000    0.0000
          19    0.0063   -0.0100   -0.0072    0.0000   -0.0003
          20    0.0153   -0.0295   -0.0228    0.0000   -0.0001
          21   -0.0000    0.0000    0.0000   -0.0000    0.0000
          22   -0.0222   -0.0089   -0.0180    0.0000   -0.0000
          23   -0.0055   -0.0000   -0.0033   -0.0000    0.0001
          24    0.0000    0.0000    0.0000   -0.0000    0.0000
          25   -0.0143    0.0076   -0.0122    0.0000   -0.0000
          26    0.0182   -0.0063    0.0136    0.0000   -0.0001
          27    0.0000   -0.0000    0.0000   -0.0000    0.0000
          28    0.0000    0.0005   -0.0008   -0.0006    0.0034
          29   -0.0001    0.0005   -0.0009    0.0012    0.0058
          30   -0.0001    0.0010   -0.0018    0.0005    0.0097
          31    0.0000    0.0005   -0.0008   -0.0006    0.0034
          32   -0.0001    0.0005   -0.0009    0.0012    0.0058
          33    0.0001   -0.0010    0.0018   -0.0005   -0.0097
          34    0.0006    0.0001    0.0001    0.4129    0.4370
          35   -0.0002   -0.0001   -0.0000   -0.1447   -0.1505
          36   -0.0000   -0.0000   -0.0000   -0.0001   -0.0001
          37   -0.0638    0.1127    0.0839   -0.0002    0.0001
          38   -0.1831    0.3327    0.2497   -0.0015    0.0013
          39    0.0000   -0.0000   -0.0000    0.0000   -0.0000
          40    0.0001   -0.0002   -0.0002    0.0297   -0.0283
          41   -0.0008    0.0009    0.0010    0.4778   -0.4201
          42   -0.0000   -0.0000   -0.0000    0.0001   -0.0001
          43    0.2539    0.0952    0.1918   -0.0003   -0.0003
          44    0.0507    0.0154    0.0358   -0.0001   -0.0001
          45   -0.0000   -0.0000   -0.0000    0.0000    0.0000
          46    0.1723   -0.0740    0.1299   -0.0002   -0.0005
          47   -0.1979    0.0795   -0.1457    0.0002    0.0006
          48   -0.0000    0.0000   -0.0000    0.0000    0.0000
          49    0.0632    0.1140   -0.0821   -0.0000   -0.0002
          50    0.1917    0.3361   -0.2403    0.0000   -0.0004
          51   -0.0000   -0.0000    0.0000   -0.0000    0.0000


           MASS-WEIGHTED COORDINATE ANALYSIS (NORMAL COORDINATES)


   Root No.       1         2         3         4         5         6         7         8

                 1 A       2 A       3 A       4 A       5 A       6 A       7 A       8 A   

                 182.2     197.8     360.9     403.6     419.8     503.5     555.0     601.0
  
           1   -0.0000   -0.0000    0.0000    0.2759    0.0000    0.0000   -0.2103   -0.3099
           2    0.0001   -0.0000   -0.0000   -0.1289    0.0001    0.0000    0.1234   -0.1779
           3   -0.3434    0.3012   -0.1321   -0.0000   -0.0780    0.0065    0.0000   -0.0000
           4   -0.0000   -0.0000    0.0000    0.1903    0.0000    0.0000   -0.0884   -0.2636
           5    0.0000    0.0000    0.0001    0.3649   -0.0001   -0.0000    0.0624    0.1083
           6   -0.2538   -0.3043   -0.0428    0.0001    0.5151   -0.0735    0.0000    0.0001
           7   -0.0000   -0.0000   -0.0000    0.0635   -0.0000    0.0000   -0.1370    0.2528
           8    0.0000    0.0000    0.0001    0.4089   -0.0001   -0.0000    0.0384   -0.0564
           9   -0.2282   -0.3595   -0.2250    0.0001    0.1857    0.3147    0.0000    0.0000
          10    0.0000    0.0000   -0.0000   -0.0925    0.0000    0.0000   -0.3217   -0.0161
          11   -0.0000   -0.0000   -0.0001   -0.2603    0.0000   -0.0000    0.1162   -0.1791
          12    0.3506    0.2856    0.3072   -0.0000    0.1765    0.1503    0.0000    0.0000
          13    0.0000   -0.0000   -0.0001   -0.2816   -0.0000   -0.0000   -0.2683    0.0998
          14   -0.0000    0.0000    0.0000    0.0670    0.0000    0.0001    0.0476   -0.2961
          15    0.2750   -0.2436   -0.3322    0.0001   -0.2364   -0.2538    0.0000   -0.0001
          16    0.0000   -0.0000    0.0000   -0.1487    0.0000    0.0000    0.2722   -0.2214
          17    0.0000    0.0000    0.0000    0.1236   -0.0000   -0.0000    0.2854    0.2706
          18    0.1250   -0.3515    0.3497   -0.0001   -0.1719   -0.2561   -0.0000    0.0000
          19   -0.0000    0.0000    0.0001    0.1841   -0.0001    0.0000    0.0158    0.3330
          20    0.0000    0.0000    0.0000    0.0162   -0.0000   -0.0000   -0.3941    0.0307
          21   -0.3382    0.0099    0.3685   -0.0001   -0.2456    0.2240   -0.0000   -0.0000
          22   -0.0000    0.0001   -0.0000   -0.0523    0.0000   -0.0001    0.3576    0.3801
          23   -0.0000   -0.0000   -0.0000   -0.2358    0.0000   -0.0000   -0.1542    0.0694
          24   -0.0141    0.4076   -0.0630    0.0000    0.2337   -0.3635   -0.0000   -0.0001
          25    0.0000    0.0000   -0.0001   -0.1216    0.0000    0.0001    0.3964   -0.2133
          26    0.0000    0.0000   -0.0000   -0.2139    0.0000   -0.0000   -0.1346    0.2772
          27    0.3699    0.0816   -0.2549    0.0000   -0.0958    0.3762   -0.0001    0.0000
          28    0.0276   -0.1275    0.0408    0.1382    0.1836   -0.0238   -0.0674   -0.0912
          29    0.1440   -0.0341    0.1428   -0.0865    0.1667    0.0656    0.0413   -0.0613
          30   -0.1965    0.1673   -0.1429    0.0002   -0.2101   -0.0259    0.0005    0.0046
          31   -0.0277    0.1275   -0.0407    0.1382   -0.1836    0.0238   -0.0674   -0.0912
          32   -0.1439    0.0341   -0.1428   -0.0865   -0.1666   -0.0656    0.0413   -0.0613
          33   -0.1966    0.1674   -0.1429   -0.0002   -0.2102   -0.0260   -0.0005   -0.0047
          34    0.0000    0.0000    0.0000   -0.0580    0.0000    0.0000   -0.0961    0.0216
          35   -0.0000   -0.0000   -0.0001   -0.1650   -0.0000   -0.0000    0.0305    0.0257
          36    0.2337    0.1858    0.2556   -0.0000    0.1267    0.0775    0.0000    0.0000
          37   -0.0000    0.0000    0.0001    0.1660   -0.0001    0.0000    0.0222    0.0787
          38   -0.0000    0.0000    0.0000   -0.0337   -0.0000   -0.0000   -0.1190    0.0154
          39   -0.1592    0.0314    0.2931   -0.0001   -0.2783    0.0982   -0.0000   -0.0000
          40    0.0000    0.0000   -0.0001   -0.2081    0.0000   -0.0000   -0.0885   -0.0040
          41   -0.0000    0.0000    0.0000    0.0274    0.0000    0.0001    0.0148   -0.0840
          42    0.1856   -0.1370   -0.1992    0.0000   -0.2151   -0.2956    0.0000   -0.0000
          43    0.0000    0.0000   -0.0000   -0.0042    0.0000   -0.0001    0.0905    0.1282
          44   -0.0000   -0.0000   -0.0000   -0.1220    0.0000   -0.0000    0.0283   -0.0756
          45    0.0034    0.2735   -0.0528    0.0000    0.1687   -0.3708   -0.0000   -0.0000
          46    0.0000    0.0000   -0.0000   -0.0754    0.0000    0.0001    0.0651   -0.1430
          47   -0.0000   -0.0000   -0.0000   -0.0966    0.0000   -0.0000   -0.0839    0.0081
          48    0.2404    0.0686   -0.2048    0.0000   -0.1134    0.3396   -0.0000    0.0000
          49    0.0000   -0.0000    0.0000   -0.1559   -0.0000   -0.0000    0.0853   -0.0419
          50    0.0000    0.0000    0.0000    0.0739   -0.0000   -0.0000    0.0794    0.0713
          51    0.0867   -0.1598    0.2791   -0.0001   -0.2468   -0.2282    0.0000   -0.0001


   Root No.       9        10        11        12        13        14        15        16

                 9 A      10 A      11 A      12 A      13 A      14 A      15 A      16 A   

                 701.8     743.9     773.2     788.2     859.5     866.7     931.3     936.3
  
           1   -0.0000   -0.0000   -0.0300    0.0000    0.3517   -0.0002    0.0001   -0.2614
           2   -0.0000   -0.0001   -0.3553    0.0002    0.1094   -0.0001   -0.0000   -0.1079
           3   -0.0991   -0.2146   -0.0001   -0.1274    0.0002    0.2540    0.3021    0.0001
           4   -0.0000   -0.0000   -0.1910    0.0001    0.0359   -0.0001   -0.0000   -0.0095
           5    0.0000    0.0000    0.0573   -0.0000   -0.0880    0.0001    0.0001   -0.1740
           6   -0.4348    0.0090    0.0001    0.0683   -0.0001   -0.0438   -0.2453   -0.0000
           7    0.0001   -0.0001   -0.1930    0.0001   -0.1352    0.0000    0.0000    0.0149
           8   -0.0000    0.0000    0.0623   -0.0000   -0.0923    0.0000   -0.0001    0.1873
           9    0.5137    0.0738    0.0001    0.2865   -0.0000   -0.0616    0.2578    0.0000
          10    0.0001    0.0001    0.5012   -0.0002   -0.0365    0.0001   -0.0000    0.1785
          11   -0.0000   -0.0000   -0.1464    0.0001    0.0540   -0.0000    0.0000   -0.0866
          12    0.1309   -0.1014   -0.0001   -0.1163   -0.0000   -0.0747   -0.0725    0.0000
          13    0.0000    0.0000    0.1898   -0.0001   -0.1300    0.0001    0.0000   -0.1553
          14    0.0000    0.0001    0.3526   -0.0001    0.1917   -0.0001   -0.0001    0.3903
          15    0.0011   -0.1821    0.0000   -0.1497   -0.0000   -0.1149   -0.3357   -0.0001
          16    0.0000    0.0000   -0.0248   -0.0000   -0.1801    0.0001   -0.0000    0.0212
          17    0.0000    0.0001    0.3445   -0.0002   -0.2020    0.0002    0.0001   -0.3687
          18    0.1237    0.1092   -0.0001   -0.0985   -0.0001   -0.2774    0.1291    0.0001
          19   -0.0000   -0.0001   -0.2643    0.0001   -0.0748    0.0001   -0.0001    0.1788
          20   -0.0000   -0.0001   -0.2518    0.0001   -0.3632    0.0002   -0.0000    0.1139
          21   -0.0910    0.1001   -0.0000   -0.0696    0.0002    0.2508   -0.0869    0.0000
          22    0.0000   -0.0000   -0.0167    0.0000    0.4311   -0.0003   -0.0001    0.1155
          23    0.0000   -0.0000   -0.0474    0.0000    0.0962   -0.0000   -0.0000   -0.0042
          24    0.1474    0.1284   -0.0001   -0.1585    0.0001    0.1779   -0.1563   -0.0001
          25   -0.0000    0.0001    0.0575   -0.0001   -0.2951    0.0002    0.0000   -0.0023
          26    0.0000   -0.0000    0.0096    0.0000    0.3465   -0.0002   -0.0000    0.0561
          27   -0.1108    0.1103   -0.0001   -0.2145   -0.0000   -0.1089    0.1206   -0.0000
          28   -0.1885   -0.1132   -0.0270   -0.0202    0.1633    0.1603   -0.0322   -0.2479
          29    0.0302   -0.2027   -0.1069   -0.1444    0.0063    0.1276    0.3039    0.0697
          30    0.0442    0.1158    0.0079    0.0604   -0.0122   -0.0816   -0.0802    0.0175
          31    0.1884    0.1131   -0.0270    0.0202    0.1632   -0.1604    0.0323   -0.2479
          32   -0.0302    0.2026   -0.1068    0.1444    0.0061   -0.1276   -0.3038    0.0695
          33    0.0442    0.1159   -0.0080    0.0605    0.0121   -0.0817   -0.0803   -0.0175
          34   -0.0000    0.0001    0.1422   -0.0000   -0.0687    0.0001    0.0000    0.0249
          35    0.0000   -0.0001   -0.0598   -0.0000   -0.1538    0.0001    0.0000   -0.0934
          36   -0.1317    0.5344    0.0001    0.4644   -0.0000   -0.0169   -0.0445   -0.0001
          37   -0.0001   -0.0001   -0.1077    0.0001   -0.1438   -0.0000   -0.0001    0.2119
          38   -0.0000   -0.0000   -0.0636    0.0000   -0.0659    0.0000    0.0000   -0.0188
          39   -0.3682   -0.2828    0.0002    0.0971   -0.0002   -0.4340    0.0975   -0.0001
          40   -0.0000    0.0000    0.0236   -0.0000   -0.0205    0.0001    0.0001   -0.3643
          41    0.0001   -0.0000    0.1052   -0.0001    0.0546   -0.0001   -0.0001    0.1373
          42   -0.3667    0.2898   -0.0000    0.1289    0.0002    0.2767    0.5114    0.0003
          43    0.0000   -0.0001   -0.0249    0.0001    0.1310   -0.0001    0.0000    0.0558
          44    0.0000    0.0000    0.0831   -0.0000    0.0002    0.0000    0.0000   -0.1010
          45    0.0596   -0.3284    0.0003    0.4327   -0.0003   -0.3326    0.2532    0.0001
          46   -0.0000   -0.0000   -0.0437    0.0001   -0.1363    0.0001   -0.0001    0.0887
          47   -0.0000   -0.0000   -0.0487    0.0000    0.0579   -0.0000   -0.0000    0.0921
          48   -0.1661   -0.3369    0.0003    0.4500    0.0001    0.2043   -0.1988    0.0000
          49    0.0000   -0.0000   -0.0341    0.0000    0.0258    0.0000   -0.0001    0.2011
          50    0.0000    0.0000    0.1099   -0.0001   -0.0860    0.0001    0.0001   -0.1767
          51    0.2594   -0.2212    0.0002    0.3069    0.0003    0.4613   -0.1569   -0.0001


   Root No.      17        18        19        20        21        22        23        24

                17 A      18 A      19 A      20 A      21 A      22 A      23 A      24 A   

                 947.1     987.8    1005.3    1042.1    1042.4    1079.0    1095.3    1109.4
  
           1   -0.0001   -0.0000    0.0000   -0.0033   -0.1102   -0.0562    0.1240   -0.0587
           2   -0.0000   -0.0001   -0.0000   -0.0100   -0.3453   -0.0216    0.1739   -0.0309
           3    0.1388    0.2667    0.1589    0.0030   -0.0001   -0.0000   -0.0000    0.0000
           4   -0.0000   -0.0000   -0.0000   -0.0003   -0.0103    0.1273   -0.0328    0.0488
           5   -0.0000   -0.0000    0.0000    0.0002    0.0074    0.0446    0.0157    0.0713
           6   -0.0745   -0.2471   -0.1453   -0.2778    0.0081    0.0000    0.0000   -0.0000
           7    0.0000   -0.0000    0.0000   -0.0017   -0.0594    0.0255   -0.0082   -0.0035
           8    0.0000    0.0000   -0.0000    0.0019    0.0664    0.0521    0.0351    0.0700
           9    0.1479   -0.0869    0.0842    0.1607   -0.0046   -0.0000   -0.0000    0.0000
          10    0.0000   -0.0000   -0.0000   -0.0057   -0.1954    0.0442    0.0837   -0.0235
          11    0.0000    0.0001    0.0000    0.0084    0.2883   -0.0058   -0.1094   -0.0288
          12   -0.1832   -0.2981   -0.2270    0.3038   -0.0088   -0.0000   -0.0000    0.0000
          13   -0.0000    0.0000    0.0000   -0.0011   -0.0381    0.0044    0.0877    0.0143
          14    0.0001    0.0000   -0.0000    0.0051    0.1737   -0.0721   -0.2483   -0.0210
          15    0.0938    0.2699    0.0936   -0.1918    0.0056    0.0000   -0.0000   -0.0000
          16   -0.0000    0.0000    0.0000    0.0012    0.0413   -0.0839    0.0027   -0.1181
          17   -0.0001   -0.0000    0.0000   -0.0034   -0.1166   -0.1887    0.1675   -0.1501
          18   -0.2741    0.1401    0.2831    0.1446   -0.0042   -0.0000   -0.0000    0.0000
          19    0.0000    0.0001   -0.0000    0.0023    0.0778   -0.0400   -0.1229    0.0143
          20    0.0000    0.0000   -0.0000    0.0004    0.0136   -0.0382   -0.2492   -0.1896
          21   -0.3312    0.2405   -0.2246   -0.0940    0.0027    0.0000    0.0000   -0.0000
          22    0.0000   -0.0000    0.0001   -0.0000   -0.0017    0.1708   -0.2224    0.0168
          23   -0.0000   -0.0000    0.0000   -0.0000   -0.0004    0.0674   -0.0829    0.0614
          24    0.1355   -0.2282    0.3508    0.0809   -0.0023   -0.0000    0.0000    0.0000
          25    0.0000    0.0000   -0.0000   -0.0013   -0.0443    0.0569   -0.1147    0.0176
          26    0.0000    0.0000   -0.0000    0.0013    0.0448   -0.0836    0.2089    0.0559
          27    0.2657    0.0578   -0.3711   -0.0960    0.0028    0.0000   -0.0000    0.0000
          28    0.1697    0.2777   -0.0331    0.4478    0.1997    0.0292    0.0769   -0.0717
          29   -0.0104    0.0101    0.1615   -0.3572   -0.3525   -0.0467    0.0825    0.0155
          30   -0.0363   -0.0642   -0.0354   -0.0043    0.0343    0.0035   -0.0319    0.0094
          31   -0.1698   -0.2776    0.0331   -0.4353    0.2256    0.0292    0.0770   -0.0718
          32    0.0104   -0.0101   -0.1614    0.3359   -0.3728   -0.0467    0.0825    0.0155
          33   -0.0363   -0.0642   -0.0354   -0.0062   -0.0341   -0.0035    0.0319   -0.0094
          34    0.0000    0.0000    0.0000    0.0015    0.0525    0.2024    0.1395   -0.0503
          35   -0.0000   -0.0000   -0.0000    0.0117    0.4006    0.5429    0.2921   -0.1324
          36    0.2572    0.3296    0.2014   -0.1973    0.0058    0.0001    0.0000   -0.0000
          37    0.0001   -0.0000    0.0000    0.0058    0.1987   -0.3052    0.3778    0.3861
          38    0.0000   -0.0000    0.0000   -0.0016   -0.0552    0.0896   -0.2194   -0.1859
          39    0.4262   -0.2978    0.2074    0.0733   -0.0021    0.0000   -0.0001   -0.0001
          40   -0.0001   -0.0001   -0.0000    0.0068    0.2368   -0.4751   -0.3523    0.2527
          41    0.0001    0.0001    0.0000    0.0012    0.0402    0.0097   -0.0524   -0.0224
          42   -0.1470   -0.3053   -0.0852    0.1445   -0.0042    0.0000    0.0000   -0.0000
          43   -0.0000    0.0000   -0.0001    0.0006    0.0222    0.0066   -0.0796   -0.0738
          44   -0.0000   -0.0000    0.0000   -0.0033   -0.1133    0.2590    0.0353    0.4548
          45   -0.1763    0.2672   -0.3554   -0.0579    0.0017   -0.0000    0.0000   -0.0000
          46   -0.0000    0.0000    0.0000    0.0021    0.0701    0.0246    0.0748    0.3548
          47    0.0000    0.0000   -0.0000    0.0025    0.0858   -0.0177    0.1628    0.3318
          48   -0.3749   -0.0711    0.3759    0.0679   -0.0020   -0.0000   -0.0000   -0.0000
          49    0.0001    0.0000   -0.0000    0.0049    0.1690   -0.3710    0.3867   -0.4087
          50   -0.0000   -0.0000    0.0000   -0.0026   -0.0883    0.0586   -0.0767    0.0819
          51    0.3681   -0.1900   -0.2821   -0.1349    0.0039    0.0000   -0.0000    0.0000


   Root No.      25        26        27        28        29        30        31        32

                25 A      26 A      27 A      28 A      29 A      30 A      31 A      32 A   

                1150.7    1174.2    1190.1    1299.0    1307.9    1335.8    1381.4    1442.2
  
           1   -0.0022    0.1120   -0.0815    0.1183    0.4737   -0.1207    0.2421   -0.2035
           2   -0.0256   -0.1585   -0.0104   -0.2220   -0.3670   -0.0402    0.4232    0.0804
           3   -0.0000   -0.0000    0.0000   -0.0000   -0.0001   -0.0000    0.0001    0.0000
           4    0.0040    0.2989    0.0815    0.2496   -0.2488   -0.0469   -0.1406    0.2024
           5   -0.0702    0.0673    0.2735    0.1549   -0.2220    0.2087   -0.0543   -0.3040
           6   -0.0000   -0.0000   -0.0000   -0.0000   -0.0000   -0.0000   -0.0000   -0.0000
           7    0.0316   -0.1671    0.1010    0.0655    0.1104   -0.1220   -0.0268    0.3452
           8    0.0538    0.1913    0.2421   -0.1416   -0.1647   -0.3332   -0.2074    0.0068
           9    0.0000    0.0000   -0.0000   -0.0000   -0.0000    0.0000   -0.0000   -0.0001
          10   -0.0277   -0.0133   -0.0177   -0.1346   -0.1437    0.0554    0.0787   -0.0173
          11    0.0284   -0.1565   -0.1053    0.3603    0.1736   -0.1822   -0.2847   -0.1061
          12    0.0000   -0.0000   -0.0000    0.0001    0.0000   -0.0000   -0.0000   -0.0000
          13   -0.0109   -0.1211    0.0046    0.1610   -0.1630   -0.1567   -0.2260   -0.2175
          14    0.0152   -0.0811   -0.0646   -0.0406    0.1254    0.1916    0.1203    0.1837
          15   -0.0000    0.0000   -0.0000   -0.0000    0.0000    0.0000    0.0000    0.0000
          16   -0.0449    0.0873   -0.1342    0.2424   -0.1769    0.3529    0.0166    0.1306
          17   -0.0695   -0.0651   -0.0657    0.0568    0.2239   -0.0006    0.0844    0.1031
          18   -0.0000   -0.0000    0.0000   -0.0000    0.0000   -0.0000    0.0000   -0.0000
          19    0.0022   -0.1435    0.0760    0.1096    0.1347    0.3979    0.1271    0.0957
          20    0.0906   -0.0714   -0.1422   -0.2330    0.1689   -0.1274    0.0587   -0.1039
          21   -0.0000    0.0000   -0.0000   -0.0000   -0.0000   -0.0001   -0.0000   -0.0000
          22    0.0581    0.0566    0.0153   -0.2103    0.0250   -0.1438    0.0018   -0.2546
          23    0.0433    0.0485   -0.1362    0.0727   -0.1775    0.2724    0.0323   -0.4021
          24   -0.0000   -0.0000    0.0000    0.0000    0.0000    0.0000   -0.0000    0.0001
          25    0.0201   -0.0614   -0.1097   -0.2333    0.0157   -0.3070   -0.0507    0.0095
          26   -0.0615    0.1295   -0.1016    0.0903   -0.0612   -0.1801   -0.0946    0.4481
          27    0.0000    0.0000    0.0000    0.0000   -0.0000    0.0000    0.0000   -0.0000
          28   -0.0022   -0.2880   -0.0797   -0.2970   -0.1107    0.1415   -0.1964    0.0703
          29   -0.0188    0.2090    0.0087   -0.1280    0.2169    0.1764   -0.2872   -0.0144
          30    0.0063    0.0036    0.0166    0.1698   -0.0617   -0.1677    0.3164   -0.0349
          31   -0.0022   -0.2882   -0.0798   -0.2971   -0.1107    0.1414   -0.1963    0.0703
          32   -0.0188    0.2091    0.0088   -0.1279    0.2170    0.1763   -0.2871   -0.0145
          33   -0.0063   -0.0035   -0.0166   -0.1699    0.0618    0.1678   -0.3166    0.0350
          34   -0.0143    0.1406    0.0064   -0.1330    0.0025    0.0714    0.1124    0.0181
          35   -0.0080    0.3681    0.0038   -0.1552    0.1842    0.1039    0.1649    0.0505
          36    0.0000    0.0000    0.0000   -0.0000    0.0000    0.0000    0.0000    0.0000
          37    0.2446    0.0735   -0.4785   -0.0774   -0.0196   -0.0154    0.0337   -0.1639
          38   -0.0516   -0.0621    0.1285   -0.0378    0.0748    0.0074    0.0212    0.0292
          39   -0.0000   -0.0000    0.0001    0.0000   -0.0000    0.0000   -0.0000    0.0000
          40    0.0547    0.3961    0.2286   -0.2694   -0.0206    0.0547    0.1160    0.1015
          41    0.0015   -0.0524   -0.0334    0.0094    0.0380    0.0505    0.0219    0.0490
          42   -0.0000   -0.0001   -0.0000    0.0000    0.0000    0.0000   -0.0000   -0.0000
          43   -0.0998    0.0636   -0.0577   -0.0736   -0.0309   -0.0483   -0.0054   -0.1292
          44    0.6306   -0.2362    0.2826    0.0435    0.1582    0.0956    0.0462    0.0940
          45    0.0000   -0.0000   -0.0000    0.0000   -0.0000    0.0000    0.0000    0.0000
          46   -0.4848   -0.1952    0.2027   -0.1040    0.1518   -0.0248    0.0475   -0.1334
          47   -0.4537   -0.1173    0.1774    0.0052    0.1123    0.0094    0.0267    0.0303
          48    0.0001    0.0000   -0.0000    0.0000   -0.0000   -0.0000   -0.0000    0.0000
          49    0.1991   -0.0697    0.4814   -0.0202    0.0450   -0.0063    0.0118   -0.1462
          50   -0.0968    0.0134   -0.1953    0.0530    0.0364    0.0396    0.0244    0.1009
          51   -0.0000    0.0000   -0.0001   -0.0000    0.0000   -0.0000   -0.0000    0.0000


   Root No.      33        34        35        36        37        38        39        40

                33 A      34 A      35 A      36 A      37 A      38 A      39 A      40 A   

                1578.0    1597.1    1766.5    1799.7    1827.1    2981.9    3050.5    3054.8
  
           1   -0.2067    0.0376    0.0148    0.0645    0.0638   -0.0000    0.1377    0.0015
           2   -0.0199   -0.0540    0.0348   -0.0139   -0.0270    0.0000    0.1692    0.0020
           3    0.0000   -0.0000   -0.0000   -0.0000   -0.0000   -0.3041   -0.0000    0.0000
           4    0.5265   -0.0622    0.0466   -0.1527   -0.3551   -0.0000    0.0034   -0.0006
           5    0.1580    0.2761   -0.0584    0.4837    0.2424    0.0000    0.0009   -0.0013
           6   -0.0000    0.0000   -0.0000    0.0000    0.0000   -0.0011   -0.0000   -0.0000
           7    0.0758    0.4010    0.0671   -0.3362    0.5101   -0.0000   -0.0030   -0.0003
           8   -0.4873   -0.2222   -0.0152   -0.2775    0.0241    0.0000   -0.0024   -0.0016
           9   -0.0000   -0.0001   -0.0000    0.0000   -0.0001   -0.0007   -0.0000    0.0000
          10    0.0753   -0.0630   -0.5384   -0.0189    0.0260   -0.0000   -0.0049    0.0001
          11    0.0292   -0.0628   -0.4246   -0.0524    0.0192   -0.0000    0.0061    0.0001
          12   -0.0000   -0.0000   -0.0000   -0.0000    0.0000   -0.0010    0.0000   -0.0000
          13   -0.1551   -0.1122    0.5651    0.1174   -0.1281    0.0000   -0.0016   -0.0001
          14    0.1063    0.1472    0.3485    0.0041    0.0111    0.0000    0.0017    0.0002
          15    0.0000    0.0000   -0.0000   -0.0000    0.0000   -0.0011    0.0000    0.0000
          16   -0.2050   -0.3573    0.0269    0.0626    0.4245    0.0000   -0.0013    0.0122
          17    0.2057   -0.1374    0.0382   -0.2548   -0.1912    0.0000   -0.0016    0.0540
          18    0.0000    0.0000   -0.0000   -0.0000   -0.0000   -0.0003   -0.0000   -0.0000
          19   -0.3159   -0.0222   -0.1195    0.0893   -0.4694    0.0000    0.0001    0.0235
          20    0.2180   -0.2596    0.0331    0.1933    0.0723   -0.0000   -0.0001    0.0508
          21    0.0000    0.0000    0.0000   -0.0000    0.0001   -0.0002    0.0000   -0.0000
          22    0.2050   -0.2462    0.0462    0.0030    0.1380   -0.0000    0.0027   -0.1928
          23   -0.1215    0.3305    0.0016   -0.4639   -0.0934   -0.0000    0.0001   -0.0317
          24   -0.0000    0.0000   -0.0000    0.0000   -0.0000   -0.0000   -0.0000    0.0000
          25   -0.1120    0.4460   -0.0690    0.2274   -0.2190   -0.0000   -0.0002    0.1306
          26   -0.1181    0.0867   -0.0515    0.3574   -0.0604   -0.0000    0.0010   -0.1401
          27    0.0000   -0.0000    0.0000   -0.0000    0.0000   -0.0002    0.0000   -0.0000
          28   -0.0008   -0.0224   -0.0168   -0.0171   -0.0052    0.2580   -0.2367   -0.0025
          29   -0.0028    0.0214    0.0266    0.0138    0.0078    0.3196   -0.2928   -0.0031
          30   -0.0230   -0.0060   -0.0047    0.0069   -0.0007    0.5342   -0.5776   -0.0061
          31   -0.0008   -0.0224   -0.0168   -0.0171   -0.0052   -0.2579   -0.2370   -0.0025
          32   -0.0028    0.0214    0.0266    0.0138    0.0078   -0.3196   -0.2933   -0.0031
          33    0.0230    0.0060    0.0047   -0.0069    0.0007    0.5336    0.5778    0.0061
          34    0.0147   -0.0025   -0.1169    0.0028    0.0088    0.0000    0.0195   -0.0002
          35   -0.0126    0.0403    0.0983    0.0025    0.0038   -0.0000   -0.0043    0.0001
          36   -0.0000    0.0000    0.0000    0.0000   -0.0000   -0.0015   -0.0000   -0.0000
          37    0.1403   -0.0081    0.0183    0.0179    0.0389    0.0000    0.0003   -0.0650
          38   -0.0140   -0.0919   -0.0089    0.0720   -0.0468    0.0000    0.0008   -0.1793
          39   -0.0000    0.0000   -0.0000   -0.0000   -0.0000    0.0001    0.0000    0.0000
          40   -0.0317    0.0139   -0.0377   -0.0342    0.0239    0.0000   -0.0016    0.0001
          41    0.0302    0.0446    0.1488    0.0033   -0.0019    0.0000   -0.0177   -0.0003
          42    0.0000    0.0000    0.0000    0.0000   -0.0000   -0.0010   -0.0000   -0.0000
          43    0.0558   -0.0334    0.0157   -0.0384    0.0385    0.0000   -0.0091    0.6461
          44    0.0317   -0.1551    0.0018    0.0509    0.0090    0.0000   -0.0017    0.1191
          45   -0.0000    0.0000   -0.0000    0.0000   -0.0000    0.0001    0.0000   -0.0001
[...]
 TRAVEL (Ang.)       0.4257         C  2 -- C  6          +8.3% ( 36.4%)      8.7%
 REDUCED MASS        0.3126         C  3 -- C  7          +7.6% ( 34.8%)      7.4%
 EFFECTIVE MASS      3.2697
 FORCE CONSTANT      0.2609

 VIBRATION         28   28A           ATOM PAIR      ENERGY CONTRIBUTION    RADIAL
 FREQUENCY          1298.96         C  1 -- C  4         +10.6% ( 47.1%)     96.6%
 TRANSITION DIPOLE   0.1469         C  6 -- C  9          +8.8% ( 42.8%)     92.2%
 TRAVEL (Ang.)       0.2858         C  7 -- C  8          +8.2% ( 41.3%)     98.8%
 REDUCED MASS        0.6354         C  4 -- H 12          +6.7% ( 37.4%)     10.8%
 EFFECTIVE MASS      7.6997
 FORCE CONSTANT      0.6317

 VIBRATION         29   29A           ATOM PAIR      ENERGY CONTRIBUTION    RADIAL
 FREQUENCY          1307.94         C  1 -- C  2         +16.0% ( 62.7%)     96.1%
 TRANSITION DIPOLE   0.3442         C  1 -- C  4         +13.9% ( 58.6%)     65.4%
 TRAVEL (Ang.)       0.1648         C  1 -- H 11         +12.7% ( 55.9%)      0.0%
 REDUCED MASS        1.8979         C  1 -- H 10         +12.7% ( 55.9%)      0.0%
 EFFECTIVE MASS      9.3497
 FORCE CONSTANT      1.9130

 VIBRATION         30   30A           ATOM PAIR      ENERGY CONTRIBUTION    RADIAL
 FREQUENCY          1335.81         C  7 -- C  8         +11.9% ( 58.4%)     94.6%
 TRANSITION DIPOLE   0.1184         C  6 -- C  9         +11.8% ( 58.1%)     99.7%
 TRAVEL (Ang.)       0.2099         C  3 -- C  7         +11.1% ( 56.5%)     97.2%
 REDUCED MASS        1.1457         C  8 -- C  9          +8.1% ( 48.2%)    100.0%
 EFFECTIVE MASS      9.9393
 FORCE CONSTANT      1.2045

 VIBRATION         31   31A           ATOM PAIR      ENERGY CONTRIBUTION    RADIAL
 FREQUENCY          1381.41         C  1 -- H 10         +17.7% ( 57.0%)      7.1%
 TRANSITION DIPOLE   0.0912         C  1 -- H 11         +17.7% ( 57.0%)      7.1%
 TRAVEL (Ang.)       0.2257         C  1 -- C  4         +16.1% ( 54.3%)     81.1%
 REDUCED MASS        0.9578         C  1 -- C  2         +11.8% ( 46.6%)     39.1%
 EFFECTIVE MASS      6.4149
 FORCE CONSTANT      1.0769

 VIBRATION         32   32A           ATOM PAIR      ENERGY CONTRIBUTION    RADIAL
 FREQUENCY          1442.20         C  8 -- C  9         +20.4% ( 72.7%)     99.9%
 TRANSITION DIPOLE   0.4559         C  2 -- C  3          +9.3% ( 49.0%)     99.0%
 TRAVEL (Ang.)       0.1704         C  3 -- C  5          +8.8% ( 47.7%)     88.7%
 REDUCED MASS        1.6105         C  7 -- C  8          +7.4% ( 43.8%)      0.0%
 EFFECTIVE MASS     10.9030
 FORCE CONSTANT      1.9736

 VIBRATION         33   33A           ATOM PAIR      ENERGY CONTRIBUTION    RADIAL
 FREQUENCY          1578.00         C  2 -- C  3         +18.5% ( 66.1%)     92.3%
 TRANSITION DIPOLE   0.7976         C  2 -- C  6         +13.4% ( 56.3%)     48.5%
 TRAVEL (Ang.)       0.1381         C  3 -- C  7         +11.9% ( 53.1%)      8.6%
 REDUCED MASS        2.2391         C  1 -- C  2         +11.3% ( 51.8%)     94.4%
 EFFECTIVE MASS     11.4062
 FORCE CONSTANT      3.2850

 VIBRATION         34   34A           ATOM PAIR      ENERGY CONTRIBUTION    RADIAL
 FREQUENCY          1597.10         C  6 -- C  9         +14.9% ( 59.5%)     99.7%
 TRANSITION DIPOLE   0.3218         C  8 -- C  9         +10.9% ( 50.8%)      0.0%
 TRAVEL (Ang.)       0.1533         C  2 -- C  3         +10.6% ( 50.1%)     22.5%
 REDUCED MASS        1.7955         C  3 -- C  5          +9.4% ( 47.3%)     99.9%
 EFFECTIVE MASS     11.4693
 FORCE CONSTANT      2.6984

 VIBRATION         35   35A           ATOM PAIR      ENERGY CONTRIBUTION    RADIAL
 FREQUENCY          1766.46         C  4 -- C  5         +39.2% ( 99.1%)    100.0%
 TRANSITION DIPOLE   0.3317         C  3 -- C  4         +12.4% ( 55.7%)     63.2%
 TRAVEL (Ang.)       0.0874         C  1 -- C  4         +12.2% ( 55.4%)     20.5%
 REDUCED MASS        4.9944         C  4 -- H 12         +11.4% ( 53.4%)     11.6%
 EFFECTIVE MASS     11.9183         C  3 -- C  5         +11.2% ( 53.1%)      8.3%
 FORCE CONSTANT      9.1821         C  5 -- H 14         +10.6% ( 51.5%)     14.2%

 VIBRATION         36   36A           ATOM PAIR      ENERGY CONTRIBUTION    RADIAL
 FREQUENCY          1799.72         C  2 -- C  3         +15.5% ( 56.5%)     99.2%
 TRANSITION DIPOLE   0.0725         C  8 -- C  9         +14.2% ( 54.1%)     99.6%
 TRAVEL (Ang.)       0.1289         C  2 -- C  6         +12.9% ( 51.5%)     83.3%
 REDUCED MASS        2.2560         C  3 -- C  7          +8.6% ( 42.0%)     65.7%
 EFFECTIVE MASS     11.8723
 FORCE CONSTANT      4.3053

 VIBRATION         37   37A           ATOM PAIR      ENERGY CONTRIBUTION    RADIAL
 FREQUENCY          1827.07         C  3 -- C  7         +18.4% ( 63.3%)     93.4%
 TRANSITION DIPOLE   0.1890         C  2 -- C  6         +14.8% ( 56.8%)     87.7%
 TRAVEL (Ang.)       0.1228         C  2 -- C  3         +14.0% ( 55.1%)      0.7%
 REDUCED MASS        2.4477         C  3 -- C  5          +8.8% ( 43.7%)     61.7%
 EFFECTIVE MASS     11.9138
 FORCE CONSTANT      4.8141

 VIBRATION         38   38A           ATOM PAIR      ENERGY CONTRIBUTION    RADIAL
 FREQUENCY          2981.94         C  1 -- H 10         +49.0% ( 72.5%)     96.8%
 TRANSITION DIPOLE   0.1341         C  1 -- H 11         +48.9% ( 72.4%)     96.8%
 TRAVEL (Ang.)       0.2090         C  1 -- C  4          +1.1% ( 10.8%)      0.0%
 REDUCED MASS        0.5178         C  1 -- C  2          +1.1% ( 10.8%)      0.0%
 EFFECTIVE MASS      1.5350
 FORCE CONSTANT      2.7125

 VIBRATION         39   39A           ATOM PAIR      ENERGY CONTRIBUTION    RADIAL
 FREQUENCY          3050.47         C  1 -- H 11         +49.3% ( 69.4%)     97.3%
 TRANSITION DIPOLE   0.2419         C  1 -- H 10         +49.2% ( 69.3%)     97.3%
 TRAVEL (Ang.)       0.2138         C  1 -- C  2          +0.7% (  8.4%)     38.9%
 REDUCED MASS        0.4834         C  1 -- C  4          +0.7% (  8.4%)     34.7%
 EFFECTIVE MASS      1.2866
 FORCE CONSTANT      2.6503

 VIBRATION         40   40A           ATOM PAIR      ENERGY CONTRIBUTION    RADIAL
 FREQUENCY          3054.79         C  8 -- H 15         +45.7% ( 68.7%)    100.0%
 TRANSITION DIPOLE   0.0893         C  9 -- H 16         +44.0% ( 67.4%)    100.0%
 TRAVEL (Ang.)       0.2354         C  7 -- H 13          +3.9% ( 20.0%)     99.8%
 REDUCED MASS        0.3982         C  6 -- H 17          +3.8% ( 19.7%)     99.9%
 EFFECTIVE MASS      1.4927
 FORCE CONSTANT      2.1894

 VIBRATION         41   41A           ATOM PAIR      ENERGY CONTRIBUTION    RADIAL
 FREQUENCY          3064.63         C  9 -- H 16         +31.2% ( 56.7%)    100.0%
 TRANSITION DIPOLE   0.3308         C  8 -- H 15         +30.3% ( 56.0%)    100.0%
 TRAVEL (Ang.)       0.2968         C  6 -- H 17         +18.5% ( 43.7%)    100.0%
 REDUCED MASS        0.2499         C  7 -- H 13         +17.0% ( 41.9%)    100.0%
 EFFECTIVE MASS      1.5080
 FORCE CONSTANT      1.3826

 VIBRATION         42   42A           ATOM PAIR      ENERGY CONTRIBUTION    RADIAL
 FREQUENCY          3076.06         C  6 -- H 17         +45.1% ( 68.2%)    100.0%
 TRANSITION DIPOLE   0.5376         C  7 -- H 13         +44.1% ( 67.5%)    100.0%
 TRAVEL (Ang.)       0.2347         C  9 -- H 16          +4.2% ( 20.8%)     99.7%
 REDUCED MASS        0.3980         C  8 -- H 15          +3.3% ( 18.5%)     99.6%
 EFFECTIVE MASS      1.5393
 FORCE CONSTANT      2.2190

 VIBRATION         43   43A           ATOM PAIR      ENERGY CONTRIBUTION    RADIAL
 FREQUENCY          3081.44         C  7 -- H 13         +31.9% ( 57.3%)    100.0%
 TRANSITION DIPOLE   0.3046         C  6 -- H 17         +29.6% ( 55.2%)    100.0%
 TRAVEL (Ang.)       0.2956         C  9 -- H 16         +17.5% ( 42.4%)    100.0%
 REDUCED MASS        0.2504         C  8 -- H 15         +17.5% ( 42.4%)    100.0%
 EFFECTIVE MASS      1.5838
 FORCE CONSTANT      1.4009

 VIBRATION         44   44A           ATOM PAIR      ENERGY CONTRIBUTION    RADIAL
 FREQUENCY          3128.05         C  5 -- H 14         +52.7% ( 74.0%)    100.0%
 TRANSITION DIPOLE   0.3908         C  4 -- H 12         +43.9% ( 67.6%)    100.0%
 TRAVEL (Ang.)       0.2144         C  4 -- C  5          +1.2% ( 11.1%)      0.2%
 REDUCED MASS        0.4688         C  3 -- C  5          +0.8% (  9.4%)     30.7%
 EFFECTIVE MASS      1.4748
 FORCE CONSTANT      2.7027

 VIBRATION         45   45A           ATOM PAIR      ENERGY CONTRIBUTION    RADIAL
 FREQUENCY          3145.36         C  4 -- H 12         +51.6% ( 73.6%)     99.9%
 TRANSITION DIPOLE   0.4311         C  5 -- H 14         +43.0% ( 67.1%)     99.9%
 TRAVEL (Ang.)       0.2134         C  4 -- C  5          +2.4% ( 15.9%)     99.8%
 REDUCED MASS        0.4707         C  3 -- C  4          +1.0% ( 10.3%)     97.4%
 EFFECTIVE MASS      1.6491
 FORCE CONSTANT      2.7435

      SYMMETRY NUMBER FOR POINT-GROUP C1  =  1


          SYSTEM IS A GROUND STATE



 InChI=1S/C9H8/c1-2-5-9-7-3-6-8(9)4-1/h1-6H,7H2


          MOLECULE IS NOT LINEAR

          THERE ARE 45 GENUINE VIBRATIONS IN THIS SYSTEM
          THIS THERMODYNAMICS CALCULATION IS LIMITED TO
          MOLECULES WHICH HAVE NO INTERNAL ROTATIONS




                    CALCULATED THERMODYNAMIC PROPERTIES
                                          *
   TEMP. (K)   PARTITION FUNCTION   H.O.F.    ENTHALPY  HEAT CAPACITY ENTROPY
                                   KCAL/MOL   CAL/MOLE    CAL/K/MOL  CAL/K/MOL


 298.00  VIB.     0.7140D+01                  2277.6311    20.7012    11.5494
         ROT.     0.3330D+06                   888.2803     2.9808    28.2499
         INT.     0.2378D+07                  3165.9114    23.6820    39.7993
         TRA.     0.1210D+28                  1480.4672     4.9680    40.1623
         TOT.                       40.552    4646.3786    28.6500    79.9616

 200.00  VIB.     0.2372D+01                   749.5821    10.7002     5.4641
         ROT.     0.1831D+06                   596.1613     2.9808    27.0612
         INT.     0.4342D+06                  1345.7434    13.6810    32.5254
         TRA.     0.6655D+27                   993.6021     4.9680    38.1812
         TOT.                       38.245    2339.3455    18.6490    70.7066

 210.00  VIB.     0.2612D+01                   861.2735    11.6427     6.0089
         ROT.     0.1970D+06                   625.9693     2.9808    27.2067
         INT.     0.5145D+06                  1487.2429    14.6235    33.2156
         TRA.     0.7160D+27                  1043.2822     4.9680    38.4236
         TOT.                       38.437    2530.5251    19.5915    71.6392

 220.00  VIB.     0.2887D+01                   982.5226    12.6112     6.5728
         ROT.     0.2112D+06                   655.7774     2.9808    27.3453
         INT.     0.6098D+06                  1638.3000    15.5920    33.9181
         TRA.     0.7678D+27                  1092.9623     4.9680    38.6547
         TOT.                       38.637    2731.2623    20.5600    72.5728

 230.00  VIB.     0.3203D+01                  1113.5743    13.6027     7.1552
         ROT.     0.2258D+06                   685.5855     2.9808    27.4778
         INT.     0.7233D+06                  1799.1598    16.5835    34.6330
         TRA.     0.8207D+27                  1142.6424     4.9680    38.8756
         TOT.                       38.848    2941.8023    21.5515    73.5085

 240.00  VIB.     0.3568D+01                  1254.6428    14.6140     7.7554
         ROT.     0.2407D+06                   715.3935     2.9808    27.6047
         INT.     0.8587D+06                  1970.0363    17.5948    35.3601
         TRA.     0.8748D+27                  1192.3226     4.9680    39.0870
         TOT.                       39.068    3162.3589    22.5628    74.4471

 250.00  VIB.     0.3988D+01                  1405.9092    15.6417     8.3727
         ROT.     0.2559D+06                   745.2016     2.9808    27.7264
         INT.     0.1021D+07                  2151.1108    18.6226    36.0991
         TRA.     0.9301D+27                  1242.0027     4.9680    39.2898
         TOT.                       39.299    3393.1135    23.5906    75.3889

 260.00  VIB.     0.4474D+01                  1567.5214    16.6826     9.0065
         ROT.     0.2714D+06                   775.0097     2.9808    27.8433
         INT.     0.1214D+07                  2342.5311    19.6634    36.8497
         TRA.     0.9864D+27                  1291.6828     4.9680    39.4846
         TOT.                       39.540    3634.2139    24.6314    76.3344

 270.00  VIB.     0.5037D+01                  1739.5942    17.7333     9.6558
         ROT.     0.2872D+06                   804.8177     2.9808    27.9558
         INT.     0.1446D+07                  2544.4119    20.7141    37.6115
         TRA.     0.1044D+28                  1341.3629     4.9680    39.6721
         TOT.                       39.792    3885.7748    25.6821    77.2837

 280.00  VIB.     0.5689D+01                  1922.2097    18.7907    10.3198
         ROT.     0.3033D+06                   834.6258     2.9808    28.0642
         INT.     0.1725D+07                  2756.8355    21.7715    38.3839
         TRA.     0.1102D+28                  1391.0430     4.9680    39.8528
         TOT.                       40.054    4147.8785    26.7395    78.2368

 290.00  VIB.     0.6446D+01                  2115.4196    19.8517    10.9977
         ROT.     0.3197D+06                   864.4339     2.9808    28.1688
         INT.     0.2061D+07                  2979.8534    22.8325    39.1664
         TRA.     0.1162D+28                  1440.7231     4.9680    40.0272
         TOT.                       40.327    4420.5765    27.8005    79.1936

 300.00  VIB.     0.7327D+01                  2319.2458    20.9135    11.6886
         ROT.     0.3364D+06                   894.2419     2.9808    28.2698
         INT.     0.2465D+07                  3213.4878    23.8943    39.9584
         TRA.     0.1223D+28                  1490.4032     4.9680    40.1956
         TOT.                       40.610    4703.8910    28.8623    80.1540

 310.00  VIB.     0.8354D+01                  2533.6836    21.9735    12.3916
         ROT.     0.3533D+06                   924.0500     2.9808    28.3676
         INT.     0.2952D+07                  3457.7336    24.9544    40.7592
         TRA.     0.1284D+28                  1540.0833     4.9680    40.3585
         TOT.                       40.904    4997.8169    29.9224    81.1177

 320.00  VIB.     0.9554D+01                  2758.7029    23.0294    13.1059
         ROT.     0.3705D+06                   953.8580     2.9808    28.4622
         INT.     0.3540D+07                  3712.5609    26.0102    41.5681
         TRA.     0.1347D+28                  1589.7634     4.9680    40.5162
         TOT.                       41.208    5302.3243    30.9782    82.0843

 330.00  VIB.     0.1096D+02                  2994.2512    24.0790    13.8307
         ROT.     0.3881D+06                   983.6661     2.9808    28.5539
         INT.     0.4252D+07                  3977.9173    27.0598    42.3846
         TRA.     0.1410D+28                  1639.4435     4.9680    40.6691
         TOT.                       41.523    5617.3608    32.0278    83.0537

 340.00  VIB.     0.1260D+02                  3240.2555    25.1203    14.5650
         ROT.     0.4058D+06                  1013.4742     2.9808    28.6429
         INT.     0.5113D+07                  4253.7297    28.1012    43.2079
         TRA.     0.1475D+28                  1689.1236     4.9680    40.8174
         TOT.                       41.849    5942.8533    33.0692    84.0253

 350.00  VIB.     0.1453D+02                  3496.6251    26.1518    15.3081
         ROT.     0.4239D+06                  1043.2822     2.9808    28.7293
         INT.     0.6157D+07                  4539.9073    29.1326    44.0374
         TRA.     0.1541D+28                  1738.8037     4.9680    40.9614
         TOT.                       42.185    6278.7110    34.1006    84.9988

 360.00  VIB.     0.1679D+02                  3763.2530    27.1718    16.0591
         ROT.     0.4422D+06                  1073.0903     2.9808    28.8133
         INT.     0.7424D+07                  4836.3433    30.1526    44.8724
         TRA.     0.1607D+28                  1788.4838     4.9680    41.1014
         TOT.                       42.531    6624.8271    35.1206    85.9738

 370.00  VIB.     0.1946D+02                  4040.0187    28.1791    16.8173
         ROT.     0.4607D+06                  1102.8984     2.9808    28.8950
         INT.     0.8964D+07                  5142.9171    31.1600    45.7123
         TRA.     0.1675D+28                  1838.1639     4.9680    41.2375
         TOT.                       42.887    6981.0810    36.1280    86.9498

 380.00  VIB.     0.2260D+02                  4326.7901    29.1728    17.5821
         ROT.     0.4795D+06                  1132.7064     2.9808    28.9745
         INT.     0.1084D+08                  5459.4965    32.1536    46.5565
         TRA.     0.1743D+28                  1887.8440     4.9680    41.3700
         TOT.                       43.253    7347.3406    37.1216    87.9265

 390.00  VIB.     0.2630D+02                  4623.4251    30.1517    18.3525
         ROT.     0.4986D+06                  1162.5145     2.9808    29.0519
         INT.     0.1311D+08                  5785.9395    33.1325    47.4044
         TRA.     0.1812D+28                  1937.5242     4.9680    41.4990
         TOT.                       43.630    7723.4637    38.1005    88.9034

 400.00  VIB.     0.3068D+02                  4929.7733    31.1153    19.1281
         ROT.     0.5179D+06                  1192.3226     2.9808    29.1274
         INT.     0.1589D+08                  6122.0959    34.0961    48.2554
         TRA.     0.1882D+28                  1987.2043     4.9680    41.6248
         TOT.                       44.015    8109.3001    39.0641    89.8802

   *: NOTE: HEATS OF FORMATION ARE RELATIVE TO THE
            ELEMENTS IN THEIR STANDARD STATE AT 298K
              (=  Standard Enthalpy of Formation).

            Hvib:  Zero-point energy is not included.
                   frequencies of less than zero cm-1 are not included.
            Hrot = (3/2)RT
            Htra = (3/2)RT + pV = (5/2)RT

            Heat capacity is Cp, not Cv

          For more information, see: HTTP://OpenMOPAC.net/Manual/thermochemistry.html


           FORCE CONSTANT IN CARTESIAN COORDINATES (Millidynes/A)

    ATOM   CHEMICAL       X               Y               Z
   NUMBER   SYMBOL  FORCE CONSTANT  FORCE CONSTANT  FORCE CONSTANT

      1       C        8.667626        8.993570        7.879143
      2       C       12.421984       12.814145        2.642879
      3       C       14.899899       10.980957        2.486539
      4       C       14.760811        9.634329        2.342332
      5       C       11.719863       13.561352        2.219934
      6       C       11.821424       12.442703        2.305599
      7       C       12.095923       12.138386        2.310442
      8       C       11.975878       11.882451        2.330945
      9       C       11.880450       11.967801        2.331790
     10       H        1.211940        1.518241        3.556941
     11       H        1.212522        1.519658        3.555196
     12       H        4.894731        1.209274        0.336757
     13       H        1.193397        4.728154        0.352509
     14       H        0.711429        5.372246        0.347282
     15       H        5.001184        0.912047        0.349449
     16       H        2.698729        3.215546        0.347803
     17       H        1.188025        4.733817        0.351570

 **********************
 *                    *
 * JOB ENDED NORMALLY *
 *                    *
 **********************



 TOTAL JOB TIME:             1.36 SECONDS

 == MOPAC DONE ==
