 *******************************************************************************
 **                                                                           **
 **                              MOPAC v23.1.2                                **
 **                                                                           **
 *******************************************************************************
 **          Digital Object Identifier (DOI): 10.5281/zenodo.6511958          **
 **    Visit the DOI location for information on how to cite this program.    **
 *******************************************************************************

                              PM3 CALCULATION RESULTS

 *******************************************************************************
 *  CALCULATION DONE: (MAX THREADS = 1)              Tue Jun  3 16:33:34 2025  *
 *  PM3        - The PM3 Hamiltonian to be used
 *  PRECISE    - TIGHTER CRITERIA TO BE USED
 *  NOSYM      - POINT-GROUP SYMMETRY SET TO C1
 *  THREADS=1  - MULTI-THREADING NOT USED
 *  T=         - A TIME OF 172800.0 SECONDS REQUESTED
 *  DUMP=N     - RESTART FILE WRITTEN EVERY 7200.0 SECONDS REQUESTED
 *******************************************************************************
pm3  precise nosym THREADS=1
 InChI=1S/C10H10/c1-8-6-9-4-2-3-5-10(9)7-8/h2-8H,1H3

   ATOM   CHEMICAL          X               Y               Z
  NUMBER   SYMBOL      (ANGSTROMS)     (ANGSTROMS)     (ANGSTROMS)

     1       C          1.77910000  *  -0.48510000  *  -0.17230000  *
     2       C          2.74570000  *   0.05940000  *   0.87730000  *
     3       C         -0.25550000  *   0.47670000  *  -0.63780000  *
     4       C         -0.49190000  *  -0.62440000  *   0.15110000  *
     5       C          1.03940000  *   0.62350000  *  -0.86680000  *
     6       C          0.64090000  *  -1.23280000  *   0.46330000  *
     7       C         -1.30130000  *   1.28160000  *  -1.09510000  *
     8       C         -1.78770000  *  -0.98400000  *   0.52820000  *
     9       C         -2.61400000  *   0.93960000  *  -0.72850000  *
    10       C         -2.85640000  *  -0.18900000  *   0.08030000  *
    11       H          2.30780000  *  -1.12680000  *  -0.90940000  *
    12       H          2.21240000  *   0.70080000  *   1.61260000  *
    13       H          3.22830000  *  -0.78250000  *   1.41760000  *
    14       H          3.53820000  *   0.66090000  *   0.38340000  *
    15       H          1.48430000  *   1.41030000  *  -1.46320000  *
    16       H          0.72520000  *  -2.12550000  *   1.07040000  *
    17       H         -1.11090000  *   2.14800000  *  -1.71630000  *
    18       H         -1.96970000  *  -1.85190000  *   1.14980000  *
    19       H         -3.44320000  *   1.54620000  *  -1.06890000  *
    20       H         -3.87060000  *  -0.44490000  *   0.35780000  *



          CARTESIAN COORDINATES 

    NO.       ATOM           X           Y           Z

     1         C          1.7791     -0.4851     -0.1723
     2         C          2.7457      0.0594      0.8773
     3         C         -0.2555      0.4767     -0.6378
     4         C         -0.4919     -0.6244      0.1511
     5         C          1.0394      0.6235     -0.8668
     6         C          0.6409     -1.2328      0.4633
     7         C         -1.3013      1.2816     -1.0951
     8         C         -1.7877     -0.9840      0.5282
     9         C         -2.6140      0.9396     -0.7285
    10         C         -2.8564     -0.1890      0.0803
    11         H          2.3078     -1.1268     -0.9094
    12         H          2.2124      0.7008      1.6126
    13         H          3.2283     -0.7825      1.4176
    14         H          3.5382      0.6609      0.3834
    15         H          1.4843      1.4103     -1.4632
    16         H          0.7252     -2.1255      1.0704
    17         H         -1.1109      2.1480     -1.7163
    18         H         -1.9697     -1.8519      1.1498
    19         H         -3.4432      1.5462     -1.0689
    20         H         -3.8706     -0.4449      0.3578

  H: (PM3): J. J. P. STEWART, J. COMP. CHEM. 10, 209 (1989).
  C: (PM3): J. J. P. STEWART, J. COMP. CHEM. 10, 209 (1989).

           Empirical Formula: C10 H10  =    20 atoms



      MOLECULAR POINT GROUP   :   C1  


      RHF CALCULATION, NO. OF DOUBLY OCCUPIED LEVELS = 25


          Geometry optimization using EF

          DIAGONAL MATRIX USED AS START HESSIAN

 CYCLE:     1 TIME:   0.008 TIME LEFT:  2.00D  GRAD.:   256.996 HEAT:  71.01517
 CYCLE:     2 TIME:   0.012 TIME LEFT:  2.00D  GRAD.:    97.717 HEAT:  58.86265
 CYCLE:     3 TIME:   0.012 TIME LEFT:  2.00D  GRAD.:    73.440 HEAT:  56.94892
 CYCLE:     4 TIME:   0.008 TIME LEFT:  2.00D  GRAD.:    41.776 HEAT:  55.66894
 CYCLE:     5 TIME:   0.012 TIME LEFT:  2.00D  GRAD.:    32.362 HEAT:  55.21658
 CYCLE:     6 TIME:   0.008 TIME LEFT:  2.00D  GRAD.:    40.738 HEAT:  55.12315
 CYCLE:     7 TIME:   0.004 TIME LEFT:  2.00D  GRAD.:    37.032 HEAT:  54.74572
 CYCLE:     8 TIME:   0.008 TIME LEFT:  2.00D  GRAD.:    46.042 HEAT:  54.68410
 CYCLE:     9 TIME:   0.012 TIME LEFT:  2.00D  GRAD.:    35.010 HEAT:  54.31269
 CYCLE:    10 TIME:   0.012 TIME LEFT:  2.00D  GRAD.:    17.093 HEAT:  54.08638
 CYCLE:    11 TIME:   0.008 TIME LEFT:  2.00D  GRAD.:    23.019 HEAT:  54.03384
 CYCLE:    12 TIME:   0.004 TIME LEFT:  2.00D  GRAD.:    18.201 HEAT:  53.91106
 CYCLE:    13 TIME:   0.008 TIME LEFT:  2.00D  GRAD.:    19.049 HEAT:  53.88766
 CYCLE:    14 TIME:   0.012 TIME LEFT:  2.00D  GRAD.:    11.487 HEAT:  53.82764
 CYCLE:    15 TIME:   0.008 TIME LEFT:  2.00D  GRAD.:     6.798 HEAT:  53.80081
 CYCLE:    16 TIME:   0.008 TIME LEFT:  2.00D  GRAD.:     6.868 HEAT:  53.79440
 CYCLE:    17 TIME:   0.004 TIME LEFT:  2.00D  GRAD.:     6.304 HEAT:  53.78751
 CYCLE:    18 TIME:   0.012 TIME LEFT:  2.00D  GRAD.:     5.474 HEAT:  53.78276
 CYCLE:    19 TIME:   0.004 TIME LEFT:  2.00D  GRAD.:     4.215 HEAT:  53.77851
 CYCLE:    20 TIME:   0.008 TIME LEFT:  2.00D  GRAD.:     4.274 HEAT:  53.77570
 CYCLE:    21 TIME:   0.008 TIME LEFT:  2.00D  GRAD.:     4.230 HEAT:  53.77212
 CYCLE:    22 TIME:   0.008 TIME LEFT:  2.00D  GRAD.:     3.389 HEAT:  53.76669
 CYCLE:    23 TIME:   0.004 TIME LEFT:  2.00D  GRAD.:     4.666 HEAT:  53.76363
 CYCLE:    24 TIME:   0.008 TIME LEFT:  2.00D  GRAD.:     3.201 HEAT:  53.75576
 CYCLE:    25 TIME:   0.004 TIME LEFT:  2.00D  GRAD.:     4.528 HEAT:  53.75091
 CYCLE:    26 TIME:   0.008 TIME LEFT:  2.00D  GRAD.:     2.582 HEAT:  53.74246
 CYCLE:    27 TIME:   0.008 TIME LEFT:  2.00D  GRAD.:     2.868 HEAT:  53.73496
 CYCLE:    28 TIME:   0.008 TIME LEFT:  2.00D  GRAD.:     3.226 HEAT:  53.72847
 CYCLE:    29 TIME:   0.004 TIME LEFT:  2.00D  GRAD.:     2.933 HEAT:  53.72140
 CYCLE:    30 TIME:   0.008 TIME LEFT:  2.00D  GRAD.:     2.622 HEAT:  53.71509
 CYCLE:    31 TIME:   0.008 TIME LEFT:  2.00D  GRAD.:     1.924 HEAT:  53.70854
 CYCLE:    32 TIME:   0.004 TIME LEFT:  2.00D  GRAD.:     1.357 HEAT:  53.70288
 CYCLE:    33 TIME:   0.008 TIME LEFT:  2.00D  GRAD.:     1.611 HEAT:  53.69744
 CYCLE:    34 TIME:   0.008 TIME LEFT:  2.00D  GRAD.:     1.716 HEAT:  53.69320
 CYCLE:    35 TIME:   0.004 TIME LEFT:  2.00D  GRAD.:     1.550 HEAT:  53.68711
 CYCLE:    36 TIME:   0.008 TIME LEFT:  2.00D  GRAD.:     1.550 HEAT:  53.67953
 CYCLE:    37 TIME:   0.008 TIME LEFT:  2.00D  GRAD.:     1.715 HEAT:  53.67589
 CYCLE:    38 TIME:   0.008 TIME LEFT:  2.00D  GRAD.:     1.333 HEAT:  53.67234
 CYCLE:    39 TIME:   0.004 TIME LEFT:  2.00D  GRAD.:     0.970 HEAT:  53.66925
 CYCLE:    40 TIME:   0.008 TIME LEFT:  2.00D  GRAD.:     0.722 HEAT:  53.66730
 CYCLE:    41 TIME:   0.008 TIME LEFT:  2.00D  GRAD.:     0.687 HEAT:  53.66673
 CYCLE:    42 TIME:   0.008 TIME LEFT:  2.00D  GRAD.:     0.403 HEAT:  53.66628
 CYCLE:    43 TIME:   0.004 TIME LEFT:  2.00D  GRAD.:     0.323 HEAT:  53.66596
 CYCLE:    44 TIME:   0.008 TIME LEFT:  2.00D  GRAD.:     0.263 HEAT:  53.66578
 CYCLE:    45 TIME:   0.008 TIME LEFT:  2.00D  GRAD.:     0.174 HEAT:  53.66564
 CYCLE:    46 TIME:   0.008 TIME LEFT:  2.00D  GRAD.:     0.135 HEAT:  53.66558
 CYCLE:    47 TIME:   0.004 TIME LEFT:  2.00D  GRAD.:     0.119 HEAT:  53.66554
 CYCLE:    48 TIME:   0.008 TIME LEFT:  2.00D  GRAD.:     0.105 HEAT:  53.66552
 CYCLE:    49 TIME:   0.004 TIME LEFT:  2.00D  GRAD.:     0.084 HEAT:  53.66550
 CYCLE:    50 TIME:   0.008 TIME LEFT:  2.00D  GRAD.:     0.087 HEAT:  53.66548
 CYCLE:    51 TIME:   0.004 TIME LEFT:  2.00D  GRAD.:     0.072 HEAT:  53.66547
 CYCLE:    52 TIME:   0.008 TIME LEFT:  2.00D  GRAD.:     0.066 HEAT:  53.66545
 CYCLE:    53 TIME:   0.004 TIME LEFT:  2.00D  GRAD.:     0.063 HEAT:  53.66544
 CYCLE:    54 TIME:   0.008 TIME LEFT:  2.00D  GRAD.:     0.062 HEAT:  53.66543
 CYCLE:    55 TIME:   0.004 TIME LEFT:  2.00D  GRAD.:     0.059 HEAT:  53.66542
 CYCLE:    56 TIME:   0.008 TIME LEFT:  2.00D  GRAD.:     0.058 HEAT:  53.66540
 CYCLE:    57 TIME:   0.004 TIME LEFT:  2.00D  GRAD.:     0.056 HEAT:  53.66539
 CYCLE:    58 TIME:   0.008 TIME LEFT:  2.00D  GRAD.:     0.057 HEAT:  53.66537
 CYCLE:    59 TIME:   0.004 TIME LEFT:  2.00D  GRAD.:     0.049 HEAT:  53.66537

     GRADIENT =  0.04897 IS LESS THAN CUTOFF =  0.05000



 -------------------------------------------------------------------------------
 pm3  precise nosym THREADS=1
 InChI=1S/C10H10/c1-8-6-9-4-2-3-5-10(9)7-8/h2-8H,1H3



     GEOMETRY OPTIMISED USING EIGENVECTOR FOLLOWING (EF).     
     SCF FIELD WAS ACHIEVED                                   


                              PM3 CALCULATION
                                                       MOPAC v23.1.2 MacOS
                                                       Tue Jun  3 16:33:34 2025




          FINAL HEAT OF FORMATION =         53.66537 KCAL/MOL =     224.53590 KJ/MOL


          COSMO AREA              =        173.67 SQUARE ANGSTROMS
          COSMO VOLUME            =        173.38 CUBIC ANGSTROMS

          GRADIENT NORM           =          0.04897          =       0.01095 PER ATOM
          IONIZATION POTENTIAL    =          8.217380 EV
          HOMO LUMO ENERGIES (EV) =         -8.217 -0.720
          NO. OF FILLED LEVELS    =         25
          MOLECULAR WEIGHT        =        130.1890         POINT GROUP:  C1  

          MOLECULAR DIMENSIONS (Angstroms)

            Atom       Atom       Distance
            H    19    H    13     7.59898
            H    18    H    15     5.36485
            H    11    H    12     3.07383


          SCF CALCULATIONS        =         68

          WALL-CLOCK TIME         =      0.437 SECONDS
          COMPUTATION TIME        =      0.279 SECONDS




   ATOM   CHEMICAL          X               Y               Z
  NUMBER   SYMBOL      (ANGSTROMS)     (ANGSTROMS)     (ANGSTROMS)

     1       C          1.79167355  *  -0.46783238  *  -0.14418514  *
     2       C          2.81870183  *   0.02510192  *   0.85160685  *
     3       C         -0.26035599  *   0.52524088  *  -0.65592536  *
     4       C         -0.51339356  *  -0.65312068  *   0.18880699  *
     5       C          1.07683174  *   0.65901105  *  -0.84997254  *
     6       C          0.66952812  *  -1.23751823  *   0.50940950  *
     7       C         -1.37720955  *   1.30751918  *  -1.11733898  *
     8       C         -1.87063045  *  -0.99022814  *   0.52999151  *
     9       C         -2.62805099  *   0.94129463  *  -0.76233393  *
    10       C         -2.87660273  *  -0.21632945  *   0.06755394  *
    11       H          2.27435459  *  -1.12084471  *  -0.91073754  *
    12       H          2.36362637  *   0.66499037  *   1.61830720  *
    13       H          3.30302353  *  -0.81471697  *   1.36584365  *
    14       H          3.60116053  *   0.61087506  *   0.35267021  *
    15       H          1.60028831  *   1.42994522  *  -1.41071763  *
    16       H          0.83894800  *  -2.11448672  *   1.12988757  *
    17       H         -1.18027499  *   2.18182100  *  -1.74537676  *
    18       H         -2.04991055  *  -1.86819491  *   1.15821116  *
    19       H         -3.49663591  *   1.51778219  *  -1.09761116  *
    20       H         -3.91870110  *  -0.44798179  *   0.31148670  *

                             CARTESIAN COORDINATES

   1    C        1.791673549    -0.467832382    -0.144185142
   2    C        2.818701828     0.025101923     0.851606854
   3    C       -0.260355994     0.525240882    -0.655925358
   4    C       -0.513393558    -0.653120683     0.188806990
   5    C        1.076831741     0.659011049    -0.849972539
   6    C        0.669528119    -1.237518227     0.509409505
   7    C       -1.377209548     1.307519175    -1.117338978
   8    C       -1.870630451    -0.990228144     0.529991512
   9    C       -2.628050990     0.941294628    -0.762333933
  10    C       -2.876602734    -0.216329449     0.067553943
  11    H        2.274354590    -1.120844708    -0.910737537
  12    H        2.363626373     0.664990369     1.618307200
  13    H        3.303023531    -0.814716969     1.365843646
  14    H        3.601160533     0.610875064     0.352670210
  15    H        1.600288305     1.429945221    -1.410717630
  16    H        0.838947999    -2.114486721     1.129887574
  17    H       -1.180274990     2.181820997    -1.745376758
  18    H       -2.049910546    -1.868194910     1.158211156
  19    H       -3.496635912     1.517782193    -1.097611159
  20    H       -3.918701105    -0.447981793     0.311486696


           Empirical Formula: C10 H10  =    20 atoms



      MOLECULAR POINT GROUP   :   C1  


                  EIGENVALUES  
 -41.33195 -36.05118 -30.55326 -30.00194 -25.74213 -24.37273 -20.98489 -19.73385
 -19.68693 -17.56190 -16.38404 -16.03951 -15.42694 -14.81755 -14.20000 -13.96661
 -13.88898 -13.12903 -12.96785 -12.37308 -12.31802 -11.83636 -10.58912 -10.28109
  -8.21738  -0.71966   1.16153   1.31711   3.00443   3.13458   3.16978   3.40008
   3.49164   3.51103   3.70967   3.78897   4.00214   4.13931   4.17271   4.37239
   4.56562   4.56796   4.71607   4.89777   5.37644   5.37743   5.57976   5.92389
   6.34362   6.46753


              NET ATOMIC CHARGES AND DIPOLE CONTRIBUTIONS

  ATOM NO.   TYPE          CHARGE      No. of ELECS.   s-Pop       p-Pop       
    1          C          -0.031663        4.0317     1.16165     2.87001
    2          C          -0.080167        4.0802     1.13190     2.94826
    3          C          -0.063468        4.0635     1.17467     2.88879
    4          C          -0.063480        4.0635     1.17467     2.88881
    5          C          -0.141333        4.1413     1.20603     2.93530
    6          C          -0.141351        4.1414     1.20602     2.93533
    7          C          -0.070041        4.0700     1.17204     2.89800
    8          C          -0.070057        4.0701     1.17204     2.89802
    9          C          -0.101624        4.1016     1.18054     2.92108
   10          C          -0.101618        4.1016     1.18053     2.92108
   11          H           0.093359        0.9066     0.90664
   12          H           0.047480        0.9525     0.95252
   13          H           0.039417        0.9606     0.96058
   14          H           0.039508        0.9605     0.96049
   15          H           0.119724        0.8803     0.88028
   16          H           0.119733        0.8803     0.88027
   17          H           0.103249        0.8968     0.89675
   18          H           0.103253        0.8967     0.89675
   19          H           0.099547        0.9005     0.90045
   20          H           0.099532        0.9005     0.90047
 DIPOLE           X         Y         Z       TOTAL
 POINT-CHG.     0.595    -0.083     0.062     0.604
 HYBRID        -0.004    -0.039    -0.055     0.067
 SUM            0.591    -0.122     0.007     0.603


          ATOMIC ORBITAL ELECTRON POPULATIONS

     Atom    s        px        py        pz   
    1  C   1.16165   0.95727   0.94915   0.96359
    2  C   1.13190   0.96703   1.00294   0.97830
    3  C   1.17467   0.94054   0.96123   0.98703
    4  C   1.17467   0.93935   0.96211   0.98735
    5  C   1.20603   0.94810   0.98106   1.00614
    6  C   1.20602   0.94366   0.99292   0.99875
    7  C   1.17204   0.92997   0.97831   0.98972
    8  C   1.17204   0.92328   0.98384   0.99090
    9  C   1.18054   0.96636   0.96949   0.98523
   10  C   1.18053   0.97768   0.95988   0.98352
   11  H   0.90664
   12  H   0.95252
   13  H   0.96058
   14  H   0.96049
   15  H   0.88028
   16  H   0.88027
   17  H   0.89675
   18  H   0.89675
   19  H   0.90045
   20  H   0.90047
 *******************************************************************************
 **                                                                           **
 **                              MOPAC v23.1.2                                **
 **                                                                           **
 *******************************************************************************
 **          Digital Object Identifier (DOI): 10.5281/zenodo.6511958          **
 **    Visit the DOI location for information on how to cite this program.    **
 *******************************************************************************

                              PM3 CALCULATION RESULTS

 *******************************************************************************
 *  CALCULATION DONE: (MAX THREADS = 1)              Tue Jun  3 16:33:34 2025  *
 *  PM3        - The PM3 Hamiltonian to be used
 *  OLDGEO     - PREVIOUS GEOMETRY TO BE USED
 *  PRECISE    - TIGHTER CRITERIA TO BE USED
 *  NOSYM      - POINT-GROUP SYMMETRY SET TO C1
 *  THREADS=1  - MULTI-THREADING NOT USED
 *  T=         - A TIME OF 172800.0 SECONDS REQUESTED
 *  DUMP=N     - RESTART FILE WRITTEN EVERY 7200.0 SECONDS REQUESTED
 *  THERMO     - THERMODYNAMIC QUANTITIES TO BE CALCULATED
 *******************************************************************************
oldgeo thermo nosym precise THREADS=1  pm3
 InChI=1S/C10H10/c1-8-6-9-4-2-3-5-10(9)7-8/h2-8H,1H3

   ATOM   CHEMICAL          X               Y               Z
  NUMBER   SYMBOL      (ANGSTROMS)     (ANGSTROMS)     (ANGSTROMS)

     1       C          1.79167355  *  -0.46783238  *  -0.14418514  *
     2       C          2.81870183  *   0.02510192  *   0.85160685  *
     3       C         -0.26035599  *   0.52524088  *  -0.65592536  *
     4       C         -0.51339356  *  -0.65312068  *   0.18880699  *
     5       C          1.07683174  *   0.65901105  *  -0.84997254  *
     6       C          0.66952812  *  -1.23751823  *   0.50940950  *
     7       C         -1.37720955  *   1.30751918  *  -1.11733898  *
     8       C         -1.87063045  *  -0.99022814  *   0.52999151  *
     9       C         -2.62805099  *   0.94129463  *  -0.76233393  *
    10       C         -2.87660273  *  -0.21632945  *   0.06755394  *
    11       H          2.27435459  *  -1.12084471  *  -0.91073754  *
    12       H          2.36362637  *   0.66499037  *   1.61830720  *
    13       H          3.30302353  *  -0.81471697  *   1.36584365  *
    14       H          3.60116053  *   0.61087506  *   0.35267021  *
    15       H          1.60028831  *   1.42994522  *  -1.41071763  *
    16       H          0.83894800  *  -2.11448672  *   1.12988757  *
    17       H         -1.18027499  *   2.18182100  *  -1.74537676  *
    18       H         -2.04991055  *  -1.86819491  *   1.15821116  *
    19       H         -3.49663591  *   1.51778219  *  -1.09761116  *
    20       H         -3.91870110  *  -0.44798179  *   0.31148670  *



          CARTESIAN COORDINATES 

    NO.       ATOM           X           Y           Z

     1         C          1.7917     -0.4678     -0.1442
     2         C          2.8187      0.0251      0.8516
     3         C         -0.2604      0.5252     -0.6559
     4         C         -0.5134     -0.6531      0.1888
     5         C          1.0768      0.6590     -0.8500
     6         C          0.6695     -1.2375      0.5094
     7         C         -1.3772      1.3075     -1.1173
     8         C         -1.8706     -0.9902      0.5300
     9         C         -2.6281      0.9413     -0.7623
    10         C         -2.8766     -0.2163      0.0676
    11         H          2.2744     -1.1208     -0.9107
    12         H          2.3636      0.6650      1.6183
    13         H          3.3030     -0.8147      1.3658
    14         H          3.6012      0.6109      0.3527
    15         H          1.6003      1.4299     -1.4107
    16         H          0.8389     -2.1145      1.1299
    17         H         -1.1803      2.1818     -1.7454
    18         H         -2.0499     -1.8682      1.1582
    19         H         -3.4966      1.5178     -1.0976
    20         H         -3.9187     -0.4480      0.3115

  H: (PM3): J. J. P. STEWART, J. COMP. CHEM. 10, 209 (1989).
  C: (PM3): J. J. P. STEWART, J. COMP. CHEM. 10, 209 (1989).

           Empirical Formula: C10 H10  =    20 atoms



      MOLECULAR POINT GROUP   :   C1  


      RHF CALCULATION, NO. OF DOUBLY OCCUPIED LEVELS = 25



          HEAT OF FORMATION =      53.665367 KCALS/MOLE


          CARTESIAN COORDINATE DERIVATIVES

   NUMBER  ATOM         X            Y            Z

     1       C     -0.000875    -0.003182     0.002516
     2       C     -0.001246     0.001529    -0.002334
     3       C     -0.008319     0.003248     0.002063
     4       C      0.006999    -0.006293    -0.002008
     5       C     -0.006309     0.002718     0.001596
     6       C      0.010884     0.002064    -0.001087
     7       C     -0.007627     0.004384    -0.002346
     8       C      0.011511     0.000508    -0.004292
     9       C     -0.003775     0.006356    -0.000337
    10       C      0.004266    -0.006289    -0.008024
    11       H     -0.014694     0.002729     0.011177
    12       H     -0.012458    -0.008422     0.022930
    13       H      0.003190    -0.001347    -0.004057
    14       H      0.006142     0.005407    -0.005806
    15       H      0.006024    -0.002638    -0.000031
    16       H      0.004616     0.001835     0.000653
    17       H     -0.007700     0.004844     0.003993
    18       H      0.001962    -0.003738    -0.001383
    19       H      0.000342     0.006693    -0.005196
    20       H      0.007068    -0.010405    -0.008029



          GRADIENT NORM =   0.04998

          MOLECULAR WEIGHT =  130.19



          ROTATIONAL CONSTANTS IN CM(-1)

          A =    0.11133139   B =    0.03416680   C =    0.02744581



           PRINCIPAL MOMENTS OF INERTIA IN UNITS OF 10**(-40)*GRAM-CM**2

          A =      251.4363   B =      819.2969   C =     1019.9279


          ORIENTATION OF MOLECULE IN FORCE CALCULATION

    NO.       ATOM         X         Y         Z

     1          C       1.2329   -1.5721   -0.6747
     2          C       2.7460   -1.5721   -0.6747
     3          C      -0.1732    0.2938   -0.6747
     4          C      -0.1729   -0.2865    0.6778
     5          C       0.6503   -0.4318   -1.4741
     6          C       0.6506   -1.3658    0.7026
     7          C      -0.9801    1.4568   -0.9363
     8          C      -0.9795    0.3253    1.7012
     9          C      -1.7148    1.9865    0.0659
    10          C      -1.7145    1.4164    1.3946
    11          H       0.8433   -2.5339   -1.0874
    12          H       3.1501   -0.6368   -0.2670
    13          H       3.1395   -2.3962   -0.0662
    14          H       3.1396   -1.6875   -1.6926
    15          H       0.8877   -0.2644   -2.5222
    16          H       0.8883   -2.0099    1.5461
    17          H      -0.9749    1.8817   -1.9448
    18          H      -0.9737   -0.1128    2.7040
    19          H      -2.3373    2.8714   -0.1034
    20          H      -2.3368    1.9033    2.1528


    FIRST DERIVATIVES WILL BE USED IN THE CALCULATION OF SECOND DERIVATIVES

          ESTIMATED TIME TO COMPLETE CALCULATION =        1.88 SECONDS

    FOR POINT-GROUP C1   THERE ARE   1 UNIQUE SYMMETRY FUNCTIONS.

 STEP:   1 TIME =     0.02 SECS, INTEGRAL =      0.02 TIME LEFT: 172799.97
 STEP:   2 TIME =     0.02 SECS, INTEGRAL =      0.04 TIME LEFT: 172799.95
 STEP:   3 TIME =     0.02 SECS, INTEGRAL =      0.06 TIME LEFT: 172799.93
 STEP:   4 TIME =     0.02 SECS, INTEGRAL =      0.08 TIME LEFT: 172799.91
 STEP:   5 TIME =     0.02 SECS, INTEGRAL =      0.10 TIME LEFT: 172799.89
 STEP:   6 TIME =     0.02 SECS, INTEGRAL =      0.12 TIME LEFT: 172799.87
 STEP:   7 TIME =     0.02 SECS, INTEGRAL =      0.14 TIME LEFT: 172799.85
 STEP:   8 TIME =     0.02 SECS, INTEGRAL =      0.16 TIME LEFT: 172799.83
 STEP:   9 TIME =     0.02 SECS, INTEGRAL =      0.19 TIME LEFT: 172799.80
 STEP:  10 TIME =     0.02 SECS, INTEGRAL =      0.21 TIME LEFT: 172799.79
 STEP:  11 TIME =     0.02 SECS, INTEGRAL =      0.23 TIME LEFT: 172799.77
 STEP:  12 TIME =     0.02 SECS, INTEGRAL =      0.25 TIME LEFT: 172799.74
 STEP:  13 TIME =     0.02 SECS, INTEGRAL =      0.27 TIME LEFT: 172799.72
 STEP:  14 TIME =     0.02 SECS, INTEGRAL =      0.29 TIME LEFT: 172799.70
 STEP:  15 TIME =     0.02 SECS, INTEGRAL =      0.31 TIME LEFT: 172799.68
 STEP:  16 TIME =     0.02 SECS, INTEGRAL =      0.33 TIME LEFT: 172799.66
 STEP:  17 TIME =     0.02 SECS, INTEGRAL =      0.35 TIME LEFT: 172799.64
 STEP:  18 TIME =     0.02 SECS, INTEGRAL =      0.37 TIME LEFT: 172799.62
 STEP:  19 TIME =     0.02 SECS, INTEGRAL =      0.39 TIME LEFT: 172799.61
 STEP:  20 TIME =     0.02 SECS, INTEGRAL =      0.41 TIME LEFT: 172799.58
 STEP:  21 TIME =     0.02 SECS, INTEGRAL =      0.43 TIME LEFT: 172799.56
 STEP:  22 TIME =     0.02 SECS, INTEGRAL =      0.45 TIME LEFT: 172799.54
 STEP:  23 TIME =     0.02 SECS, INTEGRAL =      0.47 TIME LEFT: 172799.52
 STEP:  24 TIME =     0.02 SECS, INTEGRAL =      0.49 TIME LEFT: 172799.50
 STEP:  25 TIME =     0.02 SECS, INTEGRAL =      0.51 TIME LEFT: 172799.48
 STEP:  26 TIME =     0.02 SECS, INTEGRAL =      0.53 TIME LEFT: 172799.46
 STEP:  27 TIME =     0.02 SECS, INTEGRAL =      0.55 TIME LEFT: 172799.44
 STEP:  28 TIME =     0.02 SECS, INTEGRAL =      0.58 TIME LEFT: 172799.41
 STEP:  29 TIME =     0.02 SECS, INTEGRAL =      0.60 TIME LEFT: 172799.39
 STEP:  30 TIME =     0.02 SECS, INTEGRAL =      0.62 TIME LEFT: 172799.38
 STEP:  31 TIME =     0.02 SECS, INTEGRAL =      0.64 TIME LEFT: 172799.36
 STEP:  32 TIME =     0.02 SECS, INTEGRAL =      0.66 TIME LEFT: 172799.34
 STEP:  33 TIME =     0.02 SECS, INTEGRAL =      0.68 TIME LEFT: 172799.32
 STEP:  34 TIME =     0.02 SECS, INTEGRAL =      0.70 TIME LEFT: 172799.30
 STEP:  35 TIME =     0.02 SECS, INTEGRAL =      0.71 TIME LEFT: 172799.28
 STEP:  36 TIME =     0.02 SECS, INTEGRAL =      0.73 TIME LEFT: 172799.26
 STEP:  37 TIME =     0.02 SECS, INTEGRAL =      0.75 TIME LEFT: 172799.24
 STEP:  38 TIME =     0.02 SECS, INTEGRAL =      0.77 TIME LEFT: 172799.22
 STEP:  39 TIME =     0.02 SECS, INTEGRAL =      0.79 TIME LEFT: 172799.20
 STEP:  40 TIME =     0.02 SECS, INTEGRAL =      0.81 TIME LEFT: 172799.18
 STEP:  41 TIME =     0.02 SECS, INTEGRAL =      0.84 TIME LEFT: 172799.16
 STEP:  42 TIME =     0.02 SECS, INTEGRAL =      0.86 TIME LEFT: 172799.14
 STEP:  43 TIME =     0.02 SECS, INTEGRAL =      0.88 TIME LEFT: 172799.12
 STEP:  44 TIME =     0.02 SECS, INTEGRAL =      0.89 TIME LEFT: 172799.10
 STEP:  45 TIME =     0.02 SECS, INTEGRAL =      0.91 TIME LEFT: 172799.08
 STEP:  46 TIME =     0.02 SECS, INTEGRAL =      0.93 TIME LEFT: 172799.06
 STEP:  47 TIME =     0.02 SECS, INTEGRAL =      0.95 TIME LEFT: 172799.04
 STEP:  48 TIME =     0.02 SECS, INTEGRAL =      0.97 TIME LEFT: 172799.02
 STEP:  49 TIME =     0.02 SECS, INTEGRAL =      0.99 TIME LEFT: 172799.00
 STEP:  50 TIME =     0.02 SECS, INTEGRAL =      1.01 TIME LEFT: 172798.98
 STEP:  51 TIME =     0.02 SECS, INTEGRAL =      1.03 TIME LEFT: 172798.96
 STEP:  52 TIME =     0.02 SECS, INTEGRAL =      1.05 TIME LEFT: 172798.94
 STEP:  53 TIME =     0.02 SECS, INTEGRAL =      1.07 TIME LEFT: 172798.92
 STEP:  54 TIME =     0.02 SECS, INTEGRAL =      1.09 TIME LEFT: 172798.90
 STEP:  55 TIME =     0.02 SECS, INTEGRAL =      1.11 TIME LEFT: 172798.88
 STEP:  56 TIME =     0.02 SECS, INTEGRAL =      1.13 TIME LEFT: 172798.86
 STEP:  57 TIME =     0.02 SECS, INTEGRAL =      1.15 TIME LEFT: 172798.84
 STEP:  58 TIME =     0.02 SECS, INTEGRAL =      1.18 TIME LEFT: 172798.82
 STEP:  59 TIME =     0.02 SECS, INTEGRAL =      1.20 TIME LEFT: 172798.80
 STEP:  60 TIME =     0.02 SECS, INTEGRAL =      1.21 TIME LEFT: 172798.78

(To convert to Hartree/Bohr^2, multiply by (10^(-21) x N x a0^2)/(4.184 x 627.51) =  0.0642)


           FORCE MATRIX IN MILLIDYNES/ANGSTROM


                  C  1       C  2       C  3       C  4       C  5       C  6
 ------------------------------------------------------------------------------
     C    1  14.823735
     C    2   4.322133  14.381100
     C    3   1.290229   0.050892  19.476338
     C    4   1.290920   0.051018   4.948323  19.478753
     C    5   4.115756   0.623175   9.017406   1.466480  17.547809
     C    6   4.119159   0.623575   1.466251   9.015970   1.062787  17.551068
     C    7   0.140359   0.022821   5.868853   0.715078   0.984276   0.154431
     C    8   0.139844   0.022842   0.719479   5.871122   0.154171   0.983413
     C    9   0.073387   0.006931   1.351174   0.384820   0.286495   0.192166
     C   10   0.074497   0.007053   0.387321   1.354744   0.194250   0.289404
     H   11   4.207316   0.439897   0.054210   0.054190   0.377949   0.377843
     H   12   0.458607   4.761247   0.005955   0.005946   0.014379   0.014726
     H   13   0.455654   4.749979   0.007932   0.006032   0.045880   0.018022
     H   14   0.455592   4.751095   0.005930   0.007917   0.018394   0.046037
     H   15   0.400758   0.011027   0.450692   0.089081   5.083589   0.042139
     H   16   0.400535   0.010977   0.089348   0.450753   0.042197   5.084115
     H   17   0.006423   0.000947   0.442841   0.047412   0.012877   0.007255
     H   18   0.006505   0.000953   0.047431   0.442860   0.007185   0.013010
     H   19   0.010242   0.001853   0.122122   0.003829   0.007672   0.001744
     H   20   0.010394   0.001871   0.003833   0.122688   0.001727   0.007674


                  C  7       C  8       C  9       C 10       H 11       H 12
 ------------------------------------------------------------------------------
     C    7  18.151618
     C    8   0.412194  18.152141
     C    9   9.464116   1.304795  17.895855
     C   10   1.305759   9.456736   5.532722  17.881901
     H   11   0.021090   0.021169   0.010018   0.010112   4.687730
     H   12   0.001731   0.001716   0.001276   0.001314   0.046229   5.484145
     H   13   0.003826   0.001187   0.001271   0.001293   0.026693   0.569688
     H   14   0.001119   0.003801   0.001209   0.001229   0.026233   0.569262
     H   15   0.048261   0.006529   0.004615   0.005768   0.011289   0.002358
     H   16   0.006559   0.048380   0.005721   0.004705   0.011360   0.002373
     H   17   4.867988   0.011023   0.442917   0.120922   0.001010   0.000181
     H   18   0.011062   4.868041   0.121090   0.443219   0.001034   0.000179
     H   19   0.438083   0.051014   4.851269   0.434850   0.001641   0.000134
     H   20   0.051056   0.438016   0.434638   4.851352   0.001711   0.000135


                  H 13       H 14       H 15       H 16       H 17       H 18
 ------------------------------------------------------------------------------
     H   13   5.474007
     H   14   0.561440   5.474302
     H   15   0.001562   0.006179   5.484394
     H   16   0.006043   0.001569   0.012616   5.484375
     H   17   0.000206   0.000192   0.005999   0.003465   5.238071
     H   18   0.000192   0.000196   0.003462   0.006044   0.010622   5.237824
     H   19   0.000332   0.000082   0.003038   0.000663   0.060963   0.007297
     H   20   0.000084   0.000332   0.000679   0.003104   0.007223   0.061464


                  H 19       H 20
 ------------------------------
     H   19   5.212604
     H   20   0.033157   5.213110


          HEAT OF FORMATION =      53.665367 KCALS/MOLE

          ZERO POINT ENERGY     105.357 KCAL/MOL


           NORMAL COORDINATE ANALYSIS (Total motion = 1 Angstrom)


   Root No.       1         2         3         4         5         6         7         8

                 1 A       2 A       3 A       4 A       5 A       6 A       7 A       8 A   

                 108.3     153.2     173.6     216.5     297.9     430.0     436.3     475.9
  
           1    0.0002   -0.0000    0.0002   -0.0230   -0.0001   -0.0188    0.0002   -0.0011
           2   -0.0096    0.0022    0.0066   -0.0220    0.0043   -0.0082    0.0149    0.0082
           3   -0.0041   -0.0048   -0.0150   -0.0095   -0.0103   -0.0039   -0.0343   -0.0195
           4    0.0019   -0.0000    0.0002   -0.0220   -0.0001   -0.0225    0.0002   -0.0014
           5    0.0722   -0.0086   -0.0144    0.0280   -0.0215    0.0080   -0.0045   -0.0044
           6    0.0312    0.0168    0.0335    0.0122    0.0510    0.0036    0.0104    0.0115
           7   -0.0211    0.0004    0.0026    0.0337   -0.0155    0.0526   -0.0223    0.0082
           8   -0.0254    0.0028    0.0091    0.0200   -0.0003    0.0379   -0.0177    0.0076
           9   -0.0109   -0.0022   -0.0058    0.0084   -0.0315    0.0162    0.0362    0.0225
          10   -0.0212    0.0004   -0.0032    0.0337    0.0155    0.0533    0.0214   -0.0081
          11   -0.0255    0.0005   -0.0025    0.0197    0.0230    0.0379   -0.0146   -0.0216
          12   -0.0108   -0.0031   -0.0108    0.0086   -0.0215    0.0170    0.0374    0.0100
          13   -0.0220    0.0102    0.0209   -0.0183   -0.0261    0.0017   -0.0206   -0.0297
          14   -0.0255    0.0112    0.0261   -0.0189   -0.0181    0.0024    0.0237   -0.0010
          15   -0.0112    0.0003   -0.0034   -0.0090   -0.0309   -0.0018    0.0052   -0.0071
          16   -0.0225   -0.0095   -0.0208   -0.0188    0.0260    0.0017    0.0205    0.0307
          17   -0.0261   -0.0071   -0.0154   -0.0200    0.0347   -0.0002   -0.0201    0.0069
          18   -0.0109   -0.0076   -0.0212   -0.0078   -0.0082    0.0026   -0.0137   -0.0034
          19    0.0001   -0.0175   -0.0266    0.0340   -0.0099   -0.0349   -0.0060    0.0274
          20   -0.0092   -0.0104   -0.0104    0.0198    0.0144   -0.0323   -0.0200    0.0158
          21   -0.0042   -0.0059   -0.0043    0.0079    0.0036   -0.0172   -0.0036    0.0087
          22    0.0006    0.0176    0.0262    0.0345    0.0101   -0.0343    0.0064   -0.0269
          23   -0.0089    0.0119    0.0101    0.0196   -0.0124   -0.0341    0.0168   -0.0182
          24   -0.0036    0.0036    0.0044    0.0090   -0.0078   -0.0110    0.0122   -0.0049
          25    0.0364   -0.0145   -0.0218   -0.0210    0.0109    0.0216    0.0171   -0.0291
          26    0.0183   -0.0098   -0.0151   -0.0231    0.0082    0.0072    0.0248   -0.0161
          27    0.0078   -0.0040    0.0019   -0.0100    0.0241    0.0026   -0.0150   -0.0181
          28    0.0370    0.0131    0.0222   -0.0208   -0.0107    0.0212   -0.0173    0.0299
          29    0.0188    0.0089    0.0094   -0.0231   -0.0232    0.0066   -0.0062    0.0231
          30    0.0080    0.0040    0.0124   -0.0098    0.0107    0.0028   -0.0283   -0.0013
          31    0.0557   -0.0010    0.0003    0.0032    0.0002   -0.0251    0.0003   -0.0018
          32   -0.0274    0.0108    0.0192   -0.0293   -0.0040   -0.0049    0.0302    0.0055
          33   -0.0122   -0.0240   -0.0445   -0.0130    0.0089   -0.0030   -0.0703   -0.0124
          34   -0.0596    0.0008    0.0002   -0.0627   -0.0006   -0.0427    0.0002   -0.0024
          35    0.0927   -0.0938    0.0212    0.0437   -0.0351    0.0157   -0.0114   -0.0114
          36    0.0457    0.2116   -0.0483    0.0174    0.0827    0.0070    0.0262    0.0287
          37    0.0331   -0.0140   -0.0341   -0.0019   -0.0510   -0.0141   -0.0427   -0.0354
          38    0.0911   -0.1341    0.0420    0.0434   -0.0361    0.0150   -0.0101   -0.0110
          39    0.0363   -0.1440    0.1325    0.0197    0.0658    0.0071    0.0318    0.0259
          40    0.0323    0.0132    0.0343   -0.0021    0.0512   -0.0135    0.0430    0.0334
          41    0.0996    0.1938   -0.1252    0.0413   -0.0221    0.0153   -0.0162   -0.0096
          42    0.0399   -0.0010    0.0595    0.0185    0.0718    0.0065    0.0290    0.0264
          43   -0.0253    0.0177    0.0367   -0.0495   -0.0539   -0.0453   -0.0539   -0.0857
          44   -0.0277    0.0180    0.0431   -0.0434   -0.0505   -0.0351    0.0638   -0.0086
          45   -0.0123    0.0030    0.0030   -0.0199   -0.0422   -0.0183    0.0041   -0.0209
          46   -0.0262   -0.0171   -0.0363   -0.0505    0.0539   -0.0455    0.0544    0.0900
          47   -0.0288   -0.0138   -0.0316   -0.0455    0.0655   -0.0392   -0.0465    0.0243
          48   -0.0119   -0.0106   -0.0290   -0.0183    0.0075   -0.0140   -0.0433   -0.0066
          49   -0.0073   -0.0353   -0.0563    0.0629   -0.0154   -0.1549    0.0174    0.0577
          50   -0.0150   -0.0221   -0.0233    0.0416    0.0418   -0.1252   -0.0514    0.0165
          51   -0.0067   -0.0109   -0.0099    0.0172    0.0151   -0.0568   -0.0167    0.0092
          52   -0.0062    0.0360    0.0558    0.0638    0.0154   -0.1551   -0.0154   -0.0572
          53   -0.0142    0.0241    0.0230    0.0418   -0.0400   -0.1269    0.0491   -0.0191
          54   -0.0059    0.0088    0.0098    0.0185   -0.0199   -0.0509    0.0264   -0.0051
          55    0.0628   -0.0315   -0.0498   -0.0531    0.0368    0.0021    0.0706   -0.1051
          56    0.0385   -0.0225   -0.0351   -0.0476    0.0314   -0.0074    0.0627   -0.0753
          57    0.0165   -0.0080   -0.0003   -0.0201    0.0490   -0.0018   -0.0108   -0.0472
          58    0.0644    0.0293    0.0510   -0.0527   -0.0370   -0.0006   -0.0707    0.1062
          59    0.0399    0.0200    0.0255   -0.0473   -0.0575   -0.0083   -0.0354    0.0858
          60    0.0169    0.0102    0.0257   -0.0204    0.0108   -0.0056   -0.0528    0.0213


   Root No.       9        10        11        12        13        14        15        16

                 9 A      10 A      11 A      12 A      13 A      14 A      15 A      16 A   

                 480.5     564.5     582.7     701.9     719.0     763.4     827.2     876.5
  
           1    0.0425    0.0117   -0.0001    0.0000   -0.0054   -0.0005    0.0000    0.0000
           2    0.0018    0.0499   -0.0149   -0.0002    0.0555   -0.0181   -0.0012    0.0012
           3    0.0002    0.0215    0.0339    0.0004    0.0238   -0.0078    0.0030   -0.0032
           4    0.0559    0.0131   -0.0001    0.0001   -0.0270    0.0012    0.0000   -0.0000
           5   -0.0171   -0.0031   -0.0024   -0.0001    0.0104   -0.0033   -0.0004   -0.0002
           6   -0.0070   -0.0013    0.0055    0.0002    0.0045   -0.0014    0.0010    0.0001
           7    0.0097   -0.0139   -0.0293    0.0575    0.0141    0.0092   -0.0021    0.0283
           8    0.0078    0.0169    0.0333    0.0442   -0.0170    0.0121   -0.0001   -0.0109
           9    0.0055    0.0038    0.0101    0.0191   -0.0040    0.0043   -0.0019    0.0005
          10    0.0094   -0.0136    0.0293   -0.0573    0.0140    0.0097    0.0025   -0.0286
          11    0.0083    0.0143   -0.0305   -0.0440   -0.0146    0.0117    0.0017    0.0071
          12    0.0024    0.0095   -0.0173   -0.0187   -0.0096    0.0059   -0.0012    0.0081
          13   -0.0248   -0.0326   -0.0189    0.0032    0.0037    0.0082    0.0197    0.0151
          14   -0.0297    0.0076    0.0055    0.0026    0.0127    0.0010    0.0141   -0.0122
          15   -0.0043    0.0018    0.0469    0.0011   -0.0325    0.0106    0.0103   -0.0357
          16   -0.0230   -0.0324    0.0193   -0.0036    0.0039    0.0086   -0.0199   -0.0143
          17   -0.0231    0.0063   -0.0378   -0.0025   -0.0146    0.0085   -0.0173    0.0349
          18   -0.0186    0.0045    0.0283   -0.0014    0.0317   -0.0064   -0.0031   -0.0158
          19   -0.0127    0.0085   -0.0379   -0.0068    0.0062   -0.0216   -0.0148   -0.0121
          20    0.0044    0.0120    0.0536   -0.0050   -0.0299   -0.0080   -0.0108   -0.0259
          21    0.0231   -0.0489   -0.0106   -0.0022    0.0297   -0.0124   -0.0084    0.0505
          22   -0.0142    0.0088    0.0377    0.0066    0.0061   -0.0219    0.0145    0.0120
          23    0.0187   -0.0274   -0.0290    0.0047    0.0007   -0.0148    0.0133   -0.0189
          24   -0.0131    0.0420   -0.0466    0.0022   -0.0423    0.0024    0.0016    0.0534
          25   -0.0201    0.0276   -0.0382    0.0180   -0.0058   -0.0139   -0.0127   -0.0470
          26    0.0228   -0.0304    0.0547    0.0142   -0.0012   -0.0098   -0.0158    0.0498
          27    0.0107   -0.0168   -0.0106    0.0058    0.0041   -0.0052   -0.0038   -0.0176
          28   -0.0185    0.0280    0.0380   -0.0178   -0.0061   -0.0147    0.0122    0.0469
          29    0.0246   -0.0333   -0.0297   -0.0142    0.0019   -0.0109    0.0134   -0.0215
          30    0.0091   -0.0107   -0.0469   -0.0063   -0.0037   -0.0035    0.0087   -0.0484
          31    0.0770    0.0112   -0.0001    0.0002   -0.0431   -0.0069    0.0002   -0.0011
          32   -0.0115    0.0480   -0.0095   -0.0017    0.0665   -0.0154    0.0224   -0.0359
          33   -0.0052    0.0208    0.0214    0.0036    0.0290   -0.0063   -0.0521    0.0844
          34    0.0878    0.0840   -0.0003    0.0002    0.0445   -0.0373    0.0004   -0.0015
          35   -0.0299   -0.0301    0.0037    0.0002   -0.0166    0.0113    0.0046    0.0001
          36   -0.0119   -0.0128   -0.0082   -0.0005   -0.0070    0.0049   -0.0110    0.0009
          37    0.0425   -0.0218    0.0285    0.0016   -0.0693    0.0207    0.0206    0.0040
          38   -0.0285   -0.0295    0.0038   -0.0003   -0.0187    0.0114    0.0034    0.0003
          39   -0.0126   -0.0134   -0.0049   -0.0010   -0.0072    0.0053   -0.0082   -0.0021
          40    0.0446   -0.0212   -0.0284   -0.0014   -0.0683    0.0206   -0.0209   -0.0026
          41   -0.0294   -0.0299    0.0012    0.0009   -0.0180    0.0115    0.0034    0.0021
          42   -0.0105   -0.0122   -0.0060   -0.0004   -0.0086    0.0048   -0.0081   -0.0013
          43   -0.1064   -0.1016   -0.0022   -0.1421   -0.0512   -0.0263   -0.1082    0.0525
          44   -0.0847   -0.0363   -0.0120   -0.1071   -0.0459   -0.0230   -0.0886   -0.0085
          45   -0.0317   -0.0206    0.0482   -0.0493   -0.0542   -0.0010   -0.0350   -0.0277
          46   -0.1019   -0.1023    0.0034    0.1416   -0.0518   -0.0284    0.1081   -0.0564
          47   -0.0803   -0.0407   -0.0260    0.1099   -0.0714   -0.0187    0.0870    0.0233
          48   -0.0400   -0.0120    0.0421    0.0437    0.0040   -0.0168    0.0406   -0.0141
          49   -0.0249    0.0210   -0.0318   -0.1246    0.0510    0.0872    0.1168    0.0753
          50   -0.0019    0.0190    0.0463   -0.0952   -0.0099    0.0793    0.0954   -0.0247
          51    0.0201   -0.0454   -0.0135   -0.0407    0.0384    0.0247    0.0369    0.0522
          52   -0.0279    0.0208    0.0313    0.1247    0.0523    0.0895   -0.1141   -0.0731
          53    0.0120   -0.0204   -0.0219    0.0955    0.0221    0.0747   -0.0914   -0.0193
          54   -0.0156    0.0445   -0.0433    0.0412   -0.0334    0.0409   -0.0433    0.0545
          55   -0.0222    0.0239   -0.0579    0.0289    0.0453    0.1524    0.0609    0.0040
          56    0.0189   -0.0266    0.0532    0.0226    0.0307    0.1192    0.0402    0.0918
          57   -0.0031    0.0178    0.0539    0.0098   -0.0130    0.0571    0.0191    0.0098
          58   -0.0165    0.0243    0.0577   -0.0278    0.0459    0.1540   -0.0569   -0.0033
          59    0.0152   -0.0058   -0.0757   -0.0219    0.0123    0.1253   -0.0390   -0.0699
          60    0.0170   -0.0315   -0.0012   -0.0096    0.0314    0.0477   -0.0143   -0.0595


   Root No.      17        18        19        20        21        22        23        24

                17 A      18 A      19 A      20 A      21 A      22 A      23 A      24 A   

                 891.5     897.1     907.8     965.5     968.4     973.3    1004.5    1022.9
  
           1   -0.0026    0.0002   -0.0004    0.0031   -0.0001   -0.0033    0.0000   -0.0043
           2    0.0094   -0.0017    0.0113   -0.0001    0.0047   -0.0012    0.0001   -0.0295
           3    0.0042    0.0020    0.0049   -0.0004   -0.0109   -0.0006   -0.0005   -0.0136
           4    0.0064   -0.0004   -0.0102   -0.0226    0.0008    0.0121   -0.0001   -0.0068
           5    0.0096   -0.0026    0.0077    0.0210    0.0185   -0.0068   -0.0016    0.0090
           6    0.0044    0.0038    0.0033    0.0077   -0.0450   -0.0033    0.0037    0.0098
           7    0.0109   -0.0248    0.0103   -0.0022    0.0013    0.0110   -0.0087    0.0054
           8    0.0074   -0.0270    0.0023    0.0021   -0.0033    0.0064   -0.0079   -0.0021
           9    0.0070   -0.0127   -0.0320    0.0083   -0.0048   -0.0009   -0.0050   -0.0050
          10    0.0143    0.0228    0.0104   -0.0022   -0.0014    0.0113    0.0085   -0.0051
          11    0.0144    0.0260   -0.0214    0.0079    0.0052    0.0040    0.0089   -0.0098
          12    0.0022    0.0104    0.0239   -0.0043   -0.0007    0.0053    0.0022   -0.0028
          13   -0.0291    0.0289    0.0153    0.0103    0.0107   -0.0118    0.0008    0.0043
          14   -0.0156    0.0136   -0.0131   -0.0175   -0.0174    0.0046   -0.0036    0.0155
          15   -0.0105    0.0023   -0.0285    0.0367    0.0184   -0.0212    0.0023   -0.0168
          16   -0.0331   -0.0242    0.0150    0.0097   -0.0111   -0.0120   -0.0005    0.0165
          17   -0.0193   -0.0080   -0.0297    0.0145   -0.0022   -0.0123    0.0010    0.0094
          18   -0.0053   -0.0075    0.0100   -0.0364    0.0275    0.0182    0.0045    0.0341
          19    0.0044    0.0130   -0.0144   -0.0086   -0.0006   -0.0271    0.0271   -0.0048
          20   -0.0050    0.0058    0.0282   -0.0123    0.0005   -0.0182    0.0193    0.0015
          21    0.0063    0.0163   -0.0205   -0.0009    0.0022   -0.0097    0.0109   -0.0016
          22    0.0025   -0.0134   -0.0145   -0.0088    0.0017   -0.0277   -0.0263    0.0020
          23   -0.0015   -0.0158    0.0044   -0.0094   -0.0009   -0.0200   -0.0206    0.0044
          24   -0.0062    0.0079    0.0348   -0.0082    0.0019   -0.0067   -0.0063    0.0085
          25   -0.0058    0.0079   -0.0062    0.0071   -0.0023    0.0178   -0.0355    0.0028
          26   -0.0051    0.0244    0.0061    0.0076    0.0052    0.0125   -0.0250    0.0023
          27   -0.0023    0.0022    0.0017    0.0020    0.0002    0.0060   -0.0117    0.0013
          28   -0.0065   -0.0068   -0.0061    0.0075    0.0015    0.0185    0.0349   -0.0029
          29   -0.0083   -0.0174    0.0053    0.0066   -0.0044    0.0135    0.0253   -0.0038
          30   -0.0051   -0.0157    0.0031    0.0040   -0.0041    0.0052    0.0098   -0.0033
          31    0.0692   -0.0054    0.0176    0.0748   -0.0033   -0.0122    0.0010    0.1825
          32   -0.0136    0.0306    0.0040   -0.0256    0.0381    0.0033    0.0477   -0.0448
          33   -0.0112   -0.0678    0.0015   -0.0152   -0.0855    0.0007   -0.1124   -0.1509
          34    0.1020   -0.0080    0.0407    0.1047   -0.0055   -0.0233    0.0003    0.0923
          35   -0.0265    0.0093   -0.0117   -0.0293   -0.0251    0.0066    0.0043   -0.0227
          36   -0.0127   -0.0157   -0.0051   -0.0108    0.0615    0.0033   -0.0103   -0.0224
          37   -0.0343    0.0413   -0.0392   -0.1062   -0.2217    0.0375    0.0229   -0.0228
          38   -0.0252    0.0071   -0.0133   -0.0346   -0.0181    0.0100    0.0025   -0.0232
          39   -0.0141   -0.0121   -0.0056   -0.0115    0.0559    0.0030   -0.0069   -0.0215
          40   -0.0385   -0.0352   -0.0390   -0.0939    0.2298    0.0402   -0.0234   -0.0772
          41   -0.0267    0.0082   -0.0130   -0.0332   -0.0252    0.0086    0.0030   -0.0247
          42   -0.0104   -0.0118   -0.0060   -0.0147    0.0524    0.0059   -0.0066   -0.0164
          43    0.1245   -0.0826    0.1003    0.0209    0.0373    0.0202    0.0080   -0.0745
          44    0.1119   -0.0887   -0.0953   -0.0705   -0.0788    0.0643   -0.0227    0.0710
          45    0.0447   -0.0397   -0.0246    0.0316    0.0142   -0.0050    0.0006   -0.0266
          46    0.1329    0.0616    0.1013    0.0190   -0.0395    0.0195   -0.0100   -0.1295
          47    0.1211    0.0727   -0.0824   -0.0231    0.0450    0.0415    0.0150    0.0306
          48    0.0548    0.0296   -0.0518   -0.0691    0.0711    0.0511    0.0175    0.0918
          49   -0.0106   -0.0450   -0.0702    0.0684   -0.0065    0.1116   -0.0978   -0.0124
          50   -0.0316   -0.0501    0.0863    0.0192    0.0044    0.1009   -0.0757    0.0278
          51   -0.0048   -0.0073    0.0026    0.0130    0.0039    0.0410   -0.0296    0.0093
          52   -0.0038    0.0457   -0.0704    0.0692   -0.0005    0.1133    0.0939   -0.0375
          53   -0.0186    0.0428    0.0615    0.0229   -0.0090    0.1011    0.0719    0.0065
          54   -0.0138    0.0334    0.0612    0.0052   -0.0015    0.0455    0.0336    0.0100
          55    0.0513   -0.0984   -0.0155   -0.0385   -0.0104   -0.0857    0.1248   -0.0139
          56    0.0366   -0.0564    0.0099   -0.0298    0.0011   -0.0654    0.0974   -0.0070
          57    0.0080   -0.0312    0.0445   -0.0247    0.0070   -0.0220    0.0389    0.0118
          58    0.0660    0.0885   -0.0152   -0.0383    0.0146   -0.0881   -0.1214    0.0085
          59    0.0397    0.0553    0.0390   -0.0392   -0.0019   -0.0634   -0.0931    0.0232
          60    0.0231    0.0155   -0.0236   -0.0045    0.0048   -0.0328   -0.0425   -0.0110


   Root No.      25        26        27        28        29        30        31        32

                25 A      26 A      27 A      28 A      29 A      30 A      31 A      32 A   

                1023.6    1067.3    1112.0    1118.2    1149.0    1149.2    1165.5    1194.7
  
           1   -0.0019    0.0020    0.0415   -0.0000    0.0006    0.0043    0.0473   -0.0001
           2   -0.0141    0.0028    0.0424    0.0019   -0.0021    0.0017    0.0096    0.0085
           3   -0.0036    0.0012    0.0181   -0.0045    0.0052   -0.0009    0.0041   -0.0199
           4   -0.0030    0.0000   -0.0503    0.0000   -0.0004   -0.0027   -0.0259    0.0000
           5    0.0106    0.0014   -0.0438   -0.0004    0.0016   -0.0001    0.0035   -0.0024
           6   -0.0108    0.0006   -0.0189    0.0011   -0.0036    0.0011    0.0016    0.0055
           7   -0.0131   -0.0016    0.0000    0.0044    0.0144   -0.0016    0.0115    0.0031
           8   -0.0107    0.0011    0.0032   -0.0080   -0.0155   -0.0009   -0.0097   -0.0154
           9   -0.0022    0.0044    0.0024    0.0055   -0.0048    0.0068   -0.0041    0.0249
          10    0.0132   -0.0016   -0.0000   -0.0044   -0.0136    0.0057    0.0113   -0.0032
          11    0.0025    0.0039    0.0041    0.0015    0.0145   -0.0032   -0.0095   -0.0074
          12    0.0058   -0.0023    0.0007    0.0096    0.0048   -0.0085   -0.0041    0.0284
          13    0.0199   -0.0044   -0.0066    0.0055    0.0153   -0.0016    0.0102   -0.0008
          14    0.0300   -0.0054   -0.0017   -0.0049   -0.0249    0.0037   -0.0312    0.0058
          15   -0.0071    0.0176    0.0028   -0.0065    0.0040   -0.0050    0.0053   -0.0078
          16   -0.0107   -0.0043   -0.0067   -0.0055   -0.0144    0.0061    0.0100    0.0008
          17   -0.0119    0.0091    0.0008    0.0081    0.0123   -0.0080   -0.0174    0.0017
          18   -0.0021   -0.0160   -0.0031   -0.0009    0.0216   -0.0050   -0.0260   -0.0095
          19    0.0076    0.0007    0.0008    0.0044    0.0026   -0.0035   -0.0022    0.0068
          20    0.0118   -0.0126   -0.0029    0.0038   -0.0019    0.0038    0.0089   -0.0043
          21   -0.0024    0.0265    0.0038   -0.0219   -0.0040    0.0023   -0.0133   -0.0105
          22   -0.0087    0.0008    0.0008   -0.0043   -0.0039   -0.0019   -0.0022   -0.0068
          23   -0.0044    0.0106    0.0007    0.0133    0.0056    0.0017   -0.0034    0.0106
          24   -0.0055   -0.0274   -0.0048   -0.0179   -0.0009    0.0017    0.0157   -0.0042
          25   -0.0068    0.0196    0.0022   -0.0004   -0.0032   -0.0014   -0.0077    0.0036
          26   -0.0096   -0.0373   -0.0036   -0.0011    0.0067   -0.0017    0.0132    0.0011
          27   -0.0019    0.0275    0.0021    0.0037   -0.0058    0.0081   -0.0073   -0.0136
          28    0.0067    0.0196    0.0022    0.0003    0.0023   -0.0027   -0.0077   -0.0036
          29    0.0074   -0.0057   -0.0009   -0.0019    0.0016    0.0045    0.0039    0.0091
          30    0.0045   -0.0459   -0.0041    0.0035   -0.0110   -0.0016    0.0144   -0.0102
          31    0.0801   -0.0382    0.3450   -0.0003   -0.0015   -0.0085   -0.1032    0.0002
          32   -0.1618    0.0160   -0.0617    0.0040    0.0250   -0.0010    0.0592   -0.0155
          33    0.2649    0.0069   -0.0257   -0.0090   -0.0560    0.0170    0.0250    0.0359
          34    0.0408   -0.0003   -0.2749    0.0002   -0.0007   -0.0052   -0.0578    0.0003
          35   -0.0240    0.0016    0.0390    0.0012    0.0001    0.0012    0.0142    0.0027
          36    0.0223    0.0006    0.0172   -0.0027    0.0002    0.0005    0.0061   -0.0064
          37   -0.0934   -0.0037    0.0232    0.0064   -0.0127   -0.0033   -0.0685    0.0235
          38   -0.0189    0.0003    0.0266    0.0005   -0.0010   -0.0005   -0.0073    0.0014
          39    0.0127    0.0011    0.0260   -0.0023    0.0009    0.0006    0.0100   -0.0056
          40    0.0488   -0.0040    0.0220   -0.0064    0.0108   -0.0096   -0.0689   -0.0234
          41   -0.0212    0.0010    0.0371    0.0013    0.0001    0.0001    0.0025    0.0030
          42    0.0141   -0.0005    0.0016   -0.0019    0.0010   -0.0014   -0.0123   -0.0048
          43   -0.1138   -0.0186    0.0373    0.0075   -0.1203    0.0333   -0.0878    0.0715
          44    0.0554    0.0217   -0.0173   -0.0061    0.1617   -0.0399    0.1437   -0.0926
          45   -0.0329    0.0201    0.0104   -0.0069    0.0036   -0.0045    0.0116   -0.0080
          46    0.0239   -0.0186    0.0378   -0.0074    0.1220   -0.0301   -0.0866   -0.0712
          47    0.0120    0.0293   -0.0049    0.0091   -0.1154    0.0294    0.1059    0.0692
          48    0.0076    0.0017   -0.0203   -0.0004   -0.1136    0.0340    0.0948    0.0612
          49   -0.0414   -0.1366   -0.0020    0.1141   -0.0511    0.1035   -0.0202   -0.1062
          50   -0.0111    0.1406    0.0025   -0.1186    0.0583   -0.1162    0.0291    0.1207
          51   -0.0125    0.0942    0.0065   -0.0737    0.0214   -0.0466   -0.0066    0.0421
          52    0.0188   -0.1376   -0.0020   -0.1145    0.0908    0.0671   -0.0189    0.1061
          53    0.0305    0.1647    0.0065    0.1346   -0.0987   -0.0738    0.0139   -0.1131
          54    0.0095    0.0367   -0.0027    0.0349   -0.0472   -0.0327    0.0250   -0.0583
          55    0.0257   -0.0046    0.0025   -0.0709   -0.0438   -0.0714   -0.0101   -0.0271
          56    0.0182   -0.0408   -0.0041   -0.0078    0.0044   -0.0066    0.0143   -0.0010
          57    0.0235    0.1084    0.0008    0.2338    0.1232    0.2327   -0.0037    0.0850
          58   -0.0275   -0.0048    0.0027    0.0714    0.0081   -0.0854   -0.0096    0.0275
          59   -0.0175    0.0502   -0.0027   -0.1640   -0.0110    0.1902    0.0063   -0.0614
          60   -0.0073   -0.1040   -0.0031    0.1671    0.0010   -0.1864    0.0137    0.0597


   Root No.      33        34        35        36        37        38        39        40

                33 A      34 A      35 A      36 A      37 A      38 A      39 A      40 A   

                1323.4    1353.0    1392.6    1397.3    1400.7    1406.3    1420.4    1559.3
  
           1    0.0004    0.0481   -0.0001   -0.0110   -0.0179   -0.0001    0.0644    0.0263
           2   -0.0503   -0.0322   -0.0112    0.0019    0.0027    0.0023   -0.0293   -0.0169
           3    0.1168   -0.0142    0.0261    0.0006    0.0008   -0.0050   -0.0127   -0.0073
           4    0.0001    0.0204    0.0004    0.0160    0.0354   -0.0002   -0.0574   -0.0077
           5    0.0090    0.0063    0.0021   -0.0374    0.0035    0.0163    0.0024    0.0009
           6   -0.0210    0.0028   -0.0051   -0.0163    0.0013   -0.0372    0.0009    0.0004
           7   -0.0050   -0.0074    0.0133    0.0007    0.0029    0.0007   -0.0030   -0.0010
           8    0.0065    0.0092   -0.0391   -0.0020   -0.0127   -0.0012   -0.0056    0.0589
           9    0.0023    0.0027    0.0504    0.0020    0.0201    0.0004    0.0243   -0.1332
          10    0.0049   -0.0075   -0.0131    0.0008    0.0030   -0.0008   -0.0029   -0.0010
          11   -0.0061    0.0083   -0.0094    0.0002    0.0059    0.0003    0.0138   -0.0559
          12   -0.0031    0.0049    0.0622   -0.0030   -0.0240    0.0019   -0.0210    0.1345
          13   -0.0249   -0.0125    0.0231   -0.0000   -0.0068    0.0019   -0.0175   -0.0307
          14    0.0469    0.0187   -0.0128    0.0004    0.0095   -0.0026    0.0220    0.0225
          15   -0.0383   -0.0137   -0.0413    0.0009    0.0029    0.0010   -0.0094    0.0355
          16    0.0247   -0.0126   -0.0235   -0.0000   -0.0064   -0.0016   -0.0175   -0.0307
          17   -0.0045    0.0031    0.0391    0.0008    0.0080    0.0008    0.0082    0.0412
          18   -0.0602    0.0233   -0.0190   -0.0001    0.0053    0.0022    0.0226   -0.0082
          19    0.0110   -0.0073   -0.0260    0.0032    0.0200   -0.0011    0.0088    0.0275
          20   -0.0171    0.0064    0.0476   -0.0035   -0.0215    0.0018   -0.0093   -0.0455
          21    0.0064    0.0075   -0.0316   -0.0018   -0.0111   -0.0008   -0.0040    0.0228
          22   -0.0110   -0.0072    0.0266    0.0031    0.0196    0.0006    0.0087    0.0274
          23    0.0072    0.0098   -0.0106   -0.0037   -0.0228   -0.0000   -0.0093   -0.0148
          24    0.0168   -0.0006   -0.0565   -0.0011   -0.0071   -0.0017   -0.0038   -0.0486
          25    0.0065    0.0062   -0.0106   -0.0014   -0.0078   -0.0004   -0.0013   -0.0003
          26   -0.0022   -0.0140    0.0013    0.0044    0.0265   -0.0002    0.0101    0.0177
          27   -0.0147    0.0137    0.0292   -0.0059   -0.0382    0.0017   -0.0197   -0.0403
          28   -0.0065    0.0062    0.0104   -0.0014   -0.0079    0.0006   -0.0013   -0.0003
          29    0.0121    0.0002   -0.0224   -0.0012   -0.0091   -0.0008   -0.0072   -0.0171
          30   -0.0086   -0.0195    0.0207    0.0072    0.0452    0.0000    0.0208    0.0405
          31   -0.0005   -0.0604    0.0000    0.0090    0.0177   -0.0001   -0.0596   -0.0239
          32    0.0449    0.0038    0.0218   -0.0057   -0.0088    0.0023    0.0121    0.0004
          33   -0.1044    0.0019   -0.0510   -0.0022   -0.0033   -0.0050    0.0053    0.0002
          34   -0.0013   -0.1145   -0.0011    0.1092   -0.1052    0.0006    0.1290    0.0071
          35   -0.0172    0.0452    0.0021   -0.0497    0.0427   -0.1635   -0.0542   -0.0037
          36    0.0404    0.0198   -0.0037   -0.0205    0.0215    0.3747   -0.0222   -0.0017
          37   -0.0802   -0.1536   -0.0237   -0.1003   -0.0713    0.1367    0.0803   -0.0019
          38    0.0016   -0.0492   -0.0046    0.1650   -0.0518    0.1720    0.0501    0.0017
          39    0.0273    0.0243    0.0006    0.3059   -0.0145    0.1264   -0.0071   -0.0009
          40    0.0785   -0.1543    0.0219   -0.1019   -0.0737   -0.1348    0.0798   -0.0018
          41   -0.0201   -0.0157    0.0028    0.3357   -0.0486   -0.2107    0.0275    0.0005
          42    0.0165   -0.0528    0.0030   -0.0879   -0.0287   -0.0391    0.0413    0.0018
          43    0.0030    0.0397    0.0101   -0.0008    0.0151   -0.0008    0.0466   -0.0256
          44    0.0173   -0.0388    0.0081   -0.0010   -0.0244   -0.0008   -0.0501    0.0192
          45   -0.0359   -0.0129   -0.0449    0.0005    0.0038    0.0005   -0.0068    0.0395
          46   -0.0025    0.0397   -0.0093   -0.0008    0.0153   -0.0000    0.0467   -0.0256
          47    0.0137   -0.0361    0.0263   -0.0004   -0.0145    0.0010   -0.0396    0.0419
          48   -0.0377   -0.0190   -0.0377   -0.0008   -0.0196    0.0017   -0.0314   -0.0133
          49   -0.0269    0.0247    0.0145   -0.0096   -0.0635    0.0017   -0.0338    0.0108
          50    0.0246   -0.0295    0.0038    0.0109    0.0717   -0.0014    0.0370   -0.0272
          51    0.0252   -0.0065   -0.0546    0.0040    0.0270   -0.0023    0.0156    0.0316
          52    0.0271    0.0246   -0.0169   -0.0096   -0.0633    0.0001   -0.0338    0.0108
          53   -0.0352   -0.0248    0.0391    0.0103    0.0683    0.0007    0.0366    0.0039
          54   -0.0005   -0.0170   -0.0394    0.0053    0.0339   -0.0015    0.0162   -0.0415
          55   -0.0174    0.0199    0.0318   -0.0064   -0.0387    0.0015   -0.0150   -0.0317
          56   -0.0047   -0.0147    0.0060    0.0045    0.0274    0.0000    0.0100    0.0167
          57    0.0641   -0.0265   -0.1114    0.0090    0.0549   -0.0046    0.0216    0.0578
          58    0.0177    0.0198   -0.0333   -0.0063   -0.0383   -0.0005   -0.0149   -0.0317
          59   -0.0434   -0.0291    0.0785    0.0094    0.0575    0.0018    0.0222    0.0533
          60    0.0477    0.0073   -0.0819   -0.0027   -0.0168   -0.0027   -0.0074   -0.0278


   Root No.      41        42        43        44        45        46        47        48

                41 A      42 A      43 A      44 A      45 A      46 A      47 A      48 A   

                1762.3    1792.0    1800.9    1881.6    2885.3    3052.2    3058.5    3073.0
  
           1    0.0075   -0.0000    0.0021   -0.0000   -0.0237    0.0000   -0.0000    0.0000
           2   -0.0064    0.0006   -0.0005    0.0007   -0.0613   -0.0000    0.0000   -0.0000
           3   -0.0027   -0.0013   -0.0001   -0.0015   -0.0263    0.0000    0.0000    0.0000
           4   -0.0026   -0.0000   -0.0039   -0.0000   -0.0007    0.0000    0.0000    0.0000
           5    0.0006    0.0005    0.0011   -0.0005    0.0019    0.0000    0.0000    0.0000
           6    0.0003   -0.0011    0.0005    0.0013    0.0008   -0.0000    0.0000   -0.0000
           7   -0.0316   -0.0401   -0.0854    0.0834   -0.0009   -0.0001    0.0001    0.0004
           8    0.0398    0.0381    0.0967   -0.0888    0.0008    0.0001   -0.0002   -0.0005
           9    0.0034    0.0324    0.0335   -0.0455    0.0002    0.0002   -0.0000    0.0001
          10   -0.0311    0.0389   -0.0865   -0.0833   -0.0009    0.0001    0.0001   -0.0004
          11    0.0292   -0.0484    0.0922    0.0940    0.0007   -0.0002   -0.0001    0.0003
          12    0.0266   -0.0046    0.0472    0.0330    0.0004    0.0001   -0.0001    0.0004
          13    0.0103    0.0379    0.0625   -0.0491    0.0004    0.0000   -0.0000   -0.0001
          14   -0.0060   -0.0373   -0.0555    0.0473   -0.0011   -0.0000    0.0001    0.0001
          15   -0.0161   -0.0272   -0.0575    0.0373    0.0003   -0.0001   -0.0001   -0.0001
          16    0.0097   -0.0369    0.0635    0.0490    0.0004   -0.0000   -0.0000    0.0001
          17   -0.0150    0.0441   -0.0810   -0.0595   -0.0006    0.0001   -0.0000   -0.0001
          18    0.0067    0.0083   -0.0009   -0.0086   -0.0010   -0.0001    0.0001   -0.0002
          19    0.0814   -0.0494    0.0060   -0.0561    0.0001   -0.0006   -0.0003    0.0013
          20   -0.0713    0.0384   -0.0209    0.0574   -0.0002    0.0053    0.0072    0.0097
          21   -0.0815    0.0609    0.0307    0.0365   -0.0000   -0.0107   -0.0160   -0.0266
          22    0.0825    0.0486    0.0048    0.0559    0.0001    0.0005   -0.0003   -0.0013
          23   -0.1096   -0.0693    0.0095   -0.0658   -0.0002    0.0040   -0.0067    0.0125
          24    0.0045    0.0134   -0.0367   -0.0164   -0.0002   -0.0110    0.0165   -0.0252
          25   -0.0590    0.0533    0.0186    0.0295   -0.0000    0.0159    0.0119   -0.0082
          26    0.0239   -0.0384   -0.0021   -0.0209   -0.0000   -0.0223   -0.0171    0.0106
          27    0.1239   -0.0729   -0.0517   -0.0413    0.0001    0.0036    0.0035    0.0004
          28   -0.0601   -0.0523    0.0198   -0.0295   -0.0000   -0.0157    0.0121    0.0082
          29    0.1077    0.0773   -0.0408    0.0441    0.0000    0.0126   -0.0093   -0.0075
          30   -0.0683   -0.0210    0.0347   -0.0131   -0.0001    0.0183   -0.0150   -0.0074
          31   -0.0008   -0.0000   -0.0012    0.0000    0.3001   -0.0000   -0.0001   -0.0000
          32   -0.0066    0.0055   -0.0067   -0.0061    0.7479   -0.0000   -0.0002   -0.0000
          33   -0.0029   -0.0129   -0.0027    0.0143    0.3208   -0.0001   -0.0001    0.0000
          34    0.0031    0.0000    0.0034   -0.0000   -0.0027   -0.0000   -0.0000   -0.0000
          35   -0.0013   -0.0002   -0.0011    0.0001   -0.0177   -0.0000   -0.0001    0.0000
          36   -0.0005    0.0004   -0.0005   -0.0002   -0.0077   -0.0000   -0.0000   -0.0000
          37   -0.0009   -0.0007   -0.0009    0.0014    0.0006    0.0001    0.0000    0.0000
          38    0.0003    0.0010    0.0011   -0.0010   -0.0096   -0.0001   -0.0000   -0.0001
          39   -0.0006   -0.0008   -0.0012    0.0009    0.0072    0.0001    0.0000    0.0001
          40   -0.0009    0.0007   -0.0009   -0.0014    0.0006   -0.0000    0.0000   -0.0000
          41   -0.0003   -0.0001   -0.0002    0.0000   -0.0012    0.0000   -0.0000    0.0000
          42    0.0007   -0.0013    0.0017    0.0014   -0.0117    0.0002   -0.0001    0.0001
          43    0.0027   -0.0022   -0.0022    0.0008    0.0010   -0.0001   -0.0002   -0.0003
          44    0.0050    0.0190    0.0369   -0.0239   -0.0008    0.0001    0.0000    0.0000
          45   -0.0217   -0.0375   -0.0799    0.0538   -0.0046    0.0000    0.0006    0.0009
          46    0.0027    0.0020   -0.0022   -0.0008    0.0011    0.0001   -0.0002    0.0003
          47   -0.0119    0.0136   -0.0327   -0.0224   -0.0039   -0.0001    0.0005   -0.0007
          48    0.0179   -0.0383    0.0827    0.0544    0.0027    0.0000   -0.0004    0.0007
          49   -0.0154    0.0130   -0.0075    0.0227    0.0000    0.0007    0.0002   -0.0015
          50    0.0417   -0.0364   -0.0097   -0.0322   -0.0000   -0.0571   -0.0826   -0.1228
          51   -0.0504    0.0454    0.0461    0.0061    0.0002    0.1317    0.1930    0.2923
          52   -0.0157   -0.0129   -0.0074   -0.0227    0.0000   -0.0005   -0.0000    0.0018
          53   -0.0075   -0.0072    0.0270    0.0178    0.0001   -0.0552    0.0842   -0.1260
          54    0.0658    0.0563   -0.0402    0.0274   -0.0001    0.1304   -0.1958    0.2880
          55   -0.0291    0.0201    0.0001    0.0140   -0.0002   -0.1817   -0.1392    0.0807
          56    0.0404   -0.0532   -0.0087   -0.0283    0.0004    0.2584    0.1995   -0.1136
          57   -0.0058    0.0626    0.0197    0.0238   -0.0000   -0.0488   -0.0411    0.0195
          58   -0.0295   -0.0197    0.0005   -0.0139   -0.0001    0.1793   -0.1411   -0.0805
          59    0.0236   -0.0088    0.0085    0.0022    0.0002   -0.1406    0.1090    0.0641
          60    0.0348    0.0809   -0.0218    0.0369    0.0002   -0.2179    0.1752    0.0958


   Root No.      49        50        51        52        53        54

                49 A      50 A      51 A      52 A      53 A      54 A   

                3078.8    3085.0    3085.7    3144.4    3148.3    3179.8
  
           1   -0.0000   -0.0004   -0.0000    0.0000    0.0004    0.0006
           2   -0.0000   -0.0012    0.0000    0.0000   -0.0008   -0.0001
           3   -0.0000   -0.0005   -0.0003   -0.0001   -0.0003   -0.0001
           4   -0.0000    0.0003    0.0000    0.0000    0.0002    0.0245
           5   -0.0001   -0.0478    0.0187    0.0000    0.0002    0.0009
           6   -0.0000   -0.0166   -0.0537   -0.0000    0.0001    0.0004
           7    0.0006   -0.0000   -0.0000   -0.0018   -0.0022    0.0000
           8   -0.0006    0.0000    0.0000    0.0016    0.0025   -0.0000
           9   -0.0004    0.0000    0.0000    0.0019    0.0008   -0.0000
          10    0.0006   -0.0000    0.0000    0.0018   -0.0022    0.0000
          11   -0.0007    0.0000   -0.0000   -0.0024    0.0023   -0.0000
          12   -0.0002    0.0000    0.0000    0.0002    0.0012   -0.0000
          13   -0.0001   -0.0001    0.0003    0.0102    0.0099   -0.0001
          14    0.0002    0.0001   -0.0002    0.0042    0.0046    0.0000
          15    0.0000   -0.0002   -0.0000   -0.0388   -0.0387    0.0002
          16   -0.0001   -0.0001   -0.0004   -0.0101    0.0101   -0.0001
          17    0.0001   -0.0001    0.0001    0.0247   -0.0253    0.0002
          18    0.0001    0.0002    0.0001   -0.0293    0.0305   -0.0001
          19    0.0013    0.0000   -0.0000    0.0000    0.0000    0.0000
          20    0.0074   -0.0000   -0.0000   -0.0001   -0.0001    0.0000
          21   -0.0213    0.0001    0.0000    0.0001    0.0002   -0.0000
          22    0.0014    0.0000    0.0000   -0.0000    0.0000    0.0000
          23   -0.0104    0.0000   -0.0000    0.0000    0.0001    0.0000
          24    0.0202   -0.0001    0.0000    0.0001   -0.0002    0.0000
          25   -0.0116    0.0000   -0.0000    0.0001    0.0001   -0.0000
          26    0.0157   -0.0001    0.0000   -0.0001   -0.0000    0.0000
          27   -0.0014    0.0000   -0.0000   -0.0000   -0.0002    0.0000
          28   -0.0117    0.0000    0.0000   -0.0001    0.0001   -0.0000
          29    0.0099   -0.0000   -0.0000    0.0001   -0.0002    0.0000
          30    0.0124   -0.0000   -0.0000    0.0000    0.0002    0.0000
          31    0.0001    0.0091    0.0007    0.0000    0.0014    0.0011
          32    0.0002    0.0126    0.0015    0.0008    0.0037    0.0009
          33    0.0001    0.0055   -0.0007   -0.0017    0.0016    0.0004
          34    0.0003    0.1633    0.0138   -0.0000   -0.0016   -0.1052
          35    0.0008    0.3836    0.0442   -0.0001   -0.0044   -0.2890
          36    0.0004    0.1693   -0.0122   -0.0000   -0.0019   -0.1259
          37   -0.0002   -0.0940    0.1496   -0.0001   -0.0009   -0.0970
          38    0.0003    0.1883   -0.3292    0.0005    0.0014    0.2437
          39   -0.0003   -0.1648    0.2228   -0.0006   -0.0006   -0.1789
          40   -0.0001   -0.0726   -0.1638    0.0001   -0.0009   -0.0968
          41   -0.0000   -0.0009    0.0615    0.0001    0.0005    0.0348
          42    0.0004    0.1943    0.4310   -0.0007    0.0015    0.3000
          43   -0.0003   -0.0003    0.0003   -0.0989   -0.0961    0.0009
          44    0.0000   -0.0004   -0.0004   -0.0713   -0.0689    0.0003
          45    0.0007    0.0014    0.0007    0.4408    0.4274   -0.0028
          46   -0.0003   -0.0002   -0.0004    0.0974   -0.0979    0.0009
          47    0.0006    0.0008   -0.0001   -0.2658    0.2666   -0.0017
          48   -0.0005   -0.0013    0.0005    0.3495   -0.3502    0.0021
          49   -0.0014    0.0000    0.0000    0.0001    0.0002   -0.0000
          50   -0.0947    0.0003    0.0001    0.0003    0.0002   -0.0000
          51    0.2262   -0.0006   -0.0002   -0.0011   -0.0010    0.0000
          52   -0.0017    0.0000   -0.0000   -0.0001    0.0002   -0.0000
          53    0.0991   -0.0003    0.0001    0.0006   -0.0007    0.0000
          54   -0.2258    0.0007   -0.0002   -0.0010    0.0010   -0.0000
          55    0.1179   -0.0004    0.0001   -0.0001    0.0001    0.0000
          56   -0.1679    0.0006   -0.0001    0.0002   -0.0002   -0.0001
          57    0.0324   -0.0001    0.0000   -0.0000    0.0001    0.0000
          58    0.1190   -0.0004   -0.0001    0.0001    0.0001    0.0000
          59   -0.0930    0.0003    0.0001   -0.0001   -0.0001   -0.0000
          60   -0.1454    0.0005    0.0001   -0.0001   -0.0002   -0.0000


           MASS-WEIGHTED COORDINATE ANALYSIS (NORMAL COORDINATES)


   Root No.       1         2         3         4         5         6         7         8

                 1 A       2 A       3 A       4 A       5 A       6 A       7 A       8 A   

                 108.3     153.2     173.6     216.5     297.9     430.0     436.3     475.9
  
           1    0.0012   -0.0003    0.0017   -0.1797   -0.0008   -0.1206    0.0013   -0.0088
           2   -0.0685    0.0186    0.0582   -0.1713    0.0337   -0.0524    0.1204    0.0685
           3   -0.0294   -0.0408   -0.1319   -0.0742   -0.0807   -0.0249   -0.2782   -0.1623
           4    0.0136   -0.0003    0.0016   -0.1714   -0.0007   -0.1447    0.0016   -0.0113
           5    0.5135   -0.0727   -0.1269    0.2186   -0.1693    0.0514   -0.0362   -0.0366
           6    0.2216    0.1420    0.2958    0.0951    0.4006    0.0229    0.0841    0.0953
           7   -0.1497    0.0036    0.0231    0.2628   -0.1215    0.3380   -0.1806    0.0683
           8   -0.1803    0.0239    0.0799    0.1556   -0.0025    0.2432   -0.1432    0.0633
           9   -0.0778   -0.0182   -0.0514    0.0657   -0.2476    0.1041    0.2929    0.1871
          10   -0.1505    0.0033   -0.0283    0.2628    0.1217    0.3422    0.1736   -0.0675
          11   -0.1812    0.0044   -0.0219    0.1540    0.1806    0.2432   -0.1185   -0.1794
          12   -0.0771   -0.0266   -0.0951    0.0671   -0.1689    0.1092    0.3032    0.0836
          13   -0.1563    0.0859    0.1844   -0.1431   -0.2053    0.0106   -0.1669   -0.2470
          14   -0.1813    0.0947    0.2301   -0.1472   -0.1423    0.0154    0.1919   -0.0086
          15   -0.0799    0.0024   -0.0300   -0.0699   -0.2430   -0.0114    0.0417   -0.0594
          16   -0.1597   -0.0802   -0.1832   -0.1468    0.2040    0.0107    0.1663    0.2557
          17   -0.1856   -0.0603   -0.1359   -0.1559    0.2729   -0.0012   -0.1627    0.0573
          18   -0.0774   -0.0641   -0.1869   -0.0606   -0.0648    0.0167   -0.1107   -0.0281
          19    0.0007   -0.1477   -0.2346    0.2656   -0.0776   -0.2240   -0.0483    0.2276
          20   -0.0656   -0.0876   -0.0919    0.1545    0.1128   -0.2072   -0.1624    0.1312
          21   -0.0299   -0.0500   -0.0382    0.0615    0.0281   -0.1107   -0.0288    0.0725
          22    0.0044    0.1488    0.2306    0.2693    0.0791   -0.2204    0.0521   -0.2238
          23   -0.0634    0.1003    0.0889    0.1531   -0.0978   -0.2189    0.1364   -0.1516
          24   -0.0258    0.0300    0.0385    0.0700   -0.0617   -0.0706    0.0986   -0.0404
          25    0.2591   -0.1224   -0.1926   -0.1640    0.0857    0.1388    0.1386   -0.2421
          26    0.1303   -0.0828   -0.1330   -0.1806    0.0647    0.0462    0.2012   -0.1338
          27    0.0552   -0.0337    0.0168   -0.0779    0.1895    0.0168   -0.1213   -0.1508
          28    0.2634    0.1106    0.1962   -0.1620   -0.0843    0.1360   -0.1400    0.2491
          29    0.1337    0.0755    0.0831   -0.1802   -0.1823    0.0425   -0.0506    0.1918
          30    0.0572    0.0341    0.1095   -0.0765    0.0839    0.0177   -0.2297   -0.0107
          31    0.1147   -0.0025    0.0007    0.0071    0.0003   -0.0467    0.0007   -0.0043
          32   -0.0563    0.0265    0.0491   -0.0663   -0.0092   -0.0092    0.0710    0.0133
          33   -0.0251   -0.0588   -0.1137   -0.0295    0.0203   -0.0057   -0.1651   -0.0299
          34   -0.1228    0.0019    0.0006   -0.1417   -0.0013   -0.0795    0.0004   -0.0057
          35    0.1909   -0.2298    0.0543    0.0988   -0.0800    0.0292   -0.0267   -0.0276
          36    0.0941    0.5183   -0.1235    0.0394    0.1882    0.0131    0.0616    0.0691
          37    0.0681   -0.0343   -0.0871   -0.0043   -0.1162   -0.0262   -0.1002   -0.0852
          38    0.1875   -0.3283    0.1073    0.0982   -0.0823    0.0280   -0.0238   -0.0266
          39    0.0747   -0.3528    0.3385    0.0446    0.1498    0.0132    0.0746    0.0624
          40    0.0665    0.0323    0.0875   -0.0048    0.1166   -0.0252    0.1009    0.0805
          41    0.2051    0.4747   -0.3198    0.0934   -0.0503    0.0285   -0.0381   -0.0232
          42    0.0822   -0.0024    0.1520    0.0419    0.1635    0.0121    0.0681    0.0635
          43   -0.0520    0.0434    0.0939   -0.1117   -0.1227   -0.0842   -0.1264   -0.2066
          44   -0.0571    0.0440    0.1101   -0.0981   -0.1151   -0.0654    0.1498   -0.0206
          45   -0.0254    0.0074    0.0076   -0.0450   -0.0961   -0.0341    0.0097   -0.0504
          46   -0.0539   -0.0418   -0.0927   -0.1142    0.1228   -0.0846    0.1277    0.2169
          47   -0.0593   -0.0338   -0.0807   -0.1027    0.1490   -0.0729   -0.1092    0.0586
          48   -0.0245   -0.0260   -0.0742   -0.0414    0.0172   -0.0260   -0.1016   -0.0160
          49   -0.0151   -0.0864   -0.1440    0.1421   -0.0352   -0.2882    0.0409    0.1392
          50   -0.0310   -0.0541   -0.0596    0.0940    0.0951   -0.2329   -0.1205    0.0397
          51   -0.0138   -0.0267   -0.0252    0.0389    0.0343   -0.1056   -0.0391    0.0222
          52   -0.0127    0.0882    0.1425    0.1442    0.0351   -0.2886   -0.0362   -0.1378
          53   -0.0292    0.0590    0.0587    0.0945   -0.0910   -0.2360    0.1153   -0.0460
          54   -0.0121    0.0215    0.0251    0.0418   -0.0453   -0.0946    0.0619   -0.0123
          55    0.1294   -0.0772   -0.1273   -0.1199    0.0837    0.0039    0.1657   -0.2533
          56    0.0794   -0.0552   -0.0897   -0.1076    0.0715   -0.0137    0.1472   -0.1815
          57    0.0341   -0.0195   -0.0007   -0.0454    0.1115   -0.0034   -0.0254   -0.1138
          58    0.1326    0.0717    0.1304   -0.1190   -0.0843   -0.0012   -0.1659    0.2560
          59    0.0823    0.0489    0.0651   -0.1069   -0.1310   -0.0154   -0.0832    0.2068
          60    0.0348    0.0251    0.0656   -0.0462    0.0247   -0.0104   -0.1239    0.0512


   Root No.       9        10        11        12        13        14        15        16

                 9 A      10 A      11 A      12 A      13 A      14 A      15 A      16 A   

                 480.5     564.5     582.7     701.9     719.0     763.4     827.2     876.5
  
           1    0.3233    0.0837   -0.0003    0.0002   -0.0426   -0.0046    0.0001    0.0002
           2    0.0139    0.3562   -0.0839   -0.0014    0.4393   -0.1570   -0.0109    0.0072
           3    0.0014    0.1538    0.1916    0.0029    0.1887   -0.0675    0.0273   -0.0199
           4    0.4249    0.0937   -0.0004    0.0006   -0.2139    0.0103    0.0000   -0.0001
           5   -0.1303   -0.0220   -0.0133   -0.0006    0.0826   -0.0291   -0.0038   -0.0013
           6   -0.0530   -0.0093    0.0310    0.0012    0.0353   -0.0122    0.0093    0.0004
           7    0.0740   -0.0995   -0.1652    0.3801    0.1117    0.0797   -0.0193    0.1748
           8    0.0596    0.1204    0.1882    0.2925   -0.1342    0.1057   -0.0011   -0.0674
           9    0.0415    0.0269    0.0568    0.1266   -0.0315    0.0370   -0.0171    0.0031
          10    0.0713   -0.0969    0.1656   -0.3790    0.1112    0.0843    0.0227   -0.1768
          11    0.0630    0.1023   -0.1719   -0.2907   -0.1158    0.1018    0.0155    0.0437
          12    0.0181    0.0682   -0.0978   -0.1237   -0.0763    0.0517   -0.0111    0.0501
          13   -0.1888   -0.2325   -0.1064    0.0214    0.0290    0.0710    0.1811    0.0932
          14   -0.2258    0.0542    0.0311    0.0172    0.1008    0.0086    0.1300   -0.0754
          15   -0.0330    0.0129    0.2645    0.0070   -0.2570    0.0920    0.0949   -0.2208
          16   -0.1753   -0.2314    0.1087   -0.0235    0.0311    0.0750   -0.1829   -0.0887
          17   -0.1758    0.0452   -0.2131   -0.0167   -0.1153    0.0741   -0.1596    0.2160
          18   -0.1418    0.0319    0.1595   -0.0090    0.2509   -0.0560   -0.0282   -0.0976
[...]
 FREQUENCY          1400.67         C  9 -- C 10         +16.7% ( 58.2%)    100.0%
 TRANSITION DIPOLE   0.0521         C  7 -- C  9          +8.1% ( 40.5%)      5.1%
 TRAVEL (Ang.)       0.2438         C  8 -- C 10          +7.9% ( 40.0%)      5.5%
 REDUCED MASS        0.8096         C  9 -- H 19          +6.1% ( 35.2%)     14.0%
 EFFECTIVE MASS      7.9088
 FORCE CONSTANT      0.9359

 VIBRATION         38   38A           ATOM PAIR      ENERGY CONTRIBUTION    RADIAL
 FREQUENCY          1406.26         C  2 -- H 12         +52.7% ( 62.7%)      0.0%
 TRANSITION DIPOLE   0.0230         C  2 -- H 13         +20.8% ( 39.4%)     11.1%
 TRAVEL (Ang.)       0.3413         C  2 -- H 14         +20.7% ( 39.3%)     10.9%
 REDUCED MASS        0.4116         C  1 -- C  2          +4.9% ( 19.1%)      0.0%
 EFFECTIVE MASS      1.5627
 FORCE CONSTANT      0.4796

 VIBRATION         39   39A           ATOM PAIR      ENERGY CONTRIBUTION    RADIAL
 FREQUENCY          1420.35         C  1 -- C  2         +18.0% ( 65.1%)     92.6%
 TRANSITION DIPOLE   0.2345         C  1 -- C  6         +11.4% ( 51.7%)     50.8%
 TRAVEL (Ang.)       0.1741         C  1 -- C  5         +11.4% ( 51.7%)     50.3%
 REDUCED MASS        1.5659         C  1 -- H 11          +9.6% ( 47.5%)      0.3%
 EFFECTIVE MASS      8.7130
 FORCE CONSTANT      1.8612

 VIBRATION         40   40A           ATOM PAIR      ENERGY CONTRIBUTION    RADIAL
 FREQUENCY          1559.29         C  3 -- C  4         +22.4% ( 78.0%)    100.0%
 TRANSITION DIPOLE   0.6440         C  4 -- C  8         +11.0% ( 54.8%)     45.9%
 TRAVEL (Ang.)       0.1191         C  3 -- C  7         +11.0% ( 54.8%)     46.0%
 REDUCED MASS        3.0462         C  4 -- C  6         +10.7% ( 54.0%)     31.2%
 EFFECTIVE MASS     11.8489         C  3 -- C  5         +10.7% ( 53.9%)     31.2%
 FORCE CONSTANT      4.3638

 VIBRATION         41   41A           ATOM PAIR      ENERGY CONTRIBUTION    RADIAL
 FREQUENCY          1762.26         C  8 -- C 10         +19.7% ( 68.7%)     99.8%
 TRANSITION DIPOLE   0.5245         C  7 -- C  9         +19.2% ( 67.8%)     99.8%
 TRAVEL (Ang.)       0.1230         C  9 -- C 10         +14.0% ( 57.8%)    100.0%
 REDUCED MASS        2.5280         C  4 -- C  8          +8.0% ( 43.9%)     58.6%
 EFFECTIVE MASS     11.9927
 FORCE CONSTANT      4.6257

 VIBRATION         42   42A           ATOM PAIR      ENERGY CONTRIBUTION    RADIAL
 FREQUENCY          1791.96         C  7 -- C  9         +15.0% ( 59.3%)     99.9%
 TRANSITION DIPOLE   0.0627         C  8 -- C 10         +14.3% ( 58.0%)     99.8%
 TRAVEL (Ang.)       0.1530         C  9 -- C 10          +9.9% ( 48.3%)      0.0%
 REDUCED MASS        1.6068         C  3 -- C  5          +6.6% ( 39.3%)     98.2%
 EFFECTIVE MASS     11.8098
 FORCE CONSTANT      3.0399

 VIBRATION         43   43A           ATOM PAIR      ENERGY CONTRIBUTION    RADIAL
 FREQUENCY          1800.88         C  4 -- C  6         +15.4% ( 65.7%)     94.6%
 TRANSITION DIPOLE   0.6607         C  3 -- C  5         +15.0% ( 64.9%)     94.6%
 TRAVEL (Ang.)       0.1270         C  3 -- C  4         +12.3% ( 58.6%)     98.8%
 REDUCED MASS        2.3208         C  4 -- C  5         +10.2% ( 53.5%)     46.6%
 EFFECTIVE MASS     11.9515         C  3 -- C  6         +10.2% ( 53.3%)     46.8%
 FORCE CONSTANT      4.4347

 VIBRATION         44   44A           ATOM PAIR      ENERGY CONTRIBUTION    RADIAL
 FREQUENCY          1881.65         C  3 -- C  4         +13.4% ( 58.9%)      0.0%
 TRANSITION DIPOLE   0.4493         C  3 -- C  5         +11.8% ( 55.3%)     94.9%
 TRAVEL (Ang.)       0.1338         C  4 -- C  6         +11.8% ( 55.2%)     94.9%
 REDUCED MASS        2.0017         C  3 -- C  7         +10.5% ( 52.1%)     69.2%
 EFFECTIVE MASS     11.9129         C  4 -- C  8         +10.4% ( 52.0%)     69.2%
 FORCE CONSTANT      4.1758

 VIBRATION         45   45A           ATOM PAIR      ENERGY CONTRIBUTION    RADIAL
 FREQUENCY          2885.26         C  1 -- H 11         +96.9% ( 99.9%)    100.0%
 TRANSITION DIPOLE   0.2669         C  1 -- C  2          +1.0% ( 10.1%)     10.0%
 TRAVEL (Ang.)       0.1587         C  1 -- C  5          +1.0% ( 10.1%)      9.9%
 REDUCED MASS        0.9282         C  1 -- C  6          +1.0% ( 10.1%)      9.9%
 EFFECTIVE MASS      1.4334
 FORCE CONSTANT      4.5524

 VIBRATION         46   46A           ATOM PAIR      ENERGY CONTRIBUTION    RADIAL
 FREQUENCY          3052.16         C  9 -- H 19         +41.1% ( 65.2%)    100.0%
 TRANSITION DIPOLE   0.0903         C 10 -- H 20         +40.0% ( 64.3%)    100.0%
 TRAVEL (Ang.)       0.2565         C  7 -- H 17          +8.3% ( 29.2%)     99.9%
 REDUCED MASS        0.3357         C  8 -- H 18          +8.0% ( 28.8%)     99.9%
 EFFECTIVE MASS      1.4893
 FORCE CONSTANT      1.8424

 VIBRATION         47   47A           ATOM PAIR      ENERGY CONTRIBUTION    RADIAL
 FREQUENCY          3058.55         C 10 -- H 20         +28.6% ( 54.3%)    100.0%
 TRANSITION DIPOLE   0.3787         C  9 -- H 19         +27.8% ( 53.5%)    100.0%
 TRAVEL (Ang.)       0.3040         C  8 -- H 18         +20.8% ( 46.3%)    100.0%
 REDUCED MASS        0.2385         C  7 -- H 17         +20.2% ( 45.6%)    100.0%
 EFFECTIVE MASS      1.4679
 FORCE CONSTANT      1.3147

 VIBRATION         48   48A           ATOM PAIR      ENERGY CONTRIBUTION    RADIAL
 FREQUENCY          3072.99         C  7 -- H 17         +40.6% ( 64.7%)    100.0%
 TRANSITION DIPOLE   0.4711         C  8 -- H 18         +39.9% ( 64.2%)    100.0%
 TRAVEL (Ang.)       0.2556         C  9 -- H 19          +8.0% ( 28.8%)     99.6%
 REDUCED MASS        0.3359         C 10 -- H 20          +8.0% ( 28.8%)     99.7%
 EFFECTIVE MASS      1.5624
 FORCE CONSTANT      1.8691

 VIBRATION         49   49A           ATOM PAIR      ENERGY CONTRIBUTION    RADIAL
 FREQUENCY          3078.81         C  8 -- H 18         +28.2% ( 53.8%)    100.0%
 TRANSITION DIPOLE   0.3009         C  7 -- H 17         +27.9% ( 53.6%)     99.9%
 TRAVEL (Ang.)       0.3025         C 10 -- H 20         +20.3% ( 45.7%)    100.0%
 REDUCED MASS        0.2393         C  9 -- H 19         +19.9% ( 45.3%)    100.0%
 EFFECTIVE MASS      1.6025
 FORCE CONSTANT      1.3364

 VIBRATION         50   50A           ATOM PAIR      ENERGY CONTRIBUTION    RADIAL
 FREQUENCY          3085.03         C  2 -- H 12         +62.7% ( 81.7%)     98.8%
 TRANSITION DIPOLE   0.0460         C  2 -- H 13         +22.4% ( 48.9%)     88.6%
 TRAVEL (Ang.)       0.2108         C  2 -- H 14         +13.8% ( 38.3%)     80.3%
 REDUCED MASS        0.4920         C  1 -- C  2          +1.0% ( 10.3%)      0.0%
 EFFECTIVE MASS      1.5065
 FORCE CONSTANT      2.7586

 VIBRATION         51   51A           ATOM PAIR      ENERGY CONTRIBUTION    RADIAL
 FREQUENCY          3085.69         C  2 -- H 14         +53.2% ( 75.2%)     97.6%
 TRANSITION DIPOLE   0.0368         C  2 -- H 13         +44.5% ( 68.8%)     96.3%
 TRAVEL (Ang.)       0.2068         C  2 -- H 12          +1.3% ( 11.9%)      8.9%
 REDUCED MASS        0.5108         C  1 -- C  2          +1.0% ( 10.4%)      0.0%
 EFFECTIVE MASS      1.5092
 FORCE CONSTANT      2.8656

 VIBRATION         52   52A           ATOM PAIR      ENERGY CONTRIBUTION    RADIAL
 FREQUENCY          3144.37         C  5 -- H 15         +48.4% ( 71.3%)    100.0%
 TRANSITION DIPOLE   0.5984         C  6 -- H 16         +46.8% ( 70.1%)    100.0%
 TRAVEL (Ang.)       0.2148         C  3 -- C  5          +0.9% (  9.5%)     49.2%
 REDUCED MASS        0.4649         C  4 -- C  6          +0.8% (  9.3%)     49.2%
 EFFECTIVE MASS      1.5293
 FORCE CONSTANT      2.7084

 VIBRATION         53   53A           ATOM PAIR      ENERGY CONTRIBUTION    RADIAL
 FREQUENCY          3148.34         C  6 -- H 16         +48.2% ( 71.2%)    100.0%
 TRANSITION DIPOLE   0.3013         C  5 -- H 15         +46.6% ( 70.0%)    100.0%
 TRAVEL (Ang.)       0.2146         C  4 -- C  6          +0.9% (  9.7%)     50.6%
 REDUCED MASS        0.4652         C  3 -- C  5          +0.9% (  9.5%)     50.6%
 EFFECTIVE MASS      1.5727
 FORCE CONSTANT      2.7170

 VIBRATION         54   54A           ATOM PAIR      ENERGY CONTRIBUTION    RADIAL
 FREQUENCY          3179.83         C  2 -- H 12         +35.5% ( 57.3%)     97.5%
 TRANSITION DIPOLE   0.0386         C  2 -- H 13         +32.2% ( 54.6%)     96.9%
 TRAVEL (Ang.)       0.2544         C  2 -- H 14         +32.1% ( 54.5%)     96.9%
 REDUCED MASS        0.3277         C  1 -- C  2          +0.3% (  5.0%)     99.8%
 EFFECTIVE MASS      1.1341
 FORCE CONSTANT      1.9521

      SYMMETRY NUMBER FOR POINT-GROUP C1  =  1


          SYSTEM IS A GROUND STATE



 InChI=1S/C10H10/c1-8-6-9-4-2-3-5-10(9)7-8/h2-8H,1H3


          MOLECULE IS NOT LINEAR

          THERE ARE 54 GENUINE VIBRATIONS IN THIS SYSTEM
          THIS THERMODYNAMICS CALCULATION IS LIMITED TO
          MOLECULES WHICH HAVE NO INTERNAL ROTATIONS




                    CALCULATED THERMODYNAMIC PROPERTIES
                                          *
   TEMP. (K)   PARTITION FUNCTION   H.O.F.    ENTHALPY  HEAT CAPACITY ENTROPY
                                   KCAL/MOL   CAL/MOLE    CAL/K/MOL  CAL/K/MOL


 298.00  VIB.     0.3943D+02                  3354.7168    26.7611    18.5597
         ROT.     0.5171D+06                   888.2803     2.9808    29.1244
         INT.     0.2039D+08                  4242.9971    29.7419    47.6841
         TRA.     0.1436D+28                  1480.4672     4.9680    40.5022
         TOT.                       53.665    5723.4643    34.7099    88.1863

 200.00  VIB.     0.6948D+01                  1296.0023    15.4775    10.3320
         ROT.     0.2843D+06                   596.1613     2.9808    27.9357
         INT.     0.1975D+07                  1892.1636    18.4583    38.2678
         TRA.     0.7896D+27                   993.6021     4.9680    38.5210
         TOT.                       50.828    2885.7657    23.4263    76.7888

 210.00  VIB.     0.8191D+01                  1456.1174    16.5500    11.1130
         ROT.     0.3059D+06                   625.9693     2.9808    28.0811
         INT.     0.2506D+07                  2082.0867    19.5308    39.1942
         TRA.     0.8496D+27                  1043.2822     4.9680    38.7634
         TOT.                       51.067    3125.3690    24.4988    77.9576

 220.00  VIB.     0.9686D+01                  1627.0862    17.6479    11.9082
         ROT.     0.3280D+06                   655.7774     2.9808    28.2198
         INT.     0.3177D+07                  2282.8636    20.6287    40.1280
         TRA.     0.9110D+27                  1092.9623     4.9680    38.9945
         TOT.                       51.318    3375.8260    25.5967    79.1225

 230.00  VIB.     0.1149D+02                  1809.1510    18.7687    12.7173
         ROT.     0.3506D+06                   685.5855     2.9808    28.3523
         INT.     0.4028D+07                  2494.7365    21.7495    41.0696
         TRA.     0.9738D+27                  1142.6424     4.9680    39.2154
         TOT.                       51.579    3637.3789    26.7175    80.2850

 240.00  VIB.     0.1367D+02                  2002.5269    19.9096    13.5401
         ROT.     0.3737D+06                   715.3935     2.9808    28.4792
         INT.     0.5107D+07                  2717.9205    22.8904    42.0193
         TRA.     0.1038D+28                  1192.3226     4.9680    39.4268
         TOT.                       51.852    3910.2430    27.8584    81.4461

 250.00  VIB.     0.1630D+02                  2207.3995    21.0675    14.3763
         ROT.     0.3973D+06                   745.2016     2.9808    28.6009
         INT.     0.6477D+07                  2952.6011    24.0483    42.9772
         TRA.     0.1103D+28                  1242.0027     4.9680    39.6296
         TOT.                       52.137    4194.6038    29.0163    82.6068

 260.00  VIB.     0.1950D+02                  2423.9228    22.2392    15.2254
         ROT.     0.4214D+06                   775.0097     2.9808    28.7178
         INT.     0.8216D+07                  3198.9325    25.2200    43.9431
         TRA.     0.1170D+28                  1291.6828     4.9680    39.8245
         TOT.                       52.433    4490.6153    30.1880    83.7676

 270.00  VIB.     0.2338D+02                  2652.2185    23.4214    16.0868
         ROT.     0.4459D+06                   804.8177     2.9808    28.8303
         INT.     0.1043D+08                  3457.0362    26.4022    44.9171
         TRA.     0.1239D+28                  1341.3629     4.9680    40.0120
         TOT.                       52.740    4798.3991    31.3702    84.9291

 280.00  VIB.     0.2812D+02                  2892.3759    24.6110    16.9601
         ROT.     0.4709D+06                   834.6258     2.9808    28.9387
         INT.     0.1324D+08                  3727.0017    27.5918    45.8988
         TRA.     0.1308D+28                  1391.0430     4.9680    40.1926
         TOT.                       53.060    5118.0447    32.5598    86.0914

 290.00  VIB.     0.3390D+02                  3144.4531    25.8049    17.8445
         ROT.     0.4964D+06                   864.4339     2.9808    29.0433
         INT.     0.1683D+08                  4008.8870    28.7857    46.8878
         TRA.     0.1379D+28                  1440.7231     4.9680    40.3670
         TOT.                       53.392    5449.6100    33.7537    87.2548

 300.00  VIB.     0.4096D+02                  3408.4780    27.0001    18.7395
         ROT.     0.5223D+06                   894.2419     2.9808    29.1443
         INT.     0.2140D+08                  4302.7199    29.9809    47.8838
         TRA.     0.1451D+28                  1490.4032     4.9680    40.5354
         TOT.                       53.735    5793.1231    34.9489    88.4192

 310.00  VIB.     0.4962D+02                  3684.4498    28.1938    19.6443
         ROT.     0.5486D+06                   924.0500     2.9808    29.2421
         INT.     0.2723D+08                  4608.4998    31.1747    48.8864
         TRA.     0.1524D+28                  1540.0833     4.9680    40.6983
         TOT.                       54.090    6148.5831    36.1427    89.5847

 320.00  VIB.     0.6025D+02                  3972.3416    29.3837    20.5582
         ROT.     0.5754D+06                   953.8580     2.9808    29.3367
         INT.     0.3467D+08                  4926.1997    32.3645    49.8949
         TRA.     0.1598D+28                  1589.7634     4.9680    40.8560
         TOT.                       54.458    6515.9631    37.3325    90.7510

 330.00  VIB.     0.7332D+02                  4272.1020    30.5672    21.4806
         ROT.     0.6026D+06                   983.6661     2.9808    29.4284
         INT.     0.4418D+08                  5255.7681    33.5480    50.9090
         TRA.     0.1674D+28                  1639.4435     4.9680    41.0089
         TOT.                       54.837    6895.2116    38.5160    91.9179

 340.00  VIB.     0.8942D+02                  4583.6574    31.7423    22.4106
         ROT.     0.6302D+06                  1013.4742     2.9808    29.5174
         INT.     0.5635D+08                  5597.1316    34.7231    51.9280
         TRA.     0.1750D+28                  1689.1236     4.9680    41.1572
         TOT.                       55.228    7286.2552    39.6912    93.0852

 350.00  VIB.     0.1093D+03                  4906.9146    32.9073    23.3475
         ROT.     0.6582D+06                  1043.2822     2.9808    29.6038
         INT.     0.7192D+08                  5950.1968    35.8881    52.9513
         TRA.     0.1828D+28                  1738.8037     4.9680    41.3012
         TOT.                       55.631    7689.0005    40.8561    94.2525

 360.00  VIB.     0.1338D+03                  5241.7628    34.0603    24.2907
         ROT.     0.6866D+06                  1073.0903     2.9808    29.6878
         INT.     0.9188D+08                  6314.8531    37.0411    53.9785
         TRA.     0.1907D+28                  1788.4838     4.9680    41.4412
         TOT.                       56.045    8103.3369    42.0091    95.4197

 370.00  VIB.     0.1642D+03                  5588.0759    35.2000    25.2395
         ROT.     0.7154D+06                  1102.8984     2.9808    29.7695
         INT.     0.1174D+09                  6690.9743    38.1808    55.0090
         TRA.     0.1987D+28                  1838.1639     4.9680    41.5773
         TOT.                       56.471    8529.1382    43.1488    96.5863

 380.00  VIB.     0.2018D+03                  5945.7146    36.3252    26.1932
         ROT.     0.7446D+06                  1132.7064     2.9808    29.8490
         INT.     0.1503D+09                  7078.4211    39.3060    56.0422
         TRA.     0.2068D+28                  1887.8440     4.9680    41.7098
         TOT.                       56.908    8966.2651    44.2740    97.7520

 390.00  VIB.     0.2485D+03                  6314.5283    37.4348    27.1512
         ROT.     0.7742D+06                  1162.5145     2.9808    29.9264
         INT.     0.1924D+09                  7477.0427    40.4157    57.0775
         TRA.     0.2150D+28                  1937.5242     4.9680    41.8388
         TOT.                       57.356    9414.5669    45.3837    98.9164

 400.00  VIB.     0.3065D+03                  6694.3568    38.5281    28.1128
         ROT.     0.8041D+06                  1192.3226     2.9808    30.0018
         INT.     0.2464D+09                  7886.6793    41.5089    58.1146
         TRA.     0.2233D+28                  1987.2043     4.9680    41.9646
         TOT.                       57.816    9873.8836    46.4769   100.0792

   *: NOTE: HEATS OF FORMATION ARE RELATIVE TO THE
            ELEMENTS IN THEIR STANDARD STATE AT 298K
              (=  Standard Enthalpy of Formation).

            Hvib:  Zero-point energy is not included.
                   frequencies of less than zero cm-1 are not included.
            Hrot = (3/2)RT
            Htra = (3/2)RT + pV = (5/2)RT

            Heat capacity is Cp, not Cv

          For more information, see: HTTP://OpenMOPAC.net/Manual/thermochemistry.html


           FORCE CONSTANT IN CARTESIAN COORDINATES (Millidynes/A)

    ATOM   CHEMICAL       X               Y               Z
   NUMBER   SYMBOL  FORCE CONSTANT  FORCE CONSTANT  FORCE CONSTANT

      1       C        8.916350        8.658615        7.937881
      2       C        8.278392        8.280382        8.349024
      3       C        8.087673       10.772874       10.264794
      4       C        8.085343       10.277314       10.766522
      5       C        6.616923        7.128118       12.518102
      6       C        6.617432       10.187924        9.463126
      7       C        6.767796        8.283749       12.403903
      8       C        6.768496       10.193516       10.495571
      9       C        6.863585        8.393138       11.794563
     10       C        6.859798       10.140271       10.025826
     11       H        1.128911        3.575593        1.131489
     12       H        1.280116        4.163748        1.328666
     13       H        1.249769        3.375847        2.132478
     14       H        1.250073        0.714735        4.795514
     15       H        0.689098        0.678267        5.069052
     16       H        0.689416        2.215384        3.529561
     17       H        0.502704        1.271346        4.478422
     18       H        0.502699        1.304947        4.443062
     19       H        1.927511        3.481849        0.843109
     20       H        1.927192        1.478240        2.845770

 **********************
 *                    *
 * JOB ENDED NORMALLY *
 *                    *
 **********************



 TOTAL JOB TIME:             2.26 SECONDS

 == MOPAC DONE ==
