 *******************************************************************************
 **                                                                           **
 **                              MOPAC v23.1.2                                **
 **                                                                           **
 *******************************************************************************
 **          Digital Object Identifier (DOI): 10.5281/zenodo.6511958          **
 **    Visit the DOI location for information on how to cite this program.    **
 *******************************************************************************

                              PM3 CALCULATION RESULTS

 *******************************************************************************
 *  CALCULATION DONE: (MAX THREADS = 1)              Tue Jun  3 16:37:39 2025  *
 *  PM3        - The PM3 Hamiltonian to be used
 *  PRECISE    - TIGHTER CRITERIA TO BE USED
 *  NOSYM      - POINT-GROUP SYMMETRY SET TO C1
 *  THREADS=1  - MULTI-THREADING NOT USED
 *  T=         - A TIME OF 172800.0 SECONDS REQUESTED
 *  DUMP=N     - RESTART FILE WRITTEN EVERY 7200.0 SECONDS REQUESTED
 *******************************************************************************
pm3  precise nosym THREADS=1
 InChI=1S/C12H22/c1-3-5-6-7-8-12-9-11(4-2)10-12/h6-7,11-12H,3-5,8-10H2,1-2H3

   ATOM   CHEMICAL          X               Y               Z
  NUMBER   SYMBOL      (ANGSTROMS)     (ANGSTROMS)     (ANGSTROMS)

     1       C          2.84070000  *  -0.03970000  *   0.83090000  *
     2       C          0.96970000  *  -1.10290000  *   0.61630000  *
     3       C          1.36640000  *   0.36590000  *   0.77580000  *
     4       C          2.44360000  *  -1.50660000  *   0.66010000  *
     5       C          3.68840000  *   0.49990000  *  -0.33440000  *
     6       C         -3.51270000  *   0.68230000  *   0.52580000  *
     7       C          0.28810000  *  -1.42680000  *  -0.72540000  *
     8       C         -3.47580000  *  -0.72100000  *  -0.09060000  *
     9       C          4.00280000  *   1.98230000  *  -0.15270000  *
    10       C         -4.92490000  *   1.25930000  *   0.49620000  *
    11       C         -1.09470000  *  -0.83970000  *  -0.78890000  *
    12       C         -2.09230000  *  -1.30570000  *  -0.02230000  *
    13       H          3.29920000  *   0.15180000  *   1.82720000  *
    14       H          0.40880000  *  -1.48950000  *   1.49660000  *
    15       H          3.16440000  *   0.35130000  *  -1.30430000  *
    16       H          4.64620000  *  -0.06270000  *  -0.37240000  *
    17       H          1.01360000  *   0.79080000  *   1.74070000  *
    18       H          1.10260000  *   1.00050000  *  -0.09950000  *
    19       H         -2.83750000  *   1.36230000  *  -0.03790000  *
    20       H         -3.16390000  *   0.63640000  *   1.58080000  *
    21       H          2.68410000  *  -2.11200000  *   1.56130000  *
    22       H          2.81410000  *  -1.96880000  *  -0.28260000  *
    23       H          0.88870000  *  -1.02070000  *  -1.56880000  *
    24       H          0.22750000  *  -2.52920000  *  -0.85420000  *
    25       H         -3.81340000  *  -0.68630000  *  -1.14970000  *
    26       H         -4.16810000  *  -1.38560000  *   0.47060000  *
    27       H          3.06710000  *   2.58000000  *  -0.13830000  *
    28       H          4.55600000  *   2.14520000  *   0.79670000  *
    29       H          4.63390000  *   2.33380000  *  -0.99590000  *
    30       H         -5.28810000  *   1.33600000  *  -0.55080000  *
    31       H         -5.61740000  *   0.61520000  *   1.07890000  *
    32       H         -4.92120000  *   2.27440000  *   0.94620000  *
    33       H         -1.28280000  *  -0.03060000  *  -1.48950000  *
    34       H         -1.91320000  *  -2.13960000  *   0.65110000  *



          CARTESIAN COORDINATES 

    NO.       ATOM           X           Y           Z

     1         C          2.8407     -0.0397      0.8309
     2         C          0.9697     -1.1029      0.6163
     3         C          1.3664      0.3659      0.7758
     4         C          2.4436     -1.5066      0.6601
     5         C          3.6884      0.4999     -0.3344
     6         C         -3.5127      0.6823      0.5258
     7         C          0.2881     -1.4268     -0.7254
     8         C         -3.4758     -0.7210     -0.0906
     9         C          4.0028      1.9823     -0.1527
    10         C         -4.9249      1.2593      0.4962
    11         C         -1.0947     -0.8397     -0.7889
    12         C         -2.0923     -1.3057     -0.0223
    13         H          3.2992      0.1518      1.8272
    14         H          0.4088     -1.4895      1.4966
    15         H          3.1644      0.3513     -1.3043
    16         H          4.6462     -0.0627     -0.3724
    17         H          1.0136      0.7908      1.7407
    18         H          1.1026      1.0005     -0.0995
    19         H         -2.8375      1.3623     -0.0379
    20         H         -3.1639      0.6364      1.5808
    21         H          2.6841     -2.1120      1.5613
    22         H          2.8141     -1.9688     -0.2826
    23         H          0.8887     -1.0207     -1.5688
    24         H          0.2275     -2.5292     -0.8542
    25         H         -3.8134     -0.6863     -1.1497
    26         H         -4.1681     -1.3856      0.4706
    27         H          3.0671      2.5800     -0.1383
    28         H          4.5560      2.1452      0.7967
    29         H          4.6339      2.3338     -0.9959
    30         H         -5.2881      1.3360     -0.5508
    31         H         -5.6174      0.6152      1.0789
    32         H         -4.9212      2.2744      0.9462
    33         H         -1.2828     -0.0306     -1.4895
    34         H         -1.9132     -2.1396      0.6511

  H: (PM3): J. J. P. STEWART, J. COMP. CHEM. 10, 209 (1989).
  C: (PM3): J. J. P. STEWART, J. COMP. CHEM. 10, 209 (1989).

           Empirical Formula: C12 H22  =    34 atoms



      MOLECULAR POINT GROUP   :   C1  


      RHF CALCULATION, NO. OF DOUBLY OCCUPIED LEVELS = 35


          Geometry optimization using L-BFGS
 CYCLE:     1 TIME:   0.012 TIME LEFT:  2.00D  GRAD.:    84.065 HEAT: -16.84666
 CYCLE:     2 TIME:   0.012 TIME LEFT:  2.00D  GRAD.:    82.681 HEAT: -16.91675
 CYCLE:     3 TIME:   0.012 TIME LEFT:  2.00D  GRAD.:    32.886 HEAT: -19.72841
 CYCLE:     4 TIME:   0.012 TIME LEFT:  2.00D  GRAD.:    82.684 HEAT: -16.91680
 CYCLE:     5 TIME:   0.012 TIME LEFT:  2.00D  GRAD.:    32.889 HEAT: -19.72840
 CYCLE:     6 TIME:   0.008 TIME LEFT:  2.00D  GRAD.:    31.511 HEAT: -20.24046
 CYCLE:     7 TIME:   0.008 TIME LEFT:  2.00D  GRAD.:    21.562 HEAT: -20.83166
 CYCLE:     8 TIME:   0.012 TIME LEFT:  2.00D  GRAD.:    19.740 HEAT: -21.26168
 CYCLE:     9 TIME:   0.012 TIME LEFT:  2.00D  GRAD.:    15.405 HEAT: -21.52560
 CYCLE:    10 TIME:   0.012 TIME LEFT:  2.00D  GRAD.:     7.483 HEAT: -21.60356
 CYCLE:    11 TIME:   0.008 TIME LEFT:  2.00D  GRAD.:     3.558 HEAT: -21.62123
 CYCLE:    12 TIME:   0.012 TIME LEFT:  2.00D  GRAD.:     2.912 HEAT: -21.63249
 CYCLE:    13 TIME:   0.012 TIME LEFT:  2.00D  GRAD.:     2.961 HEAT: -21.64201
 CYCLE:    14 TIME:   0.012 TIME LEFT:  2.00D  GRAD.:     2.629 HEAT: -21.65398
 CYCLE:    15 TIME:   0.008 TIME LEFT:  2.00D  GRAD.:     7.775 HEAT: -21.64575
 CYCLE:    16 TIME:   0.012 TIME LEFT:  2.00D  GRAD.:     1.362 HEAT: -21.66038
 CYCLE:    17 TIME:   0.012 TIME LEFT:  2.00D  GRAD.:     1.104 HEAT: -21.66160
 CYCLE:    18 TIME:   0.008 TIME LEFT:  2.00D  GRAD.:     1.105 HEAT: -21.66486
 CYCLE:    19 TIME:   0.012 TIME LEFT:  2.00D  GRAD.:     1.243 HEAT: -21.66717
 CYCLE:    20 TIME:   0.012 TIME LEFT:  2.00D  GRAD.:     3.161 HEAT: -21.66868
 CYCLE:    21 TIME:   0.012 TIME LEFT:  2.00D  GRAD.:     1.241 HEAT: -21.67186
 CYCLE:    22 TIME:   0.012 TIME LEFT:  2.00D  GRAD.:     1.059 HEAT: -21.67301
 CYCLE:    23 TIME:   0.012 TIME LEFT:  2.00D  GRAD.:     1.777 HEAT: -21.67529
 CYCLE:    24 TIME:   0.012 TIME LEFT:  2.00D  GRAD.:     1.816 HEAT: -21.67809
 CYCLE:    25 TIME:   0.012 TIME LEFT:  2.00D  GRAD.:     1.472 HEAT: -21.68066
 CYCLE:    26 TIME:   0.012 TIME LEFT:  2.00D  GRAD.:     2.615 HEAT: -21.68346
 CYCLE:    27 TIME:   0.008 TIME LEFT:  2.00D  GRAD.:     1.535 HEAT: -21.68609
 CYCLE:    28 TIME:   0.012 TIME LEFT:  2.00D  GRAD.:     1.245 HEAT: -21.68759
 CYCLE:    29 TIME:   0.012 TIME LEFT:  2.00D  GRAD.:     1.726 HEAT: -21.69247
 CYCLE:    30 TIME:   0.012 TIME LEFT:  2.00D  GRAD.:     3.181 HEAT: -21.69402
 CYCLE:    31 TIME:   0.008 TIME LEFT:  2.00D  GRAD.:     1.531 HEAT: -21.69701
 CYCLE:    32 TIME:   0.012 TIME LEFT:  2.00D  GRAD.:     1.158 HEAT: -21.69961
 CYCLE:    33 TIME:   0.012 TIME LEFT:  2.00D  GRAD.:     1.484 HEAT: -21.70210
 CYCLE:    34 TIME:   0.012 TIME LEFT:  2.00D  GRAD.:     2.354 HEAT: -21.70625
 CYCLE:    35 TIME:   0.008 TIME LEFT:  2.00D  GRAD.:     1.952 HEAT: -21.71033
 CYCLE:    36 TIME:   0.012 TIME LEFT:  2.00D  GRAD.:     1.482 HEAT: -21.71395
 CYCLE:    37 TIME:   0.012 TIME LEFT:  2.00D  GRAD.:     1.834 HEAT: -21.71741
 CYCLE:    38 TIME:   0.008 TIME LEFT:  2.00D  GRAD.:     2.632 HEAT: -21.71908
 CYCLE:    39 TIME:   0.012 TIME LEFT:  2.00D  GRAD.:     1.305 HEAT: -21.72096
 CYCLE:    40 TIME:   0.016 TIME LEFT:  2.00D  GRAD.:     1.242 HEAT: -21.72285
 CYCLE:    41 TIME:   0.012 TIME LEFT:  2.00D  GRAD.:     1.504 HEAT: -21.72409
 CYCLE:    42 TIME:   0.008 TIME LEFT:  2.00D  GRAD.:     1.777 HEAT: -21.72757
 CYCLE:    43 TIME:   0.008 TIME LEFT:  2.00D  GRAD.:     3.893 HEAT: -21.72830
 CYCLE:    44 TIME:   0.012 TIME LEFT:  2.00D  GRAD.:     1.265 HEAT: -21.73279
 CYCLE:    45 TIME:   0.012 TIME LEFT:  2.00D  GRAD.:     1.346 HEAT: -21.73480
 CYCLE:    46 TIME:   0.008 TIME LEFT:  2.00D  GRAD.:     2.076 HEAT: -21.73973
 CYCLE:    47 TIME:   0.012 TIME LEFT:  2.00D  GRAD.:     3.045 HEAT: -21.74484
 CYCLE:    48 TIME:   0.008 TIME LEFT:  2.00D  GRAD.:     3.152 HEAT: -21.75105
 CYCLE:    49 TIME:   0.012 TIME LEFT:  2.00D  GRAD.:     1.951 HEAT: -21.75674
 CYCLE:    50 TIME:   0.008 TIME LEFT:  2.00D  GRAD.:     2.129 HEAT: -21.76138
 CYCLE:    51 TIME:   0.012 TIME LEFT:  2.00D  GRAD.:     2.903 HEAT: -21.76508
 CYCLE:    52 TIME:   0.008 TIME LEFT:  2.00D  GRAD.:     2.072 HEAT: -21.76988
 CYCLE:    53 TIME:   0.012 TIME LEFT:  2.00D  GRAD.:     2.977 HEAT: -21.77385
 CYCLE:    54 TIME:   0.008 TIME LEFT:  2.00D  GRAD.:     1.491 HEAT: -21.77753
 CYCLE:    55 TIME:   0.012 TIME LEFT:  2.00D  GRAD.:     1.470 HEAT: -21.77970
 CYCLE:    56 TIME:   0.012 TIME LEFT:  2.00D  GRAD.:     1.791 HEAT: -21.78251
 CYCLE:    57 TIME:   0.008 TIME LEFT:  2.00D  GRAD.:     2.417 HEAT: -21.78656
 CYCLE:    58 TIME:   0.008 TIME LEFT:  2.00D  GRAD.:     2.313 HEAT: -21.78960
 CYCLE:    59 TIME:   0.012 TIME LEFT:  2.00D  GRAD.:     1.151 HEAT: -21.79190
 CYCLE:    60 TIME:   0.008 TIME LEFT:  2.00D  GRAD.:     1.276 HEAT: -21.79373
 CYCLE:    61 TIME:   0.012 TIME LEFT:  2.00D  GRAD.:     1.556 HEAT: -21.79534
 CYCLE:    62 TIME:   0.008 TIME LEFT:  2.00D  GRAD.:     2.857 HEAT: -21.79841
 CYCLE:    63 TIME:   0.012 TIME LEFT:  2.00D  GRAD.:     1.721 HEAT: -21.80212
 CYCLE:    64 TIME:   0.008 TIME LEFT:  2.00D  GRAD.:     1.494 HEAT: -21.80492
 CYCLE:    65 TIME:   0.012 TIME LEFT:  2.00D  GRAD.:     1.780 HEAT: -21.80821
 CYCLE:    66 TIME:   0.008 TIME LEFT:  2.00D  GRAD.:     4.161 HEAT: -21.81068
 CYCLE:    67 TIME:   0.012 TIME LEFT:  2.00D  GRAD.:     2.048 HEAT: -21.81460
 CYCLE:    68 TIME:   0.008 TIME LEFT:  2.00D  GRAD.:     1.633 HEAT: -21.81813
 CYCLE:    69 TIME:   0.012 TIME LEFT:  2.00D  GRAD.:     2.125 HEAT: -21.82072
 CYCLE:    70 TIME:   0.012 TIME LEFT:  2.00D  GRAD.:     2.727 HEAT: -21.82665
 CYCLE:    71 TIME:   0.008 TIME LEFT:  2.00D  GRAD.:     5.196 HEAT: -21.83155
 CYCLE:    72 TIME:   0.008 TIME LEFT:  2.00D  GRAD.:     3.647 HEAT: -21.84334
 CYCLE:    73 TIME:   0.012 TIME LEFT:  2.00D  GRAD.:     2.550 HEAT: -21.85495
 CYCLE:    74 TIME:   0.008 TIME LEFT:  2.00D  GRAD.:     3.582 HEAT: -21.86844
 CYCLE:    75 TIME:   0.012 TIME LEFT:  2.00D  GRAD.:     4.543 HEAT: -21.87750
 CYCLE:    76 TIME:   0.008 TIME LEFT:  2.00D  GRAD.:     6.139 HEAT: -21.87921
 CYCLE:    77 TIME:   0.008 TIME LEFT:  2.00D  GRAD.:     3.680 HEAT: -21.89599
 CYCLE:    78 TIME:   0.012 TIME LEFT:  2.00D  GRAD.:     3.890 HEAT: -21.90349
 CYCLE:    79 TIME:   0.012 TIME LEFT:  2.00D  GRAD.:     3.159 HEAT: -21.90989
 CYCLE:    80 TIME:   0.008 TIME LEFT:  2.00D  GRAD.:     2.878 HEAT: -21.92372
 CYCLE:    81 TIME:   0.012 TIME LEFT:  2.00D  GRAD.:     3.807 HEAT: -21.93734
 CYCLE:    82 TIME:   0.008 TIME LEFT:  2.00D  GRAD.:     8.657 HEAT: -21.94135
 CYCLE:    83 TIME:   0.008 TIME LEFT:  2.00D  GRAD.:     2.568 HEAT: -21.95410
 CYCLE:    84 TIME:   0.012 TIME LEFT:  2.00D  GRAD.:     2.061 HEAT: -21.95816
 CYCLE:    85 TIME:   0.008 TIME LEFT:  2.00D  GRAD.:     3.824 HEAT: -21.96604
 CYCLE:    86 TIME:   0.008 TIME LEFT:  2.00D  GRAD.:     3.890 HEAT: -21.97249
 CYCLE:    87 TIME:   0.012 TIME LEFT:  2.00D  GRAD.:     2.802 HEAT: -21.98286
 CYCLE:    88 TIME:   0.008 TIME LEFT:  2.00D  GRAD.:     3.105 HEAT: -21.98902
 CYCLE:    89 TIME:   0.008 TIME LEFT:  2.00D  GRAD.:     2.070 HEAT: -21.99419
 CYCLE:    90 TIME:   0.012 TIME LEFT:  2.00D  GRAD.:     2.230 HEAT: -21.99872
 CYCLE:    91 TIME:   0.008 TIME LEFT:  2.00D  GRAD.:     3.499 HEAT: -22.00880
 CYCLE:    92 TIME:   0.012 TIME LEFT:  2.00D  GRAD.:     5.299 HEAT: -22.01982
 CYCLE:    93 TIME:   0.008 TIME LEFT:  2.00D  GRAD.:     3.838 HEAT: -22.03501
 CYCLE:    94 TIME:   0.012 TIME LEFT:  2.00D  GRAD.:     3.318 HEAT: -22.05248
 CYCLE:    95 TIME:   0.008 TIME LEFT:  2.00D  GRAD.:     4.316 HEAT: -22.06153
 CYCLE:    96 TIME:   0.008 TIME LEFT:  2.00D  GRAD.:     3.013 HEAT: -22.07008
 CYCLE:    97 TIME:   0.012 TIME LEFT:  2.00D  GRAD.:     5.035 HEAT: -22.07492
 CYCLE:    98 TIME:   0.008 TIME LEFT:  2.00D  GRAD.:    10.638 HEAT: -22.06213
 CYCLE:    99 TIME:   0.008 TIME LEFT:  2.00D  GRAD.:     3.082 HEAT: -22.09771
 CYCLE:   100 TIME:   0.012 TIME LEFT:  2.00D  GRAD.:     3.002 HEAT: -22.10256
 CYCLE:   101 TIME:   0.008 TIME LEFT:  2.00D  GRAD.:     2.325 HEAT: -22.11166
 CYCLE:   102 TIME:   0.012 TIME LEFT:  2.00D  GRAD.:     3.022 HEAT: -22.12305
 CYCLE:   103 TIME:   0.008 TIME LEFT:  2.00D  GRAD.:     4.789 HEAT: -22.13095
 CYCLE:   104 TIME:   0.008 TIME LEFT:  2.00D  GRAD.:     2.915 HEAT: -22.14050
 CYCLE:   105 TIME:   0.012 TIME LEFT:  2.00D  GRAD.:     3.651 HEAT: -22.15483
 CYCLE:   106 TIME:   0.008 TIME LEFT:  2.00D  GRAD.:     5.186 HEAT: -22.16300
 CYCLE:   107 TIME:   0.008 TIME LEFT:  2.00D  GRAD.:     5.043 HEAT: -22.18352
 CYCLE:   108 TIME:   0.012 TIME LEFT:  2.00D  GRAD.:     6.789 HEAT: -22.19730
 CYCLE:   109 TIME:   0.008 TIME LEFT:  2.00D  GRAD.:     2.877 HEAT: -22.21340
 CYCLE:   110 TIME:   0.012 TIME LEFT:  2.00D  GRAD.:     2.929 HEAT: -22.22327
 CYCLE:   111 TIME:   0.012 TIME LEFT:  2.00D  GRAD.:     3.826 HEAT: -22.23786
 CYCLE:   112 TIME:   0.008 TIME LEFT:  2.00D  GRAD.:     7.782 HEAT: -22.24876
 CYCLE:   113 TIME:   0.012 TIME LEFT:  2.00D  GRAD.:     4.348 HEAT: -22.26851
 CYCLE:   114 TIME:   0.008 TIME LEFT:  2.00D  GRAD.:     3.669 HEAT: -22.27786
 CYCLE:   115 TIME:   0.012 TIME LEFT:  2.00D  GRAD.:     6.863 HEAT: -22.28663
 CYCLE:   116 TIME:   0.012 TIME LEFT:  2.00D  GRAD.:     4.225 HEAT: -22.29958
 CYCLE:   117 TIME:   0.012 TIME LEFT:  2.00D  GRAD.:     2.926 HEAT: -22.31155
 CYCLE:   118 TIME:   0.008 TIME LEFT:  2.00D  GRAD.:     4.133 HEAT: -22.32832
 CYCLE:   119 TIME:   0.012 TIME LEFT:  2.00D  GRAD.:     4.556 HEAT: -22.34645
 CYCLE:   120 TIME:   0.012 TIME LEFT:  2.00D  GRAD.:     4.789 HEAT: -22.36784
 CYCLE:   121 TIME:   0.012 TIME LEFT:  2.00D  GRAD.:     5.149 HEAT: -22.40343
 CYCLE:   122 TIME:   0.012 TIME LEFT:  2.00D  GRAD.:    16.017 HEAT: -22.37659
 CYCLE:   123 TIME:   0.008 TIME LEFT:  2.00D  GRAD.:     4.172 HEAT: -22.43755
 CYCLE:   124 TIME:   0.012 TIME LEFT:  2.00D  GRAD.:     7.096 HEAT: -22.41391
 CYCLE:   125 TIME:   0.012 TIME LEFT:  2.00D  GRAD.:     2.495 HEAT: -22.45396
 CYCLE:   126 TIME:   0.012 TIME LEFT:  2.00D  GRAD.:     3.514 HEAT: -22.46237
 CYCLE:   127 TIME:   0.012 TIME LEFT:  2.00D  GRAD.:     2.555 HEAT: -22.47248
 CYCLE:   128 TIME:   0.012 TIME LEFT:  2.00D  GRAD.:     4.459 HEAT: -22.48292
 CYCLE:   129 TIME:   0.008 TIME LEFT:  2.00D  GRAD.:     3.977 HEAT: -22.49059
 CYCLE:   130 TIME:   0.012 TIME LEFT:  2.00D  GRAD.:     2.766 HEAT: -22.49575
 CYCLE:   131 TIME:   0.012 TIME LEFT:  2.00D  GRAD.:     1.770 HEAT: -22.50467
 CYCLE:   132 TIME:   0.012 TIME LEFT:  2.00D  GRAD.:     2.640 HEAT: -22.51174
 CYCLE:   133 TIME:   0.008 TIME LEFT:  2.00D  GRAD.:     3.413 HEAT: -22.51937
 CYCLE:   134 TIME:   0.012 TIME LEFT:  2.00D  GRAD.:     2.341 HEAT: -22.52631
 CYCLE:   135 TIME:   0.012 TIME LEFT:  2.00D  GRAD.:     2.154 HEAT: -22.53131
 CYCLE:   136 TIME:   0.008 TIME LEFT:  2.00D  GRAD.:     1.946 HEAT: -22.53570
 CYCLE:   137 TIME:   0.012 TIME LEFT:  2.00D  GRAD.:     1.892 HEAT: -22.54075
 CYCLE:   138 TIME:   0.012 TIME LEFT:  2.00D  GRAD.:     2.276 HEAT: -22.54663
 CYCLE:   139 TIME:   0.008 TIME LEFT:  2.00D  GRAD.:     2.758 HEAT: -22.55227
 CYCLE:   140 TIME:   0.012 TIME LEFT:  2.00D  GRAD.:     2.096 HEAT: -22.55826
 CYCLE:   141 TIME:   0.012 TIME LEFT:  2.00D  GRAD.:     2.459 HEAT: -22.56691
 CYCLE:   142 TIME:   0.008 TIME LEFT:  2.00D  GRAD.:     4.643 HEAT: -22.57530
 CYCLE:   143 TIME:   0.012 TIME LEFT:  2.00D  GRAD.:     3.500 HEAT: -22.58717
 CYCLE:   144 TIME:   0.012 TIME LEFT:  2.00D  GRAD.:     2.295 HEAT: -22.59755
 CYCLE:   145 TIME:   0.012 TIME LEFT:  2.00D  GRAD.:     3.894 HEAT: -22.60665
 CYCLE:   146 TIME:   0.008 TIME LEFT:  2.00D  GRAD.:     2.872 HEAT: -22.61653
 CYCLE:   147 TIME:   0.012 TIME LEFT:  2.00D  GRAD.:     2.793 HEAT: -22.62922
 CYCLE:   148 TIME:   0.012 TIME LEFT:  2.00D  GRAD.:     6.191 HEAT: -22.63545
 CYCLE:   149 TIME:   0.008 TIME LEFT:  2.00D  GRAD.:     2.485 HEAT: -22.64722
 CYCLE:   150 TIME:   0.012 TIME LEFT:  2.00D  GRAD.:     2.091 HEAT: -22.65377
 CYCLE:   151 TIME:   0.012 TIME LEFT:  2.00D  GRAD.:     2.851 HEAT: -22.66316
 CYCLE:   152 TIME:   0.012 TIME LEFT:  2.00D  GRAD.:     3.967 HEAT: -22.67588
 CYCLE:   153 TIME:   0.012 TIME LEFT:  2.00D  GRAD.:     4.433 HEAT: -22.69616
 CYCLE:   154 TIME:   0.012 TIME LEFT:  2.00D  GRAD.:     5.630 HEAT: -22.72303
 CYCLE:   155 TIME:   0.008 TIME LEFT:  2.00D  GRAD.:     5.957 HEAT: -22.74807
 CYCLE:   156 TIME:   0.012 TIME LEFT:  2.00D  GRAD.:     7.077 HEAT: -22.78294
 CYCLE:   157 TIME:   0.012 TIME LEFT:  2.00D  GRAD.:    15.482 HEAT: -22.71283
 CYCLE:   158 TIME:   0.012 TIME LEFT:  2.00D  GRAD.:     6.194 HEAT: -22.80861
 CYCLE:   159 TIME:   0.012 TIME LEFT:  2.00D  GRAD.:     9.355 HEAT: -22.80111
 CYCLE:   160 TIME:   0.012 TIME LEFT:  2.00D  GRAD.:     1.943 HEAT: -22.82263
 CYCLE:   161 TIME:   0.008 TIME LEFT:  2.00D  GRAD.:     2.113 HEAT: -22.82533
 CYCLE:   162 TIME:   0.012 TIME LEFT:  2.00D  GRAD.:     2.296 HEAT: -22.83174
 CYCLE:   163 TIME:   0.012 TIME LEFT:  2.00D  GRAD.:     5.127 HEAT: -22.83743
 CYCLE:   164 TIME:   0.008 TIME LEFT:  2.00D  GRAD.:     2.855 HEAT: -22.84559
 CYCLE:   165 TIME:   0.012 TIME LEFT:  2.00D  GRAD.:     2.363 HEAT: -22.85009
 CYCLE:   166 TIME:   0.012 TIME LEFT:  2.00D  GRAD.:     2.442 HEAT: -22.85838
 CYCLE:   167 TIME:   0.012 TIME LEFT:  2.00D  GRAD.:     3.283 HEAT: -22.86856
 CYCLE:   168 TIME:   0.008 TIME LEFT:  2.00D  GRAD.:     4.270 HEAT: -22.87864
 CYCLE:   169 TIME:   0.012 TIME LEFT:  2.00D  GRAD.:     2.695 HEAT: -22.88888
 CYCLE:   170 TIME:   0.008 TIME LEFT:  2.00D  GRAD.:     3.632 HEAT: -22.90213
 CYCLE:   171 TIME:   0.012 TIME LEFT:  2.00D  GRAD.:     5.034 HEAT: -22.90737
 CYCLE:   172 TIME:   0.012 TIME LEFT:  2.00D  GRAD.:     2.893 HEAT: -22.92224
 CYCLE:   173 TIME:   0.012 TIME LEFT:  2.00D  GRAD.:     2.579 HEAT: -22.93207
 CYCLE:   174 TIME:   0.012 TIME LEFT:  2.00D  GRAD.:     4.249 HEAT: -22.94198
 CYCLE:   175 TIME:   0.012 TIME LEFT:  2.00D  GRAD.:     4.127 HEAT: -22.95279
 CYCLE:   176 TIME:   0.008 TIME LEFT:  2.00D  GRAD.:     2.485 HEAT: -22.96171
 CYCLE:   177 TIME:   0.012 TIME LEFT:  2.00D  GRAD.:     2.522 HEAT: -22.97031
 CYCLE:   178 TIME:   0.012 TIME LEFT:  2.00D  GRAD.:     4.633 HEAT: -22.97962
 CYCLE:   179 TIME:   0.012 TIME LEFT:  2.00D  GRAD.:     2.920 HEAT: -22.99064
 CYCLE:   180 TIME:   0.008 TIME LEFT:  2.00D  GRAD.:     2.961 HEAT: -23.00131
 CYCLE:   181 TIME:   0.012 TIME LEFT:  2.00D  GRAD.:     3.535 HEAT: -23.01528
 CYCLE:   182 TIME:   0.008 TIME LEFT:  2.00D  GRAD.:     4.604 HEAT: -23.02359
 CYCLE:   183 TIME:   0.012 TIME LEFT:  2.00D  GRAD.:     5.081 HEAT: -23.03585
 CYCLE:   184 TIME:   0.012 TIME LEFT:  2.00D  GRAD.:     2.432 HEAT: -23.04515
 CYCLE:   185 TIME:   0.012 TIME LEFT:  2.00D  GRAD.:     2.496 HEAT: -23.05073
 CYCLE:   186 TIME:   0.008 TIME LEFT:  2.00D  GRAD.:     2.759 HEAT: -23.05778
 CYCLE:   187 TIME:   0.012 TIME LEFT:  2.00D  GRAD.:     3.401 HEAT: -23.06977
 CYCLE:   188 TIME:   0.012 TIME LEFT:  2.00D  GRAD.:     7.834 HEAT: -23.08021
 CYCLE:   189 TIME:   0.012 TIME LEFT:  2.00D  GRAD.:     5.915 HEAT: -23.09507
 CYCLE:   190 TIME:   0.008 TIME LEFT:  2.00D  GRAD.:     2.925 HEAT: -23.10906
 CYCLE:   191 TIME:   0.012 TIME LEFT:  2.00D  GRAD.:     2.659 HEAT: -23.11978
 CYCLE:   192 TIME:   0.012 TIME LEFT:  2.00D  GRAD.:     3.895 HEAT: -23.12888
 CYCLE:   193 TIME:   0.012 TIME LEFT:  2.00D  GRAD.:     4.015 HEAT: -23.14314
 CYCLE:   194 TIME:   0.008 TIME LEFT:  2.00D  GRAD.:     7.255 HEAT: -23.15420
 CYCLE:   195 TIME:   0.012 TIME LEFT:  2.00D  GRAD.:     3.958 HEAT: -23.17283
 CYCLE:   196 TIME:   0.012 TIME LEFT:  2.00D  GRAD.:     4.079 HEAT: -23.17923
 CYCLE:   197 TIME:   0.008 TIME LEFT:  2.00D  GRAD.:     2.948 HEAT: -23.18651
 CYCLE:   198 TIME:   0.016 TIME LEFT:  2.00D  GRAD.:     2.969 HEAT: -23.20054
 CYCLE:   199 TIME:   0.008 TIME LEFT:  2.00D  GRAD.:     3.322 HEAT: -23.21163
 CYCLE:   200 TIME:   0.012 TIME LEFT:  2.00D  GRAD.:     3.617 HEAT: -23.21652
 CYCLE:   201 TIME:   0.008 TIME LEFT:  2.00D  GRAD.:     2.543 HEAT: -23.22940
 CYCLE:   202 TIME:   0.012 TIME LEFT:  2.00D  GRAD.:     2.689 HEAT: -23.23940
 CYCLE:   203 TIME:   0.012 TIME LEFT:  2.00D  GRAD.:     2.693 HEAT: -23.24729
 CYCLE:   204 TIME:   0.012 TIME LEFT:  2.00D  GRAD.:     2.159 HEAT: -23.25350
 CYCLE:   205 TIME:   0.008 TIME LEFT:  2.00D  GRAD.:     2.296 HEAT: -23.26117
 CYCLE:   206 TIME:   0.012 TIME LEFT:  2.00D  GRAD.:     2.869 HEAT: -23.26806
 CYCLE:   207 TIME:   0.012 TIME LEFT:  2.00D  GRAD.:     2.515 HEAT: -23.27393
 CYCLE:   208 TIME:   0.012 TIME LEFT:  2.00D  GRAD.:     1.614 HEAT: -23.27809
 CYCLE:   209 TIME:   0.008 TIME LEFT:  2.00D  GRAD.:     2.220 HEAT: -23.28300
 CYCLE:   210 TIME:   0.012 TIME LEFT:  2.00D  GRAD.:     1.850 HEAT: -23.28635
 CYCLE:   211 TIME:   0.012 TIME LEFT:  2.00D  GRAD.:     1.705 HEAT: -23.29059
 CYCLE:   212 TIME:   0.012 TIME LEFT:  2.00D  GRAD.:     3.415 HEAT: -23.29486
 CYCLE:   213 TIME:   0.008 TIME LEFT:  2.00D  GRAD.:     1.725 HEAT: -23.29996
 CYCLE:   214 TIME:   0.012 TIME LEFT:  2.00D  GRAD.:     1.673 HEAT: -23.30413
 CYCLE:   215 TIME:   0.012 TIME LEFT:  2.00D  GRAD.:     2.656 HEAT: -23.31010
 CYCLE:   216 TIME:   0.012 TIME LEFT:  2.00D  GRAD.:     3.593 HEAT: -23.31452
 CYCLE:   217 TIME:   0.008 TIME LEFT:  2.00D  GRAD.:     1.855 HEAT: -23.31963
 CYCLE:   218 TIME:   0.012 TIME LEFT:  2.00D  GRAD.:     2.167 HEAT: -23.32460
 CYCLE:   219 TIME:   0.012 TIME LEFT:  2.00D  GRAD.:     2.188 HEAT: -23.32859
 CYCLE:   220 TIME:   0.008 TIME LEFT:  2.00D  GRAD.:     2.109 HEAT: -23.33422
 CYCLE:   221 TIME:   0.012 TIME LEFT:  2.00D  GRAD.:     2.362 HEAT: -23.33975
 CYCLE:   222 TIME:   0.012 TIME LEFT:  2.00D  GRAD.:     2.369 HEAT: -23.34620
 CYCLE:   223 TIME:   0.012 TIME LEFT:  2.00D  GRAD.:     3.736 HEAT: -23.35203
 CYCLE:   224 TIME:   0.008 TIME LEFT:  2.00D  GRAD.:     3.324 HEAT: -23.35646
 CYCLE:   225 TIME:   0.012 TIME LEFT:  2.00D  GRAD.:     2.169 HEAT: -23.35999
 CYCLE:   226 TIME:   0.012 TIME LEFT:  2.00D  GRAD.:     2.027 HEAT: -23.36491
 CYCLE:   227 TIME:   0.008 TIME LEFT:  2.00D  GRAD.:     1.969 HEAT: -23.37026
 CYCLE:   228 TIME:   0.012 TIME LEFT:  2.00D  GRAD.:     4.393 HEAT: -23.37558
 CYCLE:   229 TIME:   0.012 TIME LEFT:  2.00D  GRAD.:     1.913 HEAT: -23.38223
 CYCLE:   230 TIME:   0.008 TIME LEFT:  2.00D  GRAD.:     1.411 HEAT: -23.38470
 CYCLE:   231 TIME:   0.012 TIME LEFT:  2.00D  GRAD.:     1.404 HEAT: -23.38792
 CYCLE:   232 TIME:   0.012 TIME LEFT:  2.00D  GRAD.:     3.223 HEAT: -23.38899
 CYCLE:   233 TIME:   0.012 TIME LEFT:  2.00D  GRAD.:     1.288 HEAT: -23.39145
 CYCLE:   234 TIME:   0.012 TIME LEFT:  2.00D  GRAD.:     1.060 HEAT: -23.39276
 CYCLE:   235 TIME:   0.008 TIME LEFT:  2.00D  GRAD.:     1.386 HEAT: -23.39419
 CYCLE:   236 TIME:   0.012 TIME LEFT:  2.00D  GRAD.:     2.112 HEAT: -23.39700
 CYCLE:   237 TIME:   0.012 TIME LEFT:  2.00D  GRAD.:     3.231 HEAT: -23.39821
 CYCLE:   238 TIME:   0.012 TIME LEFT:  2.00D  GRAD.:     1.196 HEAT: -23.40092
 CYCLE:   239 TIME:   0.008 TIME LEFT:  2.00D  GRAD.:     0.981 HEAT: -23.40194
 CYCLE:   240 TIME:   0.012 TIME LEFT:  2.00D  GRAD.:     1.318 HEAT: -23.40340
 CYCLE:   241 TIME:   0.012 TIME LEFT:  2.00D  GRAD.:     1.903 HEAT: -23.40608
 CYCLE:   242 TIME:   0.012 TIME LEFT:  2.00D  GRAD.:     1.965 HEAT: -23.40856
 CYCLE:   243 TIME:   0.012 TIME LEFT:  2.00D  GRAD.:     1.257 HEAT: -23.41077
 CYCLE:   244 TIME:   0.012 TIME LEFT:  2.00D  GRAD.:     1.063 HEAT: -23.41240
 CYCLE:   245 TIME:   0.012 TIME LEFT:  2.00D  GRAD.:     1.087 HEAT: -23.41354
 CYCLE:   246 TIME:   0.008 TIME LEFT:  2.00D  GRAD.:     1.218 HEAT: -23.41498
 CYCLE:   247 TIME:   0.012 TIME LEFT:  2.00D  GRAD.:     0.918 HEAT: -23.41602
 CYCLE:   248 TIME:   0.012 TIME LEFT:  2.00D  GRAD.:     0.789 HEAT: -23.41684
 CYCLE:   249 TIME:   0.012 TIME LEFT:  2.00D  GRAD.:     0.769 HEAT: -23.41761
 CYCLE:   250 TIME:   0.008 TIME LEFT:  2.00D  GRAD.:     1.590 HEAT: -23.41807
 CYCLE:   251 TIME:   0.012 TIME LEFT:  2.00D  GRAD.:     0.636 HEAT: -23.41890
 CYCLE:   252 TIME:   0.008 TIME LEFT:  2.00D  GRAD.:     0.550 HEAT: -23.41927
 CYCLE:   253 TIME:   0.012 TIME LEFT:  2.00D  GRAD.:     0.806 HEAT: -23.41980
 CYCLE:   254 TIME:   0.016 TIME LEFT:  2.00D  GRAD.:     1.609 HEAT: -23.42052
 CYCLE:   255 TIME:   0.008 TIME LEFT:  2.00D  GRAD.:     1.040 HEAT: -23.42145
 CYCLE:   256 TIME:   0.012 TIME LEFT:  2.00D  GRAD.:     1.012 HEAT: -23.42309
 CYCLE:   257 TIME:   0.012 TIME LEFT:  2.00D  GRAD.:     1.375 HEAT: -23.42441
 CYCLE:   258 TIME:   0.012 TIME LEFT:  2.00D  GRAD.:     1.373 HEAT: -23.42607
 CYCLE:   259 TIME:   0.012 TIME LEFT:  2.00D  GRAD.:     1.246 HEAT: -23.42796
 CYCLE:   260 TIME:   0.012 TIME LEFT:  2.00D  GRAD.:     1.590 HEAT: -23.42970
 CYCLE:   261 TIME:   0.008 TIME LEFT:  2.00D  GRAD.:     1.155 HEAT: -23.43195
 CYCLE:   262 TIME:   0.012 TIME LEFT:  2.00D  GRAD.:     1.250 HEAT: -23.43454
 CYCLE:   263 TIME:   0.012 TIME LEFT:  2.00D  GRAD.:     2.374 HEAT: -23.43598
 CYCLE:   264 TIME:   0.008 TIME LEFT:  2.00D  GRAD.:     3.165 HEAT: -23.43690
 CYCLE:   265 TIME:   0.012 TIME LEFT:  2.00D  GRAD.:     0.952 HEAT: -23.43967
 CYCLE:   266 TIME:   0.012 TIME LEFT:  2.00D  GRAD.:     0.867 HEAT: -23.44038
 CYCLE:   267 TIME:   0.008 TIME LEFT:  2.00D  GRAD.:     0.898 HEAT: -23.44163
 CYCLE:   268 TIME:   0.012 TIME LEFT:  2.00D  GRAD.:     1.050 HEAT: -23.44339
 CYCLE:   269 TIME:   0.008 TIME LEFT:  2.00D  GRAD.:     3.121 HEAT: -23.44272
 CYCLE:   270 TIME:   0.012 TIME LEFT:  2.00D  GRAD.:     0.799 HEAT: -23.44436
 CYCLE:   271 TIME:   0.008 TIME LEFT:  2.00D  GRAD.:     0.578 HEAT: -23.44469
 CYCLE:   272 TIME:   0.012 TIME LEFT:  2.00D  GRAD.:     0.826 HEAT: -23.44539
 CYCLE:   273 TIME:   0.012 TIME LEFT:  2.00D  GRAD.:     0.727 HEAT: -23.44602
 CYCLE:   274 TIME:   0.012 TIME LEFT:  2.00D  GRAD.:     0.860 HEAT: -23.44667
 CYCLE:   275 TIME:   0.008 TIME LEFT:  2.00D  GRAD.:     0.824 HEAT: -23.44717
 CYCLE:   276 TIME:   0.012 TIME LEFT:  2.00D  GRAD.:     0.665 HEAT: -23.44755
 CYCLE:   277 TIME:   0.012 TIME LEFT:  2.00D  GRAD.:     0.644 HEAT: -23.44813
 CYCLE:   278 TIME:   0.012 TIME LEFT:  2.00D  GRAD.:     1.393 HEAT: -23.44862
 CYCLE:   279 TIME:   0.008 TIME LEFT:  2.00D  GRAD.:     0.753 HEAT: -23.44916
 CYCLE:   280 TIME:   0.012 TIME LEFT:  2.00D  GRAD.:     0.533 HEAT: -23.44966
 CYCLE:   281 TIME:   0.012 TIME LEFT:  2.00D  GRAD.:     0.586 HEAT: -23.44997
 CYCLE:   282 TIME:   0.008 TIME LEFT:  2.00D  GRAD.:     0.697 HEAT: -23.45082
 CYCLE:   283 TIME:   0.012 TIME LEFT:  2.00D  GRAD.:     2.586 HEAT: -23.45011
 CYCLE:   284 TIME:   0.012 TIME LEFT:  2.00D  GRAD.:     0.557 HEAT: -23.45183
 CYCLE:   285 TIME:   0.008 TIME LEFT:  2.00D  GRAD.:     0.428 HEAT: -23.45208
 CYCLE:   286 TIME:   0.012 TIME LEFT:  2.00D  GRAD.:     0.672 HEAT: -23.45266
 CYCLE:   287 TIME:   0.012 TIME LEFT:  2.00D  GRAD.:     2.259 HEAT: -23.45264
 CYCLE:   288 TIME:   0.008 TIME LEFT:  2.00D  GRAD.:     0.822 HEAT: -23.45338
 CYCLE:   289 TIME:   0.012 TIME LEFT:  2.00D  GRAD.:     0.502 HEAT: -23.45375
 CYCLE:   290 TIME:   0.012 TIME LEFT:  2.00D  GRAD.:     0.812 HEAT: -23.45433
 CYCLE:   291 TIME:   0.008 TIME LEFT:  2.00D  GRAD.:     0.975 HEAT: -23.45498
 CYCLE:   292 TIME:   0.012 TIME LEFT:  2.00D  GRAD.:     1.261 HEAT: -23.45626
 CYCLE:   293 TIME:   0.012 TIME LEFT:  2.00D  GRAD.:     1.360 HEAT: -23.45744
 CYCLE:   294 TIME:   0.012 TIME LEFT:  2.00D  GRAD.:     1.171 HEAT: -23.45828
 CYCLE:   295 TIME:   0.008 TIME LEFT:  2.00D  GRAD.:     0.702 HEAT: -23.45897
 CYCLE:   296 TIME:   0.012 TIME LEFT:  2.00D  GRAD.:     0.575 HEAT: -23.45956
 CYCLE:   297 TIME:   0.012 TIME LEFT:  2.00D  GRAD.:     0.639 HEAT: -23.46006
 CYCLE:   298 TIME:   0.008 TIME LEFT:  2.00D  GRAD.:     0.910 HEAT: -23.46027
 CYCLE:   299 TIME:   0.012 TIME LEFT:  2.00D  GRAD.:     0.348 HEAT: -23.46058
 CYCLE:   300 TIME:   0.012 TIME LEFT:  2.00D  GRAD.:     0.313 HEAT: -23.46068
 CYCLE:   301 TIME:   0.008 TIME LEFT:  2.00D  GRAD.:     0.344 HEAT: -23.46085
 CYCLE:   302 TIME:   0.012 TIME LEFT:  2.00D  GRAD.:     1.030 HEAT: -23.46099
 CYCLE:   303 TIME:   0.012 TIME LEFT:  2.00D  GRAD.:     0.442 HEAT: -23.46128
 CYCLE:   304 TIME:   0.008 TIME LEFT:  2.00D  GRAD.:     0.347 HEAT: -23.46143
 CYCLE:   305 TIME:   0.012 TIME LEFT:  2.00D  GRAD.:     0.377 HEAT: -23.46167
 CYCLE:   306 TIME:   0.012 TIME LEFT:  2.00D  GRAD.:     0.840 HEAT: -23.46204
 CYCLE:   307 TIME:   0.008 TIME LEFT:  2.00D  GRAD.:     0.675 HEAT: -23.46241
 CYCLE:   308 TIME:   0.012 TIME LEFT:  2.00D  GRAD.:     0.455 HEAT: -23.46269
 CYCLE:   309 TIME:   0.012 TIME LEFT:  2.00D  GRAD.:     0.458 HEAT: -23.46294
 CYCLE:   310 TIME:   0.012 TIME LEFT:  2.00D  GRAD.:     0.683 HEAT: -23.46323
 CYCLE:   311 TIME:   0.008 TIME LEFT:  2.00D  GRAD.:     0.514 HEAT: -23.46355
 CYCLE:   312 TIME:   0.012 TIME LEFT:  2.00D  GRAD.:     0.629 HEAT: -23.46392
 CYCLE:   313 TIME:   0.012 TIME LEFT:  2.00D  GRAD.:     0.612 HEAT: -23.46416
 CYCLE:   314 TIME:   0.008 TIME LEFT:  2.00D  GRAD.:     0.421 HEAT: -23.46436
 CYCLE:   315 TIME:   0.012 TIME LEFT:  2.00D  GRAD.:     0.364 HEAT: -23.46472
 CYCLE:   316 TIME:   0.012 TIME LEFT:  2.00D  GRAD.:     0.733 HEAT: -23.46499
 CYCLE:   317 TIME:   0.008 TIME LEFT:  2.00D  GRAD.:     0.612 HEAT: -23.46534
 CYCLE:   318 TIME:   0.012 TIME LEFT:  2.00D  GRAD.:     0.694 HEAT: -23.46572
 CYCLE:   319 TIME:   0.012 TIME LEFT:  2.00D  GRAD.:     0.482 HEAT: -23.46611
 CYCLE:   320 TIME:   0.012 TIME LEFT:  2.00D  GRAD.:     0.499 HEAT: -23.46640
 CYCLE:   321 TIME:   0.008 TIME LEFT:  2.00D  GRAD.:     1.027 HEAT: -23.46684
 CYCLE:   322 TIME:   0.012 TIME LEFT:  2.00D  GRAD.:     0.613 HEAT: -23.46740
 CYCLE:   323 TIME:   0.012 TIME LEFT:  2.00D  GRAD.:     0.696 HEAT: -23.46796
 CYCLE:   324 TIME:   0.012 TIME LEFT:  2.00D  GRAD.:     1.014 HEAT: -23.46866
 CYCLE:   325 TIME:   0.008 TIME LEFT:  2.00D  GRAD.:     0.985 HEAT: -23.46943
 CYCLE:   326 TIME:   0.012 TIME LEFT:  2.00D  GRAD.:     1.205 HEAT: -23.47016
 CYCLE:   327 TIME:   0.012 TIME LEFT:  2.00D  GRAD.:     1.135 HEAT: -23.47083
 CYCLE:   328 TIME:   0.012 TIME LEFT:  2.00D  GRAD.:     1.924 HEAT: -23.47151
 CYCLE:   329 TIME:   0.008 TIME LEFT:  2.00D  GRAD.:     1.766 HEAT: -23.47265
 CYCLE:   330 TIME:   0.012 TIME LEFT:  2.00D  GRAD.:     1.190 HEAT: -23.47334
 CYCLE:   331 TIME:   0.012 TIME LEFT:  2.00D  GRAD.:     1.916 HEAT: -23.47329
 CYCLE:   332 TIME:   0.012 TIME LEFT:  2.00D  GRAD.:     0.719 HEAT: -23.47431
 CYCLE:   333 TIME:   0.012 TIME LEFT:  2.00D  GRAD.:     0.625 HEAT: -23.47447
 CYCLE:   334 TIME:   0.008 TIME LEFT:  2.00D  GRAD.:     0.511 HEAT: -23.47481
 CYCLE:   335 TIME:   0.012 TIME LEFT:  2.00D  GRAD.:     0.531 HEAT: -23.47503
 CYCLE:   336 TIME:   0.012 TIME LEFT:  2.00D  GRAD.:     0.450 HEAT: -23.47537
 CYCLE:   337 TIME:   0.008 TIME LEFT:  2.00D  GRAD.:     0.882 HEAT: -23.47577
 CYCLE:   338 TIME:   0.012 TIME LEFT:  2.00D  GRAD.:     0.668 HEAT: -23.47604
 CYCLE:   339 TIME:   0.012 TIME LEFT:  2.00D  GRAD.:     0.561 HEAT: -23.47623
 CYCLE:   340 TIME:   0.012 TIME LEFT:  2.00D  GRAD.:     0.415 HEAT: -23.47649
 CYCLE:   341 TIME:   0.008 TIME LEFT:  2.00D  GRAD.:     0.521 HEAT: -23.47694
 CYCLE:   342 TIME:   0.012 TIME LEFT:  2.00D  GRAD.:     0.636 HEAT: -23.47727
 CYCLE:   343 TIME:   0.012 TIME LEFT:  2.00D  GRAD.:     0.480 HEAT: -23.47755
 CYCLE:   344 TIME:   0.008 TIME LEFT:  2.00D  GRAD.:     0.429 HEAT: -23.47787
 CYCLE:   345 TIME:   0.012 TIME LEFT:  2.00D  GRAD.:     0.535 HEAT: -23.47825
 CYCLE:   346 TIME:   0.012 TIME LEFT:  2.00D  GRAD.:     1.109 HEAT: -23.47846
 CYCLE:   347 TIME:   0.012 TIME LEFT:  2.00D  GRAD.:     0.438 HEAT: -23.47885
 CYCLE:   348 TIME:   0.012 TIME LEFT:  2.00D  GRAD.:     0.389 HEAT: -23.47908
 CYCLE:   349 TIME:   0.008 TIME LEFT:  2.00D  GRAD.:     0.506 HEAT: -23.47931
 CYCLE:   350 TIME:   0.012 TIME LEFT:  2.00D  GRAD.:     0.956 HEAT: -23.47974
 CYCLE:   351 TIME:   0.012 TIME LEFT:  2.00D  GRAD.:     1.377 HEAT: -23.48021
 CYCLE:   352 TIME:   0.012 TIME LEFT:  2.00D  GRAD.:     0.765 HEAT: -23.48069
 CYCLE:   353 TIME:   0.008 TIME LEFT:  2.00D  GRAD.:     0.588 HEAT: -23.48111
 CYCLE:   354 TIME:   0.012 TIME LEFT:  2.00D  GRAD.:     0.648 HEAT: -23.48142
 CYCLE:   355 TIME:   0.012 TIME LEFT:  2.00D  GRAD.:     0.889 HEAT: -23.48196
 CYCLE:   356 TIME:   0.008 TIME LEFT:  2.00D  GRAD.:     1.195 HEAT: -23.48201
 CYCLE:   357 TIME:   0.012 TIME LEFT:  2.00D  GRAD.:     0.384 HEAT: -23.48243
 CYCLE:   358 TIME:   0.012 TIME LEFT:  2.00D  GRAD.:     0.298 HEAT: -23.48255
 CYCLE:   359 TIME:   0.008 TIME LEFT:  2.00D  GRAD.:     0.426 HEAT: -23.48277
 CYCLE:   360 TIME:   0.012 TIME LEFT:  2.00D  GRAD.:     0.699 HEAT: -23.48307
 CYCLE:   361 TIME:   0.012 TIME LEFT:  2.00D  GRAD.:     0.581 HEAT: -23.48335
 CYCLE:   362 TIME:   0.012 TIME LEFT:  2.00D  GRAD.:     0.382 HEAT: -23.48358
 CYCLE:   363 TIME:   0.012 TIME LEFT:  2.00D  GRAD.:     0.528 HEAT: -23.48392
 CYCLE:   364 TIME:   0.008 TIME LEFT:  2.00D  GRAD.:     0.687 HEAT: -23.48426
 CYCLE:   365 TIME:   0.012 TIME LEFT:  2.00D  GRAD.:     0.893 HEAT: -23.48484
 CYCLE:   366 TIME:   0.012 TIME LEFT:  2.00D  GRAD.:     1.334 HEAT: -23.48523
 CYCLE:   367 TIME:   0.012 TIME LEFT:  2.00D  GRAD.:     0.575 HEAT: -23.48565
 CYCLE:   368 TIME:   0.008 TIME LEFT:  2.00D  GRAD.:     0.515 HEAT: -23.48583
 CYCLE:   369 TIME:   0.012 TIME LEFT:  2.00D  GRAD.:     0.525 HEAT: -23.48613
 CYCLE:   370 TIME:   0.012 TIME LEFT:  2.00D  GRAD.:     0.696 HEAT: -23.48665
 CYCLE:   371 TIME:   0.012 TIME LEFT:  2.00D  GRAD.:     0.787 HEAT: -23.48710
 CYCLE:   372 TIME:   0.008 TIME LEFT:  2.00D  GRAD.:     0.756 HEAT: -23.48757
 CYCLE:   373 TIME:   0.012 TIME LEFT:  2.00D  GRAD.:     0.902 HEAT: -23.48799
 CYCLE:   374 TIME:   0.012 TIME LEFT:  2.00D  GRAD.:     1.272 HEAT: -23.48860
 CYCLE:   375 TIME:   0.012 TIME LEFT:  2.00D  GRAD.:     0.625 HEAT: -23.48914
 CYCLE:   376 TIME:   0.008 TIME LEFT:  2.00D  GRAD.:     0.422 HEAT: -23.48933
 CYCLE:   377 TIME:   0.012 TIME LEFT:  2.00D  GRAD.:     0.338 HEAT: -23.48954
 CYCLE:   378 TIME:   0.012 TIME LEFT:  2.00D  GRAD.:     0.469 HEAT: -23.48973
 CYCLE:   379 TIME:   0.008 TIME LEFT:  2.00D  GRAD.:     0.422 HEAT: -23.48991
 CYCLE:   380 TIME:   0.012 TIME LEFT:  2.00D  GRAD.:     0.594 HEAT: -23.49004
 CYCLE:   381 TIME:   0.008 TIME LEFT:  2.00D  GRAD.:     0.465 HEAT: -23.49014
 CYCLE:   382 TIME:   0.012 TIME LEFT:  2.00D  GRAD.:     0.384 HEAT: -23.49022
 CYCLE:   383 TIME:   0.012 TIME LEFT:  2.00D  GRAD.:     0.378 HEAT: -23.49032
 CYCLE:   384 TIME:   0.008 TIME LEFT:  2.00D  GRAD.:     0.278 HEAT: -23.49043
 CYCLE:   385 TIME:   0.012 TIME LEFT:  2.00D  GRAD.:     0.288 HEAT: -23.49060
 CYCLE:   386 TIME:   0.012 TIME LEFT:  2.00D  GRAD.:     0.553 HEAT: -23.49076
 CYCLE:   387 TIME:   0.012 TIME LEFT:  2.00D  GRAD.:     0.354 HEAT: -23.49094
 CYCLE:   388 TIME:   0.008 TIME LEFT:  2.00D  GRAD.:     0.315 HEAT: -23.49115
 CYCLE:   389 TIME:   0.012 TIME LEFT:  2.00D  GRAD.:     0.387 HEAT: -23.49134
 CYCLE:   390 TIME:   0.012 TIME LEFT:  2.00D  GRAD.:     0.659 HEAT: -23.49148
 CYCLE:   391 TIME:   0.008 TIME LEFT:  2.00D  GRAD.:     0.329 HEAT: -23.49167
 CYCLE:   392 TIME:   0.012 TIME LEFT:  2.00D  GRAD.:     0.318 HEAT: -23.49181
 CYCLE:   393 TIME:   0.012 TIME LEFT:  2.00D  GRAD.:     0.400 HEAT: -23.49197
 CYCLE:   394 TIME:   0.012 TIME LEFT:  2.00D  GRAD.:     0.800 HEAT: -23.49222
 CYCLE:   395 TIME:   0.008 TIME LEFT:  2.00D  GRAD.:     0.449 HEAT: -23.49254
 CYCLE:   396 TIME:   0.012 TIME LEFT:  2.00D  GRAD.:     0.533 HEAT: -23.49283
 CYCLE:   397 TIME:   0.012 TIME LEFT:  2.00D  GRAD.:     1.033 HEAT: -23.49303
 CYCLE:   398 TIME:   0.008 TIME LEFT:  2.00D  GRAD.:     0.511 HEAT: -23.49326
 CYCLE:   399 TIME:   0.012 TIME LEFT:  2.00D  GRAD.:     0.500 HEAT: -23.49347
 CYCLE:   400 TIME:   0.008 TIME LEFT:  2.00D  GRAD.:     0.637 HEAT: -23.49371
 CYCLE:   401 TIME:   0.012 TIME LEFT:  2.00D  GRAD.:     0.606 HEAT: -23.49403
 CYCLE:   402 TIME:   0.012 TIME LEFT:  2.00D  GRAD.:     1.297 HEAT: -23.49402
 CYCLE:   403 TIME:   0.008 TIME LEFT:  2.00D  GRAD.:     0.331 HEAT: -23.49444
 CYCLE:   404 TIME:   0.012 TIME LEFT:  2.00D  GRAD.:     0.275 HEAT: -23.49456
 CYCLE:   405 TIME:   0.008 TIME LEFT:  2.00D  GRAD.:     0.415 HEAT: -23.49471
 CYCLE:   406 TIME:   0.012 TIME LEFT:  2.00D  GRAD.:     0.727 HEAT: -23.49490
 CYCLE:   407 TIME:   0.012 TIME LEFT:  2.00D  GRAD.:     0.385 HEAT: -23.49513
 CYCLE:   408 TIME:   0.012 TIME LEFT:  2.00D  GRAD.:     0.293 HEAT: -23.49529
 CYCLE:   409 TIME:   0.012 TIME LEFT:  2.00D  GRAD.:     0.279 HEAT: -23.49540
 CYCLE:   410 TIME:   0.008 TIME LEFT:  2.00D  GRAD.:     0.666 HEAT: -23.49543
 CYCLE:   411 TIME:   0.012 TIME LEFT:  2.00D  GRAD.:     0.200 HEAT: -23.49554
 CYCLE:   412 TIME:   0.008 TIME LEFT:  2.00D  GRAD.:     0.155 HEAT: -23.49557

 -------------------------------------------------------------------------------
 pm3  precise nosym THREADS=1
 InChI=1S/C12H22/c1-3-5-6-7-8-12-9-11(4-2)10-12/h6-7,11-12H,3-5,8-10H2,1-2H3



     HERBERTS TEST WAS SATISFIED IN BFGS                      
     SCF FIELD WAS ACHIEVED                                   


                              PM3 CALCULATION
                                                       MOPAC v23.1.2 MacOS
                                                       Tue Jun  3 16:37:43 2025




          FINAL HEAT OF FORMATION =        -23.49557 KCAL/MOL =     -98.30547 KJ/MOL


          COSMO AREA              =        250.40 SQUARE ANGSTROMS
          COSMO VOLUME            =        256.33 CUBIC ANGSTROMS

          GRADIENT NORM           =          0.15499          =       0.02658 PER ATOM
          IONIZATION POTENTIAL    =          9.737174 EV
          HOMO LUMO ENERGIES (EV) =         -9.737  1.111
          NO. OF FILLED LEVELS    =         35
          MOLECULAR WEIGHT        =        166.3058         POINT GROUP:  C1  

          MOLECULAR DIMENSIONS (Angstroms)

            Atom       Atom       Distance
            H    32    H    29    12.27428
            H    21    H    26     5.38805
            H    24    H    17     3.94524


          SCF CALCULATIONS        =        413

          WALL-CLOCK TIME         =      4.348 SECONDS
          COMPUTATION TIME        =      3.087 SECONDS




   ATOM   CHEMICAL          X               Y               Z
  NUMBER   SYMBOL      (ANGSTROMS)     (ANGSTROMS)     (ANGSTROMS)

     1       C          3.24097583  *   0.19602615  *   0.70227514  *
     2       C          1.14262067  *  -0.38290504  *   0.98705949  *
     3       C          1.87404085  *   0.90046566  *   0.52441423  *
     4       C          2.50875524  *  -1.09188474  *   1.14995543  *
     5       C          4.06090648  *   0.04258689  *  -0.56181755  *
     6       C         -4.49807235  *  -0.32912846  *   0.73785726  *
     7       C          0.23040952  *  -1.02144677  *  -0.04175541  *
     8       C         -3.49222222  *  -0.03401649  *  -0.36580134  *
     9       C          4.71103874  *   1.34473353  *  -0.97205197  *
    10       C         -5.78500169  *   0.43699107  *   0.53056155  *
    11       C         -1.02803350  *  -0.24496019  *  -0.20471188  *
    12       C         -2.23671655  *  -0.80688880  *  -0.16750600  *
    13       H          3.86259112  *   0.64759017  *   1.50390097  *
    14       H          0.59764199  *  -0.25280281  *   1.94504154  *
    15       H          3.42132416  *  -0.33890261  *  -1.38386742  *
    16       H          4.83367253  *  -0.73469752  *  -0.39948357  *
    17       H          1.72046736  *   1.77543308  *   1.17264892  *
    18       H          1.64779467  *   1.21560454  *  -0.50735211  *
    19       H         -4.05884648  *  -0.07447651  *   1.72228923  *
    20       H         -4.70687919  *  -1.41675141  *   0.77816577  *
    21       H          2.73746953  *  -1.41831366  *   2.17482027  *
    22       H          2.65878347  *  -1.96032922  *   0.48871205  *
    23       H          0.74105174  *  -1.08000470  *  -1.02574221  *
    24       H          0.02491295  *  -2.07001718  *   0.25422736  *
    25       H         -3.29177763  *   1.05566412  *  -0.41318865  *
    26       H         -3.91974238  *  -0.30311689  *  -1.35325628  *
    27       H          3.96199871  *   2.12775439  *  -1.15238660  *
    28       H          5.39448149  *   1.71919904  *  -0.19835629  *
    29       H          5.29261088  *   1.22628776  *  -1.89504263  *
    30       H         -5.61478737  *   1.52193426  *   0.52491327  *
    31       H         -6.26165081  *   0.17754263  *  -0.42416059  *
    32       H         -6.50851474  *   0.22297469  *   1.32749946  *
    33       H         -0.90395680  *   0.83379590  *  -0.36743364  *
    34       H         -2.35744622  *  -1.88394087  *   0.00657215  *

                             CARTESIAN COORDINATES

   1    C        3.240975825     0.196026152     0.702275145
   2    C        1.142620672    -0.382905040     0.987059491
   3    C        1.874040847     0.900465657     0.524414234
   4    C        2.508755239    -1.091884737     1.149955433
   5    C        4.060906480     0.042586894    -0.561817551
   6    C       -4.498072351    -0.329128461     0.737857256
   7    C        0.230409518    -1.021446772    -0.041755406
   8    C       -3.492222217    -0.034016489    -0.365801337
   9    C        4.711038738     1.344733530    -0.972051970
  10    C       -5.785001689     0.436991071     0.530561550
  11    C       -1.028033497    -0.244960190    -0.204711876
  12    C       -2.236716554    -0.806888804    -0.167505997
  13    H        3.862591123     0.647590167     1.503900971
  14    H        0.597641994    -0.252802812     1.945041538
  15    H        3.421324156    -0.338902614    -1.383867419
  16    H        4.833672526    -0.734697515    -0.399483569
  17    H        1.720467362     1.775433077     1.172648919
  18    H        1.647794668     1.215604544    -0.507352109
  19    H       -4.058846476    -0.074476515     1.722289233
  20    H       -4.706879190    -1.416751406     0.778165774
  21    H        2.737469533    -1.418313655     2.174820272
  22    H        2.658783469    -1.960329225     0.488712052
  23    H        0.741051740    -1.080004701    -1.025742214
  24    H        0.024912952    -2.070017182     0.254227365
  25    H       -3.291777627     1.055664122    -0.413188654
  26    H       -3.919742378    -0.303116889    -1.353256284
  27    H        3.961998710     2.127754386    -1.152386596
  28    H        5.394481487     1.719199037    -0.198356292
  29    H        5.292610879     1.226287763    -1.895042625
  30    H       -5.614787365     1.521934257     0.524913270
  31    H       -6.261650813     0.177542627    -0.424160588
  32    H       -6.508514740     0.222974691     1.327499461
  33    H       -0.903956802     0.833795900    -0.367433635
  34    H       -2.357446222    -1.883940870     0.006572155


           Empirical Formula: C12 H22  =    34 atoms



      MOLECULAR POINT GROUP   :   C1  


                  EIGENVALUES  
 -41.69341 -38.19834 -34.78818 -32.15456 -28.49478 -25.74103 -24.82678 -23.01813
 -21.11234 -20.15883 -19.47754 -18.69468 -17.21516 -16.37284 -16.25691 -15.72120
 -15.29741 -15.10602 -14.42880 -14.29748 -13.79559 -13.63287 -13.36267 -13.06136
 -12.87576 -12.55315 -12.49936 -12.31190 -12.26298 -11.90340 -11.52305 -11.41189
 -11.31818 -11.10462  -9.73717   1.11065   3.16534   3.36172   3.42236   3.55000
   3.65767   3.69513   3.81503   3.83203   3.93758   3.96068   4.00154   4.00652
   4.06400   4.07008   4.12870   4.27536   4.30001   4.39270   4.42476   4.44436
   4.52070   4.54231   4.62928   4.67610   4.85857   4.96986   4.97817   5.00602
   5.01282   5.03786   5.45679   5.64540   5.76006   6.00431


              NET ATOMIC CHARGES AND DIPOLE CONTRIBUTIONS

  ATOM NO.   TYPE          CHARGE      No. of ELECS.   s-Pop       p-Pop       
    1          C          -0.092906        4.0929     1.19037     2.90254
    2          C          -0.088944        4.0889     1.18958     2.89936
    3          C          -0.112748        4.1127     1.17797     2.93478
    4          C          -0.112484        4.1125     1.17833     2.93415
    5          C          -0.089505        4.0895     1.15741     2.93210
    6          C          -0.094788        4.0948     1.15808     2.93671
    7          C          -0.056743        4.0567     1.14833     2.90842
    8          C          -0.066062        4.0661     1.14996     2.91610
    9          C          -0.109529        4.1095     1.13800     2.97153
   10          C          -0.110006        4.1100     1.13848     2.97152
   11          C          -0.150378        4.1504     1.19635     2.95402
   12          C          -0.151368        4.1514     1.19673     2.95464
   13          H           0.071688        0.9283     0.92831
   14          H           0.073989        0.9260     0.92601
   15          H           0.051651        0.9483     0.94835
   16          H           0.049335        0.9507     0.95066
   17          H           0.055615        0.9444     0.94439
   18          H           0.064499        0.9355     0.93550
   19          H           0.051078        0.9489     0.94892
   20          H           0.048394        0.9516     0.95161
   21          H           0.055726        0.9443     0.94427
   22          H           0.061578        0.9384     0.93842
   23          H           0.058316        0.9417     0.94168
   24          H           0.054011        0.9460     0.94599
   25          H           0.053379        0.9466     0.94662
   26          H           0.054712        0.9453     0.94529
   27          H           0.039234        0.9608     0.96077
   28          H           0.037825        0.9622     0.96217
   29          H           0.036973        0.9630     0.96303
   30          H           0.037839        0.9622     0.96216
   31          H           0.037411        0.9626     0.96259
   32          H           0.037418        0.9626     0.96258
   33          H           0.103447        0.8966     0.89655
   34          H           0.101341        0.8987     0.89866
 DIPOLE           X         Y         Z       TOTAL
 POINT-CHG.     0.020    -0.028    -0.044     0.056
 HYBRID        -0.007     0.015    -0.038     0.041
 SUM            0.013    -0.014    -0.082     0.084


          ATOMIC ORBITAL ELECTRON POPULATIONS

     Atom    s        px        py        pz   
    1  C   1.19037   0.95360   0.96981   0.97913
    2  C   1.18958   0.94584   0.96343   0.99010
    3  C   1.17797   0.95777   0.96069   1.01631
    4  C   1.17833   0.95860   0.96297   1.01258
    5  C   1.15741   0.99007   0.97243   0.96960
    6  C   1.15808   0.95406   0.99848   0.98417
    7  C   1.14833   0.94632   0.97763   0.98447
    8  C   1.14996   0.94392   0.99118   0.98100
    9  C   1.13800   0.99756   0.97084   1.00313
   10  C   1.13848   0.96782   0.99591   1.00779
   11  C   1.19635   0.94721   0.99568   1.01114
   12  C   1.19673   0.94831   0.99252   1.01380
   13  H   0.92831
   14  H   0.92601
   15  H   0.94835
   16  H   0.95066
   17  H   0.94439
   18  H   0.93550
   19  H   0.94892
   20  H   0.95161
   21  H   0.94427
   22  H   0.93842
   23  H   0.94168
   24  H   0.94599
   25  H   0.94662
   26  H   0.94529
   27  H   0.96077
   28  H   0.96217
   29  H   0.96303
   30  H   0.96216
   31  H   0.96259
   32  H   0.96258
   33  H   0.89655
   34  H   0.89866
 *******************************************************************************
 **                                                                           **
 **                              MOPAC v23.1.2                                **
 **                                                                           **
 *******************************************************************************
 **          Digital Object Identifier (DOI): 10.5281/zenodo.6511958          **
 **    Visit the DOI location for information on how to cite this program.    **
 *******************************************************************************

                              PM3 CALCULATION RESULTS

 *******************************************************************************
 *  CALCULATION DONE: (MAX THREADS = 1)              Tue Jun  3 16:37:43 2025  *
 *  PM3        - The PM3 Hamiltonian to be used
 *  OLDGEO     - PREVIOUS GEOMETRY TO BE USED
 *  PRECISE    - TIGHTER CRITERIA TO BE USED
 *  NOSYM      - POINT-GROUP SYMMETRY SET TO C1
 *  THREADS=1  - MULTI-THREADING NOT USED
 *  T=         - A TIME OF 172800.0 SECONDS REQUESTED
 *  DUMP=N     - RESTART FILE WRITTEN EVERY 7200.0 SECONDS REQUESTED
 *  THERMO     - THERMODYNAMIC QUANTITIES TO BE CALCULATED
 *******************************************************************************
oldgeo thermo nosym precise THREADS=1  pm3
 InChI=1S/C12H22/c1-3-5-6-7-8-12-9-11(4-2)10-12/h6-7,11-12H,3-5,8-10H2,1-2H3

   ATOM   CHEMICAL          X               Y               Z
  NUMBER   SYMBOL      (ANGSTROMS)     (ANGSTROMS)     (ANGSTROMS)

     1       C          3.24097583  *   0.19602615  *   0.70227514  *
     2       C          1.14262067  *  -0.38290504  *   0.98705949  *
     3       C          1.87404085  *   0.90046566  *   0.52441423  *
     4       C          2.50875524  *  -1.09188474  *   1.14995543  *
     5       C          4.06090648  *   0.04258689  *  -0.56181755  *
     6       C         -4.49807235  *  -0.32912846  *   0.73785726  *
     7       C          0.23040952  *  -1.02144677  *  -0.04175541  *
     8       C         -3.49222222  *  -0.03401649  *  -0.36580134  *
     9       C          4.71103874  *   1.34473353  *  -0.97205197  *
    10       C         -5.78500169  *   0.43699107  *   0.53056155  *
    11       C         -1.02803350  *  -0.24496019  *  -0.20471188  *
    12       C         -2.23671655  *  -0.80688880  *  -0.16750600  *
    13       H          3.86259112  *   0.64759017  *   1.50390097  *
    14       H          0.59764199  *  -0.25280281  *   1.94504154  *
    15       H          3.42132416  *  -0.33890261  *  -1.38386742  *
    16       H          4.83367253  *  -0.73469752  *  -0.39948357  *
    17       H          1.72046736  *   1.77543308  *   1.17264892  *
    18       H          1.64779467  *   1.21560454  *  -0.50735211  *
    19       H         -4.05884648  *  -0.07447651  *   1.72228923  *
    20       H         -4.70687919  *  -1.41675141  *   0.77816577  *
    21       H          2.73746953  *  -1.41831366  *   2.17482027  *
    22       H          2.65878347  *  -1.96032922  *   0.48871205  *
    23       H          0.74105174  *  -1.08000470  *  -1.02574221  *
    24       H          0.02491295  *  -2.07001718  *   0.25422736  *
    25       H         -3.29177763  *   1.05566412  *  -0.41318865  *
    26       H         -3.91974238  *  -0.30311689  *  -1.35325628  *
    27       H          3.96199871  *   2.12775439  *  -1.15238660  *
    28       H          5.39448149  *   1.71919904  *  -0.19835629  *
    29       H          5.29261088  *   1.22628776  *  -1.89504263  *
    30       H         -5.61478737  *   1.52193426  *   0.52491327  *
    31       H         -6.26165081  *   0.17754263  *  -0.42416059  *
    32       H         -6.50851474  *   0.22297469  *   1.32749946  *
    33       H         -0.90395680  *   0.83379590  *  -0.36743364  *
    34       H         -2.35744622  *  -1.88394087  *   0.00657215  *



          CARTESIAN COORDINATES 

    NO.       ATOM           X           Y           Z

     1         C          3.2410      0.1960      0.7023
     2         C          1.1426     -0.3829      0.9871
     3         C          1.8740      0.9005      0.5244
     4         C          2.5088     -1.0919      1.1500
     5         C          4.0609      0.0426     -0.5618
     6         C         -4.4981     -0.3291      0.7379
     7         C          0.2304     -1.0214     -0.0418
     8         C         -3.4922     -0.0340     -0.3658
     9         C          4.7110      1.3447     -0.9721
    10         C         -5.7850      0.4370      0.5306
    11         C         -1.0280     -0.2450     -0.2047
    12         C         -2.2367     -0.8069     -0.1675
    13         H          3.8626      0.6476      1.5039
    14         H          0.5976     -0.2528      1.9450
    15         H          3.4213     -0.3389     -1.3839
    16         H          4.8337     -0.7347     -0.3995
    17         H          1.7205      1.7754      1.1726
    18         H          1.6478      1.2156     -0.5074
    19         H         -4.0588     -0.0745      1.7223
    20         H         -4.7069     -1.4168      0.7782
    21         H          2.7375     -1.4183      2.1748
    22         H          2.6588     -1.9603      0.4887
    23         H          0.7411     -1.0800     -1.0257
    24         H          0.0249     -2.0700      0.2542
    25         H         -3.2918      1.0557     -0.4132
    26         H         -3.9197     -0.3031     -1.3533
    27         H          3.9620      2.1278     -1.1524
    28         H          5.3945      1.7192     -0.1984
    29         H          5.2926      1.2263     -1.8950
    30         H         -5.6148      1.5219      0.5249
    31         H         -6.2617      0.1775     -0.4242
    32         H         -6.5085      0.2230      1.3275
    33         H         -0.9040      0.8338     -0.3674
    34         H         -2.3574     -1.8839      0.0066

  H: (PM3): J. J. P. STEWART, J. COMP. CHEM. 10, 209 (1989).
  C: (PM3): J. J. P. STEWART, J. COMP. CHEM. 10, 209 (1989).

           Empirical Formula: C12 H22  =    34 atoms



      MOLECULAR POINT GROUP   :   C1  


      RHF CALCULATION, NO. OF DOUBLY OCCUPIED LEVELS = 35



          HEAT OF FORMATION =     -23.495572 KCALS/MOLE


          CARTESIAN COORDINATE DERIVATIVES

   NUMBER  ATOM         X            Y            Z

     1       C      0.014559    -0.000811    -0.000548
     2       C      0.010589     0.008018    -0.014964
     3       C      0.005406    -0.000065     0.017766
     4       C      0.011611     0.002225     0.004679
     5       C     -0.012092     0.003847     0.008929
     6       C     -0.007940    -0.000332     0.006089
     7       C      0.003701    -0.028547     0.000910
     8       C     -0.020100     0.010491     0.004184
     9       C      0.016609    -0.000551    -0.023857
    10       C     -0.009687     0.001682     0.016652
    11       C     -0.045069     0.011247    -0.015726
    12       C      0.028773    -0.019637    -0.006647
    13       H      0.014129    -0.018547     0.001754
    14       H     -0.002918     0.018277    -0.010760
    15       H     -0.007164     0.016062     0.004095
    16       H     -0.015242    -0.006904     0.012881
    17       H     -0.025633     0.023615     0.035883
    18       H     -0.007651    -0.006760     0.015916
    19       H     -0.002637    -0.021915     0.022557
    20       H      0.008218     0.018500     0.012362
    21       H      0.023501     0.003869     0.005230
    22       H      0.018431     0.013766    -0.002591
    23       H      0.003545    -0.024680    -0.014689
    24       H     -0.021531    -0.012155     0.016702
    25       H     -0.009011     0.001160    -0.010781
    26       H      0.018846    -0.035580    -0.012491
    27       H      0.006124     0.010202    -0.033967
    28       H     -0.015295    -0.005582    -0.006202
    29       H      0.003247     0.016223     0.008485
    30       H      0.015865     0.023544     0.000560
    31       H     -0.007055     0.004364    -0.016636
    32       H     -0.004604    -0.006297    -0.018891
    33       H      0.018741    -0.024420     0.007767
    34       H     -0.008267     0.025689    -0.014654



          GRADIENT NORM =   0.15556

          MOLECULAR WEIGHT =  166.31



          ROTATIONAL CONSTANTS IN CM(-1)

          A =    0.08960316   B =    0.00845629   C =    0.00822633



           PRINCIPAL MOMENTS OF INERTIA IN UNITS OF 10**(-40)*GRAM-CM**2

          A =      312.4081   B =     3310.2868   C =     3402.8249


          ORIENTATION OF MOLECULE IN FORCE CALCULATION

    NO.       ATOM         X         Y         Z

     1          C      -3.0535   -0.8431   -0.7039
     2          C      -0.8582   -0.8431   -0.7039
     3          C      -1.9558    0.2484   -0.7039
     4          C      -1.9559   -1.9341   -0.6883
     5          C      -3.9608   -0.8505    0.5087
     6          C       4.4868    0.9208   -0.2552
     7          C       0.0486   -0.8572    0.5109
     8          C       3.3044    1.2206    0.6553
     9          C      -4.9788    0.2663    0.4564
    10          C       5.4880    2.0538   -0.2502
    11          C       1.0256    0.2640    0.4694
    12          C       2.3339    0.0932    0.6622
    13          H      -3.6628   -0.8480   -1.6322
    14          H      -0.2474   -0.8471   -1.6305
    15          H      -3.3555   -0.7706    1.4348
    16          H      -4.4734   -1.8309    0.5708
    17          H      -1.9557    0.8997   -1.5901
    18          H      -1.9565    0.9040    0.1822
    19          H       4.1276    0.7360   -1.2865
    20          H       4.9785   -0.0207    0.0613
    21          H      -1.9555   -2.5986   -1.5644
    22          H      -1.9561   -2.5746    0.2082
    23          H      -0.5517   -0.7704    1.4407
    24          H       0.5600   -1.8390    0.5726
    25          H       2.8193    2.1684    0.3452
    26          H       3.6559    1.3897    1.6936
    27          H      -4.4927    1.2503    0.4086
    28          H      -5.6305    0.1814   -0.4234
    29          H      -5.6232    0.2600    1.3446
    30          H       5.0385    2.9938   -0.5970
    31          H       5.8882    2.2364    0.7561
    32          H       6.3394    1.8356   -0.9074
    33          H       0.6014    1.2579    0.2752
    34          H       2.7559   -0.9035    0.8450


    FIRST DERIVATIVES WILL BE USED IN THE CALCULATION OF SECOND DERIVATIVES

          ESTIMATED TIME TO COMPLETE CALCULATION =        4.78 SECONDS

    FOR POINT-GROUP C1   THERE ARE   1 UNIQUE SYMMETRY FUNCTIONS.

 STEP:   1 TIME =     0.04 SECS, INTEGRAL =      0.04 TIME LEFT: 172799.95
 STEP:   2 TIME =     0.04 SECS, INTEGRAL =      0.08 TIME LEFT: 172799.91
 STEP:   3 TIME =     0.04 SECS, INTEGRAL =      0.12 TIME LEFT: 172799.87
 STEP:   4 TIME =     0.04 SECS, INTEGRAL =      0.16 TIME LEFT: 172799.83
 STEP:   5 TIME =     0.04 SECS, INTEGRAL =      0.20 TIME LEFT: 172799.79
 STEP:   6 TIME =     0.04 SECS, INTEGRAL =      0.23 TIME LEFT: 172799.75
 STEP:   7 TIME =     0.04 SECS, INTEGRAL =      0.27 TIME LEFT: 172799.71
 STEP:   8 TIME =     0.04 SECS, INTEGRAL =      0.31 TIME LEFT: 172799.68
 STEP:   9 TIME =     0.04 SECS, INTEGRAL =      0.36 TIME LEFT: 172799.63
 STEP:  10 TIME =     0.04 SECS, INTEGRAL =      0.39 TIME LEFT: 172799.59
 STEP:  11 TIME =     0.04 SECS, INTEGRAL =      0.43 TIME LEFT: 172799.55
 STEP:  12 TIME =     0.04 SECS, INTEGRAL =      0.48 TIME LEFT: 172799.51
 STEP:  13 TIME =     0.04 SECS, INTEGRAL =      0.52 TIME LEFT: 172799.47
 STEP:  14 TIME =     0.04 SECS, INTEGRAL =      0.55 TIME LEFT: 172799.43
 STEP:  15 TIME =     0.04 SECS, INTEGRAL =      0.59 TIME LEFT: 172799.39
 STEP:  16 TIME =     0.04 SECS, INTEGRAL =      0.63 TIME LEFT: 172799.36
 STEP:  17 TIME =     0.04 SECS, INTEGRAL =      0.67 TIME LEFT: 172799.32
 STEP:  18 TIME =     0.04 SECS, INTEGRAL =      0.71 TIME LEFT: 172799.28
 STEP:  19 TIME =     0.04 SECS, INTEGRAL =      0.75 TIME LEFT: 172799.24
 STEP:  20 TIME =     0.04 SECS, INTEGRAL =      0.79 TIME LEFT: 172799.20
 STEP:  21 TIME =     0.04 SECS, INTEGRAL =      0.83 TIME LEFT: 172799.16
 STEP:  22 TIME =     0.04 SECS, INTEGRAL =      0.87 TIME LEFT: 172799.12
 STEP:  23 TIME =     0.04 SECS, INTEGRAL =      0.91 TIME LEFT: 172799.08
 STEP:  24 TIME =     0.04 SECS, INTEGRAL =      0.95 TIME LEFT: 172799.04
 STEP:  25 TIME =     0.04 SECS, INTEGRAL =      0.98 TIME LEFT: 172799.01
 STEP:  26 TIME =     0.04 SECS, INTEGRAL =      1.02 TIME LEFT: 172798.97
 STEP:  27 TIME =     0.04 SECS, INTEGRAL =      1.06 TIME LEFT: 172798.93
 STEP:  28 TIME =     0.04 SECS, INTEGRAL =      1.10 TIME LEFT: 172798.89
 STEP:  29 TIME =     0.04 SECS, INTEGRAL =      1.14 TIME LEFT: 172798.85
 STEP:  30 TIME =     0.04 SECS, INTEGRAL =      1.18 TIME LEFT: 172798.81
 STEP:  31 TIME =     0.04 SECS, INTEGRAL =      1.21 TIME LEFT: 172798.77
 STEP:  32 TIME =     0.04 SECS, INTEGRAL =      1.25 TIME LEFT: 172798.74
 STEP:  33 TIME =     0.04 SECS, INTEGRAL =      1.29 TIME LEFT: 172798.70
 STEP:  34 TIME =     0.04 SECS, INTEGRAL =      1.33 TIME LEFT: 172798.66
 STEP:  35 TIME =     0.04 SECS, INTEGRAL =      1.37 TIME LEFT: 172798.62
 STEP:  36 TIME =     0.04 SECS, INTEGRAL =      1.41 TIME LEFT: 172798.57
 STEP:  37 TIME =     0.04 SECS, INTEGRAL =      1.45 TIME LEFT: 172798.54
 STEP:  38 TIME =     0.04 SECS, INTEGRAL =      1.50 TIME LEFT: 172798.49
 STEP:  39 TIME =     0.04 SECS, INTEGRAL =      1.54 TIME LEFT: 172798.45
 STEP:  40 TIME =     0.04 SECS, INTEGRAL =      1.57 TIME LEFT: 172798.41
 STEP:  41 TIME =     0.05 SECS, INTEGRAL =      1.62 TIME LEFT: 172798.37
 STEP:  42 TIME =     0.04 SECS, INTEGRAL =      1.66 TIME LEFT: 172798.33
 STEP:  43 TIME =     0.04 SECS, INTEGRAL =      1.70 TIME LEFT: 172798.29
 STEP:  44 TIME =     0.05 SECS, INTEGRAL =      1.75 TIME LEFT: 172798.24
 STEP:  45 TIME =     0.04 SECS, INTEGRAL =      1.79 TIME LEFT: 172798.20
 STEP:  46 TIME =     0.04 SECS, INTEGRAL =      1.83 TIME LEFT: 172798.16
 STEP:  47 TIME =     0.04 SECS, INTEGRAL =      1.87 TIME LEFT: 172798.12
 STEP:  48 TIME =     0.04 SECS, INTEGRAL =      1.91 TIME LEFT: 172798.08
 STEP:  49 TIME =     0.04 SECS, INTEGRAL =      1.95 TIME LEFT: 172798.04
 STEP:  50 TIME =     0.04 SECS, INTEGRAL =      1.99 TIME LEFT: 172798.00
 STEP:  51 TIME =     0.04 SECS, INTEGRAL =      2.03 TIME LEFT: 172797.96
 STEP:  52 TIME =     0.04 SECS, INTEGRAL =      2.07 TIME LEFT: 172797.91
 STEP:  53 TIME =     0.04 SECS, INTEGRAL =      2.12 TIME LEFT: 172797.87
 STEP:  54 TIME =     0.04 SECS, INTEGRAL =      2.16 TIME LEFT: 172797.83
 STEP:  55 TIME =     0.04 SECS, INTEGRAL =      2.20 TIME LEFT: 172797.79
 STEP:  56 TIME =     0.05 SECS, INTEGRAL =      2.25 TIME LEFT: 172797.74
 STEP:  57 TIME =     0.04 SECS, INTEGRAL =      2.28 TIME LEFT: 172797.71
 STEP:  58 TIME =     0.04 SECS, INTEGRAL =      2.32 TIME LEFT: 172797.67
 STEP:  59 TIME =     0.04 SECS, INTEGRAL =      2.36 TIME LEFT: 172797.63
 STEP:  60 TIME =     0.04 SECS, INTEGRAL =      2.40 TIME LEFT: 172797.59
 STEP:  61 TIME =     0.04 SECS, INTEGRAL =      2.44 TIME LEFT: 172797.55
 STEP:  62 TIME =     0.04 SECS, INTEGRAL =      2.48 TIME LEFT: 172797.51
 STEP:  63 TIME =     0.04 SECS, INTEGRAL =      2.52 TIME LEFT: 172797.47
 STEP:  64 TIME =     0.04 SECS, INTEGRAL =      2.56 TIME LEFT: 172797.43
 STEP:  65 TIME =     0.04 SECS, INTEGRAL =      2.60 TIME LEFT: 172797.39
 STEP:  66 TIME =     0.04 SECS, INTEGRAL =      2.64 TIME LEFT: 172797.34
 STEP:  67 TIME =     0.04 SECS, INTEGRAL =      2.69 TIME LEFT: 172797.30
 STEP:  68 TIME =     0.05 SECS, INTEGRAL =      2.73 TIME LEFT: 172797.25
 STEP:  69 TIME =     0.04 SECS, INTEGRAL =      2.77 TIME LEFT: 172797.21
 STEP:  70 TIME =     0.04 SECS, INTEGRAL =      2.82 TIME LEFT: 172797.17
 STEP:  71 TIME =     0.04 SECS, INTEGRAL =      2.86 TIME LEFT: 172797.13
 STEP:  72 TIME =     0.04 SECS, INTEGRAL =      2.90 TIME LEFT: 172797.09
 STEP:  73 TIME =     0.04 SECS, INTEGRAL =      2.94 TIME LEFT: 172797.05
 STEP:  74 TIME =     0.04 SECS, INTEGRAL =      2.98 TIME LEFT: 172797.01
 STEP:  75 TIME =     0.04 SECS, INTEGRAL =      3.02 TIME LEFT: 172796.97
 STEP:  76 TIME =     0.04 SECS, INTEGRAL =      3.06 TIME LEFT: 172796.93
 STEP:  77 TIME =     0.05 SECS, INTEGRAL =      3.11 TIME LEFT: 172796.88
 STEP:  78 TIME =     0.04 SECS, INTEGRAL =      3.15 TIME LEFT: 172796.84
 STEP:  79 TIME =     0.04 SECS, INTEGRAL =      3.19 TIME LEFT: 172796.80
 STEP:  80 TIME =     0.04 SECS, INTEGRAL =      3.23 TIME LEFT: 172796.76
 STEP:  81 TIME =     0.05 SECS, INTEGRAL =      3.28 TIME LEFT: 172796.71
 STEP:  82 TIME =     0.04 SECS, INTEGRAL =      3.32 TIME LEFT: 172796.67
 STEP:  83 TIME =     0.04 SECS, INTEGRAL =      3.36 TIME LEFT: 172796.62
 STEP:  84 TIME =     0.04 SECS, INTEGRAL =      3.40 TIME LEFT: 172796.59
 STEP:  85 TIME =     0.04 SECS, INTEGRAL =      3.44 TIME LEFT: 172796.55
 STEP:  86 TIME =     0.04 SECS, INTEGRAL =      3.48 TIME LEFT: 172796.50
 STEP:  87 TIME =     0.04 SECS, INTEGRAL =      3.52 TIME LEFT: 172796.46
 STEP:  88 TIME =     0.04 SECS, INTEGRAL =      3.56 TIME LEFT: 172796.43
 STEP:  89 TIME =     0.04 SECS, INTEGRAL =      3.60 TIME LEFT: 172796.39
 STEP:  90 TIME =     0.04 SECS, INTEGRAL =      3.64 TIME LEFT: 172796.35
 STEP:  91 TIME =     0.04 SECS, INTEGRAL =      3.68 TIME LEFT: 172796.31
 STEP:  92 TIME =     0.05 SECS, INTEGRAL =      3.73 TIME LEFT: 172796.26
 STEP:  93 TIME =     0.04 SECS, INTEGRAL =      3.77 TIME LEFT: 172796.22
 STEP:  94 TIME =     0.04 SECS, INTEGRAL =      3.80 TIME LEFT: 172796.18
 STEP:  95 TIME =     0.04 SECS, INTEGRAL =      3.85 TIME LEFT: 172796.14
 STEP:  96 TIME =     0.04 SECS, INTEGRAL =      3.89 TIME LEFT: 172796.10
 STEP:  97 TIME =     0.04 SECS, INTEGRAL =      3.93 TIME LEFT: 172796.06
 STEP:  98 TIME =     0.04 SECS, INTEGRAL =      3.96 TIME LEFT: 172796.02
 STEP:  99 TIME =     0.04 SECS, INTEGRAL =      4.01 TIME LEFT: 172795.98
 STEP: 100 TIME =     0.04 SECS, INTEGRAL =      4.05 TIME LEFT: 172795.94
 STEP: 101 TIME =     0.04 SECS, INTEGRAL =      4.09 TIME LEFT: 172795.90
 STEP: 102 TIME =     0.05 SECS, INTEGRAL =      4.14 TIME LEFT: 172795.85

(To convert to Hartree/Bohr^2, multiply by (10^(-21) x N x a0^2)/(4.184 x 627.51) =  0.0642)


           FORCE MATRIX IN MILLIDYNES/ANGSTROM


                  C  1       C  2       C  3       C  4       C  5       C  6
 ------------------------------------------------------------------------------
     C    1  14.548451
     C    2   1.804862  14.528224
     C    3   3.464515   3.467715  14.324956
     C    4   3.481205   3.477933   1.828869  14.349546
     C    5   4.310338   0.040260   0.542232   0.549298  14.489026
     C    6   0.000071   0.003642   0.000182   0.000874   0.000084  14.352752
     C    7   0.040976   4.253519   0.538430   0.549587   0.005857   0.019278
     C    8   0.000218   0.019706   0.000737   0.003165   0.000115   4.116678
     C    9   0.660346   0.004898   0.032243   0.050973   4.469652   0.000083
     C   10   0.000078   0.001125   0.000142   0.000440   0.000069   4.475324
     C   11   0.005198   0.696871   0.037298   0.051024   0.001324   0.040632
     C   12   0.000729   0.042695   0.002848   0.006955   0.000499   0.699007
     H   13   4.426722   0.028480   0.429086   0.427836   0.431475   0.000045
     H   14   0.028484   4.450087   0.428653   0.427577   0.002162   0.000336
     H   15   0.450609   0.002666   0.024199   0.020738   4.421825   0.000066
     H   16   0.434178   0.003459   0.047585   0.019303   4.457089   0.000028
     H   17   0.441292   0.441621   4.716292   0.031457   0.034215   0.000110
     H   18   0.453064   0.452490   4.629258   0.028153   0.026038   0.000150
     H   19   0.000023   0.000257   0.000054   0.000109   0.000036   4.474643
     H   20   0.000018   0.000170   0.000043   0.000083   0.000023   4.451224
     H   21   0.442041   0.442321   0.031483   4.718756   0.033945   0.000199
     H   22   0.452908   0.452413   0.028176   4.644340   0.030978   0.000107
     H   23   0.002694   0.458595   0.023122   0.019663   0.004141   0.002341
     H   24   0.003424   0.431634   0.046833   0.019489   0.000973   0.000476
     H   25   0.000039   0.000434   0.000124   0.000159   0.000072   0.441462
     H   26   0.000049   0.002368   0.000136   0.000280   0.000074   0.452271
     H   27   0.020604   0.000512   0.007090   0.001904   0.464134   0.000034
     H   28   0.023551   0.000320   0.002061   0.001624   0.464034   0.000018
     H   29   0.052579   0.000596   0.002180   0.008782   0.451251   0.000030
     H   30   0.000015   0.000088   0.000023   0.000046   0.000015   0.463653
     H   31   0.000014   0.000095   0.000027   0.000054   0.000012   0.463782
     H   32   0.000024   0.000278   0.000040   0.000128   0.000024   0.449989
     H   33   0.000809   0.024855   0.006993   0.002083   0.000806   0.008510
     H   34   0.000193   0.008820   0.000508   0.001774   0.000162   0.027634


                  C  7       C  8       C  9       C 10       C 11       C 12
 ------------------------------------------------------------------------------
     C    7  14.782187
     C    8   0.146740  14.669554
     C    9   0.000985   0.000118  14.374758
     C   10   0.003436   0.663361   0.000050  14.372548
     C   11   4.969668   0.826809   0.001129   0.008142  18.201428
     C   12   0.825223   4.974424   0.000155   0.054433  10.694481  18.193512
     H   13   0.002154   0.000064   0.031647   0.000048   0.000579   0.000340
     H   14   0.429797   0.000787   0.000568   0.000218   0.025254   0.002591
     H   15   0.004067   0.000113   0.437531   0.000060   0.000625   0.000187
     H   16   0.000980   0.000043   0.440093   0.000026   0.000404   0.000136
     H   17   0.034341   0.000149   0.001717   0.000068   0.001808   0.000814
     H   18   0.024945   0.000307   0.008773   0.000138   0.008956   0.001343
     H   19   0.000706   0.442263   0.000028   0.437140   0.002326   0.021876
     H   20   0.000596   0.445669   0.000018   0.437374   0.001695   0.033331
     H   21   0.033795   0.000423   0.006369   0.000147   0.006563   0.001078
     H   22   0.031355   0.000255   0.002989   0.000066   0.002705   0.000852
     H   23   4.379113   0.020334   0.000481   0.000249   0.410444   0.031190
     H   24   4.432796   0.003254   0.000238   0.000170   0.461956   0.048493
     H   25   0.003168   4.426410   0.000038   0.028388   0.050208   0.459710
     H   26   0.020441   4.407326   0.000060   0.025657   0.031349   0.409705
     H   27   0.000470   0.000047   4.712809   0.000030   0.000246   0.000112
     H   28   0.000246   0.000033   4.724616   0.000014   0.000248   0.000054
     H   29   0.000273   0.000041   4.753042   0.000020   0.000322   0.000066
     H   30   0.000215   0.023647   0.000009   4.721805   0.000714   0.001254
     H   31   0.000181   0.023504   0.000014   4.722814   0.000610   0.001555
     H   32   0.000647   0.051710   0.000021   4.751117   0.001508   0.009653
     H   33   0.430990   0.085023   0.000320   0.002160   4.752604   0.468782
     H   34   0.084970   0.430421   0.000107   0.001924   0.469547   4.760284


                  H 13       H 14       H 15       H 16       H 17       H 18
 ------------------------------------------------------------------------------
     H   13   4.926992
     H   14   0.002628   4.945297
     H   15   0.043811   0.000524   5.034322
     H   16   0.024570   0.000675   0.569025   5.066265
     H   17   0.026889   0.026943   0.001743   0.005958   5.335263
     H   18   0.030809   0.030677   0.023724   0.003524   0.553572   5.266661
     H   19   0.000016   0.000071   0.000016   0.000012   0.000043   0.000045
     H   20   0.000012   0.000048   0.000015   0.000005   0.000038   0.000040
     H   21   0.026593   0.026499   0.001286   0.001952   0.003411   0.001053
     H   22   0.031008   0.031102   0.016267   0.011893   0.000961   0.002819
     H   23   0.000557   0.044233   0.010334   0.000296   0.001783   0.023030
     H   24   0.000684   0.024488   0.000258   0.000344   0.005878   0.003545
     H   25   0.000037   0.000190   0.000025   0.000026   0.000082   0.000137
     H   26   0.000037   0.000243   0.000053   0.000025   0.000076   0.000119
     H   27   0.001990   0.000312   0.023995   0.048968   0.000850   0.012868
     H   28   0.021649   0.000114   0.048262   0.024777   0.000352   0.000462
     H   29   0.002008   0.000125   0.030417   0.028579   0.000325   0.000599
     H   30   0.000010   0.000034   0.000010   0.000005   0.000019   0.000023
     H   31   0.000008   0.000053   0.000009   0.000004   0.000011   0.000021
     H   32   0.000015   0.000068   0.000022   0.000008   0.000022   0.000048
     H   33   0.000528   0.003296   0.000282   0.000261   0.001110   0.012517
     H   34   0.000107   0.000617   0.000103   0.000056   0.000240   0.000311


                  H 19       H 20       H 21       H 22       H 23       H 24
 ------------------------------------------------------------------------------
     H   19   5.088945
     H   20   0.574731   5.073444
     H   21   0.000039   0.000028   5.336208
     H   22   0.000032   0.000018   0.552490   5.279620
     H   23   0.000183   0.000122   0.001367   0.015721   4.974071
     H   24   0.000150   0.000186   0.001896   0.012082   0.560111   5.036511
     H   25   0.024016   0.046033   0.000063   0.000056   0.000771   0.000518
     H   26   0.047089   0.024032   0.000085   0.000064   0.003541   0.000796
     H   27   0.000009   0.000009   0.000416   0.000426   0.000176   0.000153
     H   28   0.000006   0.000005   0.000342   0.000463   0.000157   0.000091
     H   29   0.000012   0.000009   0.001264   0.000708   0.000118   0.000074
     H   30   0.024361   0.048176   0.000019   0.000011   0.000062   0.000058
     H   31   0.048495   0.024304   0.000018   0.000011   0.000063   0.000048
     H   32   0.029812   0.029961   0.000045   0.000021   0.000078   0.000060
     H   33   0.000474   0.000636   0.000457   0.000691   0.017514   0.039495
     H   34   0.002634   0.023016   0.000329   0.000275   0.010017   0.030041


                  H 25       H 26       H 27       H 28       H 29       H 30
 ------------------------------------------------------------------------------
     H   25   5.040607
     H   26   0.565736   5.008714
     H   27   0.000019   0.000026   5.452098
     H   28   0.000009   0.000014   0.576814   5.467194
     H   29   0.000015   0.000024   0.572082   0.573193   5.489448
     H   30   0.019607   0.001533   0.000005   0.000002   0.000003   5.466221
     H   31   0.001583   0.017959   0.000006   0.000004   0.000004   0.578997
     H   32   0.001748   0.001852   0.000012   0.000005   0.000007   0.575529
     H   33   0.030090   0.010066   0.000193   0.000099   0.000110   0.000241
     H   34   0.038794   0.017618   0.000056   0.000029   0.000039   0.000600


                  H 31       H 32       H 33       H 34
 ------------------------------------------------------
     H   31   5.466342
     H   32   0.574578   5.489338
     H   33   0.000201   0.000475   5.132876
     H   34   0.000625   0.000496   0.106736   5.142877


          HEAT OF FORMATION =     -23.495572 KCALS/MOLE

          ZERO POINT ENERGY     194.620 KCAL/MOL


           NORMAL COORDINATE ANALYSIS (Total motion = 1 Angstrom)


   Root No.       1         2         3         4         5         6         7         8

                 1 A       2 A       3 A       4 A       5 A       6 A       7 A       8 A   

                  21.0      28.6      52.0      55.7      71.5      89.3     123.4     182.5
  
           1    0.0089    0.0003    0.0035   -0.0017    0.0049   -0.0032    0.0098    0.0036
           2    0.0054   -0.0009   -0.0043   -0.0097   -0.0045   -0.0103    0.0162    0.0096
           3   -0.0056    0.0022   -0.0082    0.0028   -0.0107   -0.0050    0.0007    0.0002
           4    0.0088    0.0004    0.0036   -0.0016    0.0047   -0.0034    0.0091    0.0035
           5   -0.0010   -0.0267    0.0067   -0.0044    0.0024   -0.0009   -0.0084   -0.0061
           6    0.0134   -0.0114   -0.0127   -0.0019    0.0072    0.0059    0.0008   -0.0005
           7    0.0120    0.0131   -0.0019   -0.0042    0.0015   -0.0079    0.0213    0.0107
           8    0.0022   -0.0139    0.0012   -0.0071   -0.0011   -0.0057    0.0042    0.0018
           9    0.0081   -0.0169   -0.0253   -0.0159   -0.0098    0.0196    0.0153   -0.0158
          10    0.0056   -0.0124    0.0091    0.0009    0.0082    0.0014   -0.0023   -0.0036
          11    0.0022   -0.0137    0.0012   -0.0069   -0.0012   -0.0058    0.0037    0.0019
          12    0.0016    0.0034   -0.0159    0.0095   -0.0114    0.0026   -0.0149    0.0054
          13   -0.0030    0.0110    0.0217    0.0063    0.0093   -0.0251    0.0114    0.0088
          14    0.0045    0.0220   -0.0044    0.0025   -0.0085   -0.0229    0.0086    0.0108
          15   -0.0145    0.0104    0.0057    0.0090   -0.0073   -0.0219    0.0018    0.0043
          16   -0.0222   -0.0079   -0.0197   -0.0151    0.0045   -0.0062   -0.0187   -0.0004
          17    0.0113    0.0146   -0.0105    0.0173   -0.0067    0.0038    0.0010    0.0001
          18   -0.0283    0.0067    0.0033   -0.0283    0.0019   -0.0047   -0.0047   -0.0032
          19    0.0001    0.0043   -0.0100   -0.0054   -0.0180    0.0074    0.0093   -0.0038
          20   -0.0071   -0.0258    0.0166    0.0100    0.0063   -0.0014   -0.0260    0.0014
          21    0.0198   -0.0143   -0.0022    0.0011    0.0247   -0.0024    0.0006    0.0051
          22    0.0055   -0.0130   -0.0011   -0.0011   -0.0121   -0.0015   -0.0220   -0.0021
          23   -0.0149   -0.0002    0.0004    0.0037   -0.0000    0.0144    0.0265   -0.0024
          24    0.0163    0.0048    0.0241   -0.0057   -0.0221   -0.0017   -0.0168   -0.0050
          25    0.0009    0.0292    0.0199    0.0027    0.0257    0.0232   -0.0060   -0.0134
[...]
 REDUCED MASS        0.8369         C  2 -- C  3          +1.0% ( 10.3%)     13.5%
 EFFECTIVE MASS      1.4520
 FORCE CONSTANT      4.3198

 VIBRATION         81   81A           ATOM PAIR      ENERGY CONTRIBUTION    RADIAL
 FREQUENCY          3015.16         C  7 -- H 24         +58.5% ( 75.5%)     98.6%
 TRANSITION DIPOLE   0.0434         C  7 -- H 23         +38.1% ( 60.9%)     96.1%
 TRAVEL (Ang.)       0.2154         C 11 -- H 33          +1.1% ( 10.3%)     99.7%
 REDUCED MASS        0.4822         C  7 -- C 11          +0.7% (  8.1%)     30.2%
 EFFECTIVE MASS      1.2839
 FORCE CONSTANT      2.5826

 VIBRATION         82   82A           ATOM PAIR      ENERGY CONTRIBUTION    RADIAL
 FREQUENCY          3020.40         C  8 -- H 25         +51.5% ( 70.8%)     98.1%
 TRANSITION DIPOLE   0.0368         C  8 -- H 26         +45.0% ( 66.2%)     97.3%
 TRAVEL (Ang.)       0.2188         C 12 -- H 34          +0.9% (  9.1%)     99.7%
 REDUCED MASS        0.4662         C  8 -- C 12          +0.6% (  7.9%)     30.7%
 EFFECTIVE MASS      1.2792
 FORCE CONSTANT      2.5057

 VIBRATION         83   83A           ATOM PAIR      ENERGY CONTRIBUTION    RADIAL
 FREQUENCY          3028.23         C  5 -- H 16         +51.4% ( 71.0%)     98.4%
 TRANSITION DIPOLE   0.0261         C  5 -- H 15         +38.8% ( 61.7%)     96.8%
 TRAVEL (Ang.)       0.2302         C  3 -- H 18          +4.5% ( 20.9%)     98.5%
 REDUCED MASS        0.4203         C  3 -- H 17          +2.1% ( 14.4%)     93.9%
 EFFECTIVE MASS      1.2914
 FORCE CONSTANT      2.2710

 VIBRATION         84   84A           ATOM PAIR      ENERGY CONTRIBUTION    RADIAL
 FREQUENCY          3030.53         C  3 -- H 18         +49.9% ( 73.2%)     98.3%
 TRANSITION DIPOLE   0.0887         C  3 -- H 17         +25.9% ( 52.8%)     94.4%
 TRAVEL (Ang.)       0.2515         C  4 -- H 22          +6.8% ( 27.0%)     98.1%
 REDUCED MASS        0.3519         C  4 -- H 21          +3.8% ( 20.3%)     94.9%
 EFFECTIVE MASS      1.5160
 FORCE CONSTANT      1.9040

 VIBRATION         85   85A           ATOM PAIR      ENERGY CONTRIBUTION    RADIAL
 FREQUENCY          3033.92         C 11 -- H 33         +76.1% ( 88.4%)    100.0%
 TRANSITION DIPOLE   0.3030         C 12 -- H 34         +10.8% ( 33.3%)     99.9%
 TRAVEL (Ang.)       0.1949         C  4 -- H 22          +5.3% ( 23.3%)     98.1%
 REDUCED MASS        0.5852         C  4 -- H 21          +3.0% ( 17.6%)     94.9%
 EFFECTIVE MASS      1.4653
 FORCE CONSTANT      3.1735

 VIBRATION         86   86A           ATOM PAIR      ENERGY CONTRIBUTION    RADIAL
 FREQUENCY          3034.97         C  4 -- H 22         +49.2% ( 72.9%)     98.1%
 TRANSITION DIPOLE   0.1364         C  4 -- H 21         +28.1% ( 55.1%)     94.8%
 TRAVEL (Ang.)       0.2471         C  3 -- H 18          +8.6% ( 30.4%)     98.3%
 REDUCED MASS        0.3638         C  3 -- H 17          +4.4% ( 21.9%)     94.3%
 EFFECTIVE MASS      1.5328
 FORCE CONSTANT      1.9741

 VIBRATION         87   87A           ATOM PAIR      ENERGY CONTRIBUTION    RADIAL
 FREQUENCY          3036.96         C 12 -- H 34         +80.5% ( 91.1%)    100.0%
 TRANSITION DIPOLE   0.1404         C 11 -- H 33         +11.7% ( 34.8%)     99.8%
 TRAVEL (Ang.)       0.1840         C 11 -- C 12          +1.9% ( 14.0%)     40.1%
 REDUCED MASS        0.6561         C  8 -- H 25          +1.3% ( 11.4%)     99.5%
 EFFECTIVE MASS      1.5528
 FORCE CONSTANT      3.5651

 VIBRATION         88   88A           ATOM PAIR      ENERGY CONTRIBUTION    RADIAL
 FREQUENCY          3037.91         C  6 -- H 19         +50.6% ( 70.2%)     98.1%
 TRANSITION DIPOLE   0.0389         C  6 -- H 20         +43.7% ( 65.2%)     97.3%
 TRAVEL (Ang.)       0.2229         C 12 -- H 34          +3.0% ( 17.2%)    100.0%
 REDUCED MASS        0.4468         C 10 -- H 32          +0.6% (  7.7%)     98.1%
 EFFECTIVE MASS      1.2803
 FORCE CONSTANT      2.4295

 VIBRATION         89   89A           ATOM PAIR      ENERGY CONTRIBUTION    RADIAL
 FREQUENCY          3076.57         C  9 -- H 27         +57.6% ( 78.3%)     98.1%
 TRANSITION DIPOLE   0.0076         C  9 -- H 28         +39.1% ( 64.5%)     95.4%
 TRAVEL (Ang.)       0.2067         C  9 -- H 29          +1.9% ( 14.2%)     21.9%
 REDUCED MASS        0.5127         C  5 -- C  9          +1.0% ( 10.2%)      0.0%
 EFFECTIVE MASS      1.5010
 FORCE CONSTANT      2.8595

 VIBRATION         90   90A           ATOM PAIR      ENERGY CONTRIBUTION    RADIAL
 FREQUENCY          3078.23         C 10 -- H 30         +50.4% ( 73.2%)     97.3%
 TRANSITION DIPOLE   0.0109         C 10 -- H 31         +47.4% ( 71.0%)     96.8%
 TRAVEL (Ang.)       0.2081         C  6 -- C 10          +1.0% ( 10.2%)      0.0%
 REDUCED MASS        0.5060         C 10 -- H 32          +1.0% ( 10.2%)      1.2%
 EFFECTIVE MASS      1.5008
 FORCE CONSTANT      2.8249

 VIBRATION         91   91A           ATOM PAIR      ENERGY CONTRIBUTION    RADIAL
 FREQUENCY          3084.26         C  9 -- H 29         +60.0% ( 79.9%)     98.6%
 TRANSITION DIPOLE   0.0029         C  9 -- H 28         +27.3% ( 53.9%)     91.3%
 TRAVEL (Ang.)       0.2142         C  9 -- H 27         +11.1% ( 34.4%)     75.9%
 REDUCED MASS        0.4764         C  5 -- C  9          +1.0% ( 10.3%)      0.0%
 EFFECTIVE MASS      1.5037
 FORCE CONSTANT      2.6699

 VIBRATION         92   92A           ATOM PAIR      ENERGY CONTRIBUTION    RADIAL
 FREQUENCY          3084.34         C 10 -- H 32         +61.7% ( 81.0%)     98.8%
 TRANSITION DIPOLE   0.0048         C 10 -- H 31         +19.8% ( 45.9%)     87.0%
 TRAVEL (Ang.)       0.2143         C 10 -- H 30         +16.8% ( 42.3%)     84.3%
 REDUCED MASS        0.4759         C  6 -- C 10          +1.0% ( 10.3%)      0.0%
 EFFECTIVE MASS      1.5023
 FORCE CONSTANT      2.6674

 VIBRATION         93   93A           ATOM PAIR      ENERGY CONTRIBUTION    RADIAL
 FREQUENCY          3099.91         C  3 -- H 17         +44.9% ( 66.5%)     98.8%
 TRANSITION DIPOLE   0.1043         C  3 -- H 18         +22.1% ( 46.7%)     94.0%
 TRAVEL (Ang.)       0.2691         C  4 -- H 21         +20.0% ( 44.3%)     98.7%
 REDUCED MASS        0.3003         C  4 -- H 22         +11.0% ( 32.9%)     94.8%
 EFFECTIVE MASS      1.2695
 FORCE CONSTANT      1.7004

 VIBRATION         94   94A           ATOM PAIR      ENERGY CONTRIBUTION    RADIAL
 FREQUENCY          3102.92         C  4 -- H 21         +43.3% ( 65.4%)     98.5%
 TRANSITION DIPOLE   0.0262         C  4 -- H 22         +23.6% ( 48.2%)     94.2%
 TRAVEL (Ang.)       0.2707         C  3 -- H 17         +20.6% ( 45.1%)     98.6%
 REDUCED MASS        0.2965         C  3 -- H 18         +10.2% ( 31.7%)     93.5%
 EFFECTIVE MASS      1.3079
 FORCE CONSTANT      1.6821

 VIBRATION         95   95A           ATOM PAIR      ENERGY CONTRIBUTION    RADIAL
 FREQUENCY          3179.50         C  9 -- H 29         +37.5% ( 58.9%)     97.7%
 TRANSITION DIPOLE   0.0108         C  9 -- H 28         +32.5% ( 54.9%)     97.0%
 TRAVEL (Ang.)       0.2537         C  9 -- H 27         +29.7% ( 52.5%)     96.5%
 REDUCED MASS        0.3294         C  5 -- C  9          +0.3% (  5.1%)     99.3%
 EFFECTIVE MASS      1.1369
 FORCE CONSTANT      1.9622

 VIBRATION         96   96A           ATOM PAIR      ENERGY CONTRIBUTION    RADIAL
 FREQUENCY          3181.32         C 10 -- H 32         +36.5% ( 58.1%)     97.6%
 TRANSITION DIPOLE   0.0181         C 10 -- H 30         +31.6% ( 54.1%)     96.8%
 TRAVEL (Ang.)       0.2541         C 10 -- H 31         +31.6% ( 54.1%)     96.8%
 REDUCED MASS        0.3283         C  6 -- C 10          +0.3% (  5.1%)     99.6%
 EFFECTIVE MASS      1.1368
 FORCE CONSTANT      1.9575

      SYMMETRY NUMBER FOR POINT-GROUP C1  =  1


          SYSTEM IS A GROUND STATE



 InChI=1S/C12H22/c1-3-5-6-7-8-12-9-11(4-2)10-12/h6-7,11-12H,3-5,8-10H2,1-2H3


          MOLECULE IS NOT LINEAR

          THERE ARE 96 GENUINE VIBRATIONS IN THIS SYSTEM
          THIS THERMODYNAMICS CALCULATION IS LIMITED TO
          MOLECULES WHICH HAVE NO INTERNAL ROTATIONS




                    CALCULATED THERMODYNAMIC PROPERTIES
                                          *
   TEMP. (K)   PARTITION FUNCTION   H.O.F.    ENTHALPY  HEAT CAPACITY ENTROPY
                                   KCAL/MOL   CAL/MOLE    CAL/K/MOL  CAL/K/MOL


 298.00  VIB.     0.1134D+07                  7366.1594    47.1345    52.4228
         ROT.     0.2116D+07                   888.2803     2.9808    31.9247
         INT.     0.2400D+13                  8254.4397    50.1153    84.3475
         TRA.     0.2073D+28                  1480.4672     4.9680    41.2320
         TOT.                      -23.496    9734.9069    55.0833   125.5795

 200.00  VIB.     0.1689D+05                  3559.1835    31.3231    37.1406
         ROT.     0.1164D+07                   596.1613     2.9808    30.7360
         INT.     0.1965D+11                  4155.3448    34.3039    67.8766
         TRA.     0.1140D+28                   993.6021     4.9680    39.2509
         TOT.                      -28.082    5148.9469    39.2719   107.1274

 210.00  VIB.     0.2636D+05                  3879.2985    32.7091    38.7021
         ROT.     0.1252D+07                   625.9693     2.9808    30.8814
         INT.     0.3300D+11                  4505.2678    35.6899    69.5836
         TRA.     0.1227D+28                  1043.2822     4.9680    39.4932
         TOT.                      -27.682    5548.5501    40.6579   109.0768

 220.00  VIB.     0.4095D+05                  4213.5537    34.1514    40.2568
         ROT.     0.1342D+07                   655.7774     2.9808    31.0201
         INT.     0.5497D+11                  4869.3311    37.1322    71.2770
         TRA.     0.1315D+28                  1092.9623     4.9680    39.7244
         TOT.                      -27.268    5962.2934    42.1002   111.0013

 230.00  VIB.     0.6333D+05                  4562.5167    35.6507    41.8078
         ROT.     0.1435D+07                   685.5855     2.9808    31.1526
         INT.     0.9087D+11                  5248.1022    38.6315    72.9604
         TRA.     0.1406D+28                  1142.6424     4.9680    39.9452
         TOT.                      -26.840    6390.7446    43.5995   112.9056

 240.00  VIB.     0.9757D+05                  4926.7533    37.2058    43.3577
         ROT.     0.1529D+07                   715.3935     2.9808    31.2795
         INT.     0.1492D+12                  5642.1468    40.1866    74.6372
         TRA.     0.1499D+28                  1192.3226     4.9680    40.1566
         TOT.                      -26.396    6834.4694    45.1546   114.7939

 250.00  VIB.     0.1498D+06                  5306.8105    38.8142    44.9090
         ROT.     0.1626D+07                   745.2016     2.9808    31.4012
         INT.     0.2436D+12                  6052.0121    41.7950    76.3101
         TRA.     0.1593D+28                  1242.0027     4.9680    40.3594
         TOT.                      -25.936    7294.0148    46.7631   116.6696

 260.00  VIB.     0.2293D+06                  5703.2032    40.4722    46.4635
         ROT.     0.1725D+07                   775.0097     2.9808    31.5181
         INT.     0.3955D+12                  6478.2129    43.4530    77.9815
         TRA.     0.1690D+28                  1291.6828     4.9680    40.5543
         TOT.                      -25.461    7769.8957    48.4210   118.5358

 270.00  VIB.     0.3502D+06                  6116.4036    42.1749    48.0227
         ROT.     0.1825D+07                   804.8177     2.9808    31.6306
         INT.     0.6392D+12                  6921.2213    45.1557    79.6533
         TRA.     0.1788D+28                  1341.3629     4.9680    40.7418
         TOT.                      -24.968    8262.5842    50.1237   120.3950

 280.00  VIB.     0.5337D+06                  6546.8335    43.9172    49.5879
         ROT.     0.1927D+07                   834.6258     2.9808    31.7390
         INT.     0.1029D+13                  7381.4593    46.8980    81.3268
         TRA.     0.1888D+28                  1391.0430     4.9680    40.9225
         TOT.                      -24.458    8772.5023    51.8660   122.2493

 290.00  VIB.     0.8117D+06                  6994.8597    45.6932    51.1599
         ROT.     0.2032D+07                   864.4339     2.9808    31.8436
         INT.     0.1649D+13                  7859.2935    48.6740    83.0034
         TRA.     0.1990D+28                  1440.7231     4.9680    41.0968
         TOT.                      -23.930    9300.0166    53.6420   124.1002

 300.00  VIB.     0.1233D+07                  7460.7909    47.4972    52.7393
         ROT.     0.2138D+07                   894.2419     2.9808    31.9446
         INT.     0.2635D+13                  8355.0328    50.4780    84.6839
         TRA.     0.2094D+28                  1490.4032     4.9680    41.2652
         TOT.                      -23.385    9845.4360    55.4460   125.9491

 310.00  VIB.     0.1870D+07                  7944.8775    49.3233    54.3264
         ROT.     0.2245D+07                   924.0500     2.9808    32.0424
         INT.     0.4198D+13                  8868.9275    52.3041    86.3688
         TRA.     0.2200D+28                  1540.0833     4.9680    41.4281
         TOT.                      -22.821   10409.0108    57.2721   127.7969

 320.00  VIB.     0.2833D+07                  8447.3116    51.1658    55.9214
         ROT.     0.2355D+07                   953.8580     2.9808    32.1370
         INT.     0.6671D+13                  9401.1696    54.1466    88.0584
         TRA.     0.2307D+28                  1589.7634     4.9680    41.5859
         TOT.                      -22.240   10990.9330    59.1146   129.6443

 330.00  VIB.     0.4289D+07                  8968.2294    53.0192    57.5242
         ROT.     0.2466D+07                   983.6661     2.9808    32.2287
         INT.     0.1058D+14                  9951.8955    56.0000    89.7530
         TRA.     0.2416D+28                  1639.4435     4.9680    41.7387
         TOT.                      -21.639   11591.3390    60.9680   131.4917

 340.00  VIB.     0.6490D+07                  9507.7139    54.8783    59.1346
         ROT.     0.2579D+07                  1013.4742     2.9808    32.3177
         INT.     0.1674D+14                 10521.1880    57.8591    91.4523
         TRA.     0.2527D+28                  1689.1236     4.9680    41.8870
         TOT.                      -21.020   12210.3117    62.8271   133.3394

 350.00  VIB.     0.9815D+07                 10065.7983    56.7384    60.7522
         ROT.     0.2694D+07                  1043.2822     2.9808    32.4041
         INT.     0.2644D+14                 11109.0805    59.7192    93.1564
         TRA.     0.2639D+28                  1738.8037     4.9680    42.0310
         TOT.                      -20.383   12847.8842    64.6872   135.1874

 360.00  VIB.     0.1484D+08                 10642.4699    58.5950    62.3766
         ROT.     0.2810D+07                  1073.0903     2.9808    32.4881
         INT.     0.4170D+14                 11715.5602    61.5758    94.8647
         TRA.     0.2753D+28                  1788.4838     4.9680    42.1710
         TOT.                      -19.726   13504.0440    66.5439   137.0357

 370.00  VIB.     0.2243D+08                 11237.6743    60.4443    64.0073
         ROT.     0.2928D+07                  1102.8984     2.9808    32.5698
         INT.     0.6567D+14                 12340.5726    63.4251    96.5771
         TRA.     0.2869D+28                  1838.1639     4.9680    42.3071
         TOT.                      -19.052   14178.7366    68.3931   138.8842

 380.00  VIB.     0.3390D+08                 11851.3195    62.2826    65.6437
         ROT.     0.3047D+07                  1132.7064     2.9808    32.6493
         INT.     0.1033D+15                 12984.0259    65.2634    98.2930
         TRA.     0.2986D+28                  1887.8440     4.9680    42.4396
         TOT.                      -18.359   14871.8699    70.2315   140.7326

 390.00  VIB.     0.5124D+08                 12483.2801    64.1069    67.2851
         ROT.     0.3168D+07                  1162.5145     2.9808    32.7267
         INT.     0.1623D+15                 13645.7946    67.0877   100.0118
         TRA.     0.3104D+28                  1937.5242     4.9680    42.5687
         TOT.                      -17.647   15583.3187    72.0557   142.5805

 400.00  VIB.     0.7744D+08                 13133.4016    65.9144    68.9310
         ROT.     0.3291D+07                  1192.3226     2.9808    32.8022
         INT.     0.2548D+15                 14325.7241    68.8952   101.7332
         TRA.     0.3224D+28                  1987.2043     4.9680    42.6944
         TOT.                      -16.918   16312.9284    73.8632   144.4276

   *: NOTE: HEATS OF FORMATION ARE RELATIVE TO THE
            ELEMENTS IN THEIR STANDARD STATE AT 298K
              (=  Standard Enthalpy of Formation).

            Hvib:  Zero-point energy is not included.
                   frequencies of less than zero cm-1 are not included.
            Hrot = (3/2)RT
            Htra = (3/2)RT + pV = (5/2)RT

            Heat capacity is Cp, not Cv

          For more information, see: HTTP://OpenMOPAC.net/Manual/thermochemistry.html


           FORCE CONSTANT IN CARTESIAN COORDINATES (Millidynes/A)

    ATOM   CHEMICAL       X               Y               Z
   NUMBER   SYMBOL  FORCE CONSTANT  FORCE CONSTANT  FORCE CONSTANT

      1       C        9.842982        6.330313        8.641399
      2       C        9.821545        6.333703        8.629242
      3       C        5.975896        9.730714        8.648560
      4       C        5.996076        9.749940        8.653906
      5       C        8.399760        8.422190        8.271601
      6       C        8.232883        8.443325        8.177304
      7       C        8.719453        8.860332        7.981909
      8       C        8.618383        8.846880        7.892346
      9       C        8.346552        8.204137        8.344158
     10       C        8.393228        8.226335        8.271808
     11       C       15.177610        9.171927        2.823119
     12       C       15.216884        9.207011        2.748120
     13       H        2.013294        0.666605        3.579179
     14       H        2.021615        0.663729        3.577904
     15       H        2.007050        0.747459        3.619450
     16       H        1.668308        4.011607        0.696867
     17       H        0.664740        2.257730        3.713454
     18       H        0.690788        2.271672        3.644929
     19       H        1.193758        0.790512        4.427772
     20       H        1.602787        3.707511        1.104945
     21       H        0.666203        2.323398        3.648258
     22       H        0.688026        2.208786        3.717480
     23       H        1.925138        0.712355        3.606288
     24       H        1.675610        4.003142        0.685334
     25       H        1.588742        3.730944        1.074587
     26       H        1.126738        0.735731        4.411834
     27       H        1.705450        4.371438        0.677037
     28       H        2.293049        0.750052        3.734946
     29       H        2.256351        0.703932        3.831534
     30       H        1.574404        4.050755        1.150318
     31       H        1.277285        0.807132        4.689547
     32       H        3.462116        0.936295        2.394807
     33       H        1.396965        4.294653        0.502693
     34       H        1.404505        4.322134        0.487505

 **********************
 *                    *
 * JOB ENDED NORMALLY *
 *                    *
 **********************



 TOTAL JOB TIME:            13.05 SECONDS

 == MOPAC DONE ==
