 *******************************************************************************
 **                                                                           **
 **                              MOPAC v23.1.2                                **
 **                                                                           **
 *******************************************************************************
 **          Digital Object Identifier (DOI): 10.5281/zenodo.6511958          **
 **    Visit the DOI location for information on how to cite this program.    **
 *******************************************************************************

                              PM3 CALCULATION RESULTS

 *******************************************************************************
 *  CALCULATION DONE: (MAX THREADS = 1)              Tue Jun  3 16:32:04 2025  *
 *  PM3        - The PM3 Hamiltonian to be used
 *  PRECISE    - TIGHTER CRITERIA TO BE USED
 *  NOSYM      - POINT-GROUP SYMMETRY SET TO C1
 *  THREADS=1  - MULTI-THREADING NOT USED
 *  T=         - A TIME OF 172800.0 SECONDS REQUESTED
 *  DUMP=N     - RESTART FILE WRITTEN EVERY 7200.0 SECONDS REQUESTED
 *******************************************************************************
pm3  precise nosym THREADS=1
 InChI=1S/C10H10/c1-8-6-7-9-4-2-3-5-10(8)9/h2-4,6-7H,5H2,1H3

   ATOM   CHEMICAL          X               Y               Z
  NUMBER   SYMBOL      (ANGSTROMS)     (ANGSTROMS)     (ANGSTROMS)

     1       C         -0.42850000  *  -1.51010000  *  -0.19510000  *
     2       C          2.60260000  *  -0.61880000  *  -0.17740000  *
     3       C          0.14190000  *  -0.13530000  *   0.00550000  *
     4       C          1.40980000  *   0.25820000  *   0.02900000  *
     5       C         -0.68920000  *   1.02750000  *   0.18540000  *
     6       C         -1.94740000  *  -1.48440000  *  -0.15400000  *
     7       C          1.44000000  *   1.71840000  *   0.21770000  *
     8       C         -2.01610000  *   0.96420000  *   0.19820000  *
     9       C          0.19310000  *   2.17570000  *   0.31530000  *
    10       C         -2.66490000  *  -0.35570000  *   0.02400000  *
    11       H         -0.09940000  *  -1.90430000  *  -1.17950000  *
    12       H         -0.05610000  *  -2.18300000  *   0.60560000  *
    13       H          2.64190000  *  -0.95020000  *  -1.23600000  *
    14       H          3.53250000  *  -0.06180000  *   0.06230000  *
    15       H          2.53900000  *  -1.50800000  *   0.48430000  *
    16       H         -2.47490000  *  -2.42170000  *  -0.27800000  *
    17       H         -2.61280000  *   1.85750000  *   0.33010000  *
    18       H         -3.74580000  *  -0.41090000  *   0.03940000  *
    19       H         -0.09460000  *   3.20930000  *   0.45570000  *
    20       H          2.32890000  *   2.33330000  *   0.26750000  *



          CARTESIAN COORDINATES 

    NO.       ATOM           X           Y           Z

     1         C         -0.4285     -1.5101     -0.1951
     2         C          2.6026     -0.6188     -0.1774
     3         C          0.1419     -0.1353      0.0055
     4         C          1.4098      0.2582      0.0290
     5         C         -0.6892      1.0275      0.1854
     6         C         -1.9474     -1.4844     -0.1540
     7         C          1.4400      1.7184      0.2177
     8         C         -2.0161      0.9642      0.1982
     9         C          0.1931      2.1757      0.3153
    10         C         -2.6649     -0.3557      0.0240
    11         H         -0.0994     -1.9043     -1.1795
    12         H         -0.0561     -2.1830      0.6056
    13         H          2.6419     -0.9502     -1.2360
    14         H          3.5325     -0.0618      0.0623
    15         H          2.5390     -1.5080      0.4843
    16         H         -2.4749     -2.4217     -0.2780
    17         H         -2.6128      1.8575      0.3301
    18         H         -3.7458     -0.4109      0.0394
    19         H         -0.0946      3.2093      0.4557
    20         H          2.3289      2.3333      0.2675

  H: (PM3): J. J. P. STEWART, J. COMP. CHEM. 10, 209 (1989).
  C: (PM3): J. J. P. STEWART, J. COMP. CHEM. 10, 209 (1989).

           Empirical Formula: C10 H10  =    20 atoms



      MOLECULAR POINT GROUP   :   C1  


      RHF CALCULATION, NO. OF DOUBLY OCCUPIED LEVELS = 25


          Geometry optimization using EF

          DIAGONAL MATRIX USED AS START HESSIAN

 CYCLE:     1 TIME:   0.008 TIME LEFT:  2.00D  GRAD.:   149.689 HEAT:  60.21105
 CYCLE:     2 TIME:   0.012 TIME LEFT:  2.00D  GRAD.:   155.349 HEAT:  59.17111
 CYCLE:     3 TIME:   0.004 TIME LEFT:  2.00D  GRAD.:    87.017 HEAT:  57.22718
 CYCLE:     4 TIME:   0.012 TIME LEFT:  2.00D  GRAD.:    47.704 HEAT:  55.39918
 CYCLE:     5 TIME:   0.012 TIME LEFT:  2.00D  GRAD.:    26.590 HEAT:  54.88998
 CYCLE:     6 TIME:   0.008 TIME LEFT:  2.00D  GRAD.:    30.999 HEAT:  54.77853
 CYCLE:     7 TIME:   0.004 TIME LEFT:  2.00D  GRAD.:    36.821 HEAT:  54.68780
 CYCLE:     8 TIME:   0.008 TIME LEFT:  2.00D  GRAD.:    41.320 HEAT:  54.62318
 CYCLE:     9 TIME:   0.008 TIME LEFT:  2.00D  GRAD.:    23.852 HEAT:  54.30774
 CYCLE:    10 TIME:   0.012 TIME LEFT:  2.00D  GRAD.:    17.617 HEAT:  54.20260
 CYCLE:    11 TIME:   0.008 TIME LEFT:  2.00D  GRAD.:    18.293 HEAT:  54.17341
 CYCLE:    12 TIME:   0.008 TIME LEFT:  2.00D  GRAD.:    17.592 HEAT:  54.14093
 CYCLE:    13 TIME:   0.004 TIME LEFT:  2.00D  GRAD.:    16.907 HEAT:  54.12360
 CYCLE:    14 TIME:   0.008 TIME LEFT:  2.00D  GRAD.:    13.137 HEAT:  54.08967
 CYCLE:    15 TIME:   0.012 TIME LEFT:  2.00D  GRAD.:     6.722 HEAT:  54.05586
 CYCLE:    16 TIME:   0.012 TIME LEFT:  2.00D  GRAD.:     4.501 HEAT:  54.04522
 CYCLE:    17 TIME:   0.004 TIME LEFT:  2.00D  GRAD.:     5.053 HEAT:  54.03911
 CYCLE:    18 TIME:   0.008 TIME LEFT:  2.00D  GRAD.:     4.476 HEAT:  54.02913
 CYCLE:    19 TIME:   0.008 TIME LEFT:  2.00D  GRAD.:     6.715 HEAT:  54.02232
 CYCLE:    20 TIME:   0.008 TIME LEFT:  2.00D  GRAD.:     5.379 HEAT:  54.00998
 CYCLE:    21 TIME:   0.008 TIME LEFT:  2.00D  GRAD.:     4.600 HEAT:  54.00050
 CYCLE:    22 TIME:   0.004 TIME LEFT:  2.00D  GRAD.:     4.514 HEAT:  53.99166
 CYCLE:    23 TIME:   0.008 TIME LEFT:  2.00D  GRAD.:     2.482 HEAT:  53.98211
 CYCLE:    24 TIME:   0.008 TIME LEFT:  2.00D  GRAD.:     3.332 HEAT:  53.97582
 CYCLE:    25 TIME:   0.004 TIME LEFT:  2.00D  GRAD.:     3.444 HEAT:  53.97019
 CYCLE:    26 TIME:   0.008 TIME LEFT:  2.00D  GRAD.:     2.063 HEAT:  53.96496
 CYCLE:    27 TIME:   0.008 TIME LEFT:  2.00D  GRAD.:     2.190 HEAT:  53.96229
 CYCLE:    28 TIME:   0.008 TIME LEFT:  2.00D  GRAD.:     1.704 HEAT:  53.95937
 CYCLE:    29 TIME:   0.004 TIME LEFT:  2.00D  GRAD.:     1.539 HEAT:  53.95704
 CYCLE:    30 TIME:   0.008 TIME LEFT:  2.00D  GRAD.:     2.223 HEAT:  53.95458
 CYCLE:    31 TIME:   0.004 TIME LEFT:  2.00D  GRAD.:     1.274 HEAT:  53.95257
 CYCLE:    32 TIME:   0.008 TIME LEFT:  2.00D  GRAD.:     1.415 HEAT:  53.95156
 CYCLE:    33 TIME:   0.008 TIME LEFT:  2.00D  GRAD.:     0.954 HEAT:  53.95065
 CYCLE:    34 TIME:   0.008 TIME LEFT:  2.00D  GRAD.:     0.585 HEAT:  53.94997
 CYCLE:    35 TIME:   0.008 TIME LEFT:  2.00D  GRAD.:     0.460 HEAT:  53.94962
 CYCLE:    36 TIME:   0.008 TIME LEFT:  2.00D  GRAD.:     0.364 HEAT:  53.94949
 CYCLE:    37 TIME:   0.004 TIME LEFT:  2.00D  GRAD.:     0.201 HEAT:  53.94939
 CYCLE:    38 TIME:   0.008 TIME LEFT:  2.00D  GRAD.:     0.173 HEAT:  53.94929
 CYCLE:    39 TIME:   0.008 TIME LEFT:  2.00D  GRAD.:     0.228 HEAT:  53.94921
 CYCLE:    40 TIME:   0.008 TIME LEFT:  2.00D  GRAD.:     0.250 HEAT:  53.94915
 CYCLE:    41 TIME:   0.004 TIME LEFT:  2.00D  GRAD.:     0.168 HEAT:  53.94908
 CYCLE:    42 TIME:   0.008 TIME LEFT:  2.00D  GRAD.:     0.185 HEAT:  53.94902
 CYCLE:    43 TIME:   0.004 TIME LEFT:  2.00D  GRAD.:     0.181 HEAT:  53.94895
 CYCLE:    44 TIME:   0.008 TIME LEFT:  2.00D  GRAD.:     0.174 HEAT:  53.94883
 CYCLE:    45 TIME:   0.008 TIME LEFT:  2.00D  GRAD.:     0.179 HEAT:  53.94876
 CYCLE:    46 TIME:   0.004 TIME LEFT:  2.00D  GRAD.:     0.151 HEAT:  53.94871
 CYCLE:    47 TIME:   0.008 TIME LEFT:  2.00D  GRAD.:     0.185 HEAT:  53.94867
 CYCLE:    48 TIME:   0.004 TIME LEFT:  2.00D  GRAD.:     0.104 HEAT:  53.94863
 CYCLE:    49 TIME:   0.008 TIME LEFT:  2.00D  GRAD.:     0.076 HEAT:  53.94860
 CYCLE:    50 TIME:   0.008 TIME LEFT:  2.00D  GRAD.:     0.138 HEAT:  53.94856
 CYCLE:    51 TIME:   0.004 TIME LEFT:  2.00D  GRAD.:     0.101 HEAT:  53.94854
 CYCLE:    52 TIME:   0.008 TIME LEFT:  2.00D  GRAD.:     0.146 HEAT:  53.94851
 CYCLE:    53 TIME:   0.004 TIME LEFT:  2.00D  GRAD.:     0.077 HEAT:  53.94849
 CYCLE:    54 TIME:   0.008 TIME LEFT:  2.00D  GRAD.:     0.059 HEAT:  53.94847
 CYCLE:    55 TIME:   0.004 TIME LEFT:  2.00D  GRAD.:     0.058 HEAT:  53.94846
 CYCLE:    56 TIME:   0.008 TIME LEFT:  2.00D  GRAD.:     0.063 HEAT:  53.94844
 CYCLE:    57 TIME:   0.004 TIME LEFT:  2.00D  GRAD.:     0.043 HEAT:  53.94843

     GRADIENT =  0.04320 IS LESS THAN CUTOFF =  0.05000



 -------------------------------------------------------------------------------
 pm3  precise nosym THREADS=1
 InChI=1S/C10H10/c1-8-6-7-9-4-2-3-5-10(8)9/h2-4,6-7H,5H2,1H3



     GEOMETRY OPTIMISED USING EIGENVECTOR FOLLOWING (EF).     
     SCF FIELD WAS ACHIEVED                                   


                              PM3 CALCULATION
                                                       MOPAC v23.1.2 MacOS
                                                       Tue Jun  3 16:32:04 2025




          FINAL HEAT OF FORMATION =         53.94843 KCAL/MOL =     225.72024 KJ/MOL


          COSMO AREA              =        173.79 SQUARE ANGSTROMS
          COSMO VOLUME            =        174.29 CUBIC ANGSTROMS

          GRADIENT NORM           =          0.04320          =       0.00966 PER ATOM
          IONIZATION POTENTIAL    =          8.580352 EV
          HOMO LUMO ENERGIES (EV) =         -8.580 -0.877
          NO. OF FILLED LEVELS    =         25
          MOLECULAR WEIGHT        =        130.1890         POINT GROUP:  C1  

          MOLECULAR DIMENSIONS (Angstroms)

            Atom       Atom       Distance
            H    18    H    14     7.33832
            H    19    H    16     5.55602
            H    12    H    13     1.89246


          SCF CALCULATIONS        =         65

          WALL-CLOCK TIME         =      0.422 SECONDS
          COMPUTATION TIME        =      0.268 SECONDS




   ATOM   CHEMICAL          X               Y               Z
  NUMBER   SYMBOL      (ANGSTROMS)     (ANGSTROMS)     (ANGSTROMS)

     1       C         -0.46788028  *  -1.48726119  *  -0.20466161  *
     2       C          2.64389744  *  -0.58767835  *  -0.15460243  *
     3       C          0.13775787  *  -0.15621616  *  -0.02492725  *
     4       C          1.44167871  *   0.24348180  *   0.00000981  *
     5       C         -0.71440093  *   1.03161685  *   0.17320443  *
     6       C         -1.95426699  *  -1.46470355  *  -0.14744539  *
     7       C          1.47153892  *   1.69952369  *   0.21180177  *
     8       C         -2.05635857  *   0.94978601  *   0.20386483  *
     9       C          0.20007629  *   2.16863450  *   0.31370893  *
    10       C         -2.67846135  *  -0.34751135  *   0.03788971  *
    11       H         -0.14877800  *  -1.91513763  *  -1.17874384  *
    12       H         -0.08033521  *  -2.18214681  *   0.57060539  *
    13       H          2.73498861  *  -0.95320236  *  -1.18713929  *
    14       H          3.55685012  *  -0.02802220  *   0.08499780  *
    15       H          2.60315750  *  -1.46725494  *   0.50290467  *
    16       H         -2.45109230  *  -2.43421297  *  -0.26910629  *
    17       H         -2.69144065  *   1.82892513  *   0.35117981  *
    18       H         -3.77264045  *  -0.38754649  *   0.06982001  *
    19       H         -0.12681411  *   3.19347547  *   0.47221940  *
    20       H          2.39597159  *   2.27089772  *   0.27190740  *

                             CARTESIAN COORDINATES

   1    C       -0.467880283    -1.487261185    -0.204661607
   2    C        2.643897437    -0.587678346    -0.154602433
   3    C        0.137757867    -0.156216159    -0.024927253
   4    C        1.441678705     0.243481803     0.000009810
   5    C       -0.714400927     1.031616852     0.173204430
   6    C       -1.954266991    -1.464703547    -0.147445394
   7    C        1.471538916     1.699523695     0.211801775
   8    C       -2.056358569     0.949786013     0.203864831
   9    C        0.200076292     2.168634502     0.313708926
  10    C       -2.678461355    -0.347511350     0.037889707
  11    H       -0.148777996    -1.915137632    -1.178743837
  12    H       -0.080335213    -2.182146812     0.570605391
  13    H        2.734988611    -0.953202358    -1.187139286
  14    H        3.556850115    -0.028022198     0.084997802
  15    H        2.603157496    -1.467254943     0.502904668
  16    H       -2.451092302    -2.434212973    -0.269106291
  17    H       -2.691440648     1.828925126     0.351179810
  18    H       -3.772640451    -0.387546494     0.069820014
  19    H       -0.126814111     3.193475467     0.472219397
  20    H        2.395971590     2.270897715     0.271907401


           Empirical Formula: C10 H10  =    20 atoms



      MOLECULAR POINT GROUP   :   C1  


                  EIGENVALUES  
 -41.21430 -35.44225 -32.12350 -28.89480 -27.00555 -23.76157 -21.51455 -19.85082
 -18.95816 -17.25154 -16.04281 -15.83193 -15.33471 -14.91874 -14.67583 -13.97403
 -13.80613 -13.50151 -12.68962 -12.45391 -12.32166 -12.13767 -11.11589  -9.02630
  -8.58035  -0.87689   1.05751   1.94677   2.49099   3.06282   3.17243   3.25890
   3.48650   3.57978   3.70433   3.95607   4.11566   4.26006   4.29450   4.45346
   4.53708   4.63193   4.65445   4.77086   5.20741   5.51410   5.55799   6.21791
   6.34207   6.40129


              NET ATOMIC CHARGES AND DIPOLE CONTRIBUTIONS

  ATOM NO.   TYPE          CHARGE      No. of ELECS.   s-Pop       p-Pop       
    1          C           0.002011        3.9980     1.12275     2.87524
    2          C          -0.041055        4.0411     1.11460     2.92646
    3          C          -0.120125        4.1201     1.18824     2.93189
    4          C          -0.109296        4.1093     1.18902     2.92027
    5          C          -0.068560        4.0686     1.18096     2.88760
    6          C          -0.099798        4.0998     1.19763     2.90217
    7          C          -0.092986        4.0930     1.19211     2.90088
    8          C          -0.006583        4.0066     1.17369     2.83289
    9          C          -0.130190        4.1302     1.18674     2.94345
   10          C          -0.138429        4.1384     1.18081     2.95762
   11          H           0.071785        0.9282     0.92822
   12          H           0.071892        0.9281     0.92811
   13          H           0.043220        0.9568     0.95678
   14          H           0.043223        0.9568     0.95678
   15          H           0.041122        0.9589     0.95888
   16          H           0.096357        0.9036     0.90364
   17          H           0.103438        0.8966     0.89656
   18          H           0.103869        0.8961     0.89613
   19          H           0.117063        0.8829     0.88294
   20          H           0.113044        0.8870     0.88696
 DIPOLE           X         Y         Z       TOTAL
 POINT-CHG.    -0.509    -0.778    -0.107     0.936
 HYBRID        -0.085    -0.050    -0.008     0.099
 SUM           -0.594    -0.828    -0.115     1.026


          ATOMIC ORBITAL ELECTRON POPULATIONS

     Atom    s        px        py        pz   
    1  C   1.12275   0.92491   0.94545   1.00487
    2  C   1.11460   0.94758   0.97940   0.99948
    3  C   1.18824   0.94436   0.94270   1.04483
    4  C   1.18902   0.93989   0.94622   1.03416
    5  C   1.18096   0.94005   0.94077   1.00677
    6  C   1.19763   0.96038   0.97456   0.96723
    7  C   1.19211   0.96599   0.93526   0.99963
    8  C   1.17369   0.94263   0.95718   0.93308
    9  C   1.18674   0.94107   0.96002   1.04237
   10  C   1.18081   0.98466   0.94121   1.03175
   11  H   0.92822
   12  H   0.92811
   13  H   0.95678
   14  H   0.95678
   15  H   0.95888
   16  H   0.90364
   17  H   0.89656
   18  H   0.89613
   19  H   0.88294
   20  H   0.88696
 *******************************************************************************
 **                                                                           **
 **                              MOPAC v23.1.2                                **
 **                                                                           **
 *******************************************************************************
 **          Digital Object Identifier (DOI): 10.5281/zenodo.6511958          **
 **    Visit the DOI location for information on how to cite this program.    **
 *******************************************************************************

                              PM3 CALCULATION RESULTS

 *******************************************************************************
 *  CALCULATION DONE: (MAX THREADS = 1)              Tue Jun  3 16:32:04 2025  *
 *  PM3        - The PM3 Hamiltonian to be used
 *  OLDGEO     - PREVIOUS GEOMETRY TO BE USED
 *  PRECISE    - TIGHTER CRITERIA TO BE USED
 *  NOSYM      - POINT-GROUP SYMMETRY SET TO C1
 *  THREADS=1  - MULTI-THREADING NOT USED
 *  T=         - A TIME OF 172800.0 SECONDS REQUESTED
 *  DUMP=N     - RESTART FILE WRITTEN EVERY 7200.0 SECONDS REQUESTED
 *  THERMO     - THERMODYNAMIC QUANTITIES TO BE CALCULATED
 *******************************************************************************
oldgeo thermo nosym precise THREADS=1  pm3
 InChI=1S/C10H10/c1-8-6-7-9-4-2-3-5-10(8)9/h2-4,6-7H,5H2,1H3

   ATOM   CHEMICAL          X               Y               Z
  NUMBER   SYMBOL      (ANGSTROMS)     (ANGSTROMS)     (ANGSTROMS)

     1       C         -0.46788028  *  -1.48726119  *  -0.20466161  *
     2       C          2.64389744  *  -0.58767835  *  -0.15460243  *
     3       C          0.13775787  *  -0.15621616  *  -0.02492725  *
     4       C          1.44167871  *   0.24348180  *   0.00000981  *
     5       C         -0.71440093  *   1.03161685  *   0.17320443  *
     6       C         -1.95426699  *  -1.46470355  *  -0.14744539  *
     7       C          1.47153892  *   1.69952369  *   0.21180177  *
     8       C         -2.05635857  *   0.94978601  *   0.20386483  *
     9       C          0.20007629  *   2.16863450  *   0.31370893  *
    10       C         -2.67846135  *  -0.34751135  *   0.03788971  *
    11       H         -0.14877800  *  -1.91513763  *  -1.17874384  *
    12       H         -0.08033521  *  -2.18214681  *   0.57060539  *
    13       H          2.73498861  *  -0.95320236  *  -1.18713929  *
    14       H          3.55685012  *  -0.02802220  *   0.08499780  *
    15       H          2.60315750  *  -1.46725494  *   0.50290467  *
    16       H         -2.45109230  *  -2.43421297  *  -0.26910629  *
    17       H         -2.69144065  *   1.82892513  *   0.35117981  *
    18       H         -3.77264045  *  -0.38754649  *   0.06982001  *
    19       H         -0.12681411  *   3.19347547  *   0.47221940  *
    20       H          2.39597159  *   2.27089772  *   0.27190740  *



          CARTESIAN COORDINATES 

    NO.       ATOM           X           Y           Z

     1         C         -0.4679     -1.4873     -0.2047
     2         C          2.6439     -0.5877     -0.1546
     3         C          0.1378     -0.1562     -0.0249
     4         C          1.4417      0.2435      0.0000
     5         C         -0.7144      1.0316      0.1732
     6         C         -1.9543     -1.4647     -0.1474
     7         C          1.4715      1.6995      0.2118
     8         C         -2.0564      0.9498      0.2039
     9         C          0.2001      2.1686      0.3137
    10         C         -2.6785     -0.3475      0.0379
    11         H         -0.1488     -1.9151     -1.1787
    12         H         -0.0803     -2.1821      0.5706
    13         H          2.7350     -0.9532     -1.1871
    14         H          3.5569     -0.0280      0.0850
    15         H          2.6032     -1.4673      0.5029
    16         H         -2.4511     -2.4342     -0.2691
    17         H         -2.6914      1.8289      0.3512
    18         H         -3.7726     -0.3875      0.0698
    19         H         -0.1268      3.1935      0.4722
    20         H          2.3960      2.2709      0.2719

  H: (PM3): J. J. P. STEWART, J. COMP. CHEM. 10, 209 (1989).
  C: (PM3): J. J. P. STEWART, J. COMP. CHEM. 10, 209 (1989).

           Empirical Formula: C10 H10  =    20 atoms



      MOLECULAR POINT GROUP   :   C1  


      RHF CALCULATION, NO. OF DOUBLY OCCUPIED LEVELS = 25



          HEAT OF FORMATION =      53.948433 KCALS/MOLE


          CARTESIAN COORDINATE DERIVATIVES

   NUMBER  ATOM         X            Y            Z

     1       C      0.003347    -0.000332     0.000145
     2       C      0.002170     0.000507    -0.002462
     3       C      0.000064     0.002297    -0.000416
     4       C      0.003494     0.002744     0.004648
     5       C     -0.008199     0.001470     0.004263
     6       C     -0.002113    -0.000642    -0.002353
     7       C      0.002957     0.006630     0.006263
     8       C     -0.007738    -0.002762    -0.003576
     9       C     -0.009877     0.002485    -0.000190
    10       C     -0.005963     0.000423    -0.005164
    11       H     -0.011971     0.001912     0.000295
    12       H      0.011544     0.001166     0.002835
    13       H     -0.010052    -0.014022     0.002427
    14       H      0.013158    -0.002696    -0.005755
    15       H      0.011259    -0.005350    -0.002205
    16       H      0.001252    -0.005983     0.003623
    17       H      0.011770     0.002677    -0.007727
    18       H     -0.004286     0.008602    -0.003590
    19       H     -0.005152     0.000266     0.008537
    20       H      0.004336     0.000605     0.000404



          GRADIENT NORM =   0.04419

          MOLECULAR WEIGHT =  130.19



          ROTATIONAL CONSTANTS IN CM(-1)

          A =    0.08347859   B =    0.04221910   C =    0.02833682



           PRINCIPAL MOMENTS OF INERTIA IN UNITS OF 10**(-40)*GRAM-CM**2

          A =      335.3285   B =      663.0353   C =      987.8579


          ORIENTATION OF MOLECULE IN FORCE CALCULATION

    NO.       ATOM         X         Y         Z

     1          C      -0.7540   -1.5285   -0.0037
     2          C       2.4855   -1.5285   -0.0037
     3          C       0.2001   -0.4058   -0.0037
     4          C       1.5639   -0.3836   -0.0031
     5          C      -0.2855    0.9872   -0.0028
     6          C      -2.1746   -1.0871    0.0107
     7          C       2.0002    1.0219   -0.0046
     8          C      -1.5968    1.2856    0.0043
     9          C       0.9108    1.8344   -0.0053
    10          C      -2.5572    0.2015    0.0126
    11          H      -0.5814   -2.1663   -0.8965
    12          H      -0.5628   -2.1817    0.8742
    13          H       2.4556   -2.0526   -0.9694
    14          H       3.5216   -1.2146    0.1757
    15          H       2.2123   -2.2558    0.7734
    16          H      -2.9230   -1.8881    0.0184
    17          H      -1.9604    2.3179    0.0056
    18          H      -3.6188    0.4712    0.0214
    19          H       0.8838    2.9214   -0.0061
    20          H       3.0478    1.3173   -0.0041


    FIRST DERIVATIVES WILL BE USED IN THE CALCULATION OF SECOND DERIVATIVES

          ESTIMATED TIME TO COMPLETE CALCULATION =        1.88 SECONDS

    FOR POINT-GROUP C1   THERE ARE   1 UNIQUE SYMMETRY FUNCTIONS.

 STEP:   1 TIME =     0.02 SECS, INTEGRAL =      0.02 TIME LEFT: 172799.97
 STEP:   2 TIME =     0.02 SECS, INTEGRAL =      0.04 TIME LEFT: 172799.95
 STEP:   3 TIME =     0.02 SECS, INTEGRAL =      0.07 TIME LEFT: 172799.93
 STEP:   4 TIME =     0.02 SECS, INTEGRAL =      0.08 TIME LEFT: 172799.91
 STEP:   5 TIME =     0.02 SECS, INTEGRAL =      0.10 TIME LEFT: 172799.89
 STEP:   6 TIME =     0.02 SECS, INTEGRAL =      0.12 TIME LEFT: 172799.87
 STEP:   7 TIME =     0.02 SECS, INTEGRAL =      0.14 TIME LEFT: 172799.85
 STEP:   8 TIME =     0.02 SECS, INTEGRAL =      0.16 TIME LEFT: 172799.83
 STEP:   9 TIME =     0.02 SECS, INTEGRAL =      0.18 TIME LEFT: 172799.81
 STEP:  10 TIME =     0.02 SECS, INTEGRAL =      0.21 TIME LEFT: 172799.79
 STEP:  11 TIME =     0.02 SECS, INTEGRAL =      0.23 TIME LEFT: 172799.76
 STEP:  12 TIME =     0.02 SECS, INTEGRAL =      0.25 TIME LEFT: 172799.74
 STEP:  13 TIME =     0.02 SECS, INTEGRAL =      0.27 TIME LEFT: 172799.72
 STEP:  14 TIME =     0.02 SECS, INTEGRAL =      0.29 TIME LEFT: 172799.70
 STEP:  15 TIME =     0.02 SECS, INTEGRAL =      0.31 TIME LEFT: 172799.68
 STEP:  16 TIME =     0.02 SECS, INTEGRAL =      0.33 TIME LEFT: 172799.66
 STEP:  17 TIME =     0.02 SECS, INTEGRAL =      0.35 TIME LEFT: 172799.64
 STEP:  18 TIME =     0.02 SECS, INTEGRAL =      0.38 TIME LEFT: 172799.62
 STEP:  19 TIME =     0.02 SECS, INTEGRAL =      0.39 TIME LEFT: 172799.60
 STEP:  20 TIME =     0.02 SECS, INTEGRAL =      0.42 TIME LEFT: 172799.57
 STEP:  21 TIME =     0.02 SECS, INTEGRAL =      0.44 TIME LEFT: 172799.55
 STEP:  22 TIME =     0.02 SECS, INTEGRAL =      0.46 TIME LEFT: 172799.53
 STEP:  23 TIME =     0.02 SECS, INTEGRAL =      0.48 TIME LEFT: 172799.51
 STEP:  24 TIME =     0.02 SECS, INTEGRAL =      0.50 TIME LEFT: 172799.49
 STEP:  25 TIME =     0.02 SECS, INTEGRAL =      0.52 TIME LEFT: 172799.47
 STEP:  26 TIME =     0.02 SECS, INTEGRAL =      0.54 TIME LEFT: 172799.45
 STEP:  27 TIME =     0.02 SECS, INTEGRAL =      0.57 TIME LEFT: 172799.43
 STEP:  28 TIME =     0.02 SECS, INTEGRAL =      0.58 TIME LEFT: 172799.41
 STEP:  29 TIME =     0.02 SECS, INTEGRAL =      0.61 TIME LEFT: 172799.39
 STEP:  30 TIME =     0.02 SECS, INTEGRAL =      0.63 TIME LEFT: 172799.36
 STEP:  31 TIME =     0.02 SECS, INTEGRAL =      0.65 TIME LEFT: 172799.34
 STEP:  32 TIME =     0.02 SECS, INTEGRAL =      0.67 TIME LEFT: 172799.32
 STEP:  33 TIME =     0.02 SECS, INTEGRAL =      0.69 TIME LEFT: 172799.30
 STEP:  34 TIME =     0.02 SECS, INTEGRAL =      0.71 TIME LEFT: 172799.28
 STEP:  35 TIME =     0.02 SECS, INTEGRAL =      0.73 TIME LEFT: 172799.26
 STEP:  36 TIME =     0.02 SECS, INTEGRAL =      0.75 TIME LEFT: 172799.25
 STEP:  37 TIME =     0.02 SECS, INTEGRAL =      0.77 TIME LEFT: 172799.22
 STEP:  38 TIME =     0.02 SECS, INTEGRAL =      0.79 TIME LEFT: 172799.20
 STEP:  39 TIME =     0.02 SECS, INTEGRAL =      0.81 TIME LEFT: 172799.18
 STEP:  40 TIME =     0.02 SECS, INTEGRAL =      0.83 TIME LEFT: 172799.16
 STEP:  41 TIME =     0.02 SECS, INTEGRAL =      0.84 TIME LEFT: 172799.15
 STEP:  42 TIME =     0.02 SECS, INTEGRAL =      0.86 TIME LEFT: 172799.13
 STEP:  43 TIME =     0.02 SECS, INTEGRAL =      0.88 TIME LEFT: 172799.11
 STEP:  44 TIME =     0.02 SECS, INTEGRAL =      0.90 TIME LEFT: 172799.09
 STEP:  45 TIME =     0.02 SECS, INTEGRAL =      0.92 TIME LEFT: 172799.07
 STEP:  46 TIME =     0.02 SECS, INTEGRAL =      0.94 TIME LEFT: 172799.05
 STEP:  47 TIME =     0.02 SECS, INTEGRAL =      0.96 TIME LEFT: 172799.03
 STEP:  48 TIME =     0.02 SECS, INTEGRAL =      0.98 TIME LEFT: 172799.01
 STEP:  49 TIME =     0.02 SECS, INTEGRAL =      1.00 TIME LEFT: 172798.99
 STEP:  50 TIME =     0.02 SECS, INTEGRAL =      1.02 TIME LEFT: 172798.97
 STEP:  51 TIME =     0.02 SECS, INTEGRAL =      1.04 TIME LEFT: 172798.95
 STEP:  52 TIME =     0.02 SECS, INTEGRAL =      1.06 TIME LEFT: 172798.93
 STEP:  53 TIME =     0.02 SECS, INTEGRAL =      1.08 TIME LEFT: 172798.91
 STEP:  54 TIME =     0.02 SECS, INTEGRAL =      1.11 TIME LEFT: 172798.89
 STEP:  55 TIME =     0.02 SECS, INTEGRAL =      1.12 TIME LEFT: 172798.87
 STEP:  56 TIME =     0.02 SECS, INTEGRAL =      1.14 TIME LEFT: 172798.85
 STEP:  57 TIME =     0.02 SECS, INTEGRAL =      1.16 TIME LEFT: 172798.83
 STEP:  58 TIME =     0.02 SECS, INTEGRAL =      1.18 TIME LEFT: 172798.81
 STEP:  59 TIME =     0.02 SECS, INTEGRAL =      1.20 TIME LEFT: 172798.79
 STEP:  60 TIME =     0.02 SECS, INTEGRAL =      1.22 TIME LEFT: 172798.77

(To convert to Hartree/Bohr^2, multiply by (10^(-21) x N x a0^2)/(4.184 x 627.51) =  0.0642)


           FORCE MATRIX IN MILLIDYNES/ANGSTROM


                  C  1       C  2       C  3       C  4       C  5       C  6
 ------------------------------------------------------------------------------
     C    1  15.107174
     C    2   0.066553  14.855616
     C    3   5.350335   0.678038  18.940465
     C    4   0.619105   5.531034   8.768959  18.533728
     C    5   0.624656   0.113622   4.648938   1.508949  19.484699
     C    6   4.864312   0.005167   0.773033   0.107789   0.329142  17.700169
     C    7   0.128408   0.546532   1.592486   4.745856   1.648018   0.107451
     C    8   0.174717   0.018776   0.970797   0.210916   9.557089   1.252812
     C    9   0.089303   0.055309   1.157417   1.566922   4.928077   0.129896
     C   10   0.851674   0.012021   0.191879   0.130158   1.354234   9.864680
     H   11   4.331821   0.014396   0.414397   0.023468   0.026110   0.417324
     H   12   4.326288   0.018365   0.415681   0.025164   0.026698   0.419740
     H   13   0.013876   4.666999   0.025095   0.444177   0.015212   0.001727
     H   14   0.003069   4.752648   0.047377   0.465153   0.007427   0.000740
     H   15   0.014885   4.678525   0.023312   0.451354   0.010942   0.001557
     H   16   0.420151   0.001380   0.056472   0.007955   0.015168   4.818775
     H   17   0.007325   0.008460   0.118537   0.020744   0.454420   0.049227
     H   18   0.121180   0.000281   0.004909   0.005166   0.049373   0.443705
     H   19   0.011767   0.005842   0.040160   0.098413   0.423560   0.001846
     H   20   0.006646   0.014274   0.045904   0.424263   0.110044   0.002760


                  C  7       C  8       C  9       C 10       H 11       H 12
 ------------------------------------------------------------------------------
     C    7  17.948086
     C    8   0.240157  18.078430
     C    9   9.255489   0.920399  18.012059
     C   10   0.131866   5.531127   0.236120  18.015401
     H   11   0.013076   0.019070   0.008115   0.042786   4.925050
     H   12   0.013002   0.018923   0.007975   0.043306   0.568338   4.922035
     H   13   0.021982   0.002959   0.005546   0.002379   0.010671   0.002834
     H   14   0.025425   0.001977   0.003185   0.000871   0.000806   0.000579
     H   15   0.031779   0.001976   0.007522   0.002029   0.002420   0.015504
     H   16   0.008188   0.123147   0.012959   0.441691   0.027739   0.027812
     H   17   0.017135   4.876551   0.070977   0.435177   0.001575   0.001575
     H   18   0.005719   0.437797   0.010616   4.842256   0.016340   0.016196
     H   19   0.443370   0.014914   5.085721   0.005010   0.002350   0.002347
     H   20   5.057936   0.008232   0.441256   0.008650   0.000956   0.000963


                  H 13       H 14       H 15       H 16       H 17       H 18
 ------------------------------------------------------------------------------
     H   13   5.384162
     H   14   0.562955   5.451111
     H   15   0.575848   0.555915   5.390117
     H   16   0.000288   0.000124   0.000291   5.187010
     H   17   0.001158   0.000483   0.000765   0.008537   5.233245
     H   18   0.000145   0.000053   0.000122   0.066823   0.030135   5.205094
     H   19   0.000423   0.000456   0.000802   0.000547   0.007341   0.000698
     H   20   0.001478   0.015674   0.001480   0.000886   0.002806   0.000594


                  H 19       H 20
 ------------------------------
     H   19   5.488329
     H   20   0.040897   5.452907


          HEAT OF FORMATION =      53.948433 KCALS/MOLE

          ZERO POINT ENERGY     105.026 KCAL/MOL


           NORMAL COORDINATE ANALYSIS (Total motion = 1 Angstrom)


   Root No.       1         2         3         4         5         6         7         8

                 1 A       2 A       3 A       4 A       5 A       6 A       7 A       8 A   

                  35.4     103.9     176.9     237.5     264.8     292.7     435.0     474.4
  
           1   -0.0013   -0.0002   -0.0002   -0.0353    0.0007    0.0002    0.0002   -0.0044
           2   -0.0002   -0.0003   -0.0002   -0.0046    0.0005   -0.0003   -0.0002    0.0058
           3   -0.0053    0.0653    0.0106   -0.0017   -0.0270    0.0141    0.0003    0.0001
           4    0.0022    0.0010    0.0009    0.0777   -0.0017   -0.0002   -0.0001    0.0068
           5    0.0013    0.0005    0.0005    0.0416   -0.0009    0.0001   -0.0001    0.0274
           6    0.0070   -0.0530    0.0335   -0.0004   -0.0162   -0.0208    0.0028    0.0001
           7   -0.0003    0.0000   -0.0001   -0.0018    0.0001   -0.0000   -0.0001   -0.0380
           8   -0.0008   -0.0004   -0.0002   -0.0288    0.0007   -0.0001    0.0001    0.0327
           9   -0.0045    0.0331    0.0035    0.0013    0.0765   -0.0102    0.0131   -0.0005
          10   -0.0004    0.0000   -0.0000    0.0005    0.0000   -0.0000   -0.0001   -0.0413
          11   -0.0007   -0.0003   -0.0002   -0.0191    0.0004    0.0001   -0.0000   -0.0162
          12    0.0010   -0.0028   -0.0129    0.0015    0.0541    0.0329   -0.0113    0.0004
          13   -0.0000    0.0001    0.0001   -0.0004    0.0001   -0.0001   -0.0001    0.0026
          14   -0.0005   -0.0003   -0.0002   -0.0252    0.0007   -0.0001    0.0002    0.0535
          15   -0.0078    0.0257    0.0251    0.0002    0.0347   -0.0402    0.0024   -0.0004
          16   -0.0009   -0.0007   -0.0008   -0.0307    0.0005   -0.0002   -0.0002   -0.0085
          17    0.0006    0.0004    0.0001    0.0222   -0.0007    0.0000   -0.0000   -0.0341
          18    0.0115   -0.0098   -0.0553    0.0000   -0.0150   -0.0267   -0.0453    0.0002
          19   -0.0001    0.0000   -0.0001   -0.0070    0.0003   -0.0001   -0.0001    0.0159
          20   -0.0007   -0.0002   -0.0002   -0.0154    0.0002    0.0001   -0.0001   -0.0432
          21   -0.0036   -0.0021   -0.0518    0.0004   -0.0187    0.0485   -0.0101    0.0001
          22    0.0002   -0.0000    0.0003    0.0066   -0.0003    0.0004   -0.0003   -0.0124
          23    0.0002    0.0001    0.0001    0.0034   -0.0002    0.0001    0.0001    0.0013
          24   -0.0006   -0.0189    0.0634   -0.0006   -0.0062    0.0248   -0.0467    0.0000
          25    0.0001    0.0001   -0.0000   -0.0072    0.0003   -0.0002    0.0000    0.0518
          26   -0.0007   -0.0003   -0.0002   -0.0196    0.0003   -0.0000    0.0001    0.0046
          27   -0.0103    0.0223   -0.0154   -0.0006   -0.0382   -0.0467    0.0210    0.0001
          28   -0.0003   -0.0006   -0.0003   -0.0161    0.0003    0.0003    0.0007    0.0085
          29    0.0007    0.0004    0.0002    0.0264   -0.0008    0.0001    0.0001   -0.0299
          30    0.0115   -0.0481   -0.0053    0.0007    0.0025    0.0224    0.0639   -0.0002
          31   -0.0131    0.0321    0.0369   -0.0549    0.0134    0.0257    0.0564    0.0214
          32    0.0095   -0.0578   -0.0380   -0.0058    0.0951   -0.0514   -0.0542    0.0117
          33   -0.0144    0.1130    0.0454   -0.0042   -0.0936    0.0564    0.0517    0.0008
          34    0.0085   -0.0323   -0.0369   -0.0550   -0.0115   -0.0248   -0.0547    0.0221
          35   -0.0103    0.0561    0.0370   -0.0123   -0.0924    0.0500    0.0530    0.0141
          36   -0.0149    0.1146    0.0468   -0.0038   -0.0950    0.0579    0.0538    0.0005
          37    0.2093    0.0083    0.0327    0.1139   -0.0396   -0.0307    0.0113    0.0445
          38    0.1659    0.0523   -0.0187    0.0360    0.0413    0.0352   -0.0101    0.0281
          39   -0.0887   -0.0815    0.0431    0.0021   -0.0385   -0.0394    0.0081   -0.0008
          40   -0.0368   -0.0006   -0.0053    0.0561    0.0055    0.0055   -0.0023   -0.0132
          41   -0.0236   -0.0073    0.0054    0.1234   -0.0097   -0.0068    0.0020    0.1010
          42    0.2770   -0.0299    0.0610   -0.0111   -0.0433   -0.0426    0.0123   -0.0025
          43   -0.1586   -0.0028   -0.0230    0.1450    0.0271    0.0234   -0.0086    0.0626
          44   -0.1314   -0.0413    0.0156    0.0250   -0.0344   -0.0279    0.0079    0.0107
          45   -0.1740   -0.0938    0.0394    0.0064   -0.0381   -0.0393    0.0075    0.0026
          46   -0.0012   -0.0012   -0.0017   -0.0426    0.0009   -0.0008   -0.0008   -0.0024
          47    0.0009    0.0007    0.0002    0.0332   -0.0011    0.0001   -0.0000   -0.0396
          48    0.0223   -0.0309   -0.1367    0.0007   -0.0255   -0.0794   -0.0985    0.0006
          49    0.0007    0.0002    0.0009    0.0333   -0.0015    0.0007   -0.0012   -0.0658
          50    0.0003    0.0002    0.0002    0.0129   -0.0005    0.0001   -0.0000   -0.0173
          51   -0.0014   -0.0410    0.1179   -0.0023   -0.0629    0.0626   -0.1635    0.0010
          52   -0.0001   -0.0010   -0.0005   -0.0112    0.0003    0.0004    0.0018    0.0063
          53    0.0012    0.0008    0.0002    0.0451   -0.0012    0.0001    0.0001   -0.0367
          54    0.0220   -0.1043   -0.0351    0.0022    0.0131    0.0359    0.2029   -0.0001
          55    0.0002    0.0000   -0.0001   -0.0133    0.0006   -0.0003    0.0002    0.1201
          56   -0.0007   -0.0003   -0.0002   -0.0198    0.0003   -0.0001    0.0001    0.0059
          57   -0.0150    0.0312   -0.0252   -0.0017   -0.1039   -0.1022    0.0657    0.0002
          58   -0.0000    0.0001   -0.0000   -0.0078    0.0004   -0.0001   -0.0000    0.0328
          59   -0.0011   -0.0003   -0.0002   -0.0118   -0.0001    0.0003   -0.0001   -0.1004
          60   -0.0004   -0.0183   -0.1015    0.0002   -0.0665    0.1135   -0.0216   -0.0002


   Root No.       9        10        11        12        13        14        15        16

                 9 A      10 A      11 A      12 A      13 A      14 A      15 A      16 A   

                 521.5     556.3     582.8     640.0     714.2     752.2     801.5     824.7
  
           1    0.0277   -0.0388    0.0014   -0.0000   -0.0229   -0.0001    0.0000   -0.0199
           2   -0.0664   -0.0367    0.0021    0.0001    0.0122   -0.0004    0.0006   -0.0489
           3   -0.0007   -0.0001   -0.0036   -0.0274   -0.0005   -0.0145   -0.0202   -0.0006
           4   -0.0156   -0.0369    0.0010   -0.0002    0.0371   -0.0002   -0.0002    0.0269
           5    0.0203    0.0412   -0.0014    0.0004   -0.0583    0.0001   -0.0003   -0.0162
           6    0.0002    0.0005    0.0036    0.0029   -0.0007   -0.0025    0.0069   -0.0003
           7   -0.0344   -0.0135    0.0012    0.0002   -0.0000   -0.0000    0.0001    0.0047
           8   -0.0217   -0.0268    0.0010   -0.0001    0.0088   -0.0000    0.0001   -0.0067
           9   -0.0001   -0.0007   -0.0165   -0.0561   -0.0006    0.0335   -0.0062   -0.0001
          10   -0.0433   -0.0156    0.0013    0.0003    0.0044    0.0000   -0.0002    0.0288
          11   -0.0115    0.0356   -0.0009    0.0003   -0.0348    0.0003   -0.0005    0.0180
          12    0.0014    0.0030    0.0760    0.0311    0.0018   -0.0114    0.0173    0.0010
          13   -0.0135    0.0418   -0.0017    0.0000    0.0213   -0.0001    0.0006   -0.0297
          14   -0.0036   -0.0161    0.0000   -0.0004    0.0337   -0.0000   -0.0001    0.0240
          15    0.0001   -0.0021   -0.0581    0.0631    0.0000   -0.0052    0.0225    0.0001
          16    0.0606   -0.0406    0.0012    0.0002   -0.0298   -0.0002    0.0002   -0.0239
          17    0.0159   -0.0270    0.0013    0.0005   -0.0330    0.0001    0.0002   -0.0200
          18   -0.0000    0.0003    0.0010    0.0035    0.0002   -0.0216    0.0049    0.0004
          19   -0.0403    0.0188   -0.0000    0.0007   -0.0634    0.0005   -0.0008    0.0412
          20   -0.0168    0.0308   -0.0010    0.0000    0.0141    0.0002   -0.0002    0.0246
          21   -0.0007   -0.0019   -0.0401    0.0074    0.0001   -0.0028   -0.0296   -0.0006
          22    0.0102    0.0505   -0.0019   -0.0005    0.0257   -0.0001    0.0006   -0.0395
          23    0.0647   -0.0253    0.0001   -0.0004    0.0055   -0.0001   -0.0007    0.0564
          24    0.0001   -0.0004   -0.0018   -0.0067   -0.0003   -0.0001    0.0147    0.0004
          25   -0.0272    0.0200   -0.0006    0.0003   -0.0259    0.0003   -0.0003    0.0151
          26   -0.0062    0.0232   -0.0013   -0.0005    0.0687   -0.0002    0.0006   -0.0092
          27    0.0007    0.0018    0.0387   -0.0015    0.0005   -0.0057   -0.0374   -0.0007
          28    0.0690    0.0309   -0.0022   -0.0011    0.0494   -0.0007   -0.0002    0.0119
          29    0.0226   -0.0073    0.0003    0.0002   -0.0129    0.0000    0.0000   -0.0060
          30   -0.0008   -0.0002   -0.0003   -0.0075   -0.0008   -0.0316    0.0014    0.0001
          31    0.0288   -0.0502    0.0013   -0.0059   -0.0145    0.0662    0.0002   -0.0508
          32   -0.0708   -0.0410   -0.0200   -0.1127    0.0145   -0.0384   -0.0564   -0.0668
          33    0.0021    0.0011    0.0125    0.0553    0.0003    0.0277    0.0222    0.0060
          34    0.0291   -0.0496    0.0020    0.0062   -0.0151   -0.0652    0.0007   -0.0494
          35   -0.0692   -0.0400    0.0243    0.1110    0.0196    0.0371    0.0571   -0.0645
          36   -0.0025   -0.0007    0.0130    0.0570    0.0026    0.0297    0.0233   -0.0055
          37    0.0046   -0.0572   -0.0639   -0.0245    0.0620    0.0145   -0.0285   -0.0064
          38    0.0229    0.0486    0.0768    0.0297   -0.0698   -0.0170    0.0353   -0.0234
          39   -0.0015   -0.0028   -0.0385   -0.0127    0.0039    0.0067   -0.0123    0.0037
          40   -0.0289   -0.0312    0.0132    0.0044    0.0334   -0.0030    0.0049    0.0523
          41    0.0666    0.0205   -0.0154   -0.0056   -0.0426    0.0031   -0.0050   -0.1019
          42   -0.0014   -0.0018   -0.0443   -0.0143   -0.0005    0.0091   -0.0147   -0.0002
          43    0.0167   -0.0557    0.0521    0.0179    0.0655   -0.0114    0.0237   -0.0221
          44    0.0092    0.0471   -0.0638   -0.0228   -0.0727    0.0138   -0.0287   -0.0028
          45    0.0006   -0.0007   -0.0387   -0.0128   -0.0033    0.0066   -0.0122   -0.0033
          46    0.0207   -0.0731    0.0033    0.0015   -0.0499    0.0024    0.0010   -0.0683
          47    0.0530    0.0036   -0.0005    0.0002   -0.0138    0.0004   -0.0003    0.0195
          48    0.0021    0.0012    0.0206    0.0966    0.0039    0.2485    0.0295    0.0002
          49    0.0173    0.0629   -0.0013   -0.0004   -0.0052    0.0008    0.0005   -0.1079
          50    0.0662   -0.0212    0.0002   -0.0003   -0.0052    0.0001   -0.0007    0.0342
          51    0.0015    0.0030    0.0983   -0.0585    0.0021    0.1398   -0.0956   -0.0011
          52    0.0606    0.0447   -0.0025   -0.0007    0.0593    0.0012   -0.0006    0.0018
          53   -0.0104    0.0479   -0.0016   -0.0001    0.0255    0.0001    0.0005   -0.0405
          54   -0.0006    0.0005    0.0227    0.0414    0.0018    0.1920   -0.0621   -0.0020
          55   -0.0290   -0.0129    0.0004   -0.0000   -0.0180    0.0003   -0.0001    0.0332
          56   -0.0064    0.0225   -0.0012   -0.0007    0.0703   -0.0001    0.0008   -0.0079
          57    0.0014    0.0061    0.1412   -0.1555   -0.0029    0.0208    0.2313    0.0048
          58   -0.0374    0.0244   -0.0002    0.0008   -0.0679    0.0005   -0.0010    0.0320
          59   -0.0290    0.0112   -0.0002   -0.0002    0.0272    0.0002   -0.0001    0.0625
          60   -0.0034   -0.0075   -0.1737   -0.1015   -0.0057    0.0553    0.1955    0.0019


   Root No.      17        18        19        20        21        22        23        24

                17 A      18 A      19 A      20 A      21 A      22 A      23 A      24 A   

                 856.8     888.3     936.3     955.1     960.0     997.2    1012.2    1018.5
  
           1   -0.0132    0.0004   -0.0002    0.0000    0.0012   -0.0001    0.0017    0.0334
           2    0.0665   -0.0010    0.0001    0.0003   -0.0053   -0.0000   -0.0013   -0.0293
           3    0.0012    0.0455   -0.0270   -0.0057    0.0001    0.0068    0.0245   -0.0017
           4   -0.0070    0.0004   -0.0002    0.0010   -0.0328    0.0000    0.0003    0.0084
           5    0.0166   -0.0004   -0.0004    0.0018   -0.0400   -0.0004    0.0005   -0.0030
           6    0.0006    0.0113    0.0033   -0.0184   -0.0013    0.0235   -0.0269    0.0019
           7    0.0028    0.0003    0.0000   -0.0003   -0.0058    0.0008   -0.0011   -0.0084
           8    0.0187   -0.0004    0.0001   -0.0000    0.0072   -0.0004    0.0007    0.0118
           9   -0.0011   -0.0361    0.0147    0.0024   -0.0007   -0.0069   -0.0249    0.0009
          10    0.0074    0.0003    0.0000   -0.0002   -0.0094    0.0007   -0.0008   -0.0020
          11    0.0065   -0.0004   -0.0001    0.0003   -0.0009   -0.0004    0.0005    0.0006
          12   -0.0001    0.0062    0.0005    0.0106    0.0010   -0.0268    0.0338   -0.0021
          13   -0.0163    0.0002    0.0000    0.0002   -0.0017   -0.0001    0.0000   -0.0030
          14   -0.0251    0.0006   -0.0000   -0.0001   -0.0050    0.0002   -0.0002   -0.0008
          15    0.0011    0.0270    0.0143    0.0164    0.0010    0.0157    0.0132   -0.0006
          16   -0.0295    0.0002    0.0002    0.0004   -0.0007   -0.0003   -0.0021   -0.0467
          17   -0.0420    0.0004    0.0000    0.0002   -0.0006   -0.0001   -0.0007   -0.0177
          18   -0.0002   -0.0087    0.0262    0.0154    0.0010   -0.0104   -0.0360    0.0032
          19    0.0125   -0.0005    0.0002   -0.0010    0.0374   -0.0004    0.0003    0.0007
          20   -0.0120    0.0000    0.0002   -0.0012    0.0363   -0.0000   -0.0001    0.0001
          21   -0.0005   -0.0163   -0.0279    0.0275    0.0019    0.0258   -0.0128    0.0008
          22    0.0068   -0.0004   -0.0003    0.0002   -0.0015   -0.0004    0.0003    0.0043
          23    0.0356   -0.0001   -0.0001   -0.0005    0.0031    0.0003    0.0001    0.0117
          24   -0.0004   -0.0142   -0.0495   -0.0174   -0.0008   -0.0222   -0.0206    0.0012
          25   -0.0298    0.0003    0.0000   -0.0001    0.0044   -0.0001    0.0001    0.0000
          26   -0.0689    0.0012    0.0000   -0.0002   -0.0073    0.0005   -0.0005   -0.0011
          27   -0.0002   -0.0049    0.0169   -0.0354   -0.0023   -0.0227    0.0004   -0.0001
          28    0.0691   -0.0009    0.0001   -0.0001   -0.0031    0.0004   -0.0010   -0.0274
          29   -0.0143    0.0001   -0.0000    0.0001   -0.0000   -0.0001    0.0007    0.0140
          30   -0.0012   -0.0221    0.0170   -0.0101   -0.0008    0.0224    0.0344   -0.0020
          31    0.0290   -0.0597    0.0101   -0.0500    0.0034    0.0737    0.0237    0.2194
          32    0.0958    0.0979   -0.0620   -0.0280   -0.0053    0.0381    0.0601   -0.0002
          33   -0.0094   -0.0404    0.0211    0.0052    0.0007   -0.0064   -0.0163    0.0123
          34    0.0320    0.0564   -0.0100    0.0509    0.0058   -0.0758   -0.0033    0.2136
          35    0.0934   -0.0996    0.0611    0.0285   -0.0055   -0.0379   -0.0586    0.0043
          36    0.0092   -0.0436    0.0224    0.0047   -0.0015   -0.0054   -0.0181   -0.0144
          37   -0.0231   -0.0435   -0.0098    0.0568    0.1328   -0.0741    0.0825   -0.0057
          38    0.0245    0.0528    0.0130   -0.0745   -0.0559    0.0927   -0.1041    0.0008
          39   -0.0029   -0.0174   -0.0040    0.0231    0.0029   -0.0268    0.0295   -0.0006
          40   -0.0041    0.0087    0.0014   -0.0076   -0.1096    0.0132   -0.0141    0.0167
          41    0.0055   -0.0097   -0.0010    0.0048    0.2305   -0.0145    0.0146   -0.0281
          42   -0.0002   -0.0220   -0.0047    0.0272   -0.0011   -0.0308    0.0349   -0.0023
          43   -0.0242    0.0337    0.0095   -0.0540    0.1823    0.0574   -0.0646    0.0009
          44    0.0238   -0.0426   -0.0113    0.0648   -0.1132   -0.0738    0.0827   -0.0077
          45    0.0008   -0.0176   -0.0040    0.0236    0.0033   -0.0276    0.0300   -0.0042
          46   -0.0280   -0.0006   -0.0011   -0.0003   -0.0024    0.0001   -0.0012   -0.0647
          47   -0.0430    0.0007   -0.0001   -0.0003    0.0009    0.0002    0.0001    0.0003
          48    0.0003   -0.0615   -0.1194   -0.0921   -0.0057    0.0547    0.1297   -0.0083
          49    0.0068   -0.0006    0.0014    0.0017    0.0060   -0.0014    0.0064    0.1097
          50    0.0355   -0.0003    0.0002   -0.0001    0.0058   -0.0001    0.0022    0.0499
          51    0.0015    0.0596    0.2288    0.0928    0.0043    0.0852    0.0590   -0.0043
          52    0.0769    0.0007   -0.0005    0.0007   -0.0042   -0.0007   -0.0009    0.0039
          53    0.0102   -0.0003    0.0000    0.0006   -0.0039   -0.0008    0.0066    0.1477
          54    0.0047    0.1855   -0.0572    0.0628    0.0048   -0.0863   -0.1197    0.0073
          55   -0.0948    0.0020   -0.0006    0.0022   -0.0913    0.0018   -0.0017   -0.0115
          56   -0.0724    0.0013   -0.0001   -0.0000   -0.0087    0.0006   -0.0005   -0.0014
          57    0.0007    0.0071   -0.0871    0.1451    0.0094    0.0746    0.0051    0.0000
          58   -0.0048   -0.0004   -0.0000   -0.0002    0.0197   -0.0003    0.0004    0.0013
          59    0.0459   -0.0006    0.0011   -0.0040    0.1037   -0.0003   -0.0006   -0.0022
          60    0.0034    0.0960    0.1410   -0.1185   -0.0081   -0.0921    0.0439   -0.0026


   Root No.      25        26        27        28        29        30        31        32

                25 A      26 A      27 A      28 A      29 A      30 A      31 A      32 A   

                1043.7    1071.8    1085.6    1120.2    1154.5    1176.9    1204.9    1294.2
  
           1    0.0007    0.0072   -0.0069   -0.0119    0.0085    0.0148   -0.0192    0.0008
           2   -0.0004   -0.0032    0.0058   -0.0055   -0.0049   -0.0014    0.0085    0.0043
           3    0.0048   -0.0001    0.0001    0.0002   -0.0000   -0.0002    0.0002   -0.0001
           4    0.0001   -0.0176   -0.0073    0.0287   -0.0011    0.0012    0.0116    0.0045
           5   -0.0007    0.0057    0.0007   -0.0015    0.0007   -0.0050   -0.0099    0.0000
           6    0.0119   -0.0005   -0.0002    0.0010   -0.0001    0.0001    0.0006   -0.0005
           7   -0.0002    0.0175    0.0091   -0.0504    0.0028    0.0006   -0.0281    0.0030
           8    0.0004   -0.0042   -0.0147    0.0272   -0.0039    0.0325   -0.0115   -0.0294
           9    0.0267    0.0000   -0.0001    0.0000   -0.0000   -0.0000    0.0001    0.0000
          10    0.0000    0.0167    0.0054   -0.0322    0.0006    0.0050   -0.0232   -0.0103
          11   -0.0003    0.0006    0.0006   -0.0104   -0.0003    0.0139    0.0183   -0.0281
          12   -0.0162    0.0004    0.0002   -0.0006    0.0000   -0.0001   -0.0003    0.0002
          13   -0.0000   -0.0023   -0.0018    0.0104   -0.0026   -0.0182   -0.0156   -0.0153
          14    0.0001    0.0064   -0.0115    0.0172    0.0119    0.0087   -0.0319   -0.0164
          15   -0.0033    0.0000   -0.0000    0.0001    0.0000    0.0001    0.0001   -0.0000
          16   -0.0009   -0.0061   -0.0069    0.0217   -0.0021    0.0120    0.0147    0.0217
          17   -0.0003    0.0027   -0.0201    0.0085   -0.0084   -0.0098    0.0090   -0.0089
          18   -0.0417   -0.0001    0.0001   -0.0001    0.0001   -0.0001   -0.0002   -0.0002
          19    0.0003   -0.0198   -0.0098    0.0172    0.0011    0.0011    0.0126    0.0084
          20    0.0003   -0.0139    0.0016    0.0047   -0.0020   -0.0008    0.0370    0.0044
          21    0.0045   -0.0000   -0.0000    0.0001   -0.0000    0.0000   -0.0000   -0.0000
          22    0.0000   -0.0010    0.0038    0.0144    0.0008   -0.0133   -0.0059   -0.0263
          23    0.0002   -0.0136    0.0410   -0.0217    0.0088   -0.0195   -0.0116    0.0105
          24   -0.0079    0.0000   -0.0001   -0.0001    0.0000    0.0001    0.0001    0.0002
          25    0.0000   -0.0093    0.0051    0.0049   -0.0017   -0.0128   -0.0068    0.0316
          26    0.0001   -0.0160    0.0118   -0.0228   -0.0046   -0.0097    0.0012    0.0290
          27    0.0007    0.0001    0.0000   -0.0001    0.0000   -0.0000   -0.0000   -0.0001
          28   -0.0005    0.0082   -0.0202   -0.0055   -0.0075    0.0060    0.0170   -0.0034
          29    0.0003    0.0040   -0.0096   -0.0014    0.0038   -0.0119    0.0030   -0.0187
          30    0.0195   -0.0000    0.0002    0.0000    0.0000   -0.0000   -0.0001    0.0001
          31   -0.2622    0.0031   -0.0266   -0.0099   -0.0754   -0.1038    0.0502   -0.0163
          32   -0.0699   -0.0068    0.0030   -0.0081   -0.0405   -0.0379    0.0525    0.1073
          33    0.0029    0.0018   -0.0022    0.0014    0.0063    0.0031   -0.0155   -0.0658
          34    0.2657    0.0055   -0.0272   -0.0137   -0.0771   -0.1056    0.0514   -0.0145
          35    0.0679   -0.0059    0.0031   -0.0100   -0.0413   -0.0387    0.0527    0.1066
          36   -0.0024   -0.0019    0.0029   -0.0016   -0.0055   -0.0020    0.0153    0.0680
          37   -0.0343   -0.0021    0.0017   -0.0138   -0.0013    0.0196    0.0423   -0.0438
          38    0.0441    0.0153    0.0032   -0.0138    0.0020   -0.0132   -0.0499    0.0368
          39   -0.0120   -0.0048   -0.0014    0.0067   -0.0005    0.0033    0.0170   -0.0152
          40    0.0066   -0.0395   -0.0164    0.0657   -0.0017    0.0041    0.0373   -0.0105
          41   -0.0058    0.0736    0.0293   -0.1229    0.0027   -0.0078   -0.0803    0.0328
          42   -0.0176    0.0014    0.0006   -0.0028    0.0001   -0.0017   -0.0042    0.0059
          43    0.0284    0.0028    0.0045   -0.0278   -0.0016    0.0234    0.0470   -0.0506
          44   -0.0363    0.0064   -0.0008    0.0053    0.0023   -0.0164   -0.0471    0.0403
          45   -0.0121    0.0054    0.0018   -0.0094    0.0008   -0.0023   -0.0164    0.0138
          46    0.0006   -0.0523    0.1203    0.0538    0.2222   -0.0860    0.0471   -0.0533
          47   -0.0004    0.0472   -0.1438   -0.0211   -0.2204    0.0824   -0.0190    0.0632
          48    0.0920    0.0007   -0.0011   -0.0007   -0.0019    0.0007   -0.0004    0.0005
          49    0.0029   -0.0612    0.2243    0.1058   -0.0830    0.1914   -0.0189    0.0346
          50    0.0012   -0.0350    0.1192    0.0085   -0.0183    0.0515   -0.0177    0.0337
          51    0.0310    0.0005   -0.0016   -0.0008    0.0005   -0.0013    0.0001   -0.0003
          52   -0.0006    0.0263   -0.0483   -0.0094    0.0690    0.0373    0.0284    0.0300
          53    0.0022    0.0778   -0.1244   -0.0204    0.3076    0.1089    0.0416    0.1137
          54   -0.0500   -0.0004    0.0005    0.0001   -0.0008   -0.0004   -0.0003   -0.0004
          55   -0.0018    0.2821    0.1352   -0.0570   -0.0385    0.0367    0.1789   -0.0411
          56    0.0001   -0.0104    0.0152   -0.0247   -0.0055   -0.0092    0.0054    0.0300
          57   -0.0065   -0.0003   -0.0002    0.0003    0.0001   -0.0000   -0.0001    0.0000
          58    0.0001   -0.0857   -0.0176   -0.0606    0.0016    0.0250    0.0477   -0.0092
          59    0.0012    0.2134    0.0292    0.2757   -0.0037   -0.0842   -0.0817    0.0715
          60   -0.0124   -0.0003    0.0001   -0.0010    0.0000    0.0001    0.0002   -0.0001


   Root No.      33        34        35        36        37        38        39        40

                33 A      34 A      35 A      36 A      37 A      38 A      39 A      40 A   

                1343.0    1360.1    1373.1    1389.0    1390.4    1431.8    1471.9    1547.1
  
           1    0.0317   -0.0303    0.0488   -0.0007   -0.0042    0.0353   -0.0405   -0.0616
           2   -0.0243   -0.0407    0.0006   -0.0007    0.0066   -0.0252   -0.0131   -0.0504
           3   -0.0005    0.0000   -0.0003    0.0001    0.0001   -0.0004    0.0003    0.0003
           4   -0.0138    0.0078    0.0201    0.0168   -0.0301    0.0030    0.0282   -0.0432
           5    0.0171   -0.0227   -0.0247    0.0150   -0.0124   -0.0023   -0.0420    0.0610
           6    0.0015   -0.0025   -0.0038   -0.0371   -0.0179   -0.0002    0.0005   -0.0008
           7   -0.0007    0.0028   -0.0161    0.0010    0.0010   -0.0034   -0.0364    0.0324
           8   -0.0009    0.0053    0.0228   -0.0009   -0.0061    0.0391    0.0567    0.1129
           9    0.0001   -0.0000   -0.0000   -0.0000   -0.0000    0.0000   -0.0000   -0.0000
          10   -0.0034    0.0205   -0.0240    0.0002    0.0011    0.0072    0.0308    0.0377
          11    0.0222    0.0059   -0.0245   -0.0003    0.0130    0.0092    0.0812   -0.1093
          12   -0.0002    0.0001    0.0002   -0.0006   -0.0004    0.0000    0.0001   -0.0000
          13    0.0143    0.0018    0.0085    0.0006   -0.0015   -0.0422    0.0092    0.0001
          14    0.0051    0.0407   -0.0239    0.0036   -0.0052   -0.0509   -0.0667   -0.0530
          15   -0.0000    0.0000    0.0000   -0.0001   -0.0000    0.0001   -0.0000   -0.0000
          16   -0.0099    0.0036   -0.0194    0.0002    0.0038   -0.0542    0.0363    0.0232
          17   -0.0075    0.0122   -0.0080    0.0002   -0.0011    0.0230   -0.0132   -0.0024
          18    0.0001   -0.0001    0.0002   -0.0001   -0.0001    0.0005   -0.0003   -0.0002
          19   -0.0099    0.0031    0.0079    0.0001   -0.0043   -0.0013   -0.0243    0.0107
          20   -0.0134    0.0038    0.0343    0.0007   -0.0136   -0.0327   -0.0523    0.0255
          21    0.0000    0.0000   -0.0001   -0.0002    0.0000    0.0000    0.0000   -0.0000
          22    0.0199   -0.0013    0.0260    0.0002   -0.0038   -0.0435    0.0269    0.0116
          23    0.0140   -0.0204    0.0140   -0.0006    0.0022   -0.0450    0.0324    0.0162
          24   -0.0002    0.0000   -0.0002   -0.0000    0.0000    0.0004   -0.0002   -0.0001
          25   -0.0036   -0.0241   -0.0141   -0.0014    0.0092    0.0396    0.0209   -0.0152
          26   -0.0096   -0.0187   -0.0073   -0.0020    0.0063    0.0387    0.0172    0.0145
          27    0.0000    0.0000    0.0000    0.0000   -0.0000   -0.0001   -0.0000   -0.0000
          28   -0.0180    0.0087   -0.0128   -0.0001   -0.0002    0.0607   -0.0294   -0.0118
          29   -0.0007    0.0083    0.0050   -0.0001   -0.0030    0.0534   -0.0221   -0.0086
          30    0.0001   -0.0001    0.0001    0.0000    0.0000   -0.0005    0.0002    0.0001
          31   -0.0709    0.0255   -0.0750   -0.0024    0.0099   -0.0408    0.0109    0.0230
          32    0.1243    0.1079    0.0010    0.0017   -0.0137    0.0212    0.0052    0.0131
          33   -0.1081   -0.0823   -0.0204   -0.0022    0.0150   -0.0409   -0.0026   -0.0242
          34   -0.0680    0.0284   -0.0753    0.0022    0.0107   -0.0400    0.0107    0.0235
          35    0.1225    0.1066   -0.0002    0.0027   -0.0134    0.0201    0.0050    0.0123
          36    0.1115    0.0834    0.0218    0.0015   -0.0159    0.0420    0.0022    0.0237
          37    0.0722   -0.0362   -0.0576   -0.3112    0.1172   -0.0069   -0.0425    0.0404
          38   -0.0777    0.0812    0.0936   -0.1271    0.1645   -0.0030    0.0160   -0.0191
          39    0.0405   -0.0469   -0.0533    0.0695   -0.1008    0.0010   -0.0213    0.0306
          40    0.0303   -0.0300   -0.0110   -0.0673    0.0230   -0.0025   -0.0268    0.0119
          41   -0.0960    0.0810    0.0463    0.0103   -0.1783    0.0113    0.1140   -0.0922
          42   -0.0153    0.0175    0.0291    0.3971    0.1063    0.0041    0.0055   -0.0017
          43    0.0774   -0.0338   -0.0526    0.1726    0.2195   -0.0016   -0.0418    0.0507
          44   -0.0732    0.0689    0.0910   -0.0589    0.1448   -0.0029    0.0032   -0.0065
          45   -0.0406    0.0576    0.0680   -0.0123    0.2139   -0.0027    0.0085   -0.0190
          46   -0.0246    0.0568   -0.0291    0.0005   -0.0050    0.0817   -0.0138    0.0241
          47    0.0039   -0.0374   -0.0013   -0.0001    0.0075   -0.1054    0.0332   -0.0045
          48    0.0002   -0.0006    0.0003    0.0000    0.0001   -0.0007    0.0000   -0.0003
          49   -0.0431    0.0508   -0.0694    0.0029    0.0002    0.0344   -0.0815   -0.0463
          50   -0.0074   -0.0033   -0.0200    0.0003    0.0041   -0.0217   -0.0042   -0.0038
          51    0.0003   -0.0003    0.0005    0.0001    0.0001   -0.0003    0.0005    0.0003
          52   -0.0239    0.0026   -0.0251   -0.0002    0.0035    0.0258   -0.0115   -0.0032
          53   -0.0149   -0.0202   -0.0360   -0.0004    0.0115   -0.1028    0.0586    0.0289
          54    0.0002   -0.0000    0.0003    0.0000   -0.0000   -0.0001   -0.0000   -0.0001
          55   -0.0097    0.0048    0.0712   -0.0001   -0.0194   -0.0380   -0.0159    0.0416
          56   -0.0111   -0.0188   -0.0059   -0.0020    0.0058    0.0392    0.0142    0.0178
          57   -0.0000    0.0000   -0.0001   -0.0000   -0.0001   -0.0000   -0.0000   -0.0000
          58   -0.0173    0.0200    0.0267    0.0011   -0.0159   -0.0265   -0.0470    0.0263
          59    0.0063   -0.0532   -0.0300   -0.0030    0.0239    0.0582    0.0167   -0.0223
          60   -0.0001    0.0001    0.0001    0.0002   -0.0003   -0.0001    0.0000   -0.0001


   Root No.      41        42        43        44        45        46        47        48

                41 A      42 A      43 A      44 A      45 A      46 A      47 A      48 A   

                1713.9    1809.2    1866.7    1904.2    2915.8    2997.9    3045.5    3058.7
  
           1   -0.0129   -0.0121   -0.0435   -0.0065   -0.0007    0.0108   -0.0004    0.0001
           2   -0.0138    0.0164   -0.0172   -0.0186    0.0008   -0.0386    0.0021   -0.0003
           3    0.0001    0.0001    0.0002   -0.0000   -0.0600   -0.0008    0.0000    0.0008
           4    0.0039   -0.0066    0.0267    0.0155    0.0002   -0.0005    0.0001    0.0044
           5   -0.0097    0.0049   -0.0238   -0.0149    0.0002   -0.0006    0.0001    0.0038
           6    0.0000   -0.0000    0.0002    0.0001   -0.0008    0.0003   -0.0001   -0.0554
           7    0.0440   -0.0377    0.1653    0.0670    0.0000   -0.0008   -0.0004   -0.0001
           8    0.0260   -0.0070    0.0280    0.0360    0.0000   -0.0004   -0.0001    0.0000
           9   -0.0000    0.0000   -0.0001    0.0000   -0.0001   -0.0000    0.0000   -0.0001
          10   -0.0166    0.0348   -0.1538   -0.0858   -0.0000    0.0005    0.0000    0.0002
          11    0.0075   -0.0092    0.0385    0.0266    0.0000   -0.0001   -0.0000   -0.0001
          12   -0.0000   -0.0000   -0.0000   -0.0000   -0.0000   -0.0000   -0.0000   -0.0001
          13   -0.0336    0.0664   -0.0677    0.1898   -0.0000    0.0004   -0.0001    0.0000
          14    0.0065   -0.0025    0.0044   -0.0389   -0.0000    0.0003    0.0001   -0.0000
          15    0.0001   -0.0003    0.0003   -0.0008   -0.0002    0.0000    0.0000   -0.0001
          16   -0.0109    0.0688    0.0311   -0.0244   -0.0000    0.0034    0.0267    0.0001
          17    0.0288   -0.1512   -0.0607    0.0438   -0.0000    0.0025    0.0294    0.0001
          18    0.0000   -0.0004   -0.0003    0.0002   -0.0001   -0.0000   -0.0003    0.0000
          19   -0.1527   -0.0331    0.0253   -0.0103    0.0000   -0.0000    0.0000   -0.0001
          20    0.1154    0.0316   -0.0309   -0.0010   -0.0000   -0.0001    0.0001   -0.0000
          21   -0.0001   -0.0000    0.0000    0.0000   -0.0001    0.0000   -0.0000   -0.0001
          22    0.0159   -0.0677    0.0499   -0.1496    0.0000   -0.0003    0.0020   -0.0001
          23   -0.0039   -0.0219   -0.0082    0.0210    0.0000   -0.0002   -0.0048    0.0001
          24   -0.0001    0.0004   -0.0003    0.0008    0.0001    0.0000   -0.0000    0.0000
          25    0.1679    0.0244   -0.0115   -0.0236   -0.0000   -0.0001    0.0000    0.0000
          26   -0.1070   -0.0247    0.0112   -0.0209    0.0000   -0.0000   -0.0000    0.0000
          27    0.0000    0.0000   -0.0000    0.0001    0.0000   -0.0000    0.0000    0.0000
          28    0.0049   -0.0149   -0.0146    0.0200    0.0000    0.0001   -0.0284    0.0003
          29   -0.0288    0.1710    0.0605   -0.0415   -0.0000    0.0005    0.0061   -0.0001
          30   -0.0000   -0.0000    0.0001   -0.0001   -0.0003   -0.0000    0.0002   -0.0000
          31    0.0109   -0.0235    0.0132    0.0092   -0.0735   -0.0622    0.0056    0.0011
          32   -0.0018    0.0067    0.0011   -0.0049    0.2683    0.2302   -0.0121   -0.0020
          33   -0.0010   -0.0020    0.0003   -0.0043    0.3635    0.3759   -0.0200   -0.0026
          34    0.0115   -0.0247    0.0139    0.0097    0.0815   -0.0686    0.0060   -0.0024
          35   -0.0019    0.0070    0.0017   -0.0050   -0.2778    0.2332   -0.0124    0.0052
          36    0.0007    0.0027   -0.0007    0.0040    0.3626   -0.3659    0.0196   -0.0074
          37    0.0013    0.0035   -0.0126   -0.0059   -0.0002   -0.0006    0.0001    0.0244
          38   -0.0012    0.0007   -0.0024   -0.0014    0.0030    0.0010    0.0001    0.2232
          39   -0.0043    0.0005   -0.0053   -0.0040    0.0046    0.0032    0.0001    0.4003
          40    0.0003   -0.0058    0.0215    0.0117   -0.0001    0.0021   -0.0006    0.0384
          41   -0.0020    0.0039   -0.0170   -0.0082    0.0000    0.0005   -0.0002    0.0136
          42   -0.0005    0.0001   -0.0006    0.0001   -0.0005    0.0005   -0.0002   -0.0218
          43    0.0003    0.0057   -0.0210   -0.0100   -0.0014    0.0019   -0.0004   -0.1152
          44   -0.0035   -0.0011    0.0019   -0.0000   -0.0057    0.0064   -0.0011   -0.2815
          45    0.0049    0.0001    0.0029    0.0028    0.0058   -0.0073    0.0012    0.2853
          46    0.0218   -0.0879   -0.0349    0.0322    0.0001   -0.0295   -0.3216   -0.0009
          47    0.0036   -0.0375   -0.0158   -0.0004    0.0002   -0.0360   -0.3372   -0.0011
          48   -0.0003    0.0009    0.0003   -0.0003   -0.0015    0.0003    0.0033    0.0001
          49    0.0103   -0.0218   -0.0215    0.0076    0.0000   -0.0001   -0.0212    0.0005
          50   -0.0110    0.0037   -0.0416    0.1076   -0.0000    0.0003    0.0545   -0.0014
          51   -0.0001    0.0002    0.0002   -0.0001    0.0000   -0.0000    0.0001    0.0001
          52    0.0164   -0.0843   -0.0427    0.0444    0.0000   -0.0039    0.3379   -0.0032
          53   -0.0022   -0.0078   -0.0139    0.0343   -0.0000    0.0015   -0.0826    0.0008
          54   -0.0002    0.0008    0.0004   -0.0004   -0.0007    0.0000   -0.0028    0.0000
          55   -0.0616   -0.0024   -0.0037    0.0193   -0.0000    0.0000    0.0001   -0.0000
          56   -0.1430   -0.0334    0.0147   -0.0291   -0.0000    0.0006    0.0000   -0.0001
          57    0.0002    0.0000    0.0000   -0.0000   -0.0000   -0.0000    0.0000    0.0001
          58   -0.1297   -0.0235    0.0029   -0.0230    0.0000    0.0003   -0.0002    0.0009
          59   -0.0855   -0.0306    0.0514    0.0065    0.0000    0.0001   -0.0001    0.0003
          60    0.0002    0.0000   -0.0000   -0.0000   -0.0000   -0.0000    0.0000   -0.0000


   Root No.      49        50        51        52        53        54

                49 A      50 A      51 A      52 A      53 A      54 A   

                3061.9    3072.9    3075.4    3132.9    3152.5    3162.0
  
           1    0.0005   -0.0003   -0.0001   -0.0000   -0.0001    0.0000
           2   -0.0017    0.0011    0.0005   -0.0001   -0.0001   -0.0003
           3   -0.0000    0.0000   -0.0001    0.0000    0.0000    0.0001
           4   -0.0001    0.0001   -0.0380   -0.0001   -0.0007   -0.0176
           5   -0.0001    0.0001   -0.0320    0.0007    0.0008    0.0164
           6   -0.0003    0.0001   -0.0051    0.0001    0.0000   -0.0005
           7    0.0001   -0.0005    0.0001    0.0007    0.0007    0.0003
           8    0.0001    0.0001   -0.0003    0.0003    0.0013   -0.0001
           9   -0.0000    0.0000   -0.0000    0.0000   -0.0000    0.0000
          10    0.0000    0.0001    0.0002   -0.0003   -0.0004   -0.0003
          11   -0.0000   -0.0001   -0.0004    0.0004    0.0016    0.0001
          12   -0.0000   -0.0000   -0.0000   -0.0000   -0.0000   -0.0000
          13   -0.0017   -0.0037    0.0000    0.0007    0.0020   -0.0001
          14    0.0005    0.0003   -0.0000   -0.0002    0.0000    0.0001
          15    0.0000    0.0000   -0.0000   -0.0000   -0.0000   -0.0000
          16   -0.0144    0.0081    0.0001    0.0000    0.0000   -0.0000
          17   -0.0199    0.0123    0.0001    0.0000    0.0000   -0.0000
          18    0.0002   -0.0001   -0.0000   -0.0000   -0.0000   -0.0000
          19   -0.0000    0.0000   -0.0007   -0.0492   -0.0294    0.0020
          20    0.0000    0.0001    0.0002   -0.0129   -0.0044    0.0003
          21   -0.0000   -0.0000    0.0000   -0.0000   -0.0000    0.0000
          22    0.0100    0.0151   -0.0000   -0.0002   -0.0005    0.0000
          23   -0.0232   -0.0377   -0.0000    0.0001    0.0001   -0.0000
          24   -0.0000   -0.0001    0.0000    0.0000    0.0000   -0.0000
          25    0.0001    0.0003    0.0001    0.0010    0.0048   -0.0002
          26   -0.0001   -0.0000    0.0000    0.0251   -0.0522    0.0012
          27   -0.0000   -0.0000   -0.0000   -0.0000    0.0000    0.0000
          28   -0.0270    0.0246    0.0001    0.0000   -0.0000   -0.0000
          29    0.0100   -0.0078   -0.0000    0.0000    0.0000   -0.0000
          30    0.0002   -0.0002   -0.0000   -0.0000    0.0000   -0.0000
          31   -0.0034    0.0020    0.0008   -0.0001    0.0001   -0.0006
          32    0.0082   -0.0049   -0.0021    0.0000   -0.0002    0.0014
          33    0.0134   -0.0081   -0.0035    0.0001   -0.0003    0.0022
          34   -0.0037    0.0022    0.0016   -0.0001    0.0000   -0.0011
          35    0.0084   -0.0051   -0.0036    0.0000   -0.0002    0.0023
          36   -0.0131    0.0079    0.0053   -0.0001    0.0002   -0.0032
          37    0.0001    0.0000   -0.0088   -0.0005   -0.0009   -0.0208
          38    0.0015   -0.0005    0.0886   -0.0055   -0.0070   -0.1280
          39    0.0028   -0.0011    0.2027   -0.0114   -0.0144   -0.2641
          40    0.0014   -0.0015    0.3995    0.0054    0.0144    0.3175
          41    0.0004   -0.0005    0.1230    0.0011    0.0047    0.1150
          42    0.0001   -0.0002    0.0714    0.0011    0.0027    0.0576
          43   -0.0003   -0.0001    0.0599   -0.0032   -0.0044   -0.0865
          44   -0.0005   -0.0003    0.1723   -0.0076   -0.0098   -0.1833
          45    0.0003    0.0004   -0.2127    0.0088    0.0114    0.2124
          46    0.1847   -0.1030   -0.0015   -0.0003   -0.0003    0.0001
          47    0.1983   -0.1111   -0.0015   -0.0003   -0.0003    0.0001
          48   -0.0019    0.0011    0.0000    0.0000    0.0000    0.0000
          49   -0.0975   -0.1487   -0.0001    0.0001    0.0003   -0.0001
          50    0.2729    0.4293    0.0005    0.0002   -0.0018    0.0003
          51    0.0003    0.0005    0.0000   -0.0000   -0.0000    0.0000
          52    0.3066   -0.2740   -0.0016   -0.0001   -0.0002    0.0000
          53   -0.0805    0.0671    0.0004    0.0001    0.0001   -0.0000
          54   -0.0025    0.0023    0.0000    0.0000    0.0000    0.0000
          55    0.0002    0.0003   -0.0000    0.0056   -0.0136    0.0003
          56    0.0010    0.0014   -0.0009   -0.3093    0.5646   -0.0125
          57   -0.0000   -0.0000   -0.0000    0.0002   -0.0005    0.0000
          58    0.0008    0.0006    0.0053    0.5577    0.2851   -0.0206
          59    0.0002    0.0002    0.0023    0.1603    0.0800   -0.0054
          60    0.0000    0.0000   -0.0001    0.0002    0.0001   -0.0001


           MASS-WEIGHTED COORDINATE ANALYSIS (NORMAL COORDINATES)


   Root No.       1         2         3         4         5         6         7         8

                 1 A       2 A       3 A       4 A       5 A       6 A       7 A       8 A   

                  35.4     103.9     176.9     237.5     264.8     292.7     435.0     474.4
  
           1   -0.0089   -0.0011   -0.0016   -0.2509    0.0048    0.0012    0.0012   -0.0314
           2   -0.0017   -0.0024   -0.0012   -0.0328    0.0034   -0.0026   -0.0017    0.0416
           3   -0.0376    0.4869    0.0806   -0.0119   -0.1983    0.1172    0.0019    0.0005
           4    0.0158    0.0078    0.0066    0.5530   -0.0126   -0.0020   -0.0007    0.0486
           5    0.0094    0.0040    0.0035    0.2964   -0.0063    0.0011   -0.0008    0.1953
           6    0.0496   -0.3949    0.2534   -0.0025   -0.1186   -0.1730    0.0213    0.0009
           7   -0.0019    0.0004   -0.0004   -0.0131    0.0010   -0.0002   -0.0009   -0.2709
           8   -0.0054   -0.0027   -0.0016   -0.2052    0.0054   -0.0011    0.0007    0.2328
           9   -0.0319    0.2467    0.0263    0.0094    0.5613   -0.0849    0.0988   -0.0038
          10   -0.0028    0.0003   -0.0004    0.0033    0.0002   -0.0003   -0.0011   -0.2944
          11   -0.0052   -0.0019   -0.0013   -0.1357    0.0027    0.0012   -0.0003   -0.1151
          12    0.0073   -0.0207   -0.0975    0.0104    0.3967    0.2730   -0.0852    0.0026
          13   -0.0002    0.0007    0.0004   -0.0029    0.0009   -0.0005   -0.0004    0.0187
          14   -0.0036   -0.0021   -0.0012   -0.1792    0.0050   -0.0010    0.0011    0.3807
          15   -0.0551    0.1914    0.1901    0.0017    0.2544   -0.3333    0.0180   -0.0032
          16   -0.0063   -0.0053   -0.0061   -0.2183    0.0038   -0.0014   -0.0017   -0.0606
          17    0.0040    0.0029    0.0011    0.1583   -0.0053    0.0003   -0.0001   -0.2430
          18    0.0815   -0.0733   -0.4190    0.0002   -0.1098   -0.2216   -0.3417    0.0018
          19   -0.0005    0.0004   -0.0004   -0.0502    0.0023   -0.0006   -0.0006    0.1130
          20   -0.0052   -0.0018   -0.0014   -0.1094    0.0014    0.0012   -0.0004   -0.3073
          21   -0.0254   -0.0154   -0.3920    0.0030   -0.1371    0.4026   -0.0761    0.0004
          22    0.0013   -0.0003    0.0026    0.0470   -0.0023    0.0030   -0.0024   -0.0886
          23    0.0011    0.0008    0.0009    0.0244   -0.0012    0.0005    0.0010    0.0091
          24   -0.0043   -0.1407    0.4802   -0.0043   -0.0452    0.2056   -0.3516    0.0002
          25    0.0006    0.0004   -0.0002   -0.0511    0.0024   -0.0013    0.0001    0.3687
          26   -0.0046   -0.0020   -0.0013   -0.1399    0.0024   -0.0002    0.0007    0.0325
          27   -0.0729    0.1664   -0.1169   -0.0043   -0.2803   -0.3878    0.1584    0.0004
          28   -0.0023   -0.0048   -0.0024   -0.1144    0.0023    0.0027    0.0052    0.0604
          29    0.0049    0.0033    0.0016    0.1882   -0.0058    0.0008    0.0005   -0.2132
          30    0.0814   -0.3582   -0.0401    0.0051    0.0181    0.1858    0.4813   -0.0011
          31   -0.0269    0.0692    0.0811   -0.1131    0.0284    0.0618    0.1232    0.0442
          32    0.0195   -0.1248   -0.0833   -0.0120    0.2021   -0.1235   -0.1183    0.0242
          33   -0.0295    0.2439    0.0996   -0.0087   -0.1990    0.1356    0.1128    0.0016
          34    0.0173   -0.0698   -0.0810   -0.1134   -0.0244   -0.0596   -0.1194    0.0457
          35   -0.0211    0.1212    0.0813   -0.0255   -0.1965    0.1201    0.1158    0.0291
          36   -0.0305    0.2475    0.1028   -0.0079   -0.2020    0.1391    0.1175    0.0011
          37    0.4278    0.0178    0.0718    0.2348   -0.0842   -0.0738    0.0246    0.0918
          38    0.3392    0.1130   -0.0410    0.0741    0.0877    0.0845   -0.0221    0.0579
          39   -0.1813   -0.1759    0.0945    0.0043   -0.0818   -0.0947    0.0177   -0.0016
          40   -0.0751   -0.0012   -0.0117    0.1157    0.0118    0.0133   -0.0051   -0.0272
          41   -0.0483   -0.0158    0.0118    0.2544   -0.0206   -0.0164    0.0044    0.2083
          42    0.5663   -0.0645    0.1338   -0.0228   -0.0920   -0.1023    0.0268   -0.0053
          43   -0.3242   -0.0061   -0.0504    0.2989    0.0575    0.0562   -0.0187    0.1292
          44   -0.2686   -0.0891    0.0343    0.0515   -0.0730   -0.0670    0.0173    0.0221
          45   -0.3558   -0.2026    0.0864    0.0131   -0.0810   -0.0944    0.0163    0.0054
          46   -0.0024   -0.0027   -0.0037   -0.0878    0.0018   -0.0019   -0.0017   -0.0049
          47    0.0019    0.0014    0.0003    0.0684   -0.0024    0.0002   -0.0000   -0.0816
          48    0.0455   -0.0667   -0.2999    0.0015   -0.0542   -0.1907   -0.2150    0.0013
          49    0.0015    0.0004    0.0020    0.0687   -0.0031    0.0017   -0.0026   -0.1358
          50    0.0007    0.0005    0.0005    0.0267   -0.0011    0.0003   -0.0001   -0.0357
          51   -0.0029   -0.0886    0.2587   -0.0047   -0.1336    0.1505   -0.3570    0.0021
          52   -0.0002   -0.0022   -0.0012   -0.0231    0.0006    0.0011    0.0040    0.0129
          53    0.0025    0.0016    0.0005    0.0930   -0.0027    0.0003    0.0003   -0.0756
          54    0.0450   -0.2253   -0.0770    0.0045    0.0278    0.0863    0.4430   -0.0003
          55    0.0003    0.0000   -0.0001   -0.0275    0.0012   -0.0007    0.0003    0.2477
          56   -0.0013   -0.0006   -0.0004   -0.0409    0.0006   -0.0002    0.0003    0.0122
          57   -0.0306    0.0675   -0.0552   -0.0036   -0.2208   -0.2457    0.1434    0.0005
          58   -0.0001    0.0001   -0.0001   -0.0161    0.0008   -0.0003   -0.0001    0.0678
          59   -0.0022   -0.0006   -0.0005   -0.0242   -0.0002    0.0006   -0.0003   -0.2071
          60   -0.0009   -0.0395   -0.2227    0.0004   -0.1414    0.2728   -0.0472   -0.0004


   Root No.       9        10        11        12        13        14        15        16

                 9 A      10 A      11 A      12 A      13 A      14 A      15 A      16 A   

                 521.5     556.3     582.8     640.0     714.2     752.2     801.5     824.7
  
           1    0.1636   -0.2604    0.0102   -0.0001   -0.1408   -0.0007    0.0002   -0.1429
           2   -0.3925   -0.2463    0.0150    0.0006    0.0745   -0.0030    0.0054   -0.3504
           3   -0.0041   -0.0009   -0.0255   -0.2165   -0.0029   -0.1205   -0.1725   -0.0045
           4   -0.0923   -0.2479    0.0075   -0.0014    0.2279   -0.0014   -0.0013    0.1928
           5    0.1199    0.2766   -0.0102    0.0028   -0.3576    0.0011   -0.0027   -0.1159
           6    0.0012    0.0032    0.0257    0.0229   -0.0044   -0.0206    0.0593   -0.0023
           7   -0.2033   -0.0906    0.0083    0.0018   -0.0001   -0.0002    0.0008    0.0339
           8   -0.1282   -0.1799    0.0071   -0.0007    0.0538   -0.0004    0.0006   -0.0478
           9   -0.0007   -0.0050   -0.1175   -0.4433   -0.0037    0.2791   -0.0531   -0.0010
          10   -0.2562   -0.1048    0.0089    0.0023    0.0269    0.0000   -0.0013    0.2064
          11   -0.0683    0.2389   -0.0067    0.0025   -0.2132    0.0025   -0.0043    0.1288
          12    0.0083    0.0199    0.5420    0.2456    0.0109   -0.0947    0.1480    0.0070
          13   -0.0801    0.2806   -0.0122    0.0004    0.1305   -0.0007    0.0051   -0.2127
          14   -0.0214   -0.1079    0.0003   -0.0030    0.2068   -0.0004   -0.0005    0.1721
          15    0.0006   -0.0138   -0.4144    0.4988    0.0001   -0.0435    0.1928    0.0010
          16    0.3585   -0.2723    0.0088    0.0016   -0.1828   -0.0016    0.0020   -0.1713
          17    0.0939   -0.1814    0.0092    0.0042   -0.2025    0.0011    0.0018   -0.1433
          18   -0.0002    0.0022    0.0069    0.0279    0.0010   -0.1798    0.0417    0.0028
          19   -0.2385    0.1262   -0.0001    0.0057   -0.3890    0.0043   -0.0071    0.2954
          20   -0.0992    0.2064   -0.0071    0.0003    0.0863    0.0015   -0.0015    0.1762
[...]
 EFFECTIVE MASS      1.5849
 FORCE CONSTANT      0.4797

 VIBRATION         37   37A           ATOM PAIR      ENERGY CONTRIBUTION    RADIAL
 FREQUENCY          1390.44         C  2 -- H 15         +43.6% ( 61.0%)      0.0%
 TRANSITION DIPOLE   0.0776         C  2 -- H 13         +20.7% ( 42.0%)      5.3%
 TRAVEL (Ang.)       0.3572         C  2 -- H 14         +16.9% ( 38.0%)     18.8%
 REDUCED MASS        0.3800         C  2 -- C  4          +5.7% ( 22.0%)      0.0%
 EFFECTIVE MASS      1.9859
 FORCE CONSTANT      0.4329

 VIBRATION         38   38A           ATOM PAIR      ENERGY CONTRIBUTION    RADIAL
 FREQUENCY          1431.85         C  8 -- C 10         +15.0% ( 62.5%)     99.2%
 TRANSITION DIPOLE   0.2377         C  5 -- C  9         +10.2% ( 51.4%)     95.5%
 TRAVEL (Ang.)       0.1814         C  6 -- C 10          +8.8% ( 47.9%)      0.1%
 REDUCED MASS        1.4313         C  3 -- C  5          +7.0% ( 42.7%)     54.2%
 EFFECTIVE MASS     10.7054
 FORCE CONSTANT      1.7289

 VIBRATION         39   39A           ATOM PAIR      ENERGY CONTRIBUTION    RADIAL
 FREQUENCY          1471.94         C  4 -- C  7         +11.0% ( 55.6%)     99.2%
 TRANSITION DIPOLE   1.3273         C  3 -- C  5          +9.2% ( 50.9%)    100.0%
 TRAVEL (Ang.)       0.1778         C  3 -- C  4          +9.1% ( 50.7%)     89.3%
 REDUCED MASS        1.4491         C  2 -- C  4          +8.9% ( 50.1%)     58.6%
 EFFECTIVE MASS     11.1197
 FORCE CONSTANT      1.8498

 VIBRATION         40   40A           ATOM PAIR      ENERGY CONTRIBUTION    RADIAL
 FREQUENCY          1547.14         C  3 -- C  4         +15.0% ( 66.6%)      0.0%
 TRANSITION DIPOLE   0.3668         C  1 -- C  3         +13.7% ( 63.6%)     96.7%
 TRAVEL (Ang.)       0.1314         C  2 -- C  4         +13.4% ( 62.9%)     94.6%
 REDUCED MASS        2.5233         C  3 -- C  5         +10.6% ( 55.8%)     74.6%
 EFFECTIVE MASS     11.5440
 FORCE CONSTANT      3.5586

 VIBRATION         41   41A           ATOM PAIR      ENERGY CONTRIBUTION    RADIAL
 FREQUENCY          1713.94         C  7 -- C  9         +33.3% ( 98.0%)     99.9%
 TRANSITION DIPOLE   1.5285         C  5 -- C  9         +11.1% ( 56.6%)     18.3%
 TRAVEL (Ang.)       0.0922         C  3 -- C  7         +10.6% ( 55.3%)     20.8%
 REDUCED MASS        4.6311         C  5 -- C  7          +9.8% ( 53.3%)     53.0%
 EFFECTIVE MASS     11.9870
 FORCE CONSTANT      8.0153

 VIBRATION         42   42A           ATOM PAIR      ENERGY CONTRIBUTION    RADIAL
 FREQUENCY          1809.15         C  6 -- C 10         +32.6% ( 88.2%)     99.9%
 TRANSITION DIPOLE   1.8348         C  8 -- C 10         +13.0% ( 55.8%)     80.5%
 TRAVEL (Ang.)       0.1016         C  1 -- C  6         +10.2% ( 49.4%)     46.5%
 REDUCED MASS        3.6141         C 10 -- H 18         +10.0% ( 49.0%)      3.7%
 EFFECTIVE MASS     11.9198
 FORCE CONSTANT      6.9695

 VIBRATION         43   43A           ATOM PAIR      ENERGY CONTRIBUTION    RADIAL
 FREQUENCY          1866.74         C  3 -- C  4         +24.6% ( 82.3%)     99.8%
 TRANSITION DIPOLE   0.9942         C  3 -- C  5         +10.5% ( 53.7%)      5.4%
 TRAVEL (Ang.)       0.1065         C  1 -- C  3         +10.1% ( 52.7%)     63.1%
 REDUCED MASS        3.1830         C  3 -- C  7          +9.0% ( 49.9%)     92.8%
 EFFECTIVE MASS     11.9048
 FORCE CONSTANT      6.5351

 VIBRATION         44   44A           ATOM PAIR      ENERGY CONTRIBUTION    RADIAL
 FREQUENCY          1904.15         C  5 -- C  8         +24.8% ( 84.7%)     99.8%
 TRANSITION DIPOLE   1.6113         C  4 -- C  5         +13.3% ( 61.9%)     84.5%
 TRAVEL (Ang.)       0.0990         C  3 -- C  5         +11.9% ( 58.6%)     59.7%
 REDUCED MASS        3.6151         C  5 -- C  9         +11.2% ( 57.0%)     58.5%
 EFFECTIVE MASS     11.8979         C  5 -- C  7         +10.6% ( 55.4%)     96.0%
 FORCE CONSTANT      7.7228

 VIBRATION         45   45A           ATOM PAIR      ENERGY CONTRIBUTION    RADIAL
 FREQUENCY          2915.81         C  1 -- H 12         +49.5% ( 73.0%)     96.6%
 TRANSITION DIPOLE   0.1045         C  1 -- H 11         +48.3% ( 72.1%)     96.5%
 TRAVEL (Ang.)       0.2116         C  1 -- C  3          +1.1% ( 10.7%)      0.0%
 REDUCED MASS        0.5166         C  1 -- C  6          +1.1% ( 10.7%)      0.0%
 EFFECTIVE MASS      1.5307
 FORCE CONSTANT      2.5879

 VIBRATION         46   46A           ATOM PAIR      ENERGY CONTRIBUTION    RADIAL
 FREQUENCY          2997.91         C  1 -- H 11         +49.7% ( 69.5%)     97.9%
 TRANSITION DIPOLE   0.1840         C  1 -- H 12         +48.3% ( 68.5%)     97.7%
 TRAVEL (Ang.)       0.2168         C  1 -- C  6          +0.7% (  8.1%)     21.1%
 REDUCED MASS        0.4783         C  1 -- C  3          +0.7% (  8.0%)     29.3%
 EFFECTIVE MASS      1.2794
 FORCE CONSTANT      2.5329

 VIBRATION         47   47A           ATOM PAIR      ENERGY CONTRIBUTION    RADIAL
 FREQUENCY          3045.49         C  6 -- H 16         +61.8% ( 79.8%)    100.0%
 TRANSITION DIPOLE   0.2643         C 10 -- H 18         +34.5% ( 59.6%)    100.0%
 TRAVEL (Ang.)       0.2127         C  6 -- C 10          +1.1% ( 10.8%)      1.2%
 REDUCED MASS        0.4896         C  8 -- H 17          +1.0% ( 10.1%)     99.8%
 EFFECTIVE MASS      1.4686
 FORCE CONSTANT      2.6756

 VIBRATION         48   48A           ATOM PAIR      ENERGY CONTRIBUTION    RADIAL
 FREQUENCY          3058.69         C  2 -- H 13         +53.4% ( 75.4%)     97.6%
 TRANSITION DIPOLE   0.0117         C  2 -- H 15         +44.3% ( 68.7%)     96.3%
 TRAVEL (Ang.)       0.2079         C  2 -- H 14          +1.3% ( 11.6%)      8.5%
 REDUCED MASS        0.5101         C  2 -- C  4          +1.0% ( 10.2%)      0.0%
 EFFECTIVE MASS      1.5018
 FORCE CONSTANT      2.8116

 VIBRATION         49   49A           ATOM PAIR      ENERGY CONTRIBUTION    RADIAL
 FREQUENCY          3061.93         C 10 -- H 18         +37.6% ( 62.3%)     99.9%
 TRANSITION DIPOLE   0.2888         C  8 -- H 17         +31.4% ( 57.0%)    100.0%
 TRAVEL (Ang.)       0.2647         C  6 -- H 16         +27.4% ( 53.2%)     99.9%
 REDUCED MASS        0.3144         C  6 -- C 10          +1.3% ( 11.6%)     98.8%
 EFFECTIVE MASS      1.5519
 FORCE CONSTANT      1.7365

 VIBRATION         50   50A           ATOM PAIR      ENERGY CONTRIBUTION    RADIAL
 FREQUENCY          3072.89         C  8 -- H 17         +64.5% ( 81.5%)    100.0%
 TRANSITION DIPOLE   0.4499         C 10 -- H 18         +24.8% ( 50.5%)    100.0%
 TRAVEL (Ang.)       0.2138         C  6 -- H 16          +7.2% ( 27.2%)     99.8%
 REDUCED MASS        0.4801         C  8 -- C 10          +1.4% ( 12.2%)     83.5%
 EFFECTIVE MASS      1.5652
 FORCE CONSTANT      2.6709

 VIBRATION         51   51A           ATOM PAIR      ENERGY CONTRIBUTION    RADIAL
 FREQUENCY          3075.42         C  2 -- H 14         +58.0% ( 78.5%)     98.6%
 TRANSITION DIPOLE   0.0438         C  2 -- H 15         +25.1% ( 51.6%)     89.8%
 TRAVEL (Ang.)       0.2192         C  2 -- H 13         +15.9% ( 41.1%)     82.5%
 REDUCED MASS        0.4561         C  2 -- C  4          +1.0% ( 10.5%)      0.0%
 EFFECTIVE MASS      1.5122
 FORCE CONSTANT      2.5419

 VIBRATION         52   52A           ATOM PAIR      ENERGY CONTRIBUTION    RADIAL
 FREQUENCY          3132.90         C  7 -- H 20         +73.8% ( 88.4%)    100.0%
 TRANSITION DIPOLE   0.3833         C  9 -- H 19         +20.8% ( 47.0%)    100.0%
 TRAVEL (Ang.)       0.1877         C  7 -- C  9          +1.3% ( 11.8%)      7.8%
 REDUCED MASS        0.6110         C  5 -- C  7          +1.2% ( 11.5%)     94.6%
 EFFECTIVE MASS      1.4953
 FORCE CONSTANT      3.5334

 VIBRATION         53   53A           ATOM PAIR      ENERGY CONTRIBUTION    RADIAL
 FREQUENCY          3152.52         C  9 -- H 19         +74.2% ( 88.2%)    100.0%
 TRANSITION DIPOLE   0.4439         C  7 -- H 20         +20.5% ( 46.4%)     99.9%
 TRAVEL (Ang.)       0.1868         C  7 -- C  9          +2.3% ( 15.5%)     90.7%
 REDUCED MASS        0.6128         C  5 -- C  9          +1.4% ( 12.2%)     28.5%
 EFFECTIVE MASS      1.6328
 FORCE CONSTANT      3.5881

 VIBRATION         54   54A           ATOM PAIR      ENERGY CONTRIBUTION    RADIAL
 FREQUENCY          3161.99         C  2 -- H 14         +40.9% ( 61.6%)     98.1%
 TRANSITION DIPOLE   0.0593         C  2 -- H 13         +29.3% ( 52.2%)     96.4%
 TRAVEL (Ang.)       0.2532         C  2 -- H 15         +29.2% ( 52.1%)     96.3%
 REDUCED MASS        0.3327         C  2 -- C  4          +0.3% (  5.5%)     98.1%
 EFFECTIVE MASS      1.1425
 FORCE CONSTANT      1.9601

      SYMMETRY NUMBER FOR POINT-GROUP C1  =  1


          SYSTEM IS A GROUND STATE



 InChI=1S/C10H10/c1-8-6-7-9-4-2-3-5-10(8)9/h2-4,6-7H,5H2,1H3


          MOLECULE IS NOT LINEAR

          THERE ARE 54 GENUINE VIBRATIONS IN THIS SYSTEM
          THIS THERMODYNAMICS CALCULATION IS LIMITED TO
          MOLECULES WHICH HAVE NO INTERNAL ROTATIONS




                    CALCULATED THERMODYNAMIC PROPERTIES
                                          *
   TEMP. (K)   PARTITION FUNCTION   H.O.F.    ENTHALPY  HEAT CAPACITY ENTROPY
                                   KCAL/MOL   CAL/MOLE    CAL/K/MOL  CAL/K/MOL


 298.00  VIB.     0.1559D+03                  3611.9830    27.2387    22.1552
         ROT.     0.5287D+06                   888.2803     2.9808    29.1685
         INT.     0.8245D+08                  4500.2634    30.2195    51.3236
         TRA.     0.1436D+28                  1480.4672     4.9680    40.5022
         TOT.                       53.948    5980.7305    35.1875    91.8258

 200.00  VIB.     0.2280D+02                  1492.7554    16.2304    13.6776
         ROT.     0.2907D+06                   596.1613     2.9808    27.9798
         INT.     0.6628D+07                  2088.9166    19.2112    41.6574
         TRA.     0.7896D+27                   993.6021     4.9680    38.5210
         TOT.                       51.050    3082.5188    24.1792    80.1784

 210.00  VIB.     0.2754D+02                  1660.2694    17.2767    14.4947
         ROT.     0.3127D+06                   625.9693     2.9808    28.1252
         INT.     0.8612D+07                  2286.2387    20.2575    42.6199
         TRA.     0.8496D+27                  1043.2822     4.9680    38.7634
         TOT.                       51.297    3329.5209    25.2255    81.3833

 220.00  VIB.     0.3331D+02                  1838.3721    18.3478    15.3230
         ROT.     0.3354D+06                   655.7774     2.9808    28.2639
         INT.     0.1117D+08                  2494.1495    21.3286    43.5869
         TRA.     0.9110D+27                  1092.9623     4.9680    38.9945
         TOT.                       51.555    3587.1119    26.2966    82.5814

 230.00  VIB.     0.4036D+02                  2027.2990    19.4411    16.1627
         ROT.     0.3585D+06                   685.5855     2.9808    28.3964
         INT.     0.1447D+08                  2712.8844    22.4219    44.5590
         TRA.     0.9738D+27                  1142.6424     4.9680    39.2154
         TOT.                       51.823    3855.5269    27.3899    83.7744

 240.00  VIB.     0.4899D+02                  2227.2590    20.5539    17.0135
         ROT.     0.3821D+06                   715.3935     2.9808    28.5232
         INT.     0.1872D+08                  2942.6526    23.5347    45.5368
         TRA.     0.1038D+28                  1192.3226     4.9680    39.4268
         TOT.                       52.103    4134.9751    28.5027    84.9636

 250.00  VIB.     0.5956D+02                  2438.4326    21.6833    17.8754
         ROT.     0.4062D+06                   745.2016     2.9808    28.6449
         INT.     0.2420D+08                  3183.6342    24.6641    46.5203
         TRA.     0.1103D+28                  1242.0027     4.9680    39.6296
         TOT.                       52.393    4425.6369    29.6321    86.1499

 260.00  VIB.     0.7254D+02                  2660.9700    22.8262    18.7481
         ROT.     0.4309D+06                   775.0097     2.9808    28.7618
         INT.     0.3126D+08                  3435.9797    25.8070    47.5099
         TRA.     0.1170D+28                  1291.6828     4.9680    39.8245
         TOT.                       52.695    4727.6625    30.7750    87.3344

 270.00  VIB.     0.8851D+02                  2894.9907    23.9794    19.6311
         ROT.     0.4559D+06                   804.8177     2.9808    28.8743
         INT.     0.4036D+08                  3699.8084    26.9603    48.5055
         TRA.     0.1239D+28                  1341.3629     4.9680    40.0120
         TOT.                       53.009    5041.1713    31.9283    88.5174

 280.00  VIB.     0.1082D+03                  3140.5836    25.1401    20.5242
         ROT.     0.4815D+06                   834.6258     2.9808    28.9827
         INT.     0.5209D+08                  3975.2094    28.1209    49.5069
         TRA.     0.1308D+28                  1391.0430     4.9680    40.1926
         TOT.                       53.334    5366.2523    33.0889    89.6995

 290.00  VIB.     0.1325D+03                  3397.8077    26.3052    21.4267
         ROT.     0.5075D+06                   864.4339     2.9808    29.0873
         INT.     0.6723D+08                  4262.2416    29.2860    50.5140
         TRA.     0.1379D+28                  1440.7231     4.9680    40.3670
         TOT.                       53.671    5702.9647    34.2540    90.8810

 300.00  VIB.     0.1625D+03                  3666.6937    27.4720    22.3381
         ROT.     0.5340D+06                   894.2419     2.9808    29.1884
         INT.     0.8676D+08                  4560.9357    30.4528    51.5265
         TRA.     0.1451D+28                  1490.4032     4.9680    40.5354
         TOT.                       54.019    6051.3388    35.4208    92.0619

 310.00  VIB.     0.1996D+03                  3947.2451    28.6379    23.2580
         ROT.     0.5609D+06                   924.0500     2.9808    29.2861
         INT.     0.1120D+09                  4871.2951    31.6187    52.5441
         TRA.     0.1524D+28                  1540.0833     4.9680    40.6983
         TOT.                       54.379    6411.3784    36.5867    93.2424

 320.00  VIB.     0.2456D+03                  4239.4401    29.8004    24.1855
         ROT.     0.5883D+06                   953.8580     2.9808    29.3808
         INT.     0.1445D+09                  5193.2982    32.7812    53.5663
         TRA.     0.1598D+28                  1589.7634     4.9680    40.8560
         TOT.                       54.751    6783.0616    37.7492    94.4223

 330.00  VIB.     0.3028D+03                  4543.2340    30.9573    25.1203
         ROT.     0.6161D+06                   983.6661     2.9808    29.4725
         INT.     0.1865D+09                  5526.9001    33.9381    54.5928
         TRA.     0.1674D+28                  1639.4435     4.9680    41.0089
         TOT.                       55.134    7166.3436    38.9061    95.6017

 340.00  VIB.     0.3738D+03                  4858.5607    32.1066    26.0615
         ROT.     0.6443D+06                  1013.4742     2.9808    29.5615
         INT.     0.2408D+09                  5872.0349    35.0874    55.6230
         TRA.     0.1750D+28                  1689.1236     4.9680    41.1572
         TOT.                       55.529    7561.1585    40.0555    96.7802

 350.00  VIB.     0.4622D+03                  5185.3354    33.2466    27.0087
         ROT.     0.6729D+06                  1043.2822     2.9808    29.6479
         INT.     0.3110D+09                  6228.6176    36.2274    56.6566
         TRA.     0.1828D+28                  1738.8037     4.9680    41.3012
         TOT.                       55.935    7967.4213    41.1954    97.9578

 360.00  VIB.     0.5723D+03                  5523.4561    34.3756    27.9611
         ROT.     0.7020D+06                  1073.0903     2.9808    29.7319
         INT.     0.4018D+09                  6596.5464    37.3564    57.6930
         TRA.     0.1907D+28                  1788.4838     4.9680    41.4412
         TOT.                       56.353    8385.0302    42.3244    99.1342

 370.00  VIB.     0.7097D+03                  5872.8062    35.4923    28.9182
         ROT.     0.7314D+06                  1102.8984     2.9808    29.8135
         INT.     0.5191D+09                  6975.7046    38.4731    58.7318
         TRA.     0.1987D+28                  1838.1639     4.9680    41.5773
         TOT.                       56.782    8813.8685    43.4411   100.3091

 380.00  VIB.     0.8813D+03                  6233.2560    36.5954    29.8794
         ROT.     0.7613D+06                  1132.7064     2.9808    29.8930
         INT.     0.6709D+09                  7365.9625    39.5762    59.7725
         TRA.     0.2068D+28                  1887.8440     4.9680    41.7098
         TOT.                       57.222    9253.8065    44.5442   101.4822

 390.00  VIB.     0.1096D+04                  6604.6649    37.6839    30.8441
         ROT.     0.7915D+06                  1162.5145     2.9808    29.9704
         INT.     0.8674D+09                  7767.1794    40.6647    60.8146
         TRA.     0.2150D+28                  1937.5242     4.9680    41.8388
         TOT.                       57.672    9704.7036    45.6327   102.6534

 400.00  VIB.     0.1364D+04                  6986.8829    38.7571    31.8118
         ROT.     0.8222D+06                  1192.3226     2.9808    30.0459
         INT.     0.1122D+10                  8179.2054    41.7379    61.8577
         TRA.     0.2233D+28                  1987.2043     4.9680    41.9646
         TOT.                       58.134   10166.4097    46.7059   103.8223

   *: NOTE: HEATS OF FORMATION ARE RELATIVE TO THE
            ELEMENTS IN THEIR STANDARD STATE AT 298K
              (=  Standard Enthalpy of Formation).

            Hvib:  Zero-point energy is not included.
                   frequencies of less than zero cm-1 are not included.
            Hrot = (3/2)RT
            Htra = (3/2)RT + pV = (5/2)RT

            Heat capacity is Cp, not Cv

          For more information, see: HTTP://OpenMOPAC.net/Manual/thermochemistry.html


           FORCE CONSTANT IN CARTESIAN COORDINATES (Millidynes/A)

    ATOM   CHEMICAL       X               Y               Z
   NUMBER   SYMBOL  FORCE CONSTANT  FORCE CONSTANT  FORCE CONSTANT

      1       C        9.416212        9.100849        7.515233
      2       C        8.914980        8.853017        7.898469
      3       C       14.937587       11.046846        2.469679
      4       C       14.253460       11.167455        2.521365
      5       C       16.890801        9.280689        2.274639
      6       C        9.816789       14.439818        2.435671
      7       C       14.790293        9.828670        2.150317
      8       C       14.182767       10.846172        2.265439
      9       C       10.931538       13.854112        2.122698
     10       C       10.913720       14.046952        2.232599
     11       H        0.728323        1.904188        3.453405
     12       H        0.752123        1.970412        3.362327
     13       H        0.658858        1.625828        4.314157
     14       H        4.797560        1.151181        0.779050
     15       H        0.989874        2.601283        3.030833
     16       H        2.820914        3.067011        0.345295
     17       H        1.214076        4.686467        0.349272
     18       H        4.877035        1.023553        0.342034
     19       H        0.690757        5.432742        0.327117
     20       H        5.041382        1.061100        0.341751

 **********************
 *                    *
 * JOB ENDED NORMALLY *
 *                    *
 **********************



 TOTAL JOB TIME:             2.21 SECONDS

 == MOPAC DONE ==
