 *******************************************************************************
 **                                                                           **
 **                              MOPAC v23.1.2                                **
 **                                                                           **
 *******************************************************************************
 **          Digital Object Identifier (DOI): 10.5281/zenodo.6511958          **
 **    Visit the DOI location for information on how to cite this program.    **
 *******************************************************************************

                              PM3 CALCULATION RESULTS

 *******************************************************************************
 *  CALCULATION DONE: (MAX THREADS = 1)              Tue Jun  3 16:28:13 2025  *
 *  PM3        - The PM3 Hamiltonian to be used
 *  PRECISE    - TIGHTER CRITERIA TO BE USED
 *  NOSYM      - POINT-GROUP SYMMETRY SET TO C1
 *  THREADS=1  - MULTI-THREADING NOT USED
 *  T=         - A TIME OF 172800.0 SECONDS REQUESTED
 *  DUMP=N     - RESTART FILE WRITTEN EVERY 7200.0 SECONDS REQUESTED
 *******************************************************************************
pm3  precise nosym THREADS=1
 InChI=1S/C7H8/c1-7-5-3-2-4-6-7/h2-6H,1H3

   ATOM   CHEMICAL          X               Y               Z
  NUMBER   SYMBOL      (ANGSTROMS)     (ANGSTROMS)     (ANGSTROMS)

     1       C          2.21380000  *   0.11080000  *  -0.14800000  *
     2       C          0.72080000  *   0.04660000  *  -0.01990000  *
     3       C         -0.07090000  *   1.13810000  *  -0.41290000  *
     4       C          0.09900000  *  -1.12980000  *   0.42960000  *
     5       C         -2.07660000  *  -0.10450000  *   0.13730000  *
     6       C         -1.46490000  *   1.06310000  *  -0.32780000  *
     7       C         -1.29540000  *  -1.20090000  *   0.51320000  *
     8       H          2.70060000  *  -0.52900000  *   0.61870000  *
     9       H          2.51320000  *  -0.24160000  *  -1.15700000  *
    10       H          2.57470000  *   1.15180000  *  -0.00570000  *
    11       H         -3.15550000  *  -0.16150000  *   0.20130000  *
    12       H         -2.07110000  *   1.90870000  *  -0.62590000  *
    13       H         -1.77030000  *  -2.10730000  *   0.86590000  *
    14       H          0.39020000  *   2.04520000  *  -0.78380000  *
    15       H          0.69240000  *  -1.98960000  *   0.71500000  *



          CARTESIAN COORDINATES 

    NO.       ATOM           X           Y           Z

     1         C          2.2138      0.1108     -0.1480
     2         C          0.7208      0.0466     -0.0199
     3         C         -0.0709      1.1381     -0.4129
     4         C          0.0990     -1.1298      0.4296
     5         C         -2.0766     -0.1045      0.1373
     6         C         -1.4649      1.0631     -0.3278
     7         C         -1.2954     -1.2009      0.5132
     8         H          2.7006     -0.5290      0.6187
     9         H          2.5132     -0.2416     -1.1570
    10         H          2.5747      1.1518     -0.0057
    11         H         -3.1555     -0.1615      0.2013
    12         H         -2.0711      1.9087     -0.6259
    13         H         -1.7703     -2.1073      0.8659
    14         H          0.3902      2.0452     -0.7838
    15         H          0.6924     -1.9896      0.7150

  H: (PM3): J. J. P. STEWART, J. COMP. CHEM. 10, 209 (1989).
  C: (PM3): J. J. P. STEWART, J. COMP. CHEM. 10, 209 (1989).

           Empirical Formula: C7 H8  =    15 atoms



      MOLECULAR POINT GROUP   :   C1  


      RHF CALCULATION, NO. OF DOUBLY OCCUPIED LEVELS = 18


          Geometry optimization using EF

          DIAGONAL MATRIX USED AS START HESSIAN

 CYCLE:     1 TIME:   0.004 TIME LEFT:  2.00D  GRAD.:    57.394 HEAT:  15.08957
 CYCLE:     2 TIME:   0.012 TIME LEFT:  2.00D  GRAD.:    26.645 HEAT:  14.33950
 CYCLE:     3 TIME:   0.004 TIME LEFT:  2.00D  GRAD.:    15.315 HEAT:  14.14201
 CYCLE:     4 TIME:   0.008 TIME LEFT:  2.00D  GRAD.:     9.602 HEAT:  14.07324
 CYCLE:     5 TIME:   0.004 TIME LEFT:  2.00D  GRAD.:     7.631 HEAT:  14.05531
 CYCLE:     6 TIME:   0.008 TIME LEFT:  2.00D  GRAD.:     4.820 HEAT:  14.04455
 CYCLE:     7 TIME:   0.004 TIME LEFT:  2.00D  GRAD.:     5.966 HEAT:  14.04026
 CYCLE:     8 TIME:   0.004 TIME LEFT:  2.00D  GRAD.:     4.201 HEAT:  14.03046
 CYCLE:     9 TIME:   0.004 TIME LEFT:  2.00D  GRAD.:     4.833 HEAT:  14.02607
 CYCLE:    10 TIME:   0.004 TIME LEFT:  2.00D  GRAD.:     2.622 HEAT:  14.01899
 CYCLE:    11 TIME:   0.004 TIME LEFT:  2.00D  GRAD.:     7.312 HEAT:  14.02382
 CYCLE:    12 TIME:   0.000 TIME LEFT:  2.00D  GRAD.:     4.770 HEAT:  14.01839
 CYCLE:    13 TIME:   0.008 TIME LEFT:  2.00D  GRAD.:     2.897 HEAT:  14.01358
 CYCLE:    14 TIME:   0.000 TIME LEFT:  2.00D  GRAD.:     3.656 HEAT:  14.01404
 CYCLE:    15 TIME:   0.004 TIME LEFT:  2.00D  GRAD.:     3.328 HEAT:  14.01387
 CYCLE:    16 TIME:   0.004 TIME LEFT:  2.00D  GRAD.:     1.831 HEAT:  14.01191
 CYCLE:    17 TIME:   0.004 TIME LEFT:  2.00D  GRAD.:     1.209 HEAT:  14.01121
 CYCLE:    18 TIME:   0.004 TIME LEFT:  2.00D  GRAD.:     0.736 HEAT:  14.01084
 CYCLE:    19 TIME:   0.004 TIME LEFT:  2.00D  GRAD.:     0.523 HEAT:  14.01067
 CYCLE:    20 TIME:   0.000 TIME LEFT:  2.00D  GRAD.:     0.360 HEAT:  14.01056
 CYCLE:    21 TIME:   0.004 TIME LEFT:  2.00D  GRAD.:     0.238 HEAT:  14.01046
 CYCLE:    22 TIME:   0.004 TIME LEFT:  2.00D  GRAD.:     0.189 HEAT:  14.01039
 CYCLE:    23 TIME:   0.000 TIME LEFT:  2.00D  GRAD.:     0.201 HEAT:  14.01037
 CYCLE:    24 TIME:   0.004 TIME LEFT:  2.00D  GRAD.:     0.092 HEAT:  14.01035
 CYCLE:    25 TIME:   0.004 TIME LEFT:  2.00D  GRAD.:     0.089 HEAT:  14.01033
 CYCLE:    26 TIME:   0.004 TIME LEFT:  2.00D  GRAD.:     0.117 HEAT:  14.01030
 CYCLE:    27 TIME:   0.004 TIME LEFT:  2.00D  GRAD.:     0.116 HEAT:  14.01028
 CYCLE:    28 TIME:   0.004 TIME LEFT:  2.00D  GRAD.:     0.101 HEAT:  14.01026
 CYCLE:    29 TIME:   0.000 TIME LEFT:  2.00D  GRAD.:     0.071 HEAT:  14.01024
 CYCLE:    30 TIME:   0.004 TIME LEFT:  2.00D  GRAD.:     0.084 HEAT:  14.01024
 CYCLE:    31 TIME:   0.004 TIME LEFT:  2.00D  GRAD.:     0.045 HEAT:  14.01024

     GRADIENT =  0.04547 IS LESS THAN CUTOFF =  0.05000



 -------------------------------------------------------------------------------
 pm3  precise nosym THREADS=1
 InChI=1S/C7H8/c1-7-5-3-2-4-6-7/h2-6H,1H3



     GEOMETRY OPTIMISED USING EIGENVECTOR FOLLOWING (EF).     
     SCF FIELD WAS ACHIEVED                                   


                              PM3 CALCULATION
                                                       MOPAC v23.1.2 MacOS
                                                       Tue Jun  3 16:28:13 2025




          FINAL HEAT OF FORMATION =         14.01024 KCAL/MOL =      58.61883 KJ/MOL


          COSMO AREA              =        137.59 SQUARE ANGSTROMS
          COSMO VOLUME            =        129.03 CUBIC ANGSTROMS

          GRADIENT NORM           =          0.04547          =       0.01174 PER ATOM
          IONIZATION POTENTIAL    =          9.442573 EV
          HOMO LUMO ENERGIES (EV) =         -9.443  0.377
          NO. OF FILLED LEVELS    =         18
          MOLECULAR WEIGHT        =         92.1402         POINT GROUP:  C1  

          MOLECULAR DIMENSIONS (Angstroms)

            Atom       Atom       Distance
            H    11    H    10     5.87179
            H    15    H    12     4.63634
            H     9    H     8     1.56331


          SCF CALCULATIONS        =         39

          WALL-CLOCK TIME         =      0.137 SECONDS
          COMPUTATION TIME        =      0.106 SECONDS




   ATOM   CHEMICAL          X               Y               Z
  NUMBER   SYMBOL      (ANGSTROMS)     (ANGSTROMS)     (ANGSTROMS)

     1       C          2.19386602  *   0.11109983  *  -0.14314962  *
     2       C          0.71384692  *   0.03987958  *  -0.03666302  *
     3       C         -0.07183531  *   1.13143608  *  -0.41077181  *
     4       C          0.09706771  *  -1.12352364  *   0.42681433  *
     5       C         -2.06760286  *  -0.10457344  *   0.13534679  *
     6       C         -1.45724175  *   1.05742216  *  -0.32487685  *
     7       C         -1.28862544  *  -1.19380130  *   0.51130286  *
     8       H          2.68802780  *  -0.52073798  *   0.60673757  *
     9       H          2.52300905  *  -0.23258376  *  -1.13346478  *
    10       H          2.56400916  *   1.13621087  *  -0.00945059  *
    11       H         -3.15869646  *  -0.16133344  *   0.20256979  *
    12       H         -2.06835099  *   1.91657700  *  -0.61981532  *
    13       H         -1.76692294  *  -2.10884907  *   0.87528734  *
    14       H          0.40648152  *   2.04863615  *  -0.77206075  *
    15       H          0.70847629  *  -1.98236890  *   0.72529061  *

                             CARTESIAN COORDINATES

   1    C        2.193866016     0.111099830    -0.143149622
   2    C        0.713846919     0.039879575    -0.036663022
   3    C       -0.071835310     1.131436075    -0.410771815
   4    C        0.097067706    -1.123523643     0.426814333
   5    C       -2.067602863    -0.104573437     0.135346792
   6    C       -1.457241746     1.057422164    -0.324876851
   7    C       -1.288625441    -1.193801298     0.511302858
   8    H        2.688027805    -0.520737976     0.606737565
   9    H        2.523009053    -0.232583757    -1.133464780
  10    H        2.564009155     1.136210875    -0.009450588
  11    H       -3.158696456    -0.161333439     0.202569788
  12    H       -2.068350988     1.916576998    -0.619815320
  13    H       -1.766922940    -2.108849068     0.875287338
  14    H        0.406481515     2.048636151    -0.772060754
  15    H        0.708476292    -1.982368896     0.725290606


           Empirical Formula: C7 H8  =    15 atoms



      MOLECULAR POINT GROUP   :   C1  


                  EIGENVALUES  
 -39.89803 -32.46631 -29.59883 -25.77146 -21.58761 -20.58555 -17.84517 -16.56395
 -15.15029 -14.61612 -14.56853 -14.43030 -13.23603 -12.70477 -12.51122 -12.25220
  -9.72142  -9.44257   0.37685   0.44522   2.83038   3.22591   3.48235   3.49263
   3.64811   3.96266   3.98260   4.25692   4.30085   4.47258   5.07114   5.17017
   5.30805   5.32367   6.17954   6.37890


              NET ATOMIC CHARGES AND DIPOLE CONTRIBUTIONS

  ATOM NO.   TYPE          CHARGE      No. of ELECS.   s-Pop       p-Pop       
    1          C          -0.064638        4.0646     1.12413     2.94051
    2          C          -0.074273        4.0743     1.18136     2.89291
    3          C          -0.104242        4.1042     1.17875     2.92549
    4          C          -0.104247        4.1042     1.17875     2.92550
    5          C          -0.108918        4.1089     1.17925     2.92967
    6          C          -0.097595        4.0976     1.17859     2.91901
    7          C          -0.097589        4.0976     1.17858     2.91901
    8          H           0.044447        0.9556     0.95555
    9          H           0.047298        0.9527     0.95270
   10          H           0.044449        0.9556     0.95555
   11          H           0.102420        0.8976     0.89758
   12          H           0.101553        0.8984     0.89845
   13          H           0.101554        0.8984     0.89845
   14          H           0.104891        0.8951     0.89511
   15          H           0.104889        0.8951     0.89511
 DIPOLE           X         Y         Z       TOTAL
 POINT-CHG.     0.252     0.005    -0.038     0.255
 HYBRID         0.006    -0.005    -0.015     0.017
 SUM            0.258    -0.000    -0.053     0.263


          ATOMIC ORBITAL ELECTRON POPULATIONS

     Atom    s        px        py        pz   
    1  C   1.12413   0.92165   1.01107   1.00780
    2  C   1.18136   0.95503   0.95133   0.98655
    3  C   1.17875   0.94691   0.97390   1.00469
    4  C   1.17875   0.95335   0.96805   1.00410
    5  C   1.17925   0.98191   0.94889   0.99887
    6  C   1.17859   0.95193   0.97290   0.99418
    7  C   1.17858   0.94695   0.97646   0.99559
    8  H   0.95555
    9  H   0.95270
   10  H   0.95555
   11  H   0.89758
   12  H   0.89845
   13  H   0.89845
   14  H   0.89511
   15  H   0.89511
 *******************************************************************************
 **                                                                           **
 **                              MOPAC v23.1.2                                **
 **                                                                           **
 *******************************************************************************
 **          Digital Object Identifier (DOI): 10.5281/zenodo.6511958          **
 **    Visit the DOI location for information on how to cite this program.    **
 *******************************************************************************

                              PM3 CALCULATION RESULTS

 *******************************************************************************
 *  CALCULATION DONE: (MAX THREADS = 1)              Tue Jun  3 16:28:13 2025  *
 *  PM3        - The PM3 Hamiltonian to be used
 *  OLDGEO     - PREVIOUS GEOMETRY TO BE USED
 *  PRECISE    - TIGHTER CRITERIA TO BE USED
 *  NOSYM      - POINT-GROUP SYMMETRY SET TO C1
 *  THREADS=1  - MULTI-THREADING NOT USED
 *  T=         - A TIME OF 172800.0 SECONDS REQUESTED
 *  DUMP=N     - RESTART FILE WRITTEN EVERY 7200.0 SECONDS REQUESTED
 *  THERMO     - THERMODYNAMIC QUANTITIES TO BE CALCULATED
 *******************************************************************************
oldgeo thermo nosym precise THREADS=1  pm3
 InChI=1S/C7H8/c1-7-5-3-2-4-6-7/h2-6H,1H3

   ATOM   CHEMICAL          X               Y               Z
  NUMBER   SYMBOL      (ANGSTROMS)     (ANGSTROMS)     (ANGSTROMS)

     1       C          2.19386602  *   0.11109983  *  -0.14314962  *
     2       C          0.71384692  *   0.03987958  *  -0.03666302  *
     3       C         -0.07183531  *   1.13143608  *  -0.41077181  *
     4       C          0.09706771  *  -1.12352364  *   0.42681433  *
     5       C         -2.06760286  *  -0.10457344  *   0.13534679  *
     6       C         -1.45724175  *   1.05742216  *  -0.32487685  *
     7       C         -1.28862544  *  -1.19380130  *   0.51130286  *
     8       H          2.68802780  *  -0.52073798  *   0.60673757  *
     9       H          2.52300905  *  -0.23258376  *  -1.13346478  *
    10       H          2.56400916  *   1.13621087  *  -0.00945059  *
    11       H         -3.15869646  *  -0.16133344  *   0.20256979  *
    12       H         -2.06835099  *   1.91657700  *  -0.61981532  *
    13       H         -1.76692294  *  -2.10884907  *   0.87528734  *
    14       H          0.40648152  *   2.04863615  *  -0.77206075  *
    15       H          0.70847629  *  -1.98236890  *   0.72529061  *



          CARTESIAN COORDINATES 

    NO.       ATOM           X           Y           Z

     1         C          2.1939      0.1111     -0.1431
     2         C          0.7138      0.0399     -0.0367
     3         C         -0.0718      1.1314     -0.4108
     4         C          0.0971     -1.1235      0.4268
     5         C         -2.0676     -0.1046      0.1353
     6         C         -1.4572      1.0574     -0.3249
     7         C         -1.2886     -1.1938      0.5113
     8         H          2.6880     -0.5207      0.6067
     9         H          2.5230     -0.2326     -1.1335
    10         H          2.5640      1.1362     -0.0095
    11         H         -3.1587     -0.1613      0.2026
    12         H         -2.0684      1.9166     -0.6198
    13         H         -1.7669     -2.1088      0.8753
    14         H          0.4065      2.0486     -0.7721
    15         H          0.7085     -1.9824      0.7253

  H: (PM3): J. J. P. STEWART, J. COMP. CHEM. 10, 209 (1989).
  C: (PM3): J. J. P. STEWART, J. COMP. CHEM. 10, 209 (1989).

           Empirical Formula: C7 H8  =    15 atoms



      MOLECULAR POINT GROUP   :   C1  


      RHF CALCULATION, NO. OF DOUBLY OCCUPIED LEVELS = 18



          HEAT OF FORMATION =      14.010236 KCALS/MOLE


          CARTESIAN COORDINATE DERIVATIVES

   NUMBER  ATOM         X            Y            Z

     1       C     -0.000823     0.001225     0.000192
     2       C     -0.011751    -0.004969    -0.000699
     3       C      0.013013    -0.001936    -0.003623
     4       C     -0.007287    -0.002743     0.001934
     5       C      0.006946    -0.007737     0.005257
     6       C     -0.000790    -0.007173     0.003628
     7       C      0.006285    -0.000510    -0.002851
     8       H     -0.002383    -0.002535     0.003176
     9       H     -0.007595    -0.003708     0.003675
    10       H     -0.003165    -0.000505     0.000182
    11       H      0.018432    -0.001024     0.004010
    12       H     -0.009457     0.004594    -0.005765
    13       H     -0.003754     0.007885    -0.001922
    14       H      0.000909     0.008586    -0.001873
    15       H      0.001418     0.010549    -0.005322



          GRADIENT NORM =   0.03978

          MOLECULAR WEIGHT =   92.14



          ROTATIONAL CONSTANTS IN CM(-1)

          A =    0.18404413   B =    0.08546905   C =    0.05901157



           PRINCIPAL MOMENTS OF INERTIA IN UNITS OF 10**(-40)*GRAM-CM**2

          A =      152.0980   B =      327.5192   C =      474.3604


          ORIENTATION OF MOLECULE IN FORCE CALCULATION

    NO.       ATOM         X         Y         Z

     1          C      -2.4267    0.0000   -0.0124
     2          C      -0.9411    0.0000   -0.0124
     3          C      -0.2375    1.2057   -0.0124
     4          C      -0.2376   -1.2057   -0.0001
     5          C       1.8492    0.0000    0.0176
     6          C       1.1524    1.2037    0.0031
     7          C       1.1523   -1.2037    0.0154
     8          H      -2.8350   -0.8885   -0.5121
     9          H      -2.8091    0.0048    1.0176
    10          H      -2.8350    0.8837   -0.5205
    11          H       2.9438    0.0000    0.0297
    12          H       1.6989    2.1523    0.0032
    13          H       1.6988   -2.1523    0.0253
    14          H      -0.7839    2.1553   -0.0255
    15          H      -0.7842   -2.1553   -0.0036


    FIRST DERIVATIVES WILL BE USED IN THE CALCULATION OF SECOND DERIVATIVES

          ESTIMATED TIME TO COMPLETE CALCULATION =        0.70 SECONDS

    FOR POINT-GROUP C1   THERE ARE   1 UNIQUE SYMMETRY FUNCTIONS.

 STEP:   1 TIME =     0.01 SECS, INTEGRAL =      0.01 TIME LEFT: 172799.99
 STEP:   2 TIME =     0.01 SECS, INTEGRAL =      0.02 TIME LEFT: 172799.98
 STEP:   3 TIME =     0.01 SECS, INTEGRAL =      0.03 TIME LEFT: 172799.97
 STEP:   4 TIME =     0.01 SECS, INTEGRAL =      0.04 TIME LEFT: 172799.96
 STEP:   5 TIME =     0.02 SECS, INTEGRAL =      0.05 TIME LEFT: 172799.94
 STEP:   6 TIME =     0.01 SECS, INTEGRAL =      0.07 TIME LEFT: 172799.93
 STEP:   7 TIME =     0.02 SECS, INTEGRAL =      0.08 TIME LEFT: 172799.91
 STEP:   8 TIME =     0.01 SECS, INTEGRAL =      0.09 TIME LEFT: 172799.90
 STEP:   9 TIME =     0.02 SECS, INTEGRAL =      0.11 TIME LEFT: 172799.89
 STEP:  10 TIME =     0.01 SECS, INTEGRAL =      0.12 TIME LEFT: 172799.88
 STEP:  11 TIME =     0.01 SECS, INTEGRAL =      0.13 TIME LEFT: 172799.86
 STEP:  12 TIME =     0.01 SECS, INTEGRAL =      0.14 TIME LEFT: 172799.85
 STEP:  13 TIME =     0.01 SECS, INTEGRAL =      0.15 TIME LEFT: 172799.84
 STEP:  14 TIME =     0.01 SECS, INTEGRAL =      0.16 TIME LEFT: 172799.83
 STEP:  15 TIME =     0.02 SECS, INTEGRAL =      0.18 TIME LEFT: 172799.82
 STEP:  16 TIME =     0.01 SECS, INTEGRAL =      0.19 TIME LEFT: 172799.80
 STEP:  17 TIME =     0.02 SECS, INTEGRAL =      0.21 TIME LEFT: 172799.79
 STEP:  18 TIME =     0.01 SECS, INTEGRAL =      0.22 TIME LEFT: 172799.78
 STEP:  19 TIME =     0.02 SECS, INTEGRAL =      0.23 TIME LEFT: 172799.76
 STEP:  20 TIME =     0.01 SECS, INTEGRAL =      0.25 TIME LEFT: 172799.75
 STEP:  21 TIME =     0.01 SECS, INTEGRAL =      0.26 TIME LEFT: 172799.74
 STEP:  22 TIME =     0.01 SECS, INTEGRAL =      0.27 TIME LEFT: 172799.73
 STEP:  23 TIME =     0.01 SECS, INTEGRAL =      0.28 TIME LEFT: 172799.71
 STEP:  24 TIME =     0.01 SECS, INTEGRAL =      0.29 TIME LEFT: 172799.70
 STEP:  25 TIME =     0.01 SECS, INTEGRAL =      0.30 TIME LEFT: 172799.69
 STEP:  26 TIME =     0.01 SECS, INTEGRAL =      0.32 TIME LEFT: 172799.68
 STEP:  27 TIME =     0.01 SECS, INTEGRAL =      0.33 TIME LEFT: 172799.67
 STEP:  28 TIME =     0.01 SECS, INTEGRAL =      0.34 TIME LEFT: 172799.66
 STEP:  29 TIME =     0.01 SECS, INTEGRAL =      0.35 TIME LEFT: 172799.64
 STEP:  30 TIME =     0.01 SECS, INTEGRAL =      0.36 TIME LEFT: 172799.63
 STEP:  31 TIME =     0.01 SECS, INTEGRAL =      0.37 TIME LEFT: 172799.62
 STEP:  32 TIME =     0.01 SECS, INTEGRAL =      0.38 TIME LEFT: 172799.61
 STEP:  33 TIME =     0.01 SECS, INTEGRAL =      0.39 TIME LEFT: 172799.60
 STEP:  34 TIME =     0.01 SECS, INTEGRAL =      0.41 TIME LEFT: 172799.59
 STEP:  35 TIME =     0.01 SECS, INTEGRAL =      0.41 TIME LEFT: 172799.58
 STEP:  36 TIME =     0.01 SECS, INTEGRAL =      0.43 TIME LEFT: 172799.57
 STEP:  37 TIME =     0.01 SECS, INTEGRAL =      0.44 TIME LEFT: 172799.56
 STEP:  38 TIME =     0.01 SECS, INTEGRAL =      0.45 TIME LEFT: 172799.55
 STEP:  39 TIME =     0.01 SECS, INTEGRAL =      0.46 TIME LEFT: 172799.54
 STEP:  40 TIME =     0.01 SECS, INTEGRAL =      0.47 TIME LEFT: 172799.52
 STEP:  41 TIME =     0.01 SECS, INTEGRAL =      0.48 TIME LEFT: 172799.51
 STEP:  42 TIME =     0.01 SECS, INTEGRAL =      0.50 TIME LEFT: 172799.50
 STEP:  43 TIME =     0.01 SECS, INTEGRAL =      0.51 TIME LEFT: 172799.49
 STEP:  44 TIME =     0.01 SECS, INTEGRAL =      0.52 TIME LEFT: 172799.48
 STEP:  45 TIME =     0.01 SECS, INTEGRAL =      0.53 TIME LEFT: 172799.46

(To convert to Hartree/Bohr^2, multiply by (10^(-21) x N x a0^2)/(4.184 x 627.51) =  0.0642)


           FORCE MATRIX IN MILLIDYNES/ANGSTROM


                  C  1       C  2       C  3       C  4       C  5       C  6
 ------------------------------------------------------------------------------
     C    1  14.735131
     C    2   5.042619  17.610194
     C    3   0.730618   6.741920  17.327601
     C    4   0.730778   6.742383   2.448550  17.328747
     C    5   0.017410   1.898313   2.543203   2.543204  17.253451
     C    6   0.098106   2.516797   7.021279   1.864378   7.004896  17.276439
     C    7   0.097789   2.516873   1.864481   7.021736   7.005486   2.538805
     H    8   4.729329   0.463421   0.042095   0.042315   0.002759   0.010792
     H    9   4.694672   0.437324   0.023030   0.023027   0.005348   0.013485
     H   10   4.729504   0.463436   0.042299   0.042117   0.002756   0.005071
     H   11   0.009043   0.009112   0.088994   0.088809   4.867896   0.440504
     H   12   0.008334   0.093045   0.437586   0.011008   0.439163   4.862805
     H   13   0.008259   0.092688   0.011056   0.437609   0.439196   0.089616
     H   14   0.045957   0.449949   4.832845   0.083833   0.090345   0.438250
     H   15   0.046005   0.449979   0.084071   4.833394   0.090400   0.010752


                  C  7       H  8       H  9       H 10       H 11       H 12
 ------------------------------------------------------------------------------
     C    7  17.277972
     H    8   0.005044   5.450592
     H    9   0.013376   0.571056   5.412398
     H   10   0.010752   0.564030   0.570938   5.450725
     H   11   0.440491   0.000562   0.001238   0.000561   5.235349
     H   12   0.089534   0.001240   0.000843   0.000541   0.041237   5.228191
     H   13   4.863163   0.000535   0.000812   0.001238   0.041108   0.007092
     H   14   0.010759   0.003015   0.005357   0.027489   0.006903   0.042304
     H   15   0.438268   0.027494   0.005356   0.003012   0.006890   0.008018


                  H 13       H 14       H 15
 ------------------------------------------
     H   13   5.228466
     H   14   0.007878   5.206558
     H   15   0.042161   0.006965   5.207028


          HEAT OF FORMATION =      14.010236 KCALS/MOLE

          ZERO POINT ENERGY      79.594 KCAL/MOL


           NORMAL COORDINATE ANALYSIS (Total motion = 1 Angstrom)


   Root No.       1         2         3         4         5         6         7         8

                 1 A       2 A       3 A       4 A       5 A       6 A       7 A       8 A   

                  68.6     193.3     356.2     372.6     449.6     542.0     629.3     633.8
  
           1   -0.0000    0.0006    0.0000    0.0000   -0.0037    0.0930    0.0000   -0.0016
           2    0.0054    0.0003   -0.0089    0.0743   -0.0000   -0.0000   -0.0172   -0.0000
           3   -0.0000    0.0653    0.0001   -0.0004   -0.0091   -0.0020    0.0001   -0.0054
           4   -0.0000    0.0003    0.0000    0.0000   -0.0025    0.0677    0.0000   -0.0015
           5   -0.0047   -0.0002    0.0063   -0.0509    0.0004    0.0000   -0.0347   -0.0003
           6   -0.0000   -0.0398   -0.0004    0.0002    0.0764    0.0035    0.0002   -0.0543
           7   -0.0019    0.0003    0.0030   -0.0194    0.0008   -0.0150    0.0709   -0.0003
           8   -0.0028   -0.0002    0.0044   -0.0395   -0.0013    0.0465   -0.0641   -0.0013
           9    0.0118   -0.0583   -0.0618   -0.0070   -0.0021    0.0019    0.0011    0.0280
          10    0.0019    0.0003   -0.0030    0.0193    0.0008   -0.0150   -0.0709   -0.0003
          11   -0.0029   -0.0004    0.0050   -0.0394    0.0013   -0.0465   -0.0641    0.0016
          12   -0.0118   -0.0583    0.0617    0.0074   -0.0017    0.0024   -0.0005    0.0278
          13    0.0000   -0.0011   -0.0000    0.0000    0.0019   -0.0886   -0.0000    0.0026
          14    0.0011    0.0003   -0.0022    0.0190    0.0003    0.0000    0.0413    0.0001
          15    0.0000    0.0634   -0.0002   -0.0001    0.0509    0.0034   -0.0002    0.0271
          16   -0.0026   -0.0003    0.0024   -0.0253    0.0015   -0.0256    0.0761    0.0007
          17    0.0004    0.0000   -0.0002    0.0041   -0.0012    0.0396    0.0736   -0.0017
          18    0.0121    0.0021    0.0623    0.0051   -0.0401   -0.0043    0.0004   -0.0305
          19    0.0026   -0.0004   -0.0024    0.0253    0.0015   -0.0256   -0.0761    0.0007
          20    0.0003   -0.0000   -0.0008    0.0041    0.0008   -0.0397    0.0736    0.0014
          21   -0.0120    0.0021   -0.0619   -0.0051   -0.0404   -0.0039   -0.0012   -0.0304
          22   -0.0154   -0.0408    0.0115   -0.0882    0.0389    0.0936   -0.0044   -0.0312
          23   -0.1252    0.0001   -0.0157    0.1306    0.0009    0.0003   -0.0176   -0.0008
          24    0.2451    0.1001    0.0024   -0.0240   -0.0471   -0.0029    0.0024    0.0216
          25    0.0001    0.0861    0.0004   -0.0000   -0.0952    0.1030   -0.0000    0.0638
          26    0.2963    0.0003   -0.0126    0.0929   -0.0002    0.0000   -0.0165    0.0001
          27   -0.0013    0.0976    0.0003   -0.0005   -0.0441    0.0013    0.0001    0.0196
          28    0.0153   -0.0408   -0.0119    0.0882    0.0388    0.0936    0.0044   -0.0312
          29   -0.1275    0.0010   -0.0158    0.1308   -0.0014   -0.0004   -0.0176    0.0011
          30   -0.2438    0.1003   -0.0019    0.0227   -0.0472   -0.0029   -0.0022    0.0216
          31    0.0000   -0.0020   -0.0000    0.0000    0.0009   -0.0885   -0.0000    0.0012
          32    0.0035    0.0008   -0.0055    0.0459    0.0007    0.0001   -0.0652    0.0007
          33    0.0000    0.1477   -0.0004   -0.0003    0.1421    0.0120    0.0003    0.1454
          34   -0.0044   -0.0004    0.0046   -0.0539    0.0017    0.0141    0.0439   -0.0005
          35    0.0014    0.0000   -0.0014    0.0203   -0.0013    0.0161    0.0918   -0.0010
          36    0.0216    0.0127    0.1697    0.0149   -0.1398   -0.0145    0.0000   -0.0663
          37    0.0044   -0.0004   -0.0046    0.0539    0.0018    0.0141   -0.0439   -0.0005
          38    0.0012    0.0001   -0.0032    0.0202   -0.0002   -0.0163    0.0918    0.0003
          39   -0.0216    0.0127   -0.1687   -0.0150   -0.1412   -0.0144   -0.0010   -0.0665
          40   -0.0060    0.0008    0.0076   -0.0422    0.0036   -0.0598    0.0374   -0.0023
          41   -0.0053   -0.0004    0.0055   -0.0518   -0.0005    0.0207   -0.0831   -0.0004
          42    0.0206   -0.0953   -0.1682   -0.0170   -0.0639    0.0036    0.0009    0.1873
          43    0.0060    0.0008   -0.0077    0.0422    0.0036   -0.0598   -0.0374   -0.0023
          44   -0.0055   -0.0005    0.0073   -0.0516   -0.0002   -0.0206   -0.0831    0.0023
          45   -0.0207   -0.0955    0.1694    0.0176   -0.0630    0.0038   -0.0000    0.1879


   Root No.       9        10        11        12        13        14        15        16

                 9 A      10 A      11 A      12 A      13 A      14 A      15 A      16 A   

                 759.8     846.6     867.0     907.3     976.1     991.9     998.4    1033.8
  
           1   -0.0008   -0.0000    0.0702   -0.0065   -0.0000    0.0000    0.0019    0.0051
           2    0.0000   -0.0000   -0.0000   -0.0001    0.0008   -0.0581    0.0002   -0.0002
           3    0.0074    0.0001   -0.0059   -0.0207   -0.0001    0.0003    0.0290   -0.0310
           4    0.0008    0.0000    0.0047   -0.0022   -0.0000    0.0000    0.0030   -0.0066
           5    0.0001   -0.0003    0.0000   -0.0000   -0.0001   -0.0103   -0.0001    0.0002
           6    0.0251    0.0001    0.0061   -0.0068    0.0001    0.0000   -0.0247    0.0452
           7    0.0007   -0.0003   -0.0335    0.0026   -0.0005    0.0014   -0.0017    0.0058
           8    0.0006    0.0001   -0.0067   -0.0005   -0.0002    0.0191    0.0040   -0.0219
           9   -0.0154    0.0326    0.0033    0.0350    0.0459   -0.0002   -0.0061   -0.0293
          10    0.0007    0.0004   -0.0335    0.0026    0.0005   -0.0014   -0.0017    0.0058
          11   -0.0008   -0.0002    0.0068    0.0008   -0.0006    0.0191   -0.0041    0.0216
          12   -0.0155   -0.0330    0.0032    0.0350   -0.0457    0.0000   -0.0064   -0.0295
          13   -0.0016   -0.0000    0.0653   -0.0050   -0.0000    0.0000    0.0030   -0.0063
          14   -0.0001    0.0001   -0.0000   -0.0002    0.0003   -0.0055   -0.0002   -0.0001
          15   -0.0245    0.0002   -0.0047   -0.0345    0.0000    0.0000   -0.0484   -0.0214
          16    0.0007   -0.0005   -0.0402    0.0039    0.0003    0.0018   -0.0023    0.0025
          17    0.0014    0.0003   -0.0656    0.0057   -0.0004    0.0073   -0.0031    0.0103
          18   -0.0163    0.0321   -0.0019   -0.0041   -0.0465   -0.0007    0.0359    0.0237
          19    0.0007    0.0006   -0.0402    0.0039   -0.0003   -0.0018   -0.0023    0.0025
          20   -0.0015   -0.0001    0.0656   -0.0058    0.0000    0.0073    0.0035   -0.0100
          21   -0.0163   -0.0320   -0.0027   -0.0045    0.0463    0.0007    0.0361    0.0239
          22    0.0311   -0.0010    0.0750   -0.0677    0.0026   -0.2803    0.0702   -0.0587
          23    0.0014    0.0009   -0.0048   -0.0029   -0.0005    0.0813    0.0046   -0.0061
          24   -0.0227   -0.0004    0.0019    0.0371    0.0002   -0.0089   -0.0385    0.0361
          25   -0.0720   -0.0005    0.1256    0.1260    0.0009   -0.0003   -0.1580    0.1747
          26   -0.0001    0.0006    0.0001    0.0001   -0.0006    0.0748   -0.0002    0.0002
          27   -0.0201   -0.0001    0.0136    0.0307    0.0002   -0.0004   -0.0326    0.0337
          28    0.0311    0.0013    0.0749   -0.0676   -0.0034    0.2805    0.0698   -0.0585
          29   -0.0017    0.0008    0.0048    0.0033   -0.0005    0.0814   -0.0051    0.0064
          30   -0.0227    0.0001    0.0018    0.0371    0.0003    0.0080   -0.0385    0.0361
          31   -0.0040   -0.0000    0.0647   -0.0075   -0.0000    0.0000    0.0006   -0.0079
          32    0.0010    0.0006    0.0002    0.0010    0.0016   -0.0288    0.0010    0.0003
          33    0.1941   -0.0009    0.0335    0.1973   -0.0004    0.0002    0.1847    0.0612
          34   -0.0001    0.0021   -0.1060    0.0087   -0.0036    0.0426    0.0034   -0.0426
          35    0.0018   -0.0012   -0.0300    0.0032    0.0018   -0.0155   -0.0064    0.0362
          36    0.1914   -0.2150    0.0130    0.0161    0.2037    0.0032   -0.1375   -0.0688
          37   -0.0002   -0.0020   -0.1060    0.0087    0.0036   -0.0426    0.0034   -0.0426
          38    0.0001    0.0010    0.0301   -0.0030   -0.0003   -0.0155    0.0050   -0.0370
          39    0.1914    0.2143    0.0133    0.0184   -0.2026   -0.0032   -0.1385   -0.0688
          40   -0.0008    0.0042   -0.0208    0.0039    0.0047    0.0297    0.0054   -0.0337
          41    0.0010   -0.0007    0.0004   -0.0026   -0.0005    0.0364    0.0086   -0.0437
          42    0.0750   -0.2170   -0.0234   -0.1648   -0.2006   -0.0019    0.0088    0.0949
          43   -0.0008   -0.0042   -0.0208    0.0038   -0.0047   -0.0297    0.0054   -0.0337
          44   -0.0003    0.0015   -0.0007    0.0009    0.0015    0.0364   -0.0085    0.0447
          45    0.0753    0.2184   -0.0229   -0.1641    0.1984    0.0015    0.0097    0.0941


   Root No.      17        18        19        20        21        22        23        24

                17 A      18 A      19 A      20 A      21 A      22 A      23 A      24 A   

                1044.9    1103.2    1117.2    1153.2    1155.6    1224.7    1325.3    1339.7
  
           1    0.0208   -0.0000   -0.0208   -0.0001    0.0066   -0.0000    0.0107    0.0000
           2    0.0001   -0.0058    0.0000    0.0029    0.0000    0.0085   -0.0000   -0.0158
           3    0.0173    0.0000   -0.0006   -0.0000    0.0027   -0.0000   -0.0077    0.0001
           4   -0.0090    0.0000    0.0271    0.0000   -0.0010   -0.0000    0.0545    0.0000
           5   -0.0001    0.0096   -0.0000   -0.0124   -0.0001   -0.0190    0.0000    0.1003
           6   -0.0217   -0.0001    0.0005    0.0001   -0.0016    0.0001    0.0016   -0.0005
           7    0.0109    0.0195   -0.0132    0.0052   -0.0036   -0.0210    0.0259   -0.0847
           8   -0.0490   -0.0128    0.0387    0.0018   -0.0185   -0.0127   -0.0077   -0.0443
           9    0.0126   -0.0001   -0.0002    0.0001    0.0008   -0.0003    0.0002   -0.0004
          10    0.0109   -0.0195   -0.0132   -0.0051   -0.0037    0.0210    0.0259    0.0847
          11    0.0492   -0.0128   -0.0387    0.0015    0.0186   -0.0127    0.0077   -0.0444
          12    0.0121    0.0002    0.0002   -0.0002    0.0006    0.0004    0.0002    0.0009
          13   -0.0126    0.0000    0.0522    0.0000   -0.0048   -0.0000   -0.0336    0.0000
          14    0.0000    0.0111   -0.0000    0.0020    0.0000    0.0264    0.0000    0.0966
          15    0.0065   -0.0001    0.0007   -0.0000   -0.0000   -0.0001   -0.0004   -0.0005
          16    0.0021   -0.0044    0.0090   -0.0001    0.0023   -0.0126   -0.0135    0.0884
          17    0.0196   -0.0158    0.0180    0.0044   -0.0118    0.0091   -0.0357   -0.0508
          18   -0.0082    0.0002   -0.0001   -0.0001   -0.0001   -0.0001    0.0001    0.0013
          19    0.0021    0.0044    0.0090    0.0000    0.0023    0.0126   -0.0135   -0.0884
          20   -0.0197   -0.0158   -0.0180    0.0042    0.0119    0.0091    0.0357   -0.0508
          21   -0.0081   -0.0000    0.0001    0.0000   -0.0003    0.0000   -0.0003   -0.0007
          22    0.0725   -0.0143   -0.0581    0.0117    0.0097    0.0347   -0.1648   -0.0513
          23    0.0006   -0.0012    0.0111   -0.0026    0.0043   -0.0104    0.0265    0.0289
          24   -0.0267    0.0021    0.0051   -0.0002   -0.0089    0.0028    0.0682   -0.0250
          25   -0.0538   -0.0000   -0.0495    0.0000   -0.0002    0.0000   -0.1721   -0.0001
          26   -0.0001   -0.0010   -0.0000   -0.0034   -0.0000   -0.0098   -0.0003    0.0725
          27   -0.0128   -0.0000   -0.0093    0.0000   -0.0007    0.0001   -0.0601   -0.0004
          28    0.0724    0.0143   -0.0582   -0.0119    0.0094   -0.0347   -0.1648    0.0513
          29   -0.0008   -0.0012   -0.0110   -0.0025   -0.0044   -0.0104   -0.0259    0.0292
          30   -0.0267   -0.0021    0.0052    0.0003   -0.0088   -0.0027    0.0685    0.0247
          31   -0.0140    0.0000    0.0557    0.0000   -0.0036   -0.0000   -0.0389    0.0000
          32   -0.0001    0.2890   -0.0002    0.2799    0.0023   -0.1279    0.0000    0.0454
          33   -0.0172   -0.0015    0.0005   -0.0014    0.0000    0.0007   -0.0005   -0.0002
          34   -0.1243   -0.0924   -0.0768    0.2110    0.1901    0.1188   -0.0593    0.0192
          35    0.0922    0.0357    0.0697   -0.1159   -0.1222   -0.0661   -0.0154   -0.0110
          36    0.0196   -0.0018   -0.0009    0.0032    0.0033    0.0015   -0.0006    0.0000
          37   -0.1244    0.0925   -0.0769   -0.2144    0.1862   -0.1188   -0.0593   -0.0193
          38   -0.0920    0.0358   -0.0697   -0.1181    0.1200   -0.0661    0.0154   -0.0110
          39    0.0207    0.0015   -0.0002   -0.0021    0.0021   -0.0008   -0.0007    0.0001
          40   -0.0652    0.1731   -0.1666   -0.0712   -0.1848    0.1673   -0.0068   -0.0462
          41   -0.0951    0.0737   -0.0455   -0.0431   -0.1245    0.0941   -0.0311   -0.0214
          42   -0.0411    0.0040   -0.0033   -0.0013   -0.0050    0.0029    0.0009   -0.0011
          43   -0.0652   -0.1734   -0.1665    0.0745   -0.1833   -0.1671   -0.0068    0.0462
          44    0.0947    0.0739    0.0455   -0.0453    0.1237    0.0941    0.0311   -0.0214
          45   -0.0419   -0.0047   -0.0037    0.0019   -0.0062   -0.0039    0.0005    0.0013


   Root No.      25        26        27        28        29        30        31        32

                25 A      26 A      27 A      28 A      29 A      30 A      31 A      32 A   

                1393.2    1394.8    1429.1    1542.4    1610.7    1781.4    1799.9    3053.4
  
           1    0.0002    0.0320    0.0659   -0.0000   -0.0511    0.0000    0.0203   -0.0000
           2   -0.0417    0.0001    0.0001   -0.0117   -0.0000    0.0083    0.0000   -0.0007
           3   -0.0001   -0.0316    0.0131    0.0001   -0.0009   -0.0000    0.0005    0.0005
           4   -0.0002   -0.0245   -0.0291   -0.0000    0.1143   -0.0000   -0.0936    0.0003
           5   -0.0047    0.0000    0.0000    0.0776    0.0000   -0.1394    0.0000    0.0014
           6    0.0000   -0.0009    0.0011   -0.0004    0.0007    0.0007   -0.0007   -0.0000
           7    0.0045   -0.0154   -0.0237    0.0587   -0.0173    0.0396    0.1272    0.0150
           8    0.0016   -0.0049   -0.0127   -0.0264   -0.0503    0.0734    0.0452   -0.0272
           9   -0.0000   -0.0002   -0.0003    0.0008    0.0002   -0.0000    0.0011    0.0004
          10   -0.0048   -0.0153   -0.0237   -0.0587   -0.0173   -0.0396    0.1272   -0.0074
          11    0.0017    0.0049    0.0127   -0.0264    0.0503    0.0734   -0.0452   -0.0131
          12   -0.0000   -0.0003   -0.0004   -0.0005   -0.0003   -0.0007    0.0016   -0.0000
          13    0.0001    0.0173    0.0245   -0.0000    0.0545    0.0000    0.0502   -0.0055
          14   -0.0055    0.0000   -0.0000    0.0742    0.0000    0.1415   -0.0000   -0.0007
          15    0.0000    0.0002    0.0003   -0.0004    0.0007   -0.0007    0.0005   -0.0001
          16   -0.0045    0.0026    0.0009   -0.0607   -0.0613    0.0368   -0.1165    0.0093
          17    0.0032    0.0190    0.0281   -0.0246    0.0484   -0.0749    0.0364    0.0179
          18   -0.0000   -0.0002   -0.0001   -0.0006   -0.0009    0.0008   -0.0015   -0.0000
          19    0.0046    0.0026    0.0010    0.0608   -0.0613   -0.0368   -0.1165   -0.0024
          20    0.0029   -0.0190   -0.0281   -0.0246   -0.0484   -0.0750   -0.0364    0.0055
          21    0.0000    0.0000    0.0002    0.0008   -0.0004   -0.0001   -0.0011   -0.0000
          22    0.1307    0.0236   -0.1677   -0.0380    0.0141    0.0378   -0.0021    0.0005
          23    0.0442   -0.1388    0.1328    0.0069   -0.0220   -0.0097    0.0084    0.0004
          24   -0.2082    0.2334   -0.0689   -0.0010   -0.0044   -0.0026   -0.0015    0.0009
          25   -0.0012   -0.1560   -0.0741   -0.0000    0.0143    0.0000   -0.0004    0.0015
          26    0.4079   -0.0027   -0.0001    0.0070    0.0001   -0.0043   -0.0000   -0.0003
          27   -0.0025   -0.0737   -0.0351   -0.0000    0.0177    0.0000   -0.0034   -0.0041
          28   -0.1302    0.0251   -0.1678    0.0380    0.0141   -0.0378   -0.0021   -0.0031
          29    0.0484    0.1404   -0.1335    0.0069    0.0220   -0.0097   -0.0084    0.0053
          30    0.2114    0.2297   -0.0675    0.0009   -0.0046    0.0027   -0.0014   -0.0033
          31    0.0001    0.0202    0.0289   -0.0000    0.0646    0.0000    0.0593    0.0640
          32   -0.0008    0.0000   -0.0000   -0.1279   -0.0000   -0.0571    0.0000    0.0019
          33    0.0000    0.0004    0.0002    0.0007    0.0006    0.0003    0.0008    0.0007
          34    0.0001    0.0364    0.0530    0.0256    0.0841   -0.0510    0.0218   -0.1173
          35    0.0006    0.0027    0.0028   -0.0854   -0.0327   -0.0344   -0.0489   -0.2070
          36    0.0002    0.0004    0.0006    0.0009    0.0011   -0.0004    0.0006   -0.0000
          37    0.0005    0.0364    0.0530   -0.0256    0.0841    0.0510    0.0218    0.0345
          38    0.0006   -0.0027   -0.0028   -0.0854    0.0327   -0.0343    0.0489   -0.0627
          39   -0.0002    0.0004    0.0006    0.0000    0.0008    0.0007    0.0001    0.0006
          40    0.0068    0.0116    0.0438   -0.0311    0.0982   -0.0479   -0.0392   -0.1764
          41    0.0026    0.0123    0.0266   -0.0878    0.0061    0.0311   -0.0545    0.3117
          42    0.0003    0.0004    0.0016   -0.0002    0.0008   -0.0005    0.0001   -0.0042
          43   -0.0066    0.0116    0.0438    0.0311    0.0982    0.0479   -0.0392    0.0868
          44    0.0024   -0.0123   -0.0266   -0.0878   -0.0062    0.0311    0.0545    0.1528
          45   -0.0004    0.0005    0.0018    0.0011    0.0008    0.0002   -0.0005    0.0005


   Root No.      33        34        35        36        37        38        39

                33 A      34 A      35 A      36 A      37 A      38 A      39 A   

                3053.6    3061.8    3068.8    3069.6    3077.4    3080.2    3170.6
  
           1    0.0000    0.0000   -0.0000   -0.0002    0.0000   -0.0001    0.0248
           2   -0.0003   -0.0000   -0.0011   -0.0004   -0.0560   -0.0000    0.0000
           3   -0.0012   -0.0023   -0.0001   -0.0480    0.0004   -0.0010    0.0013
           4   -0.0006   -0.0011   -0.0000    0.0004   -0.0000    0.0009    0.0004
           5    0.0005    0.0000    0.0012   -0.0000   -0.0004   -0.0000    0.0000
           6   -0.0000   -0.0000   -0.0000   -0.0001    0.0000    0.0000    0.0000
           7   -0.0036   -0.0087    0.0083    0.0008   -0.0000    0.0054   -0.0003
           8    0.0072    0.0149   -0.0123   -0.0016    0.0009   -0.0077    0.0001
           9   -0.0001   -0.0002    0.0002   -0.0001   -0.0000    0.0001    0.0000
          10   -0.0125   -0.0088   -0.0083    0.0008    0.0000    0.0054   -0.0003
          11   -0.0231   -0.0150   -0.0124    0.0017    0.0009    0.0078   -0.0001
          12   -0.0001   -0.0001   -0.0001   -0.0001    0.0000    0.0000    0.0000
          13    0.0122   -0.0249   -0.0002    0.0022    0.0000   -0.0255   -0.0000
          14   -0.0003   -0.0000    0.0020   -0.0000    0.0000   -0.0000    0.0000
          15    0.0001   -0.0003   -0.0000    0.0000   -0.0000   -0.0003   -0.0000
          16   -0.0052    0.0057   -0.0131    0.0002    0.0003   -0.0093    0.0001
          17   -0.0090    0.0069   -0.0215    0.0007    0.0005   -0.0174   -0.0000
          18   -0.0000    0.0000   -0.0000   -0.0000   -0.0000    0.0000   -0.0000
          19   -0.0098    0.0055    0.0131    0.0001   -0.0003   -0.0094    0.0001
          20    0.0183   -0.0065   -0.0215   -0.0005    0.0005    0.0176    0.0000
          21   -0.0002    0.0001    0.0002   -0.0000    0.0000   -0.0002   -0.0000
          22    0.0035    0.0048    0.0033    0.0763    0.1599    0.0010   -0.1050
          23    0.0064    0.0098    0.0065    0.1791    0.3482    0.0030   -0.2723
          24    0.0034    0.0046    0.0041    0.0765    0.2129    0.0011   -0.1536
          25   -0.0032   -0.0068   -0.0004   -0.1513    0.0005   -0.0032   -0.0882
          26   -0.0001    0.0001   -0.0005    0.0019   -0.0289    0.0000    0.0014
          27    0.0089    0.0190    0.0012    0.4223   -0.0014    0.0090    0.2936
          28    0.0021    0.0047   -0.0028    0.0755   -0.1604    0.0010   -0.1051
          29   -0.0041   -0.0098    0.0055   -0.1766    0.3473   -0.0030    0.2709
          30    0.0018    0.0047   -0.0037    0.0771   -0.2167    0.0012   -0.1562
          31   -0.1427    0.2895    0.0028   -0.0250   -0.0000    0.2763    0.0004
          32    0.0007    0.0000   -0.0032    0.0000    0.0001    0.0000    0.0000
          33   -0.0016    0.0032    0.0000   -0.0002   -0.0000    0.0030    0.0000
          34    0.0606   -0.0526    0.1424   -0.0035   -0.0032    0.1051   -0.0001
          35    0.1046   -0.0858    0.2455   -0.0067   -0.0054    0.1844   -0.0000
          36    0.0000   -0.0000    0.0000    0.0000    0.0000    0.0000    0.0000
          37    0.1207   -0.0504   -0.1422   -0.0026    0.0032    0.1060   -0.0001
          38   -0.2113    0.0818    0.2450    0.0051   -0.0054   -0.1860    0.0000
          39    0.0022   -0.0009   -0.0026   -0.0000    0.0001    0.0019    0.0000
          40    0.0440    0.0969   -0.0821   -0.0102    0.0063   -0.0491    0.0022
          41   -0.0784   -0.1683    0.1405    0.0172   -0.0085    0.0836   -0.0028
          42    0.0011    0.0023   -0.0019   -0.0002    0.0004   -0.0011    0.0002
          43    0.1480    0.0974    0.0830   -0.0108   -0.0063   -0.0498    0.0022
          44    0.2619    0.1691    0.1420   -0.0184   -0.0084   -0.0847    0.0028
          45    0.0008    0.0006    0.0005    0.0000   -0.0003   -0.0003    0.0002


           MASS-WEIGHTED COORDINATE ANALYSIS (NORMAL COORDINATES)


   Root No.       1         2         3         4         5         6         7         8

                 1 A       2 A       3 A       4 A       5 A       6 A       7 A       8 A   

                  68.6     193.3     356.2     372.6     449.6     542.0     629.3     633.8
  
           1   -0.0000    0.0039    0.0001    0.0000   -0.0270    0.5028    0.0000   -0.0125
           2    0.0373    0.0021   -0.0559    0.5206   -0.0003   -0.0001   -0.0790   -0.0002
           3   -0.0000    0.4264    0.0006   -0.0026   -0.0660   -0.0107    0.0004   -0.0425
           4   -0.0000    0.0019    0.0000    0.0000   -0.0178    0.3660    0.0000   -0.0119
           5   -0.0328   -0.0013    0.0395   -0.3567    0.0028    0.0001   -0.1595   -0.0022
           6   -0.0000   -0.2601   -0.0023    0.0016    0.5538    0.0192    0.0008   -0.4267
           7   -0.0129    0.0021    0.0188   -0.1356    0.0060   -0.0812    0.3253   -0.0022
           8   -0.0195   -0.0013    0.0276   -0.2768   -0.0096    0.2514   -0.2942   -0.0105
           9    0.0813   -0.3809   -0.3894   -0.0492   -0.0152    0.0104    0.0052    0.2199
          10    0.0129    0.0022   -0.0188    0.1356    0.0060   -0.0812   -0.3254   -0.0022
          11   -0.0203   -0.0026    0.0315   -0.2763    0.0094   -0.2513   -0.2942    0.0127
          12   -0.0814   -0.3807    0.3885    0.0519   -0.0121    0.0130   -0.0022    0.2182
          13    0.0000   -0.0073   -0.0000    0.0000    0.0141   -0.4793   -0.0000    0.0201
          14    0.0079    0.0022   -0.0141    0.1332    0.0019    0.0001    0.1895    0.0011
          15    0.0001    0.4140   -0.0014   -0.0008    0.3689    0.0184   -0.0010    0.2131
          16   -0.0177   -0.0022    0.0151   -0.1773    0.0111   -0.1386    0.3494    0.0054
          17    0.0028    0.0003   -0.0013    0.0290   -0.0087    0.2142    0.3379   -0.0131
          18    0.0833    0.0138    0.3921    0.0357   -0.2904   -0.0230    0.0020   -0.2401
          19    0.0177   -0.0023   -0.0152    0.1773    0.0111   -0.1386   -0.3493    0.0054
          20    0.0019   -0.0002   -0.0053    0.0286    0.0057   -0.2145    0.3378    0.0107
          21   -0.0832    0.0140   -0.3895   -0.0357   -0.2932   -0.0209   -0.0055   -0.2392
          22   -0.0307   -0.0772    0.0210   -0.1791    0.0816    0.1467   -0.0058   -0.0711
          23   -0.2507    0.0002   -0.0287    0.2651    0.0019    0.0005   -0.0234   -0.0019
          24    0.4906    0.1893    0.0045   -0.0486   -0.0989   -0.0045    0.0032    0.0492
          25    0.0001    0.1629    0.0007   -0.0000   -0.2000    0.1613   -0.0000    0.1452
          26    0.5932    0.0007   -0.0230    0.1886   -0.0004    0.0000   -0.0220    0.0003
          27   -0.0027    0.1845    0.0005   -0.0009   -0.0927    0.0021    0.0001    0.0446
          28    0.0306   -0.0771   -0.0216    0.1791    0.0815    0.1467    0.0058   -0.0710
          29   -0.2553    0.0019   -0.0287    0.2655   -0.0030   -0.0006   -0.0235    0.0024
          30   -0.4880    0.1897   -0.0034    0.0460   -0.0990   -0.0045   -0.0029    0.0492
          31    0.0000   -0.0039   -0.0000    0.0000    0.0020   -0.1386   -0.0000    0.0028
          32    0.0070    0.0014   -0.0100    0.0932    0.0015    0.0001   -0.0868    0.0017
          33    0.0000    0.2794   -0.0007   -0.0006    0.2984    0.0187    0.0004    0.3313
          34   -0.0087   -0.0007    0.0084   -0.1093    0.0036    0.0221    0.0584   -0.0012
          35    0.0029    0.0001   -0.0026    0.0413   -0.0027    0.0252    0.1221   -0.0022
          36    0.0433    0.0240    0.3095    0.0303   -0.2937   -0.0227    0.0000   -0.1509
          37    0.0087   -0.0007   -0.0084    0.1093    0.0037    0.0221   -0.0584   -0.0012
          38    0.0024    0.0002   -0.0058    0.0410   -0.0003   -0.0255    0.1221    0.0006
          39   -0.0433    0.0240   -0.3077   -0.0305   -0.2966   -0.0225   -0.0013   -0.1514
          40   -0.0120    0.0015    0.0139   -0.0857    0.0076   -0.0936    0.0497   -0.0053
          41   -0.0105   -0.0008    0.0101   -0.1051   -0.0010    0.0324   -0.1105   -0.0010
          42    0.0412   -0.1801   -0.3068   -0.0344   -0.1341    0.0056    0.0011    0.4265
          43    0.0120    0.0015   -0.0140    0.0857    0.0076   -0.0936   -0.0497   -0.0053
          44   -0.0110   -0.0010    0.0132   -0.1047   -0.0003   -0.0323   -0.1105    0.0053
          45   -0.0414   -0.1806    0.3090    0.0358   -0.1322    0.0060   -0.0000    0.4278


   Root No.       9        10        11        12        13        14        15        16

                 9 A      10 A      11 A      12 A      13 A      14 A      15 A      16 A   

                 759.8     846.6     867.0     907.3     976.1     991.9     998.4    1033.8
  
           1   -0.0065   -0.0003    0.4161   -0.0538   -0.0001    0.0000    0.0147    0.0419
           2    0.0003   -0.0003   -0.0002   -0.0009    0.0052   -0.4113    0.0014   -0.0014
           3    0.0643    0.0005   -0.0350   -0.1711   -0.0010    0.0023    0.2297   -0.2548
           4    0.0070    0.0000    0.0281   -0.0179   -0.0001    0.0001    0.0234   -0.0546
           5    0.0011   -0.0024    0.0002   -0.0004   -0.0008   -0.0729   -0.0010    0.0019
           6    0.2174    0.0009    0.0360   -0.0564    0.0007    0.0002   -0.1959    0.3720
           7    0.0063   -0.0023   -0.1987    0.0216   -0.0033    0.0098   -0.0132    0.0474
           8    0.0056    0.0008   -0.0399   -0.0038   -0.0011    0.1353    0.0321   -0.1799
           9   -0.1336    0.2308    0.0197    0.2892    0.3088   -0.0016   -0.0486   -0.2407
          10    0.0063    0.0026   -0.1987    0.0214    0.0034   -0.0098   -0.0132    0.0475
          11   -0.0070   -0.0017    0.0401    0.0068   -0.0041    0.1352   -0.0327    0.1774
          12   -0.1345   -0.2339    0.0190    0.2896   -0.3072    0.0002   -0.0506   -0.2429
          13   -0.0137   -0.0003    0.3870   -0.0410   -0.0001    0.0001    0.0239   -0.0516
          14   -0.0011    0.0006   -0.0002   -0.0015    0.0018   -0.0389   -0.0020   -0.0009
          15   -0.2123    0.0013   -0.0275   -0.2851    0.0003    0.0000   -0.3837   -0.1761
          16    0.0060   -0.0037   -0.2384    0.0319    0.0021    0.0128   -0.0179    0.0203
          17    0.0118    0.0019   -0.3887    0.0475   -0.0027    0.0517   -0.0245    0.0846
          18   -0.1418    0.2277   -0.0115   -0.0339   -0.3125   -0.0052    0.2842    0.1949
          19    0.0060    0.0040   -0.2383    0.0320   -0.0019   -0.0128   -0.0179    0.0202
          20   -0.0132   -0.0010    0.3886   -0.0477    0.0003    0.0519    0.0274   -0.0826
          21   -0.1412   -0.2269   -0.0161   -0.0375    0.3114    0.0049    0.2863    0.1969
          22    0.0783   -0.0020    0.1286   -0.1623    0.0051   -0.5751    0.1612   -0.1398
          23    0.0036    0.0018   -0.0082   -0.0069   -0.0011    0.1669    0.0106   -0.0144
          24   -0.0570   -0.0008    0.0032    0.0889    0.0005   -0.0182   -0.0885    0.0861
          25   -0.1809   -0.0011    0.2155    0.3018    0.0018   -0.0006   -0.3630    0.4162
          26   -0.0002    0.0013    0.0001    0.0004   -0.0012    0.1535   -0.0005    0.0004
          27   -0.0506   -0.0002    0.0234    0.0736    0.0004   -0.0008   -0.0749    0.0803
          28    0.0782    0.0027    0.1286   -0.1619   -0.0067    0.5756    0.1602   -0.1394
          29   -0.0043    0.0017    0.0082    0.0078   -0.0010    0.1671   -0.0116    0.0154
          30   -0.0571    0.0003    0.0031    0.0889    0.0005    0.0164   -0.0884    0.0860
          31   -0.0100   -0.0001    0.1110   -0.0180   -0.0000    0.0000    0.0013   -0.0187
          32    0.0025    0.0012    0.0003    0.0024    0.0031   -0.0591    0.0022    0.0007
          33    0.4879   -0.0019    0.0576    0.4726   -0.0009    0.0005    0.4241    0.1458
          34   -0.0003    0.0043   -0.1819    0.0209   -0.0070    0.0874    0.0077   -0.1015
          35    0.0046   -0.0025   -0.0515    0.0076    0.0036   -0.0318   -0.0147    0.0864
          36    0.4811   -0.4414    0.0223    0.0385    0.3968    0.0066   -0.3158   -0.1640
          37   -0.0004   -0.0041   -0.1819    0.0208    0.0071   -0.0875    0.0078   -0.1015
          38    0.0003    0.0020    0.0517   -0.0071   -0.0006   -0.0318    0.0115   -0.0881
          39    0.4811    0.4401    0.0228    0.0440   -0.3946   -0.0066   -0.3181   -0.1638
          40   -0.0021    0.0086   -0.0356    0.0093    0.0092    0.0610    0.0124   -0.0803
          41    0.0026   -0.0014    0.0007   -0.0062   -0.0010    0.0747    0.0197   -0.1041
          42    0.1886   -0.4457   -0.0401   -0.3948   -0.3907   -0.0038    0.0202    0.2260
          43   -0.0021   -0.0086   -0.0356    0.0092   -0.0092   -0.0610    0.0125   -0.0803
          44   -0.0007    0.0032   -0.0011    0.0022    0.0030    0.0747   -0.0196    0.1065
          45    0.1894    0.4485   -0.0393   -0.3932    0.3864    0.0031    0.0224    0.2242


   Root No.      17        18        19        20        21        22        23        24

                17 A      18 A      19 A      20 A      21 A      22 A      23 A      24 A   

                1044.9    1103.2    1117.2    1153.2    1155.6    1224.7    1325.3    1339.7
  
           1    0.1660   -0.0001   -0.1646   -0.0005    0.0496   -0.0000    0.0803    0.0000
           2    0.0007   -0.0450    0.0000    0.0213    0.0003    0.0725   -0.0003   -0.0643
           3    0.1381    0.0003   -0.0047   -0.0003    0.0202   -0.0004   -0.0577    0.0003
           4   -0.0718    0.0001    0.2146    0.0001   -0.0076   -0.0000    0.4084    0.0000
           5   -0.0009    0.0743   -0.0001   -0.0928   -0.0009   -0.1624    0.0001    0.4077
           6   -0.1732   -0.0004    0.0037    0.0006   -0.0119    0.0008    0.0116   -0.0021
           7    0.0873    0.1519   -0.1046    0.0387   -0.0273   -0.1790    0.1939   -0.3443
           8   -0.3918   -0.0995    0.3067    0.0137   -0.1390   -0.1086   -0.0580   -0.1802
           9    0.1010   -0.0005   -0.0014    0.0011    0.0058   -0.0023    0.0018   -0.0016
          10    0.0874   -0.1521   -0.1045   -0.0382   -0.0278    0.1791    0.1940    0.3442
          11    0.3928   -0.0997   -0.3066    0.0112    0.1394   -0.1086    0.0580   -0.1803
          12    0.0971    0.0015    0.0017   -0.0013    0.0043    0.0034    0.0012    0.0036
          13   -0.1003    0.0002    0.4140    0.0003   -0.0362   -0.0000   -0.2516    0.0001
          14    0.0003    0.0861   -0.0000    0.0149    0.0001    0.2252    0.0000    0.3924
          15    0.0519   -0.0004    0.0054   -0.0001   -0.0001   -0.0012   -0.0030   -0.0021
          16    0.0170   -0.0343    0.0710   -0.0004    0.0173   -0.1074   -0.1011    0.3593
          17    0.1566   -0.1229    0.1428    0.0326   -0.0882    0.0776   -0.2676   -0.2065
          18   -0.0657    0.0016   -0.0009   -0.0006   -0.0011   -0.0010    0.0005    0.0051
          19    0.0170    0.0344    0.0710    0.0001    0.0173    0.1074   -0.1011   -0.3593
          20   -0.1572   -0.1229   -0.1426    0.0310    0.0889    0.0777    0.2676   -0.2066
          21   -0.0645   -0.0004    0.0006    0.0003   -0.0020    0.0002   -0.0023   -0.0030
          22    0.1678   -0.0322   -0.1334    0.0252    0.0210    0.0860   -0.3575   -0.0604
          23    0.0013   -0.0027    0.0254   -0.0055    0.0094   -0.0256    0.0575    0.0341
          24   -0.0619    0.0047    0.0118   -0.0003   -0.0192    0.0068    0.1480   -0.0294
          25   -0.1245   -0.0001   -0.1135    0.0000   -0.0004    0.0000   -0.3733   -0.0001
          26   -0.0002   -0.0023   -0.0001   -0.0073   -0.0001   -0.0243   -0.0006    0.0853
          27   -0.0297   -0.0000   -0.0213    0.0001   -0.0014    0.0001   -0.1303   -0.0004
          28    0.1677    0.0321   -0.1336   -0.0256    0.0205   -0.0860   -0.3575    0.0604
          29   -0.0019   -0.0028   -0.0253   -0.0053   -0.0096   -0.0257   -0.0562    0.0344
          30   -0.0619   -0.0047    0.0120    0.0007   -0.0191   -0.0066    0.1486    0.0291
          31   -0.0324    0.0001    0.1280    0.0001   -0.0078   -0.0000   -0.0844    0.0000
          32   -0.0002    0.6513   -0.0004    0.6047    0.0051   -0.3166    0.0000    0.0535
          33   -0.0398   -0.0033    0.0011   -0.0031    0.0000    0.0016   -0.0010   -0.0002
          34   -0.2878   -0.2083   -0.1762    0.4559    0.4128    0.2940   -0.1287    0.0227
          35    0.2135    0.0805    0.1600   -0.2505   -0.2653   -0.1636   -0.0333   -0.0130
          36    0.0454   -0.0042   -0.0020    0.0070    0.0073    0.0037   -0.0012    0.0000
          37   -0.2879    0.2085   -0.1765   -0.4633    0.4042   -0.2941   -0.1287   -0.0227
          38   -0.2130    0.0806   -0.1601   -0.2552    0.2606   -0.1636    0.0333   -0.0130
          39    0.0478    0.0033   -0.0004   -0.0045    0.0045   -0.0020   -0.0016    0.0002
          40   -0.1510    0.3900   -0.3825   -0.1539   -0.4012    0.4141   -0.0147   -0.0543
          41   -0.2201    0.1661   -0.1044   -0.0931   -0.2704    0.2330   -0.0674   -0.0252
          42   -0.0951    0.0090   -0.0075   -0.0029   -0.0109    0.0072    0.0018   -0.0013
          43   -0.1510   -0.3907   -0.3822    0.1610   -0.3981   -0.4137   -0.0147    0.0544
          44    0.2192    0.1664    0.1043   -0.0980    0.2686    0.2329    0.0674   -0.0252
          45   -0.0969   -0.0107   -0.0085    0.0040   -0.0135   -0.0095    0.0012    0.0015


   Root No.      25        26        27        28        29        30        31        32

                25 A      26 A      27 A      28 A      29 A      30 A      31 A      32 A   

                1393.2    1394.8    1429.1    1542.4    1610.7    1781.4    1799.9    3053.4
  
           1    0.0014    0.2299    0.4776   -0.0000   -0.2553    0.0000    0.0722   -0.0000
           2   -0.2562    0.0006    0.0004   -0.0644   -0.0000    0.0317    0.0000   -0.0050
           3   -0.0003   -0.2268    0.0952    0.0003   -0.0044   -0.0002    0.0019    0.0038
           4   -0.0011   -0.1760   -0.2112   -0.0000    0.5713   -0.0001   -0.3321    0.0020
           5   -0.0288    0.0001    0.0000    0.4274    0.0000   -0.5304    0.0001    0.0096
           6    0.0001   -0.0064    0.0083   -0.0022    0.0036    0.0027   -0.0024   -0.0000
           7    0.0279   -0.1107   -0.1720    0.3234   -0.0867    0.1507    0.4512    0.1045
           8    0.0098   -0.0353   -0.0924   -0.1453   -0.2515    0.2792    0.1602   -0.1899
           9   -0.0001   -0.0015   -0.0020    0.0045    0.0008   -0.0001    0.0039    0.0026
          10   -0.0292   -0.1103   -0.1720   -0.3234   -0.0867   -0.1506    0.4512   -0.0519
          11    0.0103    0.0352    0.0923   -0.1454    0.2514    0.2792   -0.1603   -0.0912
          12   -0.0001   -0.0019   -0.0030   -0.0030   -0.0017   -0.0027    0.0055   -0.0003
          13    0.0008    0.1241    0.1776   -0.0000    0.2727    0.0001    0.1780   -0.0383
          14   -0.0338    0.0002   -0.0000    0.4085    0.0000    0.5383   -0.0000   -0.0050
          15    0.0002    0.0017    0.0020   -0.0021    0.0033   -0.0028    0.0019   -0.0004
          16   -0.0279    0.0190    0.0069   -0.3346   -0.3066    0.1399   -0.4132    0.0647
          17    0.0197    0.1366    0.2038   -0.1357    0.2418   -0.2850    0.1291    0.1250
          18   -0.0003   -0.0013   -0.0006   -0.0031   -0.0047    0.0032   -0.0053   -0.0001
          19    0.0282    0.0186    0.0070    0.3347   -0.3065   -0.1400   -0.4131   -0.0169
          20    0.0180   -0.1368   -0.2038   -0.1356   -0.2418   -0.2851   -0.1290    0.0382
          21    0.0001    0.0001    0.0015    0.0045   -0.0022   -0.0003   -0.0040   -0.0003
          22    0.2327    0.0492   -0.3523   -0.0606    0.0204    0.0417   -0.0021    0.0010
          23    0.0787   -0.2890    0.2790    0.0110   -0.0319   -0.0107    0.0087    0.0009
          24   -0.3707    0.4861   -0.1447   -0.0016   -0.0063   -0.0029   -0.0015    0.0017
          25   -0.0021   -0.3249   -0.1556   -0.0000    0.0207    0.0000   -0.0004    0.0030
          26    0.7261   -0.0055   -0.0002    0.0111    0.0001   -0.0048   -0.0000   -0.0006
          27   -0.0044   -0.1535   -0.0736   -0.0001    0.0256    0.0000   -0.0035   -0.0083
          28   -0.2318    0.0522   -0.3524    0.0607    0.0204   -0.0417   -0.0021   -0.0063
          29    0.0862    0.2924   -0.2803    0.0110    0.0318   -0.0107   -0.0087    0.0106
          30    0.3764    0.4784   -0.1419    0.0015   -0.0066    0.0030   -0.0014   -0.0067
          31    0.0003    0.0421    0.0607   -0.0000    0.0935    0.0000    0.0609    0.1293
          32   -0.0015    0.0000   -0.0000   -0.2040   -0.0000   -0.0629    0.0000    0.0038
          33    0.0000    0.0009    0.0004    0.0010    0.0009    0.0003    0.0008    0.0014
          34    0.0001    0.0758    0.1113    0.0408    0.1218   -0.0562    0.0224   -0.2369
          35    0.0012    0.0056    0.0058   -0.1362   -0.0474   -0.0379   -0.0502   -0.4182
          36    0.0003    0.0008    0.0012    0.0014    0.0016   -0.0004    0.0006   -0.0000
          37    0.0009    0.0758    0.1113   -0.0408    0.1218    0.0562    0.0224    0.0696
          38    0.0011   -0.0056   -0.0058   -0.1362    0.0474   -0.0378    0.0502   -0.1267
          39   -0.0003    0.0009    0.0013    0.0000    0.0011    0.0008    0.0001    0.0013
          40    0.0121    0.0241    0.0920   -0.0497    0.1422   -0.0528   -0.0403   -0.3565
          41    0.0046    0.0257    0.0560   -0.1401    0.0089    0.0342   -0.0560    0.6298
          42    0.0006    0.0007    0.0033   -0.0003    0.0011   -0.0006    0.0001   -0.0084
          43   -0.0118    0.0242    0.0920    0.0496    0.1422    0.0528   -0.0403    0.1754
          44    0.0043   -0.0257   -0.0559   -0.1401   -0.0089    0.0342    0.0560    0.3088
          45   -0.0006    0.0010    0.0038    0.0018    0.0012    0.0003   -0.0005    0.0010


   Root No.      33        34        35        36        37        38        39

                33 A      34 A      35 A      36 A      37 A      38 A      39 A   

                3053.6    3061.8    3068.8    3069.6    3077.4    3080.2    3170.6
  
           1    0.0001    0.0003   -0.0000   -0.0015    0.0000   -0.0006    0.1516
           2   -0.0022   -0.0001   -0.0080   -0.0023   -0.2971   -0.0000    0.0000
           3   -0.0088   -0.0182   -0.0010   -0.2944    0.0023   -0.0072    0.0081
           4   -0.0045   -0.0083   -0.0000    0.0024   -0.0000    0.0069    0.0026
           5    0.0041    0.0000    0.0086   -0.0000   -0.0020   -0.0000    0.0000
           6   -0.0001   -0.0001   -0.0000   -0.0005    0.0000    0.0001    0.0000
           7   -0.0275   -0.0682    0.0588    0.0047   -0.0001    0.0408   -0.0020
           8    0.0542    0.1163   -0.0875   -0.0098    0.0049   -0.0586    0.0009
           9   -0.0007   -0.0017    0.0013   -0.0005   -0.0002    0.0009    0.0000
          10   -0.0942   -0.0684   -0.0593    0.0051    0.0001    0.0412   -0.0020
          11   -0.1740   -0.1168   -0.0884    0.0105    0.0049    0.0593   -0.0009
          12   -0.0006   -0.0005   -0.0004   -0.0006    0.0001    0.0003    0.0000
          13    0.0921   -0.1941   -0.0017    0.0135    0.0000   -0.1939   -0.0003
          14   -0.0021   -0.0001    0.0144   -0.0000    0.0000   -0.0000    0.0000
          15    0.0010   -0.0021   -0.0001    0.0002   -0.0000   -0.0021   -0.0000
          16   -0.0392    0.0447   -0.0934    0.0014    0.0015   -0.0706    0.0004
          17   -0.0678    0.0537   -0.1532    0.0040    0.0025   -0.1327   -0.0000
          18   -0.0000    0.0002   -0.0001   -0.0002   -0.0000    0.0000   -0.0000
          19   -0.0741    0.0431    0.0933    0.0009   -0.0015   -0.0712    0.0004
          20    0.1375   -0.0510   -0.1528   -0.0031    0.0025    0.1337    0.0000
          21   -0.0014    0.0007    0.0017   -0.0002    0.0000   -0.0013   -0.0000
          22    0.0077    0.0108    0.0068    0.1356    0.2455    0.0022   -0.1860
          23    0.0140    0.0222    0.0135    0.3181    0.5347    0.0067   -0.4821
          24    0.0075    0.0104    0.0084    0.1359    0.3269    0.0025   -0.2720
          25   -0.0070   -0.0153   -0.0009   -0.2687    0.0008   -0.0071   -0.1562
          26   -0.0002    0.0002   -0.0011    0.0034   -0.0444    0.0001    0.0024
          27    0.0194    0.0428    0.0025    0.7500   -0.0021    0.0198    0.5199
          28    0.0046    0.0107   -0.0058    0.1341   -0.2464    0.0022   -0.1861
          29   -0.0090   -0.0220    0.0112   -0.3136    0.5334   -0.0067    0.4796
          30    0.0040    0.0106   -0.0076    0.1369   -0.3327    0.0025   -0.2766
          31   -0.3112    0.6537    0.0057   -0.0445   -0.0000    0.6093    0.0006
          32    0.0016    0.0001   -0.0066    0.0000    0.0001    0.0000    0.0000
          33   -0.0034    0.0072    0.0001   -0.0004   -0.0000    0.0067    0.0001
          34    0.1323   -0.1189    0.2938   -0.0063   -0.0048    0.2317   -0.0001
          35    0.2281   -0.1936    0.5065   -0.0118   -0.0082    0.4067   -0.0001
          36    0.0000   -0.0001    0.0001    0.0001    0.0000    0.0000    0.0000
          37    0.2632   -0.1138   -0.2933   -0.0046    0.0049    0.2337   -0.0001
          38   -0.4610    0.1848    0.5055    0.0090   -0.0082   -0.4101    0.0001
          39    0.0048   -0.0020   -0.0053   -0.0000    0.0001    0.0042    0.0000
          40    0.0960    0.2188   -0.1694   -0.0180    0.0097   -0.1084    0.0039
          41   -0.1711   -0.3801    0.2899    0.0306   -0.0130    0.1844   -0.0049
          42    0.0023    0.0051   -0.0039   -0.0003    0.0006   -0.0025    0.0003
          43    0.3228    0.2199    0.1713   -0.0193   -0.0097   -0.1098    0.0039
          44    0.5712    0.3819    0.2930   -0.0327   -0.0130   -0.1868    0.0049
          45    0.0018    0.0013    0.0010    0.0000   -0.0004   -0.0007    0.0003


          DESCRIPTION OF VIBRATIONS


 VIBRATION          1    1A           ATOM PAIR      ENERGY CONTRIBUTION    RADIAL
 FREQUENCY            68.65         C  1 -- H  9         +34.2% (887.2%)      0.0%
 TRANSITION DIPOLE   0.0204         C  1 -- H  8         +31.4% (850.7%)      0.1%
 TRAVEL (Ang.)       0.0000         C  1 -- H 10         +31.4% (850.5%)      0.1%
 REDUCED MASS        0.3142         C  1 -- C  2          +0.4% ( 91.2%)      0.0%
 EFFECTIVE MASS     10.7116
 FORCE CONSTANT      0.0009

 VIBRATION          2    2A           ATOM PAIR      ENERGY CONTRIBUTION    RADIAL
 FREQUENCY           193.34         C  1 -- C  2         +23.0% (266.7%)      0.0%
 TRANSITION DIPOLE   0.1280         C  1 -- H 10         +15.9% (222.2%)     31.1%
 TRAVEL (Ang.)       0.5129         C  1 -- H  8         +15.9% (222.2%)     31.0%
 REDUCED MASS        1.3260         C  1 -- H  9         +13.4% (203.5%)     95.0%
 EFFECTIVE MASS     58.6152
 FORCE CONSTANT      0.0292

 VIBRATION          3    3A           ATOM PAIR      ENERGY CONTRIBUTION    RADIAL
 FREQUENCY           356.21         C  3 -- C  6         +23.1% (109.6%)      0.0%
 TRANSITION DIPOLE   0.0035         C  4 -- C  7         +23.0% (109.3%)      0.0%
 TRAVEL (Ang.)       0.4044         C  2 -- C  4          +8.0% ( 64.5%)      0.0%
 REDUCED MASS        1.1575         C  2 -- C  3          +7.9% ( 64.2%)      0.0%
 EFFECTIVE MASS     17.2848
 FORCE CONSTANT      0.0865

 VIBRATION          4    4A           ATOM PAIR      ENERGY CONTRIBUTION    RADIAL
 FREQUENCY           372.62         C  1 -- C  2         +20.9% (208.8%)      0.0%
 TRANSITION DIPOLE   0.0565         C  1 -- H  9         +10.6% (148.5%)      0.0%
 TRAVEL (Ang.)       0.3647         C  1 -- H  8          +9.8% (143.3%)     87.0%
 REDUCED MASS        1.3606         C  1 -- H 10          +9.8% (143.3%)     87.1%
 EFFECTIVE MASS     29.5509
 FORCE CONSTANT      0.1113

 VIBRATION          5    5A           ATOM PAIR      ENERGY CONTRIBUTION    RADIAL
 FREQUENCY           449.61         C  1 -- C  2         +16.0% ( 82.1%)      0.0%
 TRANSITION DIPOLE   0.2920         C  2 -- C  3         +14.4% ( 77.9%)      0.0%
 TRAVEL (Ang.)       0.3104         C  2 -- C  4         +14.3% ( 77.7%)      0.0%
 REDUCED MASS        1.5570         C  5 -- C  7         +12.9% ( 73.6%)      0.0%
 EFFECTIVE MASS     12.8403         C  5 -- C  6         +12.7% ( 73.3%)      0.0%
 FORCE CONSTANT      0.1854

 VIBRATION          6    6A           ATOM PAIR      ENERGY CONTRIBUTION    RADIAL
 FREQUENCY           541.96         C  5 -- C  6         +10.4% (110.9%)      0.1%
 TRANSITION DIPOLE   0.0455         C  5 -- C  7         +10.4% (110.9%)      0.1%
 TRAVEL (Ang.)       0.2598         C  1 -- C  2          +8.9% (102.6%)     95.4%
 REDUCED MASS        1.8436         C  2 -- C  3          +8.7% (101.7%)      0.0%
 EFFECTIVE MASS     19.4100
 FORCE CONSTANT      0.3191

 VIBRATION          7    7A           ATOM PAIR      ENERGY CONTRIBUTION    RADIAL
 FREQUENCY           629.28         C  4 -- C  7         +14.5% (114.3%)      0.1%
 TRANSITION DIPOLE   0.0128         C  3 -- C  6         +14.5% (114.3%)      0.1%
 TRAVEL (Ang.)       0.2180         C  5 -- C  7         +10.8% ( 98.8%)      1.5%
 REDUCED MASS        2.2545         C  5 -- C  6         +10.8% ( 98.8%)      1.5%
 EFFECTIVE MASS     19.6784
 FORCE CONSTANT      0.5260

 VIBRATION          8    8A           ATOM PAIR      ENERGY CONTRIBUTION    RADIAL
 FREQUENCY           633.80         C  2 -- C  3         +15.8% ( 54.4%)      0.0%
 TRANSITION DIPOLE   0.3484         C  2 -- C  4         +15.7% ( 54.3%)      0.0%
 TRAVEL (Ang.)       0.4075         C  1 -- C  2          +8.9% ( 40.9%)      0.0%
 REDUCED MASS        0.6405         C  4 -- H 15          +8.7% ( 40.5%)      0.1%
 EFFECTIVE MASS      7.9273
 FORCE CONSTANT      0.1516

 VIBRATION          9    9A           ATOM PAIR      ENERGY CONTRIBUTION    RADIAL
 FREQUENCY           759.85         C  5 -- H 11         +24.9% ( 61.8%)      0.0%
 TRANSITION DIPOLE   0.6559         C  6 -- H 12         +21.2% ( 56.9%)      0.0%
 TRAVEL (Ang.)       0.6099         C  7 -- H 13         +21.1% ( 56.9%)      0.0%
 REDUCED MASS        0.2386         C  4 -- H 15          +4.9% ( 27.3%)      0.0%
 EFFECTIVE MASS      2.3775
 FORCE CONSTANT      0.0812

 VIBRATION         10   10A           ATOM PAIR      ENERGY CONTRIBUTION    RADIAL
 FREQUENCY           846.56         C  4 -- H 15         +22.6% ( 53.1%)      0.0%
 TRANSITION DIPOLE   0.0040         C  3 -- H 14         +22.3% ( 52.8%)      0.0%
 TRAVEL (Ang.)       0.5232         C  6 -- H 12         +21.8% ( 52.2%)      0.0%
 REDUCED MASS        0.2910         C  7 -- H 13         +21.7% ( 52.1%)      0.0%
 EFFECTIVE MASS      2.3250
 FORCE CONSTANT      0.1229

 VIBRATION         11   11A           ATOM PAIR      ENERGY CONTRIBUTION    RADIAL
 FREQUENCY           866.97         C  5 -- C  7         +16.0% ( 86.6%)      0.1%
 TRANSITION DIPOLE   0.0407         C  5 -- C  6         +16.0% ( 86.6%)      0.1%
 TRAVEL (Ang.)       0.2124         C  4 -- C  7          +8.9% ( 64.6%)      1.3%
 REDUCED MASS        1.7240         C  3 -- C  6          +8.9% ( 64.6%)      1.3%
 EFFECTIVE MASS     14.1748
 FORCE CONSTANT      0.7635

 VIBRATION         12   12A           ATOM PAIR      ENERGY CONTRIBUTION    RADIAL
 FREQUENCY           907.32         C  5 -- H 11         +20.6% ( 54.5%)      0.2%
 TRANSITION DIPOLE   0.0882         C  3 -- H 14         +16.2% ( 48.3%)      0.0%
 TRAVEL (Ang.)       0.4440         C  4 -- H 15         +16.1% ( 48.1%)      0.0%
 REDUCED MASS        0.3770         C  1 -- H  9         +12.6% ( 42.5%)      6.0%
 EFFECTIVE MASS      3.4716
 FORCE CONSTANT      0.1829

 VIBRATION         13   13A           ATOM PAIR      ENERGY CONTRIBUTION    RADIAL
 FREQUENCY           976.08         C  6 -- H 12         +18.3% ( 46.1%)      0.0%
 TRANSITION DIPOLE   0.0048         C  7 -- H 13         +18.1% ( 45.9%)      0.0%
 TRAVEL (Ang.)       0.3579         C  3 -- H 14         +17.8% ( 45.5%)      0.0%
 REDUCED MASS        0.5393         C  4 -- H 15         +17.4% ( 45.0%)      0.0%
 EFFECTIVE MASS      3.9956
 FORCE CONSTANT      0.3027

 VIBRATION         14   14A           ATOM PAIR      ENERGY CONTRIBUTION    RADIAL
 FREQUENCY           991.88         C  1 -- H 10         +31.4% ( 80.6%)      9.0%
 TRANSITION DIPOLE   0.0689         C  1 -- H  8         +31.3% ( 80.6%)      9.0%
 TRAVEL (Ang.)       0.3329         C  1 -- H  9         +13.1% ( 52.1%)      0.0%
 REDUCED MASS        0.6133         C  1 -- C  2         +10.0% ( 45.4%)      0.0%
 EFFECTIVE MASS      3.8875
 FORCE CONSTANT      0.3555

 VIBRATION         15   15A           ATOM PAIR      ENERGY CONTRIBUTION    RADIAL
 FREQUENCY           998.35         C  5 -- H 11         +18.6% ( 50.7%)      0.0%
 TRANSITION DIPOLE   0.0973         C  1 -- H  9         +14.5% ( 44.8%)     10.1%
 TRAVEL (Ang.)       0.3498         C  7 -- H 13         +10.5% ( 38.1%)      0.1%
 REDUCED MASS        0.5521         C  6 -- H 12         +10.4% ( 37.8%)      0.1%
 EFFECTIVE MASS      4.7352
 FORCE CONSTANT      0.3242

 VIBRATION         16   16A           ATOM PAIR      ENERGY CONTRIBUTION    RADIAL
 FREQUENCY          1033.82         C  1 -- H  9         +13.5% ( 47.3%)     13.4%
 TRANSITION DIPOLE   0.2052         C  1 -- C  2          +9.4% ( 39.4%)      2.3%
 TRAVEL (Ang.)       0.3266         C  2 -- C  4          +9.0% ( 38.7%)      2.7%
 REDUCED MASS        0.6114         C  2 -- C  3          +9.0% ( 38.7%)      2.7%
 EFFECTIVE MASS      6.6008
 FORCE CONSTANT      0.3850

 VIBRATION         17   17A           ATOM PAIR      ENERGY CONTRIBUTION    RADIAL
 FREQUENCY          1044.91         C  3 -- C  6         +13.3% ( 56.3%)      1.6%
 TRANSITION DIPOLE   0.0854         C  4 -- C  7         +13.3% ( 56.3%)      1.6%
 TRAVEL (Ang.)       0.2808         C  2 -- C  4         +11.0% ( 51.1%)     26.2%
 REDUCED MASS        0.8183         C  2 -- C  3         +11.0% ( 51.1%)     26.2%
 EFFECTIVE MASS      8.1510
 FORCE CONSTANT      0.5264

 VIBRATION         18   18A           ATOM PAIR      ENERGY CONTRIBUTION    RADIAL
 FREQUENCY          1103.23         C  5 -- H 11         +31.2% ( 65.4%)      0.0%
 TRANSITION DIPOLE   0.0406         C  4 -- H 15         +15.2% ( 45.7%)      9.7%
 TRAVEL (Ang.)       0.4628         C  3 -- H 14         +15.2% ( 45.6%)      9.7%
 REDUCED MASS        0.2854         C  4 -- C  7          +5.7% ( 27.9%)     98.4%
 EFFECTIVE MASS      2.8546
 FORCE CONSTANT      0.2047

 VIBRATION         19   19A           ATOM PAIR      ENERGY CONTRIBUTION    RADIAL
 FREQUENCY          1117.24         C  5 -- C  6         +12.4% ( 54.0%)     63.2%
 TRANSITION DIPOLE   0.0490         C  5 -- C  7         +12.4% ( 53.9%)     63.2%
 TRAVEL (Ang.)       0.2886         C  3 -- H 14         +11.0% ( 50.9%)     19.2%
 REDUCED MASS        0.7248         C  4 -- H 15         +11.0% ( 50.9%)     19.2%
 EFFECTIVE MASS      8.1925
 FORCE CONSTANT      0.5330

 VIBRATION         20   20A           ATOM PAIR      ENERGY CONTRIBUTION    RADIAL
 FREQUENCY          1153.20         C  5 -- H 11         +34.2% ( 59.0%)      0.0%
 TRANSITION DIPOLE   0.0005         C  7 -- H 13         +26.9% ( 52.3%)      0.1%
 TRAVEL (Ang.)       0.4484         C  6 -- H 12         +26.1% ( 51.5%)      0.1%
 REDUCED MASS        0.2908         C  4 -- H 15          +4.0% ( 20.1%)      0.0%
 EFFECTIVE MASS      1.1983
 FORCE CONSTANT      0.2279

 VIBRATION         21   21A           ATOM PAIR      ENERGY CONTRIBUTION    RADIAL
 FREQUENCY          1155.61         C  3 -- H 14         +21.8% ( 47.8%)      3.4%
 TRANSITION DIPOLE   0.0069         C  6 -- H 12         +21.5% ( 47.5%)      1.0%
 TRAVEL (Ang.)       0.5006         C  4 -- H 15         +21.5% ( 47.5%)      3.4%
 REDUCED MASS        0.2328         C  7 -- H 13         +20.7% ( 46.6%)      1.1%
 EFFECTIVE MASS      1.8342
 FORCE CONSTANT      0.1832

 VIBRATION         22   22A           ATOM PAIR      ENERGY CONTRIBUTION    RADIAL
 FREQUENCY          1224.69         C  3 -- H 14         +20.3% ( 53.6%)      0.0%
 TRANSITION DIPOLE   0.0125         C  4 -- H 15         +20.3% ( 53.5%)      0.0%
 TRAVEL (Ang.)       0.4872         C  5 -- H 11         +12.1% ( 41.4%)      0.0%
 REDUCED MASS        0.2320         C  7 -- H 13          +9.5% ( 36.6%)      0.0%
 EFFECTIVE MASS      2.4095
 FORCE CONSTANT      0.2050

 VIBRATION         23   23A           ATOM PAIR      ENERGY CONTRIBUTION    RADIAL
 FREQUENCY          1325.30         C  2 -- C  4         +10.5% ( 42.7%)     50.6%
 TRANSITION DIPOLE   0.0511         C  2 -- C  3         +10.5% ( 42.7%)     50.6%
 TRAVEL (Ang.)       0.2781         C  5 -- C  6          +9.4% ( 40.3%)    100.0%
 REDUCED MASS        0.6577         C  5 -- C  7          +9.4% ( 40.3%)    100.0%
 EFFECTIVE MASS      6.7542
 FORCE CONSTANT      0.6806

 VIBRATION         24   24A           ATOM PAIR      ENERGY CONTRIBUTION    RADIAL
 FREQUENCY          1339.70         C  3 -- C  6         +12.2% ( 63.6%)     99.9%
 TRANSITION DIPOLE   0.1787         C  4 -- C  7         +12.2% ( 63.5%)     99.9%
 TRAVEL (Ang.)       0.1639         C  5 -- C  7         +12.1% ( 63.1%)    100.0%
 REDUCED MASS        1.8738         C  5 -- C  6         +12.1% ( 63.1%)    100.0%
 EFFECTIVE MASS     11.6226         C  2 -- C  4         +11.6% ( 62.0%)    100.0%
 FORCE CONSTANT      1.9815         C  2 -- C  3         +11.6% ( 62.0%)    100.0%

 VIBRATION         25   25A           ATOM PAIR      ENERGY CONTRIBUTION    RADIAL
 FREQUENCY          1393.19         C  1 -- H  9         +51.7% ( 62.7%)      0.0%
 TRANSITION DIPOLE   0.0599         C  1 -- H 10         +20.5% ( 39.5%)     11.3%
 TRAVEL (Ang.)       0.3423         C  1 -- H  8         +20.0% ( 39.0%)     11.7%
 REDUCED MASS        0.4130         C  1 -- C  2          +5.3% ( 20.0%)      0.0%
 EFFECTIVE MASS      1.6424
 FORCE CONSTANT      0.4723

 VIBRATION         26   26A           ATOM PAIR      ENERGY CONTRIBUTION    RADIAL
 FREQUENCY          1394.83         C  1 -- H  8         +25.9% ( 52.7%)      0.1%
 TRANSITION DIPOLE   0.0808         C  1 -- H 10         +25.5% ( 52.3%)      0.1%
 TRAVEL (Ang.)       0.3562         C  1 -- H  9         +12.5% ( 36.6%)     21.9%
 REDUCED MASS        0.3810         C  1 -- C  2         +11.1% ( 34.5%)     77.2%
 EFFECTIVE MASS      3.3337
 FORCE CONSTANT      0.4367

 VIBRATION         27   27A           ATOM PAIR      ENERGY CONTRIBUTION    RADIAL
 FREQUENCY          1429.08         C  1 -- H  8         +19.5% ( 57.1%)      4.5%
 TRANSITION DIPOLE   0.1192         C  1 -- H 10         +19.5% ( 57.1%)      4.5%
 TRAVEL (Ang.)       0.2303         C  1 -- C  2         +15.1% ( 50.3%)     98.4%
 REDUCED MASS        0.8899         C  1 -- H  9         +11.1% ( 43.2%)      0.9%
 EFFECTIVE MASS      6.1046
 FORCE CONSTANT      1.0707

 VIBRATION         28   28A           ATOM PAIR      ENERGY CONTRIBUTION    RADIAL
 FREQUENCY          1542.43         C  4 -- C  7         +12.8% ( 52.5%)    100.0%
 TRANSITION DIPOLE   0.4806         C  3 -- C  6         +12.8% ( 52.5%)    100.0%
 TRAVEL (Ang.)       0.1692         C  2 -- C  4         +11.4% ( 49.7%)     25.4%
 REDUCED MASS        1.5276         C  2 -- C  3         +11.4% ( 49.7%)     25.4%
 EFFECTIVE MASS     10.8733         C  5 -- C  7         +10.7% ( 48.2%)     22.5%
 FORCE CONSTANT      2.1412         C  5 -- C  6         +10.7% ( 48.2%)     22.6%

 VIBRATION         29   29A           ATOM PAIR      ENERGY CONTRIBUTION    RADIAL
 FREQUENCY          1610.71         C  1 -- C  2         +15.2% ( 57.4%)    100.0%
 TRANSITION DIPOLE   0.6077         C  2 -- C  3         +15.1% ( 57.2%)     60.7%
 TRAVEL (Ang.)       0.1420         C  2 -- C  4         +15.1% ( 57.2%)     60.7%
 REDUCED MASS        2.0775         C  5 -- C  6          +9.2% ( 44.6%)     63.3%
 EFFECTIVE MASS     11.1027
 FORCE CONSTANT      3.1756

 VIBRATION         30   30A           ATOM PAIR      ENERGY CONTRIBUTION    RADIAL
 FREQUENCY          1781.37         C  5 -- C  7         +15.2% ( 53.7%)     87.8%
 TRANSITION DIPOLE   0.0777         C  5 -- C  6         +15.2% ( 53.7%)     87.8%
 TRAVEL (Ang.)       0.1244         C  2 -- C  3         +14.8% ( 53.0%)     88.6%
 REDUCED MASS        2.4473         C  2 -- C  4         +14.8% ( 53.0%)     88.6%
 EFFECTIVE MASS     11.8388
 FORCE CONSTANT      4.5755

 VIBRATION         31   31A           ATOM PAIR      ENERGY CONTRIBUTION    RADIAL
 FREQUENCY          1799.90         C  3 -- C  6         +16.3% ( 56.0%)     99.9%
 TRANSITION DIPOLE   0.3903         C  4 -- C  7         +16.3% ( 56.0%)     99.9%
 TRAVEL (Ang.)       0.1286         C  2 -- C  4         +12.1% ( 48.3%)     44.5%
 REDUCED MASS        2.2649         C  2 -- C  3         +12.1% ( 48.3%)     44.5%
 EFFECTIVE MASS     11.8305
 FORCE CONSTANT      4.3230

 VIBRATION         32   32A           ATOM PAIR      ENERGY CONTRIBUTION    RADIAL
 FREQUENCY          3053.37         C  3 -- H 14         +55.4% ( 75.7%)    100.0%
 TRANSITION DIPOLE   0.1634         C  6 -- H 12         +24.5% ( 50.3%)    100.0%
 TRAVEL (Ang.)       0.2411         C  4 -- H 15         +13.3% ( 37.1%)    100.0%
 REDUCED MASS        0.3798         C  7 -- H 13          +2.2% ( 15.1%)     99.8%
 EFFECTIVE MASS      1.4928
 FORCE CONSTANT      2.0862

 VIBRATION         33   33A           ATOM PAIR      ENERGY CONTRIBUTION    RADIAL
 FREQUENCY          3053.55         C  4 -- H 15         +45.6% ( 68.6%)    100.0%
 TRANSITION DIPOLE   0.1778         C  7 -- H 13         +29.8% ( 55.6%)    100.0%
 TRAVEL (Ang.)       0.2670         C  5 -- H 11         +10.3% ( 32.6%)    100.0%
 REDUCED MASS        0.3097         C  6 -- H 12          +7.4% ( 27.6%)    100.0%
 EFFECTIVE MASS      1.5012
 FORCE CONSTANT      1.7011

 VIBRATION         34   34A           ATOM PAIR      ENERGY CONTRIBUTION    RADIAL
 FREQUENCY          3061.76         C  5 -- H 11         +45.2% ( 68.3%)    100.0%
 TRANSITION DIPOLE   0.3071         C  4 -- H 15         +20.5% ( 46.0%)    100.0%
 TRAVEL (Ang.)       0.2756         C  3 -- H 14         +20.3% ( 45.8%)    100.0%
 REDUCED MASS        0.2899         C  6 -- H 12          +5.5% ( 23.8%)     99.6%
 EFFECTIVE MASS      1.5157
 FORCE CONSTANT      1.6009

 VIBRATION         35   35A           ATOM PAIR      ENERGY CONTRIBUTION    RADIAL
 FREQUENCY          3068.78         C  6 -- H 12         +36.3% ( 61.2%)    100.0%
 TRANSITION DIPOLE   0.5678         C  7 -- H 13         +36.2% ( 61.1%)    100.0%
 TRAVEL (Ang.)       0.2752         C  4 -- H 15         +12.2% ( 35.4%)    100.0%
 REDUCED MASS        0.2901         C  3 -- H 14         +11.9% ( 35.1%)    100.0%
 EFFECTIVE MASS      1.5426
 FORCE CONSTANT      1.6094

 VIBRATION         36   36A           ATOM PAIR      ENERGY CONTRIBUTION    RADIAL
 FREQUENCY          3069.57         C  1 -- H  9         +67.8% ( 84.9%)     98.9%
 TRANSITION DIPOLE   0.0640         C  1 -- H  8         +15.5% ( 40.6%)     83.5%
 TRAVEL (Ang.)       0.2028         C  1 -- H 10         +15.2% ( 40.2%)     83.1%
 REDUCED MASS        0.5339         C  1 -- C  2          +1.0% ( 10.2%)      0.0%
 EFFECTIVE MASS      1.5019
 FORCE CONSTANT      2.9641

 VIBRATION         37   37A           ATOM PAIR      ENERGY CONTRIBUTION    RADIAL
 FREQUENCY          3077.41         C  1 -- H 10         +49.1% ( 72.3%)     97.0%
 TRANSITION DIPOLE   0.0362         C  1 -- H  8         +48.8% ( 72.1%)     97.0%
 TRAVEL (Ang.)       0.2073         C  1 -- C  2          +1.1% ( 10.6%)      0.0%
 REDUCED MASS        0.5100         C  1 -- H  9          +1.0% ( 10.3%)      0.0%
 EFFECTIVE MASS      1.5126
 FORCE CONSTANT      2.8457

 VIBRATION         38   38A           ATOM PAIR      ENERGY CONTRIBUTION    RADIAL
 FREQUENCY          3080.25         C  5 -- H 11         +39.5% ( 63.7%)    100.0%
 TRANSITION DIPOLE   0.3275         C  7 -- H 13         +23.7% ( 49.3%)    100.0%
 TRAVEL (Ang.)       0.2838         C  6 -- H 12         +23.3% ( 48.9%)    100.0%
 REDUCED MASS        0.2718         C  4 -- H 15          +5.0% ( 22.7%)     99.9%
 EFFECTIVE MASS      1.6006
 FORCE CONSTANT      1.5194

 VIBRATION         39   39A           ATOM PAIR      ENERGY CONTRIBUTION    RADIAL
 FREQUENCY          3170.59         C  1 -- H 10         +35.0% ( 56.9%)     97.3%
 TRANSITION DIPOLE   0.0771         C  1 -- H  8         +34.9% ( 56.9%)     97.3%
 TRAVEL (Ang.)       0.2545         C  1 -- H  9         +29.8% ( 52.5%)     96.6%
 REDUCED MASS        0.3284         C  1 -- C  2          +0.3% (  5.4%)     99.7%
 EFFECTIVE MASS      1.1394
 FORCE CONSTANT      1.9452

      SYMMETRY NUMBER FOR POINT-GROUP C1  =  1


          SYSTEM IS A GROUND STATE



 InChI=1S/C7H8/c1-7-5-3-2-4-6-7/h2-6H,1H3


          MOLECULE IS NOT LINEAR

          THERE ARE 39 GENUINE VIBRATIONS IN THIS SYSTEM
          THIS THERMODYNAMICS CALCULATION IS LIMITED TO
          MOLECULES WHICH HAVE NO INTERNAL ROTATIONS




                    CALCULATED THERMODYNAMIC PROPERTIES
                                          *
   TEMP. (K)   PARTITION FUNCTION   H.O.F.    ENTHALPY  HEAT CAPACITY ENTROPY
                                   KCAL/MOL   CAL/MOLE    CAL/K/MOL  CAL/K/MOL


 298.00  VIB.     0.1312D+02                  2136.5607    17.4733    12.2856
         ROT.     0.1734D+06                   888.2803     2.9808    26.9533
         INT.     0.2276D+07                  3024.8410    20.4541    39.2389
         TRA.     0.8551D+27                  1480.4672     4.9680    39.4718
         TOT.                       14.010    4505.3082    25.4221    78.7107

 200.00  VIB.     0.4379D+01                   816.6775     9.6727     7.0182
         ROT.     0.9534D+05                   596.1613     2.9808    25.7646
         INT.     0.4175D+06                  1412.8388    12.6535    32.7828
         TRA.     0.4701D+27                   993.6021     4.9680    37.4906
         TOT.                       11.911    2406.4409    17.6215    70.2734

 210.00  VIB.     0.4858D+01                   917.0175    10.3989     7.5076
         ROT.     0.1026D+06                   625.9693     2.9808    25.9100
         INT.     0.4983D+06                  1542.9868    13.3797    33.4176
         TRA.     0.5058D+27                  1043.2822     4.9680    37.7330
         TOT.                       12.091    2586.2690    18.3477    71.1506

 220.00  VIB.     0.5399D+01                  1024.7257    11.1461     8.0085
         ROT.     0.1100D+06                   655.7774     2.9808    26.0487
         INT.     0.5938D+06                  1680.5031    14.1269    34.0572
         TRA.     0.5424D+27                  1092.9623     4.9680    37.9641
         TOT.                       12.278    2773.4655    19.0949    72.0213

 230.00  VIB.     0.6011D+01                  1140.0046    11.9127     8.5208
         ROT.     0.1176D+06                   685.5855     2.9808    26.1812
         INT.     0.7068D+06                  1825.5900    14.8935    34.7020
         TRA.     0.5798D+27                  1142.6424     4.9680    38.1850
         TOT.                       12.473    2968.2325    19.8615    72.8870

 240.00  VIB.     0.6706D+01                  1263.0380    12.6967     9.0443
         ROT.     0.1253D+06                   715.3935     2.9808    26.3081
         INT.     0.8405D+06                  1978.4316    15.6775    35.3524
         TRA.     0.6180D+27                  1192.3226     4.9680    38.3964
         TOT.                       12.676    3170.7541    20.6455    73.7488

 250.00  VIB.     0.7495D+01                  1393.9897    13.4960     9.5788
         ROT.     0.1332D+06                   745.2016     2.9808    26.4298
         INT.     0.9988D+06                  2139.1913    16.4768    36.0085
         TRA.     0.6570D+27                  1242.0027     4.9680    38.5992
         TOT.                       12.886    3381.1940    21.4448    74.6078

 260.00  VIB.     0.8394D+01                  1533.0013    14.3083    10.1239
         ROT.     0.1413D+06                   775.0097     2.9808    26.5467
         INT.     0.1186D+07                  2308.0110    17.2891    36.6706
         TRA.     0.6968D+27                  1291.6828     4.9680    38.7941
         TOT.                       13.105    3599.6938    22.2571    75.4646

 270.00  VIB.     0.9417D+01                  1680.1916    15.1313    10.6793
         ROT.     0.1496D+06                   804.8177     2.9808    26.6592
         INT.     0.1408D+07                  2485.0093    18.1121    37.3385
         TRA.     0.7374D+27                  1341.3629     4.9680    38.9816
         TOT.                       13.331    3826.3722    23.0802    76.3200

 280.00  VIB.     0.1058D+02                  1835.6562    15.9628    11.2446
         ROT.     0.1579D+06                   834.6258     2.9808    26.7676
         INT.     0.1672D+07                  2670.2819    18.9436    38.0122
         TRA.     0.7788D+27                  1391.0430     4.9680    39.1622
         TOT.                       13.566    4061.3249    23.9116    77.1744

 290.00  VIB.     0.1192D+02                  1999.4675    16.8003    11.8193
         ROT.     0.1665D+06                   864.4339     2.9808    26.8722
         INT.     0.1984D+07                  2863.9014    19.7811    38.6915
         TRA.     0.8209D+27                  1440.7231     4.9680    39.3366
         TOT.                       13.810    4304.6244    24.7491    78.0281

 300.00  VIB.     0.1345D+02                  2171.6758    17.6418    12.4031
         ROT.     0.1752D+06                   894.2419     2.9808    26.9732
         INT.     0.2355D+07                  3065.9177    20.6226    39.3763
         TRA.     0.8637D+27                  1490.4032     4.9680    39.5050
         TOT.                       14.061    4556.3209    25.5906    78.8813

 310.00  VIB.     0.1520D+02                  2352.3096    18.4851    12.9953
         ROT.     0.1840D+06                   924.0500     2.9808    27.0710
         INT.     0.2796D+07                  3276.3596    21.4659    40.0663
         TRA.     0.9072D+27                  1540.0833     4.9680    39.6679
         TOT.                       14.321    4816.4429    26.4339    79.7342

 320.00  VIB.     0.1720D+02                  2541.3774    19.3283    13.5955
         ROT.     0.1930D+06                   953.8580     2.9808    27.1656
         INT.     0.3319D+07                  3495.2354    22.3091    40.7611
         TRA.     0.9515D+27                  1589.7634     4.9680    39.8256
         TOT.                       14.590    5084.9989    27.2771    80.5867

 330.00  VIB.     0.1951D+02                  2738.8685    20.1695    14.2031
         ROT.     0.2021D+06                   983.6661     2.9808    27.2573
         INT.     0.3942D+07                  3722.5346    23.1503    41.4605
         TRA.     0.9964D+27                  1639.4435     4.9680    39.9785
         TOT.                       14.867    5361.9781    28.1183    81.4390

 340.00  VIB.     0.2216D+02                  2944.7548    21.0071    14.8177
         ROT.     0.2113D+06                  1013.4742     2.9808    27.3463
         INT.     0.4683D+07                  3958.2290    23.9879    42.1640
         TRA.     0.1042D+28                  1689.1236     4.9680    40.1268
         TOT.                       15.152    5647.3526    28.9559    82.2908

 350.00  VIB.     0.2521D+02                  3158.9926    21.8395    15.4387
         ROT.     0.2207D+06                  1043.2822     2.9808    27.4327
         INT.     0.5564D+07                  4202.2748    24.8203    42.8714
         TRA.     0.1088D+28                  1738.8037     4.9680    40.2708
         TOT.                       15.446    5941.0786    29.7883    83.1422

 360.00  VIB.     0.2872D+02                  3381.5236    22.6655    16.0655
         ROT.     0.2303D+06                  1073.0903     2.9808    27.5167
         INT.     0.6613D+07                  4454.6139    25.6463    43.5822
         TRA.     0.1135D+28                  1788.4838     4.9680    40.4108
         TOT.                       15.748    6243.0978    30.6143    83.9930

 370.00  VIB.     0.3278D+02                  3612.2771    23.4838    16.6977
         ROT.     0.2399D+06                  1102.8984     2.9808    27.5984
         INT.     0.7864D+07                  4715.1754    26.4646    44.2961
         TRA.     0.1183D+28                  1838.1639     4.9680    40.5469
         TOT.                       16.058    6553.3394    31.4326    84.8429

 380.00  VIB.     0.3746D+02                  3851.1709    24.2934    17.3347
         ROT.     0.2497D+06                  1132.7064     2.9808    27.6778
         INT.     0.9353D+07                  4983.8773    27.2742    45.0126
         TRA.     0.1231D+28                  1887.8440     4.9680    40.6794
         TOT.                       16.377    6871.7214    32.2422    85.6920

 390.00  VIB.     0.4287D+02                  4098.1134    25.0934    17.9761
         ROT.     0.2596D+06                  1162.5145     2.9808    27.7553
         INT.     0.1113D+08                  5260.6279    28.0742    45.7314
         TRA.     0.1280D+28                  1937.5242     4.9680    40.8084
         TOT.                       16.703    7198.1520    33.0422    86.5398

 400.00  VIB.     0.4913D+02                  4353.0046    25.8830    18.6214
         ROT.     0.2697D+06                  1192.3226     2.9808    27.8307
         INT.     0.1325D+08                  5545.3272    28.8638    46.4522
         TRA.     0.1330D+28                  1987.2043     4.9680    40.9342
         TOT.                       17.037    7532.5314    33.8319    87.3864

   *: NOTE: HEATS OF FORMATION ARE RELATIVE TO THE
            ELEMENTS IN THEIR STANDARD STATE AT 298K
              (=  Standard Enthalpy of Formation).

            Hvib:  Zero-point energy is not included.
                   frequencies of less than zero cm-1 are not included.
            Hrot = (3/2)RT
            Htra = (3/2)RT + pV = (5/2)RT

            Heat capacity is Cp, not Cv

          For more information, see: HTTP://OpenMOPAC.net/Manual/thermochemistry.html


           FORCE CONSTANT IN CARTESIAN COORDINATES (Millidynes/A)

    ATOM   CHEMICAL       X               Y               Z
   NUMBER   SYMBOL  FORCE CONSTANT  FORCE CONSTANT  FORCE CONSTANT

      1       C        9.012296        8.513768        7.961582
      2       C       12.435620       12.162051        2.747356
      3       C       12.352454       11.925526        2.326091
      4       C       12.352793       11.926499        2.329520
      5       C       12.154225       12.020692        2.330110
      6       C       12.085404       12.123336        2.326694
      7       C       12.085442       12.123554        2.337312
      8       H        1.303321        3.795431        1.648901
      9       H        1.147873        0.645395        4.843140
     10       H        1.303529        3.761800        1.682483
     11       H        5.167496        0.758873        0.352657
     12       H        1.855550        4.064369        0.353132
     13       H        1.855473        4.064330        0.353339
     14       H        1.849833        4.062729        0.352964
     15       H        1.850553        4.063028        0.351002

 **********************
 *                    *
 * JOB ENDED NORMALLY *
 *                    *
 **********************



 TOTAL JOB TIME:             0.87 SECONDS

 == MOPAC DONE ==
