 *******************************************************************************
 **                                                                           **
 **                              MOPAC v23.1.2                                **
 **                                                                           **
 *******************************************************************************
 **          Digital Object Identifier (DOI): 10.5281/zenodo.6511958          **
 **    Visit the DOI location for information on how to cite this program.    **
 *******************************************************************************

                              PM3 CALCULATION RESULTS

 *******************************************************************************
 *  CALCULATION DONE: (MAX THREADS = 1)              Tue Jun  3 16:29:04 2025  *
 *  PM3        - The PM3 Hamiltonian to be used
 *  PRECISE    - TIGHTER CRITERIA TO BE USED
 *  NOSYM      - POINT-GROUP SYMMETRY SET TO C1
 *  THREADS=1  - MULTI-THREADING NOT USED
 *  T=         - A TIME OF 172800.0 SECONDS REQUESTED
 *  DUMP=N     - RESTART FILE WRITTEN EVERY 7200.0 SECONDS REQUESTED
 *******************************************************************************
pm3  precise nosym THREADS=1
 InChI=1S/C7H12/c1-6-3-4-7(2)5-6/h3,7H,4-5H2,1-2H3

   ATOM   CHEMICAL          X               Y               Z
  NUMBER   SYMBOL      (ANGSTROMS)     (ANGSTROMS)     (ANGSTROMS)

     1       C          1.13970000  *   0.43070000  *   0.10570000  *
     2       C         -0.17370000  *   0.74100000  *  -0.63360000  *
     3       C          0.80280000  *  -0.68600000  *   1.11030000  *
     4       C          2.26780000  *   0.03290000  *  -0.85160000  *
     5       C         -2.67700000  *   0.08320000  *  -0.13170000  *
     6       C         -1.20670000  *   0.00520000  *   0.14510000  *
     7       C         -0.68110000  *  -0.76320000  *   1.08680000  *
     8       H          1.45660000  *   1.33700000  *   0.66990000  *
     9       H         -0.16920000  *   0.36580000  *  -1.68050000  *
    10       H         -0.38600000  *   1.83200000  *  -0.62600000  *
    11       H          1.15770000  *  -0.42570000  *   2.13060000  *
    12       H          1.22200000  *  -1.67010000  *   0.80690000  *
    13       H          3.19330000  *  -0.18170000  *  -0.27620000  *
    14       H          1.98880000  *  -0.87110000  *  -1.43490000  *
    15       H          2.47630000  *   0.86570000  *  -1.55640000  *
    16       H         -2.87350000  *   0.77330000  *  -0.97910000  *
    17       H         -3.06430000  *  -0.92410000  *  -0.39290000  *
    18       H         -3.20830000  *   0.45920000  *   0.76760000  *
    19       H         -1.26520000  *  -1.40410000  *   1.74010000  *



          CARTESIAN COORDINATES 

    NO.       ATOM           X           Y           Z

     1         C          1.1397      0.4307      0.1057
     2         C         -0.1737      0.7410     -0.6336
     3         C          0.8028     -0.6860      1.1103
     4         C          2.2678      0.0329     -0.8516
     5         C         -2.6770      0.0832     -0.1317
     6         C         -1.2067      0.0052      0.1451
     7         C         -0.6811     -0.7632      1.0868
     8         H          1.4566      1.3370      0.6699
     9         H         -0.1692      0.3658     -1.6805
    10         H         -0.3860      1.8320     -0.6260
    11         H          1.1577     -0.4257      2.1306
    12         H          1.2220     -1.6701      0.8069
    13         H          3.1933     -0.1817     -0.2762
    14         H          1.9888     -0.8711     -1.4349
    15         H          2.4763      0.8657     -1.5564
    16         H         -2.8735      0.7733     -0.9791
    17         H         -3.0643     -0.9241     -0.3929
    18         H         -3.2083      0.4592      0.7676
    19         H         -1.2652     -1.4041      1.7401

  H: (PM3): J. J. P. STEWART, J. COMP. CHEM. 10, 209 (1989).
  C: (PM3): J. J. P. STEWART, J. COMP. CHEM. 10, 209 (1989).

           Empirical Formula: C7 H12  =    19 atoms



      MOLECULAR POINT GROUP   :   C1  


      RHF CALCULATION, NO. OF DOUBLY OCCUPIED LEVELS = 20


          Geometry optimization using EF

          DIAGONAL MATRIX USED AS START HESSIAN

 CYCLE:     1 TIME:   0.008 TIME LEFT:  2.00D  GRAD.:    68.660 HEAT: -10.17017
 CYCLE:     2 TIME:   0.012 TIME LEFT:  2.00D  GRAD.:    76.966 HEAT: -10.72705
 CYCLE:     3 TIME:   0.004 TIME LEFT:  2.00D  GRAD.:    46.435 HEAT: -11.48070
 CYCLE:     4 TIME:   0.008 TIME LEFT:  2.00D  GRAD.:    20.371 HEAT: -11.96078
 CYCLE:     5 TIME:   0.008 TIME LEFT:  2.00D  GRAD.:    25.384 HEAT: -12.03426
 CYCLE:     6 TIME:   0.008 TIME LEFT:  2.00D  GRAD.:    27.340 HEAT: -12.15854
 CYCLE:     7 TIME:   0.008 TIME LEFT:  2.00D  GRAD.:    12.713 HEAT: -12.30677
 CYCLE:     8 TIME:   0.008 TIME LEFT:  2.00D  GRAD.:    12.650 HEAT: -12.33383
 CYCLE:     9 TIME:   0.004 TIME LEFT:  2.00D  GRAD.:     8.163 HEAT: -12.38611
 CYCLE:    10 TIME:   0.008 TIME LEFT:  2.00D  GRAD.:    14.299 HEAT: -12.39527
 CYCLE:    11 TIME:   0.004 TIME LEFT:  2.00D  GRAD.:    12.142 HEAT: -12.43095
 CYCLE:    12 TIME:   0.012 TIME LEFT:  2.00D  GRAD.:    10.885 HEAT: -12.46301
 CYCLE:    13 TIME:   0.008 TIME LEFT:  2.00D  GRAD.:     5.137 HEAT: -12.49848
 CYCLE:    14 TIME:   0.008 TIME LEFT:  2.00D  GRAD.:     4.945 HEAT: -12.50832
 CYCLE:    15 TIME:   0.008 TIME LEFT:  2.00D  GRAD.:     3.626 HEAT: -12.51998
 CYCLE:    16 TIME:   0.004 TIME LEFT:  2.00D  GRAD.:     4.171 HEAT: -12.53290
 CYCLE:    17 TIME:   0.004 TIME LEFT:  2.00D  GRAD.:     2.870 HEAT: -12.55080
 CYCLE:    18 TIME:   0.008 TIME LEFT:  2.00D  GRAD.:     3.089 HEAT: -12.57175
 CYCLE:    19 TIME:   0.008 TIME LEFT:  2.00D  GRAD.:     4.660 HEAT: -12.57667
 CYCLE:    20 TIME:   0.004 TIME LEFT:  2.00D  GRAD.:     2.783 HEAT: -12.58642
 CYCLE:    21 TIME:   0.004 TIME LEFT:  2.00D  GRAD.:     2.883 HEAT: -12.59307
 CYCLE:    22 TIME:   0.008 TIME LEFT:  2.00D  GRAD.:     3.283 HEAT: -12.59954
 CYCLE:    23 TIME:   0.004 TIME LEFT:  2.00D  GRAD.:     3.832 HEAT: -12.60324
 CYCLE:    24 TIME:   0.004 TIME LEFT:  2.00D  GRAD.:     2.477 HEAT: -12.60761
 CYCLE:    25 TIME:   0.008 TIME LEFT:  2.00D  GRAD.:     2.694 HEAT: -12.60874
 CYCLE:    26 TIME:   0.004 TIME LEFT:  2.00D  GRAD.:     1.392 HEAT: -12.61146
 CYCLE:    27 TIME:   0.008 TIME LEFT:  2.00D  GRAD.:     1.604 HEAT: -12.61333
 CYCLE:    28 TIME:   0.004 TIME LEFT:  2.00D  GRAD.:     1.479 HEAT: -12.61623
 CYCLE:    29 TIME:   0.008 TIME LEFT:  2.00D  GRAD.:     1.597 HEAT: -12.61991
 CYCLE:    30 TIME:   0.004 TIME LEFT:  2.00D  GRAD.:     1.361 HEAT: -12.62181
 CYCLE:    31 TIME:   0.004 TIME LEFT:  2.00D  GRAD.:     1.454 HEAT: -12.62450
 CYCLE:    32 TIME:   0.008 TIME LEFT:  2.00D  GRAD.:     1.679 HEAT: -12.62984
 CYCLE:    33 TIME:   0.004 TIME LEFT:  2.00D  GRAD.:     1.672 HEAT: -12.63297
 CYCLE:    34 TIME:   0.008 TIME LEFT:  2.00D  GRAD.:     1.963 HEAT: -12.63833
 CYCLE:    35 TIME:   0.004 TIME LEFT:  2.00D  GRAD.:     1.962 HEAT: -12.64468
 CYCLE:    36 TIME:   0.004 TIME LEFT:  2.00D  GRAD.:     1.572 HEAT: -12.65153
 CYCLE:    37 TIME:   0.008 TIME LEFT:  2.00D  GRAD.:     1.303 HEAT: -12.65568
 CYCLE:    38 TIME:   0.004 TIME LEFT:  2.00D  GRAD.:     1.361 HEAT: -12.65994
 CYCLE:    39 TIME:   0.004 TIME LEFT:  2.00D  GRAD.:     1.378 HEAT: -12.66343
 CYCLE:    40 TIME:   0.008 TIME LEFT:  2.00D  GRAD.:     1.560 HEAT: -12.66824
 CYCLE:    41 TIME:   0.004 TIME LEFT:  2.00D  GRAD.:     1.606 HEAT: -12.67396
 CYCLE:    42 TIME:   0.008 TIME LEFT:  2.00D  GRAD.:     1.616 HEAT: -12.68071
 CYCLE:    43 TIME:   0.008 TIME LEFT:  2.00D  GRAD.:     1.311 HEAT: -12.68560
 CYCLE:    44 TIME:   0.004 TIME LEFT:  2.00D  GRAD.:     1.053 HEAT: -12.68858
 CYCLE:    45 TIME:   0.008 TIME LEFT:  2.00D  GRAD.:     1.032 HEAT: -12.69103
 CYCLE:    46 TIME:   0.004 TIME LEFT:  2.00D  GRAD.:     1.035 HEAT: -12.69334
 CYCLE:    47 TIME:   0.008 TIME LEFT:  2.00D  GRAD.:     0.975 HEAT: -12.69639
 CYCLE:    48 TIME:   0.004 TIME LEFT:  2.00D  GRAD.:     0.942 HEAT: -12.69831
 CYCLE:    49 TIME:   0.008 TIME LEFT:  2.00D  GRAD.:     1.004 HEAT: -12.70082
 CYCLE:    50 TIME:   0.004 TIME LEFT:  2.00D  GRAD.:     1.090 HEAT: -12.70329
 CYCLE:    51 TIME:   0.008 TIME LEFT:  2.00D  GRAD.:     1.057 HEAT: -12.70601
 CYCLE:    52 TIME:   0.004 TIME LEFT:  2.00D  GRAD.:     0.914 HEAT: -12.70843
 CYCLE:    53 TIME:   0.004 TIME LEFT:  2.00D  GRAD.:     0.858 HEAT: -12.71057
 CYCLE:    54 TIME:   0.008 TIME LEFT:  2.00D  GRAD.:     0.796 HEAT: -12.71226
 CYCLE:    55 TIME:   0.004 TIME LEFT:  2.00D  GRAD.:     0.628 HEAT: -12.71337
 CYCLE:    56 TIME:   0.008 TIME LEFT:  2.00D  GRAD.:     0.514 HEAT: -12.71410
 CYCLE:    57 TIME:   0.004 TIME LEFT:  2.00D  GRAD.:     0.516 HEAT: -12.71466
 CYCLE:    58 TIME:   0.008 TIME LEFT:  2.00D  GRAD.:     0.605 HEAT: -12.71531
 CYCLE:    59 TIME:   0.004 TIME LEFT:  2.00D  GRAD.:     0.641 HEAT: -12.71606
 CYCLE:    60 TIME:   0.008 TIME LEFT:  2.00D  GRAD.:     0.601 HEAT: -12.71680
 CYCLE:    61 TIME:   0.004 TIME LEFT:  2.00D  GRAD.:     0.671 HEAT: -12.71786
 CYCLE:    62 TIME:   0.004 TIME LEFT:  2.00D  GRAD.:     0.852 HEAT: -12.71914
 CYCLE:    63 TIME:   0.008 TIME LEFT:  2.00D  GRAD.:     1.201 HEAT: -12.72124
 CYCLE:    64 TIME:   0.004 TIME LEFT:  2.00D  GRAD.:     1.594 HEAT: -12.72492
 CYCLE:    65 TIME:   0.008 TIME LEFT:  2.00D  GRAD.:     1.656 HEAT: -12.72827
 CYCLE:    66 TIME:   0.004 TIME LEFT:  2.00D  GRAD.:     1.613 HEAT: -12.73494
 CYCLE:    67 TIME:   0.004 TIME LEFT:  2.00D  GRAD.:     2.144 HEAT: -12.73969
 CYCLE:    68 TIME:   0.008 TIME LEFT:  2.00D  GRAD.:     2.629 HEAT: -12.74623
 CYCLE:    69 TIME:   0.008 TIME LEFT:  2.00D  GRAD.:     3.355 HEAT: -12.75125
 CYCLE:    70 TIME:   0.004 TIME LEFT:  2.00D  GRAD.:     1.498 HEAT: -12.75840
 CYCLE:    71 TIME:   0.008 TIME LEFT:  2.00D  GRAD.:     1.480 HEAT: -12.76455
 CYCLE:    72 TIME:   0.008 TIME LEFT:  2.00D  GRAD.:     3.033 HEAT: -12.77749
 CYCLE:    73 TIME:   0.004 TIME LEFT:  2.00D  GRAD.:     1.871 HEAT: -12.78836
 CYCLE:    74 TIME:   0.008 TIME LEFT:  2.00D  GRAD.:     4.343 HEAT: -12.79258
 CYCLE:    75 TIME:   0.004 TIME LEFT:  2.00D  GRAD.:     1.832 HEAT: -12.80374
 CYCLE:    76 TIME:   0.008 TIME LEFT:  2.00D  GRAD.:     1.738 HEAT: -12.81002
 CYCLE:    77 TIME:   0.008 TIME LEFT:  2.00D  GRAD.:     2.676 HEAT: -12.81939
 CYCLE:    78 TIME:   0.008 TIME LEFT:  2.00D  GRAD.:     2.551 HEAT: -12.82608
 CYCLE:    79 TIME:   0.008 TIME LEFT:  2.00D  GRAD.:     2.851 HEAT: -12.83626
 CYCLE:    80 TIME:   0.008 TIME LEFT:  2.00D  GRAD.:     4.402 HEAT: -12.86390
 CYCLE:    81 TIME:   0.008 TIME LEFT:  2.00D  GRAD.:     9.569 HEAT: -12.88601
 CYCLE:    82 TIME:   0.004 TIME LEFT:  2.00D  GRAD.:     6.389 HEAT: -12.96242
 CYCLE:    83 TIME:   0.012 TIME LEFT:  2.00D  GRAD.:     3.269 HEAT: -12.98201
 CYCLE:    84 TIME:   0.008 TIME LEFT:  2.00D  GRAD.:     1.794 HEAT: -13.01985
 CYCLE:    85 TIME:   0.008 TIME LEFT:  2.00D  GRAD.:     4.362 HEAT: -13.04651
 CYCLE:    86 TIME:   0.004 TIME LEFT:  2.00D  GRAD.:     3.687 HEAT: -13.06392
 CYCLE:    87 TIME:   0.008 TIME LEFT:  2.00D  GRAD.:     3.419 HEAT: -13.07629
 CYCLE:    88 TIME:   0.004 TIME LEFT:  2.00D  GRAD.:     2.058 HEAT: -13.08928
 CYCLE:    89 TIME:   0.008 TIME LEFT:  2.00D  GRAD.:     3.250 HEAT: -13.09688
 CYCLE:    90 TIME:   0.008 TIME LEFT:  2.00D  GRAD.:     2.364 HEAT: -13.10249
 CYCLE:    91 TIME:   0.008 TIME LEFT:  2.00D  GRAD.:     2.269 HEAT: -13.10388
 CYCLE:    92 TIME:   0.008 TIME LEFT:  2.00D  GRAD.:     1.039 HEAT: -13.10733
 CYCLE:    93 TIME:   0.012 TIME LEFT:  2.00D  GRAD.:     0.978 HEAT: -13.10868
 CYCLE:    94 TIME:   0.008 TIME LEFT:  2.00D  GRAD.:     1.082 HEAT: -13.11105
 CYCLE:    95 TIME:   0.008 TIME LEFT:  2.00D  GRAD.:     1.256 HEAT: -13.11380
 CYCLE:    96 TIME:   0.008 TIME LEFT:  2.00D  GRAD.:     1.126 HEAT: -13.11486
 CYCLE:    97 TIME:   0.008 TIME LEFT:  2.00D  GRAD.:     1.086 HEAT: -13.11638
 CYCLE:    98 TIME:   0.008 TIME LEFT:  2.00D  GRAD.:     0.986 HEAT: -13.11735
 CYCLE:    99 TIME:   0.008 TIME LEFT:  2.00D  GRAD.:     1.661 HEAT: -13.12115
 CYCLE:   100 TIME:   0.008 TIME LEFT:  2.00D  GRAD.:     1.443 HEAT: -13.12292
 CYCLE:   101 TIME:   0.008 TIME LEFT:  2.00D  GRAD.:     2.437 HEAT: -13.12909
 CYCLE:   102 TIME:   0.004 TIME LEFT:  2.00D  GRAD.:     2.269 HEAT: -13.13012
 CYCLE:   103 TIME:   0.008 TIME LEFT:  2.00D  GRAD.:     0.858 HEAT: -13.13503
 CYCLE:   104 TIME:   0.008 TIME LEFT:  2.00D  GRAD.:     1.303 HEAT: -13.13812
 CYCLE:   105 TIME:   0.008 TIME LEFT:  2.00D  GRAD.:     1.533 HEAT: -13.14135
 CYCLE:   106 TIME:   0.008 TIME LEFT:  2.00D  GRAD.:     1.847 HEAT: -13.14455
 CYCLE:   107 TIME:   0.004 TIME LEFT:  2.00D  GRAD.:     1.004 HEAT: -13.14577
 CYCLE:   108 TIME:   0.008 TIME LEFT:  2.00D  GRAD.:     0.553 HEAT: -13.14753
 CYCLE:   109 TIME:   0.012 TIME LEFT:  2.00D  GRAD.:     0.554 HEAT: -13.14825
 CYCLE:   110 TIME:   0.008 TIME LEFT:  2.00D  GRAD.:     0.453 HEAT: -13.14872
 CYCLE:   111 TIME:   0.008 TIME LEFT:  2.00D  GRAD.:     0.235 HEAT: -13.14890
 CYCLE:   112 TIME:   0.008 TIME LEFT:  2.00D  GRAD.:     0.142 HEAT: -13.14897
 CYCLE:   113 TIME:   0.008 TIME LEFT:  2.00D  GRAD.:     0.117 HEAT: -13.14902
 CYCLE:   114 TIME:   0.008 TIME LEFT:  2.00D  GRAD.:     0.094 HEAT: -13.14905
 CYCLE:   115 TIME:   0.008 TIME LEFT:  2.00D  GRAD.:     0.077 HEAT: -13.14906
 CYCLE:   116 TIME:   0.008 TIME LEFT:  2.00D  GRAD.:     0.034 HEAT: -13.14908

     GRADIENT =  0.03446 IS LESS THAN CUTOFF =  0.05000



 -------------------------------------------------------------------------------
 pm3  precise nosym THREADS=1
 InChI=1S/C7H12/c1-6-3-4-7(2)5-6/h3,7H,4-5H2,1-2H3



     GEOMETRY OPTIMISED USING EIGENVECTOR FOLLOWING (EF).     
     SCF FIELD WAS ACHIEVED                                   


                              PM3 CALCULATION
                                                       MOPAC v23.1.2 MacOS
                                                       Tue Jun  3 16:29:04 2025




          FINAL HEAT OF FORMATION =        -13.14908 KCAL/MOL =     -55.01574 KJ/MOL


          COSMO AREA              =        151.00 SQUARE ANGSTROMS
          COSMO VOLUME            =        145.47 CUBIC ANGSTROMS

          GRADIENT NORM           =          0.03446          =       0.00791 PER ATOM
          IONIZATION POTENTIAL    =          9.282601 EV
          HOMO LUMO ENERGIES (EV) =         -9.283  1.094
          NO. OF FILLED LEVELS    =         20
          MOLECULAR WEIGHT        =         96.1718         POINT GROUP:  C1  

          MOLECULAR DIMENSIONS (Angstroms)

            Atom       Atom       Distance
            H    17    H    13     6.44618
            H    11    H     9     4.06908
            H    12    H    10     3.06566


          SCF CALCULATIONS        =        126

          WALL-CLOCK TIME         =      0.781 SECONDS
          COMPUTATION TIME        =      0.458 SECONDS




   ATOM   CHEMICAL          X               Y               Z
  NUMBER   SYMBOL      (ANGSTROMS)     (ANGSTROMS)     (ANGSTROMS)

     1       C          1.15410476  *   0.45012538  *   0.14480310  *
     2       C         -0.18832618  *   0.83924604  *  -0.51031835  *
     3       C          0.82187410  *  -0.69631732  *   1.12441387  *
     4       C          2.18785951  *   0.03737376  *  -0.88236500  *
     5       C         -2.64047513  *   0.07288038  *  -0.20056273  *
     6       C         -1.21271311  *  -0.03469349  *   0.14828105  *
     7       C         -0.65846898  *  -0.87058056  *   1.03879371  *
     8       H          1.55228119  *   1.32048919  *   0.71577920  *
     9       H         -0.18320582  *   0.67688410  *  -1.60514141  *
    10       H         -0.42679933  *   1.90802666  *  -0.35900446  *
    11       H          1.13094113  *  -0.45656854  *   2.15825829  *
    12       H          1.34127426  *  -1.63682331  *   0.85883734  *
    13       H          3.13271976  *  -0.24901106  *  -0.40239910  *
    14       H          1.85068535  *  -0.82028420  *  -1.48029985  *
    15       H          2.40565010  *   0.85720249  *  -1.57920253  *
    16       H         -2.79456056  *  -0.12433683  *  -1.27004606  *
    17       H         -3.25574699  *  -0.63817831  *   0.36524451  *
    18       H         -3.01567754  *   1.08388557  *   0.00819211  *
    19       H         -1.18193470  *  -1.60709847  *   1.64825782  *

                             CARTESIAN COORDINATES

   1    C        1.154104755     0.450125380     0.144803099
   2    C       -0.188326179     0.839246036    -0.510318351
   3    C        0.821874104    -0.696317320     1.124413873
   4    C        2.187859511     0.037373758    -0.882364996
   5    C       -2.640475130     0.072880380    -0.200562735
   6    C       -1.212713106    -0.034693494     0.148281046
   7    C       -0.658468977    -0.870580561     1.038793709
   8    H        1.552281186     1.320489189     0.715779199
   9    H       -0.183205817     0.676884099    -1.605141407
  10    H       -0.426799335     1.908026657    -0.359004461
  11    H        1.130941127    -0.456568539     2.158258293
  12    H        1.341274264    -1.636823309     0.858837338
  13    H        3.132719756    -0.249011064    -0.402399102
  14    H        1.850685354    -0.820284198    -1.480299846
  15    H        2.405650101     0.857202486    -1.579202527
  16    H       -2.794560557    -0.124336835    -1.270046063
  17    H       -3.255746993    -0.638178310     0.365244515
  18    H       -3.015677536     1.083885569     0.008192110
  19    H       -1.181934703    -1.607098466     1.648257816


           Empirical Formula: C7 H12  =    19 atoms



      MOLECULAR POINT GROUP   :   C1  


                  EIGENVALUES  
 -40.86845 -32.97887 -29.26521 -26.54201 -23.30304 -19.71981 -18.19307 -16.81283
 -16.00367 -14.52927 -14.36673 -14.11167 -13.67344 -13.29446 -12.84878 -12.56500
 -12.35245 -11.99810 -11.68996  -9.28260   1.09367   3.35239   3.53140   3.73435
   3.80291   3.87216   3.97807   4.07375   4.32631   4.35879   4.40359   4.45446
   4.46190   4.58985   4.67894   4.81617   5.21242   5.31593   5.75140   6.11992


              NET ATOMIC CHARGES AND DIPOLE CONTRIBUTIONS

  ATOM NO.   TYPE          CHARGE      No. of ELECS.   s-Pop       p-Pop       
    1          C          -0.077829        4.0778     1.18186     2.89597
    2          C          -0.058324        4.0583     1.15640     2.90193
    3          C          -0.063120        4.0631     1.15634     2.90678
    4          C          -0.107764        4.1078     1.14136     2.96640
    5          C          -0.050627        4.0506     1.11770     2.93293
    6          C          -0.135638        4.1356     1.20324     2.93240
    7          C          -0.159315        4.1593     1.19996     2.95936
    8          H           0.061753        0.9382     0.93825
    9          H           0.060004        0.9400     0.94000
   10          H           0.055085        0.9449     0.94492
   11          H           0.054291        0.9457     0.94571
   12          H           0.059262        0.9407     0.94074
   13          H           0.038435        0.9616     0.96156
   14          H           0.042508        0.9575     0.95749
   15          H           0.038151        0.9618     0.96185
   16          H           0.044125        0.9559     0.95588
   17          H           0.041802        0.9582     0.95820
   18          H           0.044154        0.9558     0.95585
   19          H           0.113048        0.8870     0.88695
 DIPOLE           X         Y         Z       TOTAL
 POINT-CHG.     0.017     0.112    -0.141     0.181
 HYBRID         0.000    -0.013    -0.019     0.023
 SUM            0.017     0.099    -0.160     0.189


          ATOMIC ORBITAL ELECTRON POPULATIONS

     Atom    s        px        py        pz   
    1  C   1.18186   0.95266   0.97954   0.96377
    2  C   1.15640   0.93083   0.98130   0.98979
    3  C   1.15634   0.94412   0.97786   0.98481
    4  C   1.14136   0.97941   1.00577   0.98121
    5  C   1.11770   0.92450   1.00640   1.00203
    6  C   1.20324   0.95879   0.98645   0.98715
    7  C   1.19996   0.96350   0.99834   0.99752
    8  H   0.93825
    9  H   0.94000
   10  H   0.94492
   11  H   0.94571
   12  H   0.94074
   13  H   0.96156
   14  H   0.95749
   15  H   0.96185
   16  H   0.95588
   17  H   0.95820
   18  H   0.95585
   19  H   0.88695
 *******************************************************************************
 **                                                                           **
 **                              MOPAC v23.1.2                                **
 **                                                                           **
 *******************************************************************************
 **          Digital Object Identifier (DOI): 10.5281/zenodo.6511958          **
 **    Visit the DOI location for information on how to cite this program.    **
 *******************************************************************************

                              PM3 CALCULATION RESULTS

 *******************************************************************************
 *  CALCULATION DONE: (MAX THREADS = 1)              Tue Jun  3 16:29:04 2025  *
 *  PM3        - The PM3 Hamiltonian to be used
 *  OLDGEO     - PREVIOUS GEOMETRY TO BE USED
 *  PRECISE    - TIGHTER CRITERIA TO BE USED
 *  NOSYM      - POINT-GROUP SYMMETRY SET TO C1
 *  THREADS=1  - MULTI-THREADING NOT USED
 *  T=         - A TIME OF 172800.0 SECONDS REQUESTED
 *  DUMP=N     - RESTART FILE WRITTEN EVERY 7200.0 SECONDS REQUESTED
 *  THERMO     - THERMODYNAMIC QUANTITIES TO BE CALCULATED
 *******************************************************************************
oldgeo thermo nosym precise THREADS=1  pm3
 InChI=1S/C7H12/c1-6-3-4-7(2)5-6/h3,7H,4-5H2,1-2H3

   ATOM   CHEMICAL          X               Y               Z
  NUMBER   SYMBOL      (ANGSTROMS)     (ANGSTROMS)     (ANGSTROMS)

     1       C          1.15410476  *   0.45012538  *   0.14480310  *
     2       C         -0.18832618  *   0.83924604  *  -0.51031835  *
     3       C          0.82187410  *  -0.69631732  *   1.12441387  *
     4       C          2.18785951  *   0.03737376  *  -0.88236500  *
     5       C         -2.64047513  *   0.07288038  *  -0.20056273  *
     6       C         -1.21271311  *  -0.03469349  *   0.14828105  *
     7       C         -0.65846898  *  -0.87058056  *   1.03879371  *
     8       H          1.55228119  *   1.32048919  *   0.71577920  *
     9       H         -0.18320582  *   0.67688410  *  -1.60514141  *
    10       H         -0.42679933  *   1.90802666  *  -0.35900446  *
    11       H          1.13094113  *  -0.45656854  *   2.15825829  *
    12       H          1.34127426  *  -1.63682331  *   0.85883734  *
    13       H          3.13271976  *  -0.24901106  *  -0.40239910  *
    14       H          1.85068535  *  -0.82028420  *  -1.48029985  *
    15       H          2.40565010  *   0.85720249  *  -1.57920253  *
    16       H         -2.79456056  *  -0.12433683  *  -1.27004606  *
    17       H         -3.25574699  *  -0.63817831  *   0.36524451  *
    18       H         -3.01567754  *   1.08388557  *   0.00819211  *
    19       H         -1.18193470  *  -1.60709847  *   1.64825782  *



          CARTESIAN COORDINATES 

    NO.       ATOM           X           Y           Z

     1         C          1.1541      0.4501      0.1448
     2         C         -0.1883      0.8392     -0.5103
     3         C          0.8219     -0.6963      1.1244
     4         C          2.1879      0.0374     -0.8824
     5         C         -2.6405      0.0729     -0.2006
     6         C         -1.2127     -0.0347      0.1483
     7         C         -0.6585     -0.8706      1.0388
     8         H          1.5523      1.3205      0.7158
     9         H         -0.1832      0.6769     -1.6051
    10         H         -0.4268      1.9080     -0.3590
    11         H          1.1309     -0.4566      2.1583
    12         H          1.3413     -1.6368      0.8588
    13         H          3.1327     -0.2490     -0.4024
    14         H          1.8507     -0.8203     -1.4803
    15         H          2.4057      0.8572     -1.5792
    16         H         -2.7946     -0.1243     -1.2700
    17         H         -3.2557     -0.6382      0.3652
    18         H         -3.0157      1.0839      0.0082
    19         H         -1.1819     -1.6071      1.6483

  H: (PM3): J. J. P. STEWART, J. COMP. CHEM. 10, 209 (1989).
  C: (PM3): J. J. P. STEWART, J. COMP. CHEM. 10, 209 (1989).

           Empirical Formula: C7 H12  =    19 atoms



      MOLECULAR POINT GROUP   :   C1  


      RHF CALCULATION, NO. OF DOUBLY OCCUPIED LEVELS = 20



          HEAT OF FORMATION =     -13.149078 KCALS/MOLE


          CARTESIAN COORDINATE DERIVATIVES

   NUMBER  ATOM         X            Y            Z

     1       C     -0.001375    -0.005484     0.001514
     2       C      0.000221    -0.002230     0.001115
     3       C     -0.002657    -0.000288     0.001665
     4       C     -0.001366     0.001087     0.001634
     5       C     -0.003680     0.002459    -0.016446
     6       C      0.000576     0.001574    -0.003014
     7       C      0.001003    -0.004332     0.006383
     8       H      0.000040     0.001506    -0.001466
     9       H      0.005862     0.006037    -0.000266
    10       H     -0.003924    -0.000595    -0.001132
    11       H      0.004386     0.006096    -0.005929
    12       H      0.000267    -0.003380     0.004390
    13       H     -0.001875     0.001919     0.000085
    14       H      0.007006    -0.000621     0.008110
    15       H     -0.001250     0.002711    -0.006922
    16       H     -0.000709    -0.007232    -0.008055
    17       H      0.002254    -0.000731     0.004591
    18       H     -0.000799     0.005286     0.014788
    19       H     -0.003980    -0.003783    -0.001045



          GRADIENT NORM =   0.03515

          MOLECULAR WEIGHT =   96.17



          ROTATIONAL CONSTANTS IN CM(-1)

          A =    0.17229645   B =    0.06469090   C =    0.05194767



           PRINCIPAL MOMENTS OF INERTIA IN UNITS OF 10**(-40)*GRAM-CM**2

          A =      162.4685   B =      432.7154   C =      538.8644


          ORIENTATION OF MOLECULE IN FORCE CALCULATION

    NO.       ATOM         X         Y         Z

     1          C      -0.9578   -0.8723    0.1535
     2          C       0.5858   -0.8723    0.1535
     3          C      -1.3736    0.6147    0.1535
     4          C      -1.5249   -1.6203   -1.0352
     5          C       2.3938    0.9759    0.2620
     6          C       0.9769    0.5735    0.2136
     7          C      -0.0938    1.3813    0.2134
     8          H      -1.3270   -1.3594    1.0854
     9          H       1.0051   -1.3523   -0.7515
    10          H       0.9984   -1.4280    1.0155
    11          H      -2.0207    0.8609    1.0151
    12          H      -1.9497    0.8877   -0.7512
    13          H      -2.6225   -1.6014   -1.0299
    14          H      -1.1941   -1.1852   -1.9881
    15          H      -1.2119   -2.6725   -1.0294
    16          H       2.9319    0.6083   -0.6221
    17          H       2.5095    2.0666    0.2976
    18          H       2.8863    0.5555    1.1492
    19          H      -0.0828    2.4706    0.2489


    FIRST DERIVATIVES WILL BE USED IN THE CALCULATION OF SECOND DERIVATIVES

          ESTIMATED TIME TO COMPLETE CALCULATION =        1.78 SECONDS

    FOR POINT-GROUP C1   THERE ARE   1 UNIQUE SYMMETRY FUNCTIONS.

 STEP:   1 TIME =     0.02 SECS, INTEGRAL =      0.02 TIME LEFT: 172799.97
 STEP:   2 TIME =     0.02 SECS, INTEGRAL =      0.04 TIME LEFT: 172799.96
 STEP:   3 TIME =     0.02 SECS, INTEGRAL =      0.05 TIME LEFT: 172799.94
 STEP:   4 TIME =     0.02 SECS, INTEGRAL =      0.07 TIME LEFT: 172799.93
 STEP:   5 TIME =     0.01 SECS, INTEGRAL =      0.08 TIME LEFT: 172799.91
 STEP:   6 TIME =     0.02 SECS, INTEGRAL =      0.09 TIME LEFT: 172799.90
 STEP:   7 TIME =     0.01 SECS, INTEGRAL =      0.11 TIME LEFT: 172799.89
 STEP:   8 TIME =     0.01 SECS, INTEGRAL =      0.12 TIME LEFT: 172799.88
 STEP:   9 TIME =     0.01 SECS, INTEGRAL =      0.13 TIME LEFT: 172799.86
 STEP:  10 TIME =     0.02 SECS, INTEGRAL =      0.14 TIME LEFT: 172799.85
 STEP:  11 TIME =     0.02 SECS, INTEGRAL =      0.16 TIME LEFT: 172799.83
 STEP:  12 TIME =     0.02 SECS, INTEGRAL =      0.18 TIME LEFT: 172799.82
 STEP:  13 TIME =     0.02 SECS, INTEGRAL =      0.19 TIME LEFT: 172799.80
 STEP:  14 TIME =     0.02 SECS, INTEGRAL =      0.21 TIME LEFT: 172799.79
 STEP:  15 TIME =     0.02 SECS, INTEGRAL =      0.22 TIME LEFT: 172799.77
 STEP:  16 TIME =     0.01 SECS, INTEGRAL =      0.23 TIME LEFT: 172799.76
 STEP:  17 TIME =     0.01 SECS, INTEGRAL =      0.25 TIME LEFT: 172799.75
 STEP:  18 TIME =     0.01 SECS, INTEGRAL =      0.26 TIME LEFT: 172799.73
 STEP:  19 TIME =     0.02 SECS, INTEGRAL =      0.27 TIME LEFT: 172799.72
 STEP:  20 TIME =     0.01 SECS, INTEGRAL =      0.29 TIME LEFT: 172799.71
 STEP:  21 TIME =     0.02 SECS, INTEGRAL =      0.30 TIME LEFT: 172799.69
 STEP:  22 TIME =     0.02 SECS, INTEGRAL =      0.32 TIME LEFT: 172799.68
 STEP:  23 TIME =     0.02 SECS, INTEGRAL =      0.33 TIME LEFT: 172799.66
 STEP:  24 TIME =     0.02 SECS, INTEGRAL =      0.35 TIME LEFT: 172799.64
 STEP:  25 TIME =     0.01 SECS, INTEGRAL =      0.36 TIME LEFT: 172799.63
 STEP:  26 TIME =     0.01 SECS, INTEGRAL =      0.37 TIME LEFT: 172799.62
 STEP:  27 TIME =     0.02 SECS, INTEGRAL =      0.39 TIME LEFT: 172799.61
 STEP:  28 TIME =     0.02 SECS, INTEGRAL =      0.40 TIME LEFT: 172799.59
 STEP:  29 TIME =     0.02 SECS, INTEGRAL =      0.42 TIME LEFT: 172799.57
 STEP:  30 TIME =     0.02 SECS, INTEGRAL =      0.43 TIME LEFT: 172799.56
 STEP:  31 TIME =     0.02 SECS, INTEGRAL =      0.45 TIME LEFT: 172799.54
 STEP:  32 TIME =     0.02 SECS, INTEGRAL =      0.46 TIME LEFT: 172799.53
 STEP:  33 TIME =     0.01 SECS, INTEGRAL =      0.48 TIME LEFT: 172799.52
 STEP:  34 TIME =     0.01 SECS, INTEGRAL =      0.49 TIME LEFT: 172799.50
 STEP:  35 TIME =     0.01 SECS, INTEGRAL =      0.50 TIME LEFT: 172799.49
 STEP:  36 TIME =     0.01 SECS, INTEGRAL =      0.51 TIME LEFT: 172799.48
 STEP:  37 TIME =     0.01 SECS, INTEGRAL =      0.52 TIME LEFT: 172799.47
 STEP:  38 TIME =     0.02 SECS, INTEGRAL =      0.54 TIME LEFT: 172799.45
 STEP:  39 TIME =     0.02 SECS, INTEGRAL =      0.55 TIME LEFT: 172799.44
 STEP:  40 TIME =     0.01 SECS, INTEGRAL =      0.57 TIME LEFT: 172799.43
 STEP:  41 TIME =     0.01 SECS, INTEGRAL =      0.58 TIME LEFT: 172799.41
 STEP:  42 TIME =     0.01 SECS, INTEGRAL =      0.59 TIME LEFT: 172799.40
 STEP:  43 TIME =     0.01 SECS, INTEGRAL =      0.60 TIME LEFT: 172799.39
 STEP:  44 TIME =     0.02 SECS, INTEGRAL =      0.62 TIME LEFT: 172799.38
 STEP:  45 TIME =     0.02 SECS, INTEGRAL =      0.63 TIME LEFT: 172799.36
 STEP:  46 TIME =     0.01 SECS, INTEGRAL =      0.64 TIME LEFT: 172799.35
 STEP:  47 TIME =     0.01 SECS, INTEGRAL =      0.66 TIME LEFT: 172799.34
 STEP:  48 TIME =     0.02 SECS, INTEGRAL =      0.67 TIME LEFT: 172799.32
 STEP:  49 TIME =     0.02 SECS, INTEGRAL =      0.69 TIME LEFT: 172799.30
 STEP:  50 TIME =     0.01 SECS, INTEGRAL =      0.70 TIME LEFT: 172799.29
 STEP:  51 TIME =     0.02 SECS, INTEGRAL =      0.71 TIME LEFT: 172799.28
 STEP:  52 TIME =     0.02 SECS, INTEGRAL =      0.73 TIME LEFT: 172799.26
 STEP:  53 TIME =     0.02 SECS, INTEGRAL =      0.75 TIME LEFT: 172799.25
 STEP:  54 TIME =     0.01 SECS, INTEGRAL =      0.76 TIME LEFT: 172799.23
 STEP:  55 TIME =     0.02 SECS, INTEGRAL =      0.77 TIME LEFT: 172799.22
 STEP:  56 TIME =     0.02 SECS, INTEGRAL =      0.79 TIME LEFT: 172799.20
 STEP:  57 TIME =     0.02 SECS, INTEGRAL =      0.80 TIME LEFT: 172799.19

(To convert to Hartree/Bohr^2, multiply by (10^(-21) x N x a0^2)/(4.184 x 627.51) =  0.0642)


           FORCE MATRIX IN MILLIDYNES/ANGSTROM


                  C  1       C  2       C  3       C  4       C  5       C  6
 ------------------------------------------------------------------------------
     C    1  14.302379
     C    2   3.524735  14.578861
     C    3   3.511156   0.720640  14.641118
     C    4   4.362305   0.606705   0.606096  14.433914
     C    5   0.047810   0.518387   0.131448   0.006291  14.855462
     C    6   0.852034   4.561819   1.173743   0.034036   5.429787  18.900098
     C    7   0.862167   1.137957   4.791403   0.033356   0.724901  10.285711
     H    8   4.312849   0.423649   0.423839   0.423306   0.003722   0.025221
     H    9   0.448439   4.479318   0.024923   0.061162   0.012518   0.437090
     H   10   0.436230   4.525017   0.029702   0.026702   0.012933   0.440501
     H   11   0.436389   0.030082   4.524540   0.026771   0.019034   0.036871
     H   12   0.448587   0.025210   4.477815   0.061453   0.019033   0.035225
     H   13   0.451723   0.048051   0.020139   4.738971   0.001601   0.005494
     H   14   0.468143   0.021100   0.020975   4.716024   0.000570   0.001570
     H   15   0.451941   0.020272   0.048070   4.737882   0.000856   0.002208
     H   16   0.002288   0.014105   0.018504   0.000613   4.702549   0.451012
     H   17   0.007664   0.043130   0.003218   0.001321   4.751403   0.473105
     H   18   0.002236   0.014062   0.018437   0.000688   4.701659   0.450663
     H   19   0.041953   0.109589   0.410892   0.004478   0.056348   0.460081


                  C  7       H  8       H  9       H 10       H 11       H 12
 ------------------------------------------------------------------------------
     C    7  18.359419
     H    8   0.025141   4.765999
     H    9   0.034787   0.027866   5.099167
     H   10   0.036510   0.028402   0.569910   5.126729
     H   11   0.430259   0.028461   0.003701   0.001170   5.127697
     H   12   0.426966   0.027877   0.001382   0.003717   0.572119   5.099314
     H   13   0.001720   0.030602   0.002827   0.004313   0.001644   0.017102
     H   14   0.001719   0.047109   0.023319   0.001536   0.001530   0.023212
     H   15   0.005448   0.030609   0.016981   0.001608   0.004346   0.002771
     H   16   0.031920   0.000394   0.006157   0.001002   0.002254   0.003207
     H   17   0.027518   0.000784   0.001357   0.001357   0.000530   0.000492
     H   18   0.031807   0.000254   0.001062   0.006497   0.003254   0.002323
     H   19   5.007056   0.002752   0.015027   0.015063   0.014765   0.014015


                  H 13       H 14       H 15       H 16       H 17       H 18
 ------------------------------------------------------------------------------
     H   13   5.475122
     H   14   0.573526   5.459265
     H   15   0.570330   0.573163   5.474856
     H   16   0.000147   0.000165   0.000174   5.412419
     H   17   0.000333   0.000132   0.000169   0.559119   5.455647
     H   18   0.000179   0.000110   0.000148   0.572056   0.559026   5.411800
     H   19   0.000505   0.000522   0.001114   0.007020   0.013464   0.007051


                  H 19
 ------------------
     H   19   5.409066


          HEAT OF FORMATION =     -13.149078 KCALS/MOLE

          ZERO POINT ENERGY     107.407 KCAL/MOL


           NORMAL COORDINATE ANALYSIS (Total motion = 1 Angstrom)


   Root No.       1         2         3         4         5         6         7         8

                 1 A       2 A       3 A       4 A       5 A       6 A       7 A       8 A   

                  61.7     105.3     196.8     215.5     301.0     408.1     437.2     450.9
  
           1   -0.0070   -0.0034    0.0011   -0.0068   -0.0005   -0.0288    0.0022   -0.0022
           2   -0.0048    0.0020   -0.0007    0.0087   -0.0095    0.0195    0.0006    0.0007
           3    0.0061    0.0033   -0.0039   -0.0072   -0.0041   -0.0028    0.0523   -0.0062
           4   -0.0068   -0.0034    0.0013   -0.0075    0.0052   -0.0257    0.0017   -0.0023
           5   -0.0067   -0.0007    0.0001    0.0042   -0.0275   -0.0164   -0.0179    0.0017
           6    0.0492    0.0182   -0.0023    0.0103    0.0206   -0.0168   -0.0190   -0.0059
           7   -0.0060   -0.0009    0.0006   -0.0013    0.0154    0.0018   -0.0086    0.0008
           8   -0.0044    0.0027   -0.0011    0.0104   -0.0065    0.0294   -0.0016    0.0018
           9    0.0271   -0.0074   -0.0073   -0.0272   -0.0197    0.0204   -0.0178    0.0027
          10    0.0301    0.0080    0.0008    0.0131   -0.0390    0.0267    0.0344   -0.0012
          11    0.0275   -0.0019   -0.0052   -0.0149    0.0184   -0.0257    0.0434   -0.0060
          12   -0.0327    0.0002   -0.0009   -0.0017   -0.0040   -0.0012    0.0171   -0.0045
          13   -0.0042   -0.0004   -0.0013    0.0025   -0.0046   -0.0075   -0.0190    0.0020
          14   -0.0050   -0.0020    0.0066   -0.0105    0.0547    0.0214   -0.0038    0.0017
          15   -0.0343   -0.0078   -0.0178   -0.0348   -0.0033    0.0019   -0.0015   -0.0065
          16   -0.0052   -0.0012   -0.0006   -0.0029    0.0165    0.0062   -0.0107   -0.0005
          17   -0.0052   -0.0007    0.0006    0.0017   -0.0270   -0.0268   -0.0196   -0.0023
          18   -0.0008    0.0028    0.0103    0.0265    0.0126   -0.0131   -0.0052    0.0873
          19   -0.0045    0.0001   -0.0017   -0.0006    0.0191    0.0223   -0.0069    0.0028
          20   -0.0043    0.0010   -0.0010    0.0048   -0.0235   -0.0056   -0.0141    0.0021
          21   -0.0107   -0.0073    0.0298    0.0511    0.0022    0.0053   -0.0068   -0.0324
          22   -0.0368   -0.0138   -0.0019   -0.0178   -0.0121   -0.0442    0.0091   -0.0015
          23   -0.0293    0.0064    0.0050    0.0232   -0.0028    0.0299    0.0129   -0.0001
          24   -0.0188    0.0014   -0.0021   -0.0039   -0.0051   -0.0034    0.0586   -0.0063
          25    0.0189    0.0046    0.0034    0.0017    0.0107   -0.0451   -0.0496   -0.0158
          26   -0.0495   -0.0149    0.0058    0.0082   -0.0481   -0.0182    0.0264    0.1201
          27    0.0840    0.0296   -0.0043    0.0124    0.0353   -0.0257   -0.0689   -0.0778
          28   -0.0327   -0.0128    0.0009   -0.0190   -0.0194   -0.0322    0.0570    0.0119
          29    0.0328    0.0112   -0.0048   -0.0021   -0.0196   -0.0379   -0.0614   -0.1103
          30    0.0872    0.0306   -0.0052    0.0119    0.0374   -0.0281   -0.0750   -0.0877
          31    0.0253   -0.0039   -0.0296   -0.0658   -0.0067    0.0378   -0.0610    0.0467
          32   -0.0084    0.0091   -0.0066    0.0092    0.0062    0.0362    0.0410    0.0046
          33    0.0520   -0.0115   -0.0288   -0.0760   -0.0403    0.0463   -0.0709    0.0375
          34   -0.0387    0.0032    0.0324    0.0686    0.0448   -0.0201    0.0454   -0.0464
          35    0.0003   -0.0019    0.0034    0.0165   -0.0006    0.0500   -0.0376   -0.0010
          36    0.0496   -0.0114   -0.0266   -0.0705   -0.0376    0.0423   -0.0655    0.0332
          37    0.0300    0.0080    0.0032    0.0122   -0.0392    0.0269    0.0349   -0.0012
          38    0.0301    0.0016    0.1795   -0.0952    0.0281   -0.0710    0.0438   -0.0059
          39   -0.0690   -0.0129   -0.1186    0.0290    0.0357   -0.0481   -0.0238   -0.0071
          40    0.0633    0.0207    0.1736   -0.0446   -0.0692    0.0491    0.0705    0.0001
          41    0.0520   -0.0076   -0.1405    0.0209    0.0399   -0.0460    0.0924   -0.0138
          42   -0.0099    0.0021   -0.0027   -0.0054   -0.0046   -0.0025    0.0499   -0.0075
          43    0.0270    0.0046   -0.1765    0.0904   -0.0485    0.0702    0.0364   -0.0015
          44    0.0264   -0.0029   -0.0568    0.0076    0.0159   -0.0138    0.0444   -0.0061
          45   -0.0503    0.0090    0.1212   -0.0238   -0.0426    0.0492   -0.0247    0.0048
          46   -0.0164   -0.0691   -0.0166   -0.0411    0.0106    0.0244   -0.0109   -0.0797
          47   -0.0390    0.2116   -0.0045   -0.0405    0.0890    0.0531    0.0049   -0.0214
          48   -0.0277   -0.1387   -0.0227   -0.0494   -0.0078    0.0090    0.0000   -0.0481
          49   -0.0024   -0.0057   -0.0053    0.0156   -0.0817   -0.0618   -0.0367    0.0017
          50   -0.0038   -0.0095    0.0077   -0.0108    0.0645    0.0281   -0.0018    0.0032
          51   -0.0769    0.2395   -0.0370   -0.0704   -0.0140    0.0072   -0.0008   -0.0516
          52    0.0072    0.0744    0.0176    0.0380    0.0374   -0.0004   -0.0169    0.0871
          53    0.0279   -0.2085    0.0225    0.0083    0.1001    0.0458    0.0035    0.0289
          54   -0.0250   -0.1475   -0.0210   -0.0459   -0.0060    0.0091    0.0006   -0.0423
          55   -0.0029    0.0018   -0.0034    0.0018    0.0295    0.0548    0.0041    0.0067
          56   -0.0033    0.0012   -0.0018    0.0035   -0.0231   -0.0060   -0.0142    0.0062
          57   -0.0420   -0.0147    0.0542    0.0894   -0.0014    0.0190   -0.0063   -0.1584


   Root No.       9        10        11        12        13        14        15        16

                 9 A      10 A      11 A      12 A      13 A      14 A      15 A      16 A   

                 601.9     685.2     810.1     888.6     908.7     938.7     947.3     968.2
  
           1   -0.0470   -0.0073   -0.0041    0.0035   -0.0062    0.0039   -0.0122    0.0122
           2   -0.0241   -0.0466   -0.0079    0.0005   -0.0140    0.0092    0.0099   -0.0067
           3    0.0310    0.0234    0.0085    0.0010    0.0152   -0.0013    0.0002   -0.0000
           4   -0.0348   -0.0234   -0.0082    0.0190    0.0375   -0.0049    0.0216   -0.0215
           5    0.0303    0.0018    0.0011   -0.0073   -0.0041    0.0070   -0.0266   -0.0311
           6    0.0010    0.0055   -0.0016    0.0522   -0.0071    0.0070   -0.0008   -0.0055
           7   -0.0091    0.0726    0.0102   -0.0117   -0.0271    0.0025    0.0167   -0.0097
           8   -0.0262   -0.0067   -0.0079    0.0154    0.0379   -0.0080   -0.0116    0.0132
           9    0.0020    0.0095   -0.0379   -0.0056    0.0168    0.0305    0.0028    0.0071
          10   -0.0095   -0.0092    0.0023   -0.0026   -0.0188    0.0044   -0.0204    0.0273
          11   -0.0082   -0.0204    0.0025   -0.0098   -0.0269    0.0148    0.0146   -0.0113
          12   -0.0129   -0.0171    0.0087   -0.0155   -0.0161   -0.0124   -0.0007   -0.0005
          13    0.0607   -0.0387   -0.0001    0.0011   -0.0005   -0.0029   -0.0062    0.0120
          14    0.0178   -0.0027    0.0007    0.0024    0.0019   -0.0062    0.0263    0.0275
          15    0.0015   -0.0021    0.0088   -0.0172    0.0120    0.0120    0.0005    0.0092
          16    0.0346   -0.0224   -0.0006   -0.0002   -0.0015    0.0013    0.0000   -0.0033
          17    0.0248    0.0106    0.0026    0.0007   -0.0021   -0.0026    0.0104    0.0069
          18   -0.0060   -0.0059    0.0085   -0.0134    0.0029   -0.0037    0.0003   -0.0044
          19    0.0014    0.0282    0.0018   -0.0032    0.0008    0.0018   -0.0056   -0.0040
          20   -0.0168    0.0633    0.0043   -0.0021   -0.0006   -0.0023   -0.0026    0.0141
          21   -0.0016    0.0023   -0.0241   -0.0004   -0.0125   -0.0309   -0.0015   -0.0030
          22   -0.0537   -0.0336   -0.0159   -0.0532    0.0360   -0.0076   -0.0406   -0.0146
          23   -0.0425   -0.0577    0.0227    0.0102   -0.0179   -0.0618    0.0321   -0.0098
          24    0.0171    0.0057    0.0199   -0.0178    0.0255   -0.0421    0.0004   -0.0113
          25   -0.0758   -0.0385   -0.0161   -0.0502    0.0475   -0.0256    0.0155   -0.0648
          26    0.0495    0.0350   -0.0086    0.1307   -0.0333    0.0198   -0.0381   -0.0849
          27   -0.0286   -0.0203    0.0001   -0.0579    0.0143   -0.0101    0.0023    0.0011
          28   -0.0065    0.0302    0.0009    0.1102    0.0844    0.0091    0.0044   -0.0540
          29    0.0109    0.0040    0.0127   -0.1231    0.0607   -0.0039   -0.0491   -0.0647
          30   -0.0274   -0.0199    0.0015   -0.0705    0.0140   -0.0076   -0.0072   -0.0105
          31   -0.0361    0.0507    0.1441    0.0081   -0.0464   -0.0678    0.0199   -0.0375
          32    0.0167    0.0199   -0.0053    0.0167    0.1201    0.0439    0.0049   -0.0030
          33   -0.0314   -0.0181    0.0662    0.0101   -0.0223   -0.0401    0.0010   -0.0095
          34    0.0283    0.1182   -0.1308   -0.0340    0.0075    0.0774    0.0241    0.0029
          35   -0.0404   -0.0286   -0.0166    0.0219    0.0091   -0.0642   -0.0124    0.0051
          36   -0.0280   -0.0256    0.0537    0.0114   -0.0149   -0.0375   -0.0027   -0.0039
          37   -0.0095   -0.0089    0.0025   -0.0036   -0.0187    0.0034   -0.0205    0.0272
          38   -0.0231   -0.0076    0.0130    0.0103   -0.0281   -0.0129   -0.0828    0.0879
          39   -0.0715   -0.0378   -0.0071    0.0244   -0.0796    0.0478   -0.0947    0.1205
          40    0.0328    0.0098    0.0203   -0.0381    0.0261   -0.0558    0.0278   -0.0442
          41    0.0306    0.0212    0.0369   -0.0279    0.0325   -0.0909   -0.0217    0.0022
          42    0.0181    0.0074    0.0297   -0.0353    0.0247   -0.0786   -0.0006   -0.0184
          43    0.0043   -0.0232   -0.0044   -0.0301   -0.0248    0.0221    0.0725   -0.0710
          44   -0.0040   -0.0246    0.0012   -0.0178   -0.0288    0.0185    0.0405   -0.0393
          45   -0.0390   -0.0690   -0.0232   -0.0210   -0.0851    0.0915    0.0915   -0.0746
          46    0.0735   -0.0367   -0.0607    0.0806   -0.0658   -0.0514   -0.0679   -0.0636
          47    0.0185   -0.0041   -0.0174    0.0169   -0.0253   -0.0068   -0.0595   -0.0456
          48    0.0086    0.0007   -0.0221    0.0265   -0.0180   -0.0183   -0.0025   -0.0086
          49    0.0766   -0.0374    0.0030    0.0172    0.0231   -0.0341    0.1539    0.1521
          50    0.0163   -0.0030    0.0015   -0.0011   -0.0001   -0.0015    0.0064    0.0121
          51    0.0072    0.0039   -0.0256    0.0283   -0.0189   -0.0208    0.0043   -0.0072
          52    0.0538   -0.0581    0.0603   -0.0915    0.0516    0.0659   -0.0688    0.0100
          53    0.0125   -0.0108    0.0186   -0.0319    0.0078    0.0258   -0.0598   -0.0251
          54    0.0036    0.0044   -0.0179    0.0199   -0.0149   -0.0127   -0.0044   -0.0138
          55   -0.0433    0.0293   -0.0187    0.0147    0.0668   -0.0086   -0.0479    0.0047
          56   -0.0161    0.0638   -0.0052   -0.0042   -0.0022   -0.0072   -0.0024    0.0146
          57   -0.0067   -0.0166    0.2722    0.0688    0.0414    0.1134    0.0053    0.0010


   Root No.      17        18        19        20        21        22        23        24

                17 A      18 A      19 A      20 A      21 A      22 A      23 A      24 A   

                 999.9    1002.4    1029.2    1058.9    1080.7    1092.2    1121.4    1157.5
  
           1    0.0080    0.0013    0.0001    0.0062   -0.0072    0.0249    0.0136   -0.0134
           2   -0.0014    0.0031   -0.0059   -0.0103    0.0010    0.0388   -0.0095   -0.0240
           3   -0.0049    0.0051    0.0152    0.0034    0.0016    0.0011   -0.0023    0.0349
           4    0.0012    0.0115    0.0017   -0.0107    0.0028   -0.0170   -0.0202   -0.0013
           5   -0.0291   -0.0267   -0.0079    0.0015   -0.0024    0.0122   -0.0028   -0.0057
           6   -0.0053    0.0092   -0.0169    0.0058   -0.0113    0.0131    0.0166   -0.0079
           7   -0.0069   -0.0002   -0.0034   -0.0215    0.0030    0.0066    0.0006   -0.0009
           8    0.0043    0.0006    0.0047   -0.0015    0.0013   -0.0172    0.0203    0.0020
           9    0.0154   -0.0100   -0.0107   -0.0141    0.0062    0.0132   -0.0139   -0.0070
          10   -0.0097   -0.0060    0.0048   -0.0087    0.0042   -0.0116   -0.0065    0.0060
          11   -0.0030    0.0033    0.0084    0.0130   -0.0007   -0.0174    0.0047    0.0098
          12    0.0061   -0.0077   -0.0145    0.0020   -0.0002   -0.0264   -0.0005   -0.0340
          13    0.0226    0.0191    0.0062    0.0025    0.0010   -0.0091    0.0016    0.0053
          14   -0.0077   -0.0134    0.0001    0.0091    0.0005    0.0008    0.0017    0.0015
          15   -0.0150    0.0200   -0.0165    0.0003   -0.0153   -0.0021    0.0013    0.0012
          16   -0.0111   -0.0094   -0.0042   -0.0028   -0.0012    0.0096    0.0005   -0.0078
          17    0.0056    0.0070    0.0008   -0.0073   -0.0013   -0.0030    0.0002   -0.0005
          18    0.0158   -0.0214    0.0237   -0.0005    0.0357    0.0051   -0.0039   -0.0032
          19   -0.0079   -0.0115   -0.0033    0.0170   -0.0009    0.0074   -0.0063   -0.0049
          20    0.0359    0.0275    0.0072    0.0211   -0.0015   -0.0061   -0.0084    0.0024
          21   -0.0213    0.0188    0.0139    0.0030   -0.0265   -0.0009    0.0026   -0.0020
          22    0.0441   -0.0557   -0.0065    0.0689   -0.0420    0.1540    0.2459    0.0782
          23    0.0040    0.0387   -0.0457   -0.0956    0.0164    0.1847   -0.1635    0.1254
          24    0.0126    0.0006   -0.0089   -0.0152   -0.0042    0.1266    0.0090    0.1518
          25    0.0671   -0.0777   -0.0230   -0.0338   -0.0953   -0.1435   -0.0857    0.1160
          26   -0.0191   -0.0664   -0.0820   -0.0024   -0.1025   -0.0613   -0.0275    0.0550
          27    0.0196   -0.0140    0.0118   -0.0038   -0.0039   -0.0073   -0.0025    0.0170
          28   -0.1030    0.1067    0.0300    0.0257    0.1344    0.0097    0.0065   -0.0435
          29   -0.1012   -0.0094    0.0566    0.0137    0.1178   -0.0009   -0.0327   -0.0016
          30    0.0006   -0.0253    0.0131   -0.0031    0.0036   -0.0070   -0.0131    0.0161
          31   -0.0668    0.0016    0.0663   -0.0649   -0.0488   -0.0262    0.0599    0.0095
          32   -0.0237   -0.0559    0.1420   -0.1439   -0.1264   -0.0141    0.0546   -0.0495
          33   -0.0220    0.0095    0.0029   -0.0062    0.0040   -0.0108    0.0183    0.0164
          34    0.0110   -0.0389   -0.0746   -0.0820    0.0669   -0.0239    0.0372    0.0191
          35   -0.0398   -0.0033   -0.1204   -0.0507    0.1360   -0.1341    0.1363    0.1094
          36   -0.0113    0.0137   -0.0034    0.0096    0.0074   -0.0041    0.0003    0.0158
          37   -0.0089   -0.0065    0.0037   -0.0087    0.0042   -0.0110   -0.0050    0.0060
          38   -0.0256   -0.0254   -0.0035   -0.0406    0.0072   -0.0204   -0.0328   -0.0016
          39   -0.0555   -0.0220    0.0365   -0.0375    0.0123   -0.0604   -0.0363    0.0452
          40    0.0391   -0.0092   -0.0450    0.0124   -0.0084   -0.0003    0.0193   -0.0653
          41    0.0321   -0.0229   -0.0644   -0.0208   -0.0028    0.0026   -0.0134   -0.0883
          42    0.0376   -0.0205   -0.0630   -0.0057   -0.0051   -0.0167    0.0002   -0.1006
          43    0.0160    0.0145    0.0025    0.0412   -0.0036   -0.0238    0.0321    0.0022
          44    0.0044    0.0086    0.0065    0.0263   -0.0031   -0.0203    0.0143    0.0087
          45   -0.0115    0.0271    0.0436    0.0632    0.0018   -0.0685    0.0370    0.0516
          46    0.1330   -0.0158    0.0851   -0.0065    0.0632   -0.0179   -0.0039    0.0128
          47    0.0576    0.0207    0.0258   -0.0070    0.0159   -0.0094   -0.0024    0.0053
          48    0.0256   -0.0175    0.0222    0.0011    0.0177   -0.0020   -0.0005    0.0030
          49   -0.0386   -0.0603    0.0005    0.0465    0.0007   -0.0088    0.0078    0.0189
          50    0.0000   -0.0011   -0.0000    0.0047   -0.0007   -0.0003    0.0010    0.0009
          51    0.0186   -0.0274    0.0219    0.0015    0.0195    0.0025   -0.0010   -0.0008
          52    0.0010    0.1558   -0.0565   -0.0070   -0.0618   -0.0344    0.0049    0.0207
          53    0.0217    0.0678   -0.0122   -0.0071   -0.0168   -0.0138   -0.0001    0.0074
          54    0.0128   -0.0186    0.0145   -0.0016    0.0130    0.0044   -0.0014   -0.0039
          55   -0.0484   -0.0715   -0.0062    0.2243   -0.0289   -0.0023   -0.1194    0.0273
          56    0.0347    0.0327    0.0091    0.0185   -0.0037   -0.0076   -0.0061    0.0023
          57    0.0811   -0.0722   -0.0235   -0.0003    0.0498    0.0071   -0.0084    0.0024


   Root No.      25        26        27        28        29        30        31        32

                25 A      26 A      27 A      28 A      29 A      30 A      31 A      32 A   

                1211.7    1227.7    1271.4    1302.1    1362.8    1370.2    1391.0    1393.0
  
           1   -0.0179    0.0096    0.0810    0.0111    0.0037   -0.0208    0.0001   -0.0040
           2    0.0125   -0.0030   -0.0435    0.0401    0.0141   -0.0217    0.0001   -0.0020
           3    0.0310    0.0081    0.0184    0.0310    0.0046   -0.0090    0.0000   -0.0000
           4    0.0299    0.0233   -0.0280   -0.0008   -0.0236    0.0072   -0.0004    0.0155
           5    0.0129    0.0181    0.0104    0.0003   -0.0259    0.0141   -0.0002    0.0000
           6   -0.0067   -0.0014   -0.0074   -0.0056   -0.0020    0.0023    0.0003    0.0004
           7   -0.0070   -0.0007   -0.0032    0.0203   -0.0002    0.0319   -0.0001    0.0043
           8    0.0079   -0.0182    0.0441    0.0115    0.0041    0.0578   -0.0001    0.0042
           9   -0.0099   -0.0022    0.0001   -0.0058   -0.0009    0.0039   -0.0001    0.0002
          10    0.0022   -0.0030   -0.0176   -0.0015    0.0014   -0.0049    0.0000   -0.0004
          11   -0.0056    0.0001    0.0080   -0.0072    0.0016   -0.0050    0.0001   -0.0040
          12   -0.0096   -0.0020   -0.0028   -0.0007    0.0053   -0.0147    0.0001   -0.0056
          13   -0.0125    0.0002    0.0005   -0.0044    0.0359    0.0000    0.0010    0.0058
          14   -0.0052   -0.0106    0.0015    0.0013   -0.0006   -0.0016    0.0024   -0.0286
          15   -0.0005   -0.0006   -0.0001   -0.0001    0.0009   -0.0000   -0.0436   -0.0016
          16    0.0265   -0.0031    0.0114   -0.0199    0.0074   -0.0018    0.0003   -0.0070
          17    0.0061    0.0284   -0.0006   -0.0137    0.0226    0.0113    0.0003   -0.0068
          18    0.0007    0.0019    0.0014   -0.0010    0.0007    0.0002   -0.0010   -0.0003
          19    0.0259   -0.0280   -0.0004   -0.0229   -0.0170   -0.0283   -0.0000   -0.0016
          20    0.0053   -0.0080   -0.0188   -0.0141   -0.0060   -0.0292    0.0000   -0.0005
          21    0.0013   -0.0017   -0.0013   -0.0005   -0.0004   -0.0014   -0.0002   -0.0000
          22   -0.0082   -0.0439   -0.1624   -0.0160    0.0089    0.0271    0.0001    0.0056
          23   -0.0846    0.0083    0.0629   -0.0833   -0.0192    0.0062   -0.0002   -0.0016
          24   -0.0150   -0.0070   -0.0225   -0.0447   -0.0106    0.0241   -0.0001    0.0038
          25   -0.0086   -0.1082   -0.0443    0.0289    0.0773   -0.0046    0.0024   -0.0594
          26   -0.0585   -0.1178    0.0256    0.0401    0.0126   -0.0533    0.0011    0.0319
          27    0.0130    0.0074   -0.0216   -0.0097    0.0222    0.0285    0.0004   -0.0449
          28   -0.0858   -0.1060   -0.0818   -0.0285    0.0631    0.0096    0.0004   -0.0536
          29   -0.0742   -0.1081    0.0288    0.0274    0.0097   -0.0491   -0.0019    0.0299
          30   -0.0058   -0.0196    0.0273    0.0229   -0.0173   -0.0355   -0.0014    0.0456
          31   -0.0474    0.0658   -0.0513    0.0471    0.0458    0.0138    0.0005   -0.0054
          32   -0.0924    0.0556   -0.0174   -0.0818   -0.0277   -0.1195    0.0004   -0.0064
          33   -0.0087    0.0240   -0.0159    0.0365    0.0375    0.0345    0.0002   -0.0036
          34   -0.0582    0.0694   -0.0467    0.0402    0.0467    0.0169   -0.0000   -0.0059
          35   -0.0049    0.0929    0.0188   -0.0314   -0.0236   -0.1472   -0.0001   -0.0078
          36    0.0168   -0.0096    0.0199   -0.0271   -0.0343   -0.0439   -0.0002    0.0025
          37   -0.0002   -0.0037   -0.0190   -0.0066   -0.0006    0.0031   -0.0000    0.0008
          38   -0.0048   -0.0140   -0.0707   -0.0369   -0.0175    0.0408   -0.0004    0.0158
          39   -0.0003   -0.0212   -0.0876   -0.0656   -0.0236    0.1028   -0.0004    0.0148
          40   -0.0325   -0.0064    0.0018   -0.0361   -0.0090    0.0634   -0.0002    0.0012
          41   -0.0311   -0.0073   -0.0354   -0.0464   -0.0316    0.0505   -0.0005    0.0288
          42   -0.0333   -0.0070   -0.0175   -0.0355   -0.0166    0.0421   -0.0002    0.0122
          43   -0.0306    0.0005    0.0263   -0.0473   -0.0164    0.0434   -0.0003    0.0070
          44   -0.0168    0.0004    0.0171   -0.0254   -0.0069    0.0146   -0.0001    0.0011
          45   -0.0309    0.0027    0.0248   -0.0888   -0.0471    0.0719   -0.0006    0.0322
          46   -0.0587    0.0144   -0.0267    0.0668   -0.1145    0.0146   -0.0694   -0.0831
          47   -0.0211    0.0119   -0.0118    0.0192   -0.0081   -0.0090   -0.2517    0.1904
          48   -0.0179   -0.0006   -0.0090    0.0292   -0.0734    0.0108    0.0484   -0.1355
          49   -0.0759   -0.0503   -0.0238    0.0837   -0.1234   -0.0171   -0.0169    0.1409
          50   -0.0016   -0.0047    0.0023   -0.0045    0.0118   -0.0009   -0.0118   -0.0238
          51   -0.0021   -0.0012   -0.0003    0.0019   -0.0028   -0.0006    0.4279    0.0113
          52   -0.0593    0.0126   -0.0283    0.0682   -0.1181    0.0152    0.0732   -0.0876
          53   -0.0220    0.0114   -0.0125    0.0207   -0.0123   -0.0085    0.2335    0.1917
          54    0.0133    0.0024    0.0071   -0.0247    0.0668   -0.0106    0.0558    0.1446
          55   -0.0971    0.1760   -0.0646    0.0150    0.0495    0.0121    0.0005   -0.0099
          56    0.0074   -0.0103   -0.0185   -0.0159   -0.0064   -0.0309    0.0000   -0.0007
          57   -0.0046    0.0044   -0.0024   -0.0014    0.0009   -0.0008    0.0008   -0.0003


   Root No.      33        34        35        36        37        38        39        40

                33 A      34 A      35 A      36 A      37 A      38 A      39 A      40 A   

                1400.2    1406.6    1407.6    1413.8    1420.0    1485.7    1881.7    2903.2
  
           1   -0.0086    0.0015   -0.0076   -0.0044   -0.0325    0.0013   -0.0065    0.0200
           2    0.0017    0.0011    0.0089    0.0047   -0.0413    0.0042   -0.0088    0.0264
           3   -0.0005    0.0044    0.0016    0.0008   -0.0390    0.0004   -0.0023   -0.0501
           4    0.0262    0.0009   -0.0075    0.0060    0.0173   -0.0258   -0.0099    0.0008
           5   -0.0304    0.0007   -0.0090   -0.0090    0.0053   -0.0714    0.0079   -0.0004
           6   -0.0003   -0.0004   -0.0003   -0.0002    0.0059   -0.0031    0.0000    0.0054
           7    0.0014   -0.0025    0.0594    0.0155    0.0072   -0.0202    0.0133   -0.0006
           8    0.0043    0.0007    0.0001   -0.0046    0.0217    0.0057    0.0002    0.0007
           9    0.0000   -0.0005    0.0012    0.0001    0.0062   -0.0006    0.0004    0.0054
          10    0.0035   -0.0239    0.0098   -0.0217    0.0284    0.0015    0.0008   -0.0013
          11   -0.0075   -0.0301   -0.0080    0.0157    0.0375   -0.0011    0.0010   -0.0017
          12   -0.0064    0.0188    0.0025   -0.0010    0.0567   -0.0003    0.0013    0.0010
          13    0.0152   -0.0004    0.0046    0.0018   -0.0031   -0.0858   -0.0517    0.0000
          14    0.0103    0.0000   -0.0024   -0.0005   -0.0026   -0.0351   -0.0065   -0.0000
          15    0.0008   -0.0000    0.0001    0.0000   -0.0001   -0.0033   -0.0015    0.0000
          16   -0.0025    0.0003   -0.0036   -0.0012    0.0001    0.0728    0.2340   -0.0005
          17    0.0032   -0.0011    0.0187    0.0053    0.0036    0.1111   -0.1255   -0.0002
          18    0.0002    0.0001    0.0004    0.0003   -0.0002    0.0055    0.0017   -0.0000
          19   -0.0095    0.0009   -0.0272   -0.0069   -0.0021    0.0232   -0.1921   -0.0000
          20    0.0041    0.0007   -0.0188   -0.0024   -0.0048   -0.0258    0.1117   -0.0002
          21   -0.0000    0.0001   -0.0013   -0.0004   -0.0006   -0.0002   -0.0012   -0.0000
          22    0.0243   -0.0047    0.0286    0.0052    0.0466    0.0158   -0.0014   -0.2396
          23   -0.0091   -0.0030   -0.0334   -0.0065    0.0550   -0.0093   -0.0016   -0.3162
          24    0.0067    0.0008   -0.0061   -0.0012    0.0420    0.0003    0.0064    0.6060
          25   -0.1303   -0.0004    0.0232   -0.0329   -0.0656    0.0283    0.0245    0.0118
          26    0.1234   -0.0034   -0.0011    0.0287   -0.0042    0.0535    0.0307   -0.0164
          27   -0.1348    0.0009    0.0097   -0.0336   -0.0245   -0.0366   -0.0011   -0.0304
          28   -0.1175   -0.0032    0.0180   -0.0260   -0.0189    0.0266    0.0250   -0.0118
          29    0.1153   -0.0016   -0.0029    0.0277   -0.0004    0.0493    0.0328    0.0225
          30    0.1413    0.0004   -0.0078    0.0334    0.0156    0.0423    0.0047   -0.0339
          31    0.0138    0.0061   -0.1582   -0.0479   -0.0062    0.0120    0.0204    0.0249
          32   -0.0123   -0.0056    0.0572    0.0237   -0.0198   -0.0216    0.0221   -0.0053
          33    0.0123    0.0071   -0.1554   -0.0480    0.0056    0.0280    0.0057   -0.0338
          34    0.0140    0.0042   -0.1715   -0.0521    0.0017    0.0147    0.0191   -0.0190
          35   -0.0158   -0.0036    0.0653    0.0328   -0.0658   -0.0225    0.0212    0.0069
          36   -0.0128   -0.0053    0.1459    0.0478   -0.0155   -0.0284   -0.0030   -0.0305
          37    0.0034   -0.0024    0.0043   -0.0061    0.0125    0.0016    0.0005    0.0107
          38    0.0307    0.3634    0.0288   -0.0632   -0.0637    0.0042   -0.0005   -0.0023
          39    0.0002   -0.1003   -0.0626    0.1648   -0.1393   -0.0007    0.0000   -0.0031
          40   -0.0259   -0.0757   -0.0861    0.2271   -0.1003   -0.0046   -0.0011    0.0074
          41    0.0559   -0.1112    0.0457   -0.1689   -0.1376    0.0054   -0.0012    0.0097
          42    0.0144   -0.0653   -0.0073    0.0015   -0.0872    0.0004   -0.0004   -0.0134
          43    0.0012    0.3538   -0.0211    0.0578   -0.0638   -0.0006   -0.0006   -0.0051
          44   -0.0024    0.0967   -0.0120    0.0218   -0.0052   -0.0010    0.0004    0.0097
          45    0.0549   -0.1076    0.0341   -0.1603   -0.1439    0.0037    0.0004   -0.0031
          46   -0.0096    0.0002    0.0001   -0.0005    0.0048    0.0941   -0.0254    0.0001
          47   -0.0663    0.0004    0.0002   -0.0020    0.0084    0.0758   -0.0018   -0.0000
          48    0.0189    0.0001   -0.0030   -0.0005   -0.0004    0.0468    0.0038   -0.0001
          49   -0.0834    0.0018   -0.0233   -0.0095    0.0074    0.0632    0.0519   -0.0001
          50    0.0126   -0.0001    0.0001    0.0004   -0.0027   -0.0379   -0.0175   -0.0001
          51   -0.0029    0.0002   -0.0007   -0.0001    0.0004    0.0004    0.0007    0.0000
          52   -0.0091    0.0001   -0.0001   -0.0007    0.0051    0.0959   -0.0249   -0.0000
          53   -0.0664    0.0005   -0.0001   -0.0020    0.0088    0.0781   -0.0015    0.0000
          54   -0.0236    0.0000    0.0029    0.0004    0.0013   -0.0372   -0.0053   -0.0001
          55    0.0130   -0.0028    0.0521    0.0158   -0.0060    0.0451    0.0572   -0.0004
          56    0.0050    0.0008   -0.0212   -0.0028   -0.0046   -0.0272    0.1548   -0.0024
          57    0.0004   -0.0000    0.0007    0.0004    0.0006    0.0001    0.0066   -0.0000


   Root No.      41        42        43        44        45        46        47        48

                41 A      42 A      43 A      44 A      45 A      46 A      47 A      48 A   

                2970.7    2972.0    3049.0    3050.2    3067.4    3078.0    3078.2    3083.3
  
           1   -0.0000    0.0013   -0.0006    0.0001    0.0000   -0.0000    0.0006   -0.0003
           2    0.0003    0.0017    0.0004   -0.0003   -0.0000    0.0000    0.0007    0.0002
           3   -0.0003   -0.0035   -0.0002   -0.0004   -0.0000    0.0000   -0.0014    0.0000
           4   -0.0010    0.0012   -0.0178   -0.0086    0.0000    0.0003   -0.0004    0.0001
           5   -0.0001    0.0000    0.0226    0.0109   -0.0001    0.0001    0.0003    0.0003
           6    0.0277   -0.0313   -0.0022   -0.0011    0.0001    0.0000   -0.0003    0.0005
           7   -0.0003   -0.0003   -0.0127    0.0262   -0.0000    0.0000    0.0004   -0.0003
           8    0.0011    0.0010    0.0052   -0.0108    0.0000    0.0000   -0.0003   -0.0002
           9   -0.0329   -0.0263    0.0011   -0.0022   -0.0001    0.0000   -0.0003   -0.0005
          10    0.0000   -0.0000    0.0001   -0.0004    0.0000   -0.0003    0.0230   -0.0456
          11   -0.0000   -0.0000   -0.0003   -0.0004   -0.0000   -0.0004    0.0306    0.0344
          12    0.0000    0.0003    0.0002    0.0005   -0.0000    0.0004   -0.0313    0.0002
          13   -0.0000    0.0000   -0.0000    0.0000    0.0013    0.0139    0.0002    0.0000
          14   -0.0000    0.0000   -0.0001   -0.0000    0.0022   -0.0482   -0.0006   -0.0001
          15    0.0001   -0.0001   -0.0001   -0.0000   -0.0576   -0.0015   -0.0000   -0.0000
          16    0.0000    0.0000    0.0002   -0.0006   -0.0000    0.0004   -0.0000    0.0000
          17    0.0000   -0.0001    0.0005    0.0003    0.0000   -0.0002    0.0000   -0.0000
          18   -0.0001   -0.0002    0.0000   -0.0000   -0.0001    0.0000   -0.0000   -0.0000
          19   -0.0000   -0.0001   -0.0000    0.0005    0.0000   -0.0005    0.0000    0.0000
          20   -0.0000   -0.0000   -0.0004    0.0014    0.0000   -0.0008    0.0001    0.0000
          21    0.0001   -0.0002   -0.0000    0.0000   -0.0002   -0.0000    0.0000    0.0000
          22    0.0011   -0.0175   -0.0020   -0.0022    0.0000    0.0000   -0.0042   -0.0011
          23   -0.0041   -0.0226   -0.0004   -0.0037   -0.0000    0.0000   -0.0055    0.0009
          24    0.0035    0.0390    0.0022    0.0061    0.0000   -0.0002    0.0175   -0.0001
          25    0.0884   -0.1002    0.1018    0.0477    0.0005   -0.0001    0.0001    0.0029
          26   -0.0999    0.1134   -0.1132   -0.0533    0.0000    0.0006   -0.0008   -0.0012
          27   -0.1841    0.2087   -0.2509   -0.1181   -0.0004    0.0009   -0.0034   -0.0032
          28   -0.0750    0.0847    0.1162    0.0547   -0.0011   -0.0002    0.0023    0.0001
          29    0.1010   -0.1138   -0.1583   -0.0748    0.0008    0.0008   -0.0030    0.0002
          30   -0.1494    0.1681    0.2768    0.1307   -0.0018   -0.0010    0.0053    0.0000
          31   -0.1396   -0.1112    0.0891   -0.1791   -0.0001   -0.0001   -0.0036   -0.0001
          32    0.0534    0.0426   -0.0336    0.0673    0.0001    0.0000    0.0014   -0.0002
          33    0.1772    0.1408   -0.1343    0.2698    0.0002    0.0001    0.0054   -0.0001
          34    0.1430    0.1147    0.0662   -0.1325    0.0001   -0.0001   -0.0008    0.0019
          35   -0.0691   -0.0554   -0.0328    0.0654   -0.0001    0.0000   -0.0002   -0.0025
          36    0.2190    0.1754    0.1218   -0.2439    0.0003   -0.0001   -0.0035    0.0033
          37   -0.0024    0.0032   -0.0015    0.0023   -0.0002    0.0023   -0.2155    0.4504
          38    0.0002    0.0001    0.0001   -0.0006    0.0000   -0.0003    0.0226    0.0035
          39   -0.0001   -0.0000    0.0002    0.0001    0.0000    0.0001   -0.0102   -0.0127
          40   -0.0003    0.0011    0.0007    0.0026   -0.0000    0.0018   -0.1393   -0.0226
          41    0.0004    0.0013    0.0013    0.0033   -0.0000    0.0023   -0.1831    0.0189
          42   -0.0001   -0.0012   -0.0026   -0.0074    0.0001   -0.0050    0.3957   -0.0023
          43   -0.0010   -0.0006   -0.0012   -0.0007   -0.0000   -0.0011    0.0805    0.1167
          44    0.0028    0.0027    0.0023    0.0007    0.0001    0.0030   -0.2052   -0.4328
          45    0.0000   -0.0001   -0.0001    0.0002   -0.0000    0.0001   -0.0100    0.0130
          46    0.0006   -0.0004   -0.0001   -0.0001   -0.2212   -0.1128   -0.0014   -0.0002
          47   -0.0001    0.0000    0.0004    0.0002    0.1650    0.0648    0.0008    0.0001
          48   -0.0006    0.0004    0.0005    0.0002    0.3573    0.2094    0.0026    0.0003
          49   -0.0000    0.0000    0.0002    0.0001    0.0003    0.0438    0.0005    0.0000
          50   -0.0000   -0.0000    0.0019    0.0010   -0.0032    0.4351    0.0055    0.0005
          51    0.0001   -0.0001    0.0000    0.0000   -0.0291    0.0139    0.0002    0.0000
          52   -0.0005    0.0004    0.0005    0.0003    0.2049   -0.0989   -0.0012   -0.0001
          53    0.0002   -0.0001   -0.0001   -0.0001   -0.1880    0.0745    0.0009    0.0000
          54   -0.0006    0.0004    0.0006    0.0004    0.3623   -0.2053   -0.0026   -0.0001
          55   -0.0000   -0.0000   -0.0005    0.0011   -0.0000   -0.0006   -0.0000    0.0000
          56   -0.0001    0.0002   -0.0019   -0.0189   -0.0001    0.0094   -0.0011   -0.0006
          57   -0.0004   -0.0009   -0.0001   -0.0006    0.0005    0.0003   -0.0000   -0.0000


   Root No.      49        50        51

                49 A      50 A      51 A   

                3122.4    3166.2    3178.8
  
           1    0.0005    0.0000   -0.0003
           2    0.0009    0.0000   -0.0004
           3   -0.0001   -0.0000   -0.0003
           4   -0.0010    0.0001   -0.0000
           5    0.0017   -0.0000    0.0001
           6   -0.0000    0.0000    0.0002
           7    0.0024   -0.0000    0.0001
           8   -0.0009    0.0000    0.0000
           9   -0.0001    0.0000    0.0002
          10   -0.0000   -0.0000   -0.0098
          11    0.0001   -0.0000   -0.0129
          12   -0.0001   -0.0000   -0.0184
          13   -0.0002   -0.0233    0.0000
          14    0.0010   -0.0086    0.0000
          15    0.0000   -0.0008    0.0000
          16   -0.0059   -0.0003    0.0000
          17    0.0033   -0.0000    0.0000
          18   -0.0000   -0.0000    0.0000
          19    0.0040    0.0002    0.0000
          20   -0.0732    0.0003    0.0000
          21   -0.0023    0.0000   -0.0000
          22   -0.0009    0.0000    0.0003
          23   -0.0009   -0.0000    0.0004
          24    0.0020    0.0000   -0.0028
          25    0.0037   -0.0005    0.0002
          26   -0.0041    0.0003   -0.0014
          27   -0.0090    0.0009   -0.0027
          28    0.0040   -0.0006    0.0002
          29   -0.0054    0.0004   -0.0003
          30    0.0094   -0.0010    0.0007
          31   -0.0127    0.0001   -0.0003
          32    0.0020   -0.0000    0.0001
          33    0.0168   -0.0002    0.0007
          34   -0.0097    0.0001   -0.0014
          35    0.0021   -0.0000   -0.0001
          36   -0.0155    0.0001   -0.0027
          37   -0.0000    0.0002    0.3254
          38    0.0000   -0.0000   -0.0155
          39   -0.0001   -0.0000   -0.0170
          40   -0.0003   -0.0000   -0.1030
          41   -0.0003   -0.0001   -0.1355
          42    0.0007    0.0001    0.2606
          43    0.0003   -0.0001   -0.1021
          44   -0.0012    0.0002    0.3091
          45   -0.0000   -0.0000   -0.0172
          46    0.0049    0.1368   -0.0001
          47   -0.0030   -0.1119    0.0000
          48   -0.0084   -0.2572    0.0001
          49    0.0004    0.0178    0.0000
          50   -0.0062    0.3421   -0.0002
          51   -0.0002    0.0107   -0.0000
          52    0.0045    0.1233   -0.0001
          53   -0.0035   -0.1270    0.0001
          54    0.0085    0.2564   -0.0001
          55    0.0098   -0.0005    0.0000
          56    0.8200   -0.0048    0.0001
          57    0.0267   -0.0002    0.0000


           MASS-WEIGHTED COORDINATE ANALYSIS (NORMAL COORDINATES)


   Root No.       1         2         3         4         5         6         7         8

                 1 A       2 A       3 A       4 A       5 A       6 A       7 A       8 A   

                  61.7     105.3     196.8     215.5     301.0     408.1     437.2     450.9
  
           1   -0.0623   -0.0255    0.0088   -0.0624   -0.0042   -0.2688    0.0186   -0.0173
           2   -0.0434    0.0152   -0.0061    0.0806   -0.0810    0.1822    0.0052    0.0051
           3    0.0546    0.0249   -0.0327   -0.0667   -0.0348   -0.0262    0.4408   -0.0481
           4   -0.0613   -0.0254    0.0112   -0.0687    0.0444   -0.2392    0.0142   -0.0175
           5   -0.0601   -0.0056    0.0007    0.0383   -0.2345   -0.1527   -0.1504    0.0132
           6    0.4400    0.1374   -0.0187    0.0953    0.1758   -0.1565   -0.1600   -0.0455
           7   -0.0536   -0.0065    0.0046   -0.0124    0.1310    0.0167   -0.0723    0.0058
           8   -0.0396    0.0206   -0.0090    0.0956   -0.0550    0.2743   -0.0138    0.0137
           9    0.2426   -0.0559   -0.0607   -0.2501   -0.1679    0.1904   -0.1502    0.0209
          10    0.2698    0.0607    0.0068    0.1207   -0.3317    0.2490    0.2899   -0.0095
          11    0.2458   -0.0145   -0.0432   -0.1377    0.1567   -0.2397    0.3656   -0.0462
          12   -0.2926    0.0018   -0.0075   -0.0158   -0.0344   -0.0109    0.1442   -0.0344
          13   -0.0372   -0.0032   -0.0107    0.0234   -0.0390   -0.0702   -0.1605    0.0155
          14   -0.0447   -0.0153    0.0551   -0.0965    0.4660    0.1991   -0.0319    0.0130
          15   -0.3069   -0.0590   -0.1482   -0.3204   -0.0282    0.0180   -0.0130   -0.0498
          16   -0.0468   -0.0088   -0.0046   -0.0263    0.1401    0.0579   -0.0899   -0.0040
          17   -0.0468   -0.0054    0.0046    0.0154   -0.2300   -0.2501   -0.1653   -0.0178
          18   -0.0070    0.0212    0.0853    0.2443    0.1073   -0.1221   -0.0442    0.6719
          19   -0.0399    0.0011   -0.0145   -0.0052    0.1622    0.2082   -0.0582    0.0218
          20   -0.0384    0.0076   -0.0083    0.0440   -0.2004   -0.0521   -0.1185    0.0161
          21   -0.0954   -0.0548    0.2478    0.4702    0.0185    0.0490   -0.0571   -0.2495
          22   -0.0954   -0.0302   -0.0047   -0.0476   -0.0297   -0.1192    0.0223   -0.0033
          23   -0.0761    0.0139    0.0119    0.0620   -0.0070    0.0806    0.0314   -0.0001
          24   -0.0488    0.0030   -0.0050   -0.0104   -0.0126   -0.0091    0.1429   -0.0140
          25    0.0489    0.0101    0.0083    0.0044    0.0264   -0.1218   -0.1210   -0.0351
          26   -0.1284   -0.0327    0.0139    0.0218   -0.1186   -0.0491    0.0645    0.2678
          27    0.2177    0.0647   -0.0103    0.0330    0.0872   -0.0695   -0.1681   -0.1734
          28   -0.0848   -0.0280    0.0022   -0.0507   -0.0479   -0.0870    0.1390    0.0265
          29    0.0851    0.0246   -0.0115   -0.0057   -0.0483   -0.1023   -0.1499   -0.2458
          30    0.2262    0.0670   -0.0125    0.0318    0.0923   -0.0759   -0.1831   -0.1955
          31    0.0656   -0.0085   -0.0713   -0.1756   -0.0166    0.1021   -0.1488    0.1040
          32   -0.0217    0.0200   -0.0159    0.0246    0.0152    0.0977    0.1000    0.0102
          33    0.1347   -0.0252   -0.0692   -0.2029   -0.0993    0.1250   -0.1731    0.0836
          34   -0.1004    0.0070    0.0779    0.1831    0.1104   -0.0541    0.1107   -0.1035
          35    0.0009   -0.0041    0.0081    0.0440   -0.0015    0.1350   -0.0917   -0.0023
          36    0.1285   -0.0249   -0.0640   -0.1882   -0.0927    0.1141   -0.1598    0.0741
          37    0.0777    0.0176    0.0076    0.0325   -0.0967    0.0725    0.0852   -0.0027
          38    0.0780    0.0035    0.4316   -0.2539    0.0692   -0.1917    0.1070   -0.0132
          39   -0.1790   -0.0281   -0.2852    0.0773    0.0881   -0.1298   -0.0581   -0.0159
          40    0.1641    0.0453    0.4176   -0.1190   -0.1706    0.1326    0.1722    0.0002
          41    0.1348   -0.0165   -0.3378    0.0556    0.0985   -0.1242    0.2255   -0.0308
          42   -0.0257    0.0045   -0.0065   -0.0145   -0.0114   -0.0068    0.1218   -0.0168
          43    0.0699    0.0100   -0.4243    0.2411   -0.1196    0.1894    0.0888   -0.0033
          44    0.0684   -0.0064   -0.1366    0.0202    0.0392   -0.0374    0.1083   -0.0136
          45   -0.1303    0.0197    0.2914   -0.0635   -0.1050    0.1329   -0.0602    0.0106
          46   -0.0425   -0.1513   -0.0400   -0.1096    0.0261    0.0660   -0.0265   -0.1778
          47   -0.1010    0.4634   -0.0108   -0.1080    0.2194    0.1433    0.0119   -0.0477
          48   -0.0717   -0.3037   -0.0546   -0.1317   -0.0193    0.0244    0.0000   -0.1072
          49   -0.0063   -0.0124   -0.0128    0.0415   -0.2014   -0.1667   -0.0896    0.0038
          50   -0.0098   -0.0208    0.0186   -0.0289    0.1590    0.0758   -0.0044    0.0072
          51   -0.1994    0.5245   -0.0891   -0.1879   -0.0345    0.0195   -0.0020   -0.1149
          52    0.0187    0.1630    0.0422    0.1014    0.0923   -0.0011   -0.0413    0.1942
          53    0.0723   -0.4567    0.0541    0.0220    0.2467    0.1237    0.0086    0.0644
          54   -0.0649   -0.3230   -0.0505   -0.1226   -0.0148    0.0246    0.0014   -0.0943
          55   -0.0075    0.0039   -0.0082    0.0049    0.0727    0.1480    0.0099    0.0150
          56   -0.0085    0.0027   -0.0043    0.0092   -0.0570   -0.0163   -0.0346    0.0138
          57   -0.1089   -0.0321    0.1303    0.2385   -0.0036    0.0512   -0.0154   -0.3530


   Root No.       9        10        11        12        13        14        15        16

                 9 A      10 A      11 A      12 A      13 A      14 A      15 A      16 A   

                 601.9     685.2     810.1     888.6     908.7     938.7     947.3     968.2
  
           1   -0.3593   -0.0510   -0.0343    0.0317   -0.0575    0.0406   -0.1196    0.1135
           2   -0.1844   -0.3253   -0.0666    0.0050   -0.1289    0.0947    0.0976   -0.0623
           3    0.2371    0.1632    0.0716    0.0094    0.1401   -0.0130    0.0015   -0.0002
           4   -0.2660   -0.1636   -0.0697    0.1741    0.3457   -0.0505    0.2122   -0.2000
           5    0.2313    0.0129    0.0092   -0.0665   -0.0380    0.0722   -0.2618   -0.2886
           6    0.0074    0.0382   -0.0132    0.4775   -0.0652    0.0727   -0.0081   -0.0513
           7   -0.0698    0.5075    0.0867   -0.1069   -0.2499    0.0255    0.1639   -0.0904
           8   -0.2000   -0.0465   -0.0667    0.1410    0.3494   -0.0830   -0.1143    0.1229
           9    0.0154    0.0664   -0.3207   -0.0513    0.1549    0.3147    0.0275    0.0664
          10   -0.0727   -0.0644    0.0197   -0.0237   -0.1733    0.0453   -0.2008    0.2534
          11   -0.0626   -0.1427    0.0211   -0.0896   -0.2480    0.1532    0.1432   -0.1055
          12   -0.0986   -0.1198    0.0734   -0.1420   -0.1485   -0.1279   -0.0072   -0.0047
          13    0.4643   -0.2705   -0.0008    0.0103   -0.0042   -0.0297   -0.0611    0.1114
          14    0.1359   -0.0190    0.0062    0.0223    0.0171   -0.0643    0.2585    0.2557
          15    0.0112   -0.0144    0.0741   -0.1575    0.1108    0.1237    0.0049    0.0860
          16    0.2645   -0.1564   -0.0054   -0.0022   -0.0135    0.0131    0.0004   -0.0311
          17    0.1897    0.0741    0.0223    0.0065   -0.0191   -0.0272    0.1020    0.0638
          18   -0.0460   -0.0412    0.0717   -0.1225    0.0265   -0.0383    0.0027   -0.0405
          19    0.0105    0.1973    0.0150   -0.0296    0.0076    0.0188   -0.0547   -0.0376
          20   -0.1284    0.4421    0.0363   -0.0192   -0.0056   -0.0234   -0.0256    0.1313
          21   -0.0123    0.0160   -0.2037   -0.0036   -0.1149   -0.3188   -0.0151   -0.0282
          22   -0.1189   -0.0680   -0.0391   -0.1410    0.0962   -0.0226   -0.1157   -0.0392
          23   -0.0941   -0.1167    0.0556    0.0269   -0.0479   -0.1846    0.0915   -0.0263
          24    0.0379    0.0115    0.0487   -0.0472    0.0682   -0.1260    0.0011   -0.0304
          25   -0.1679   -0.0779   -0.0394   -0.1332    0.1269   -0.0764    0.0441   -0.1744
          26    0.1096    0.0708   -0.0210    0.3466   -0.0888    0.0593   -0.1084   -0.2285
[...]
 REDUCED MASS        0.4168         C  2 -- C  6          +8.4% ( 30.0%)     31.8%
 EFFECTIVE MASS      2.7180
 FORCE CONSTANT      0.4814

 VIBRATION         34   34A           ATOM PAIR      ENERGY CONTRIBUTION    RADIAL
 FREQUENCY          1406.63         C  4 -- H 15         +43.7% ( 57.4%)      1.8%
 TRANSITION DIPOLE   0.0424         C  4 -- H 13         +42.5% ( 56.7%)      2.1%
 TRAVEL (Ang.)       0.3325         C  4 -- H 14          +8.0% ( 24.6%)     73.8%
 REDUCED MASS        0.4337         C  1 -- C  4          +5.3% ( 20.0%)     10.2%
 EFFECTIVE MASS      1.5830
 FORCE CONSTANT      0.5056

 VIBRATION         35   35A           ATOM PAIR      ENERGY CONTRIBUTION    RADIAL
 FREQUENCY          1407.63         C  3 -- H 12         +25.1% ( 59.2%)      5.6%
 TRANSITION DIPOLE   0.0387         C  3 -- H 11         +24.0% ( 57.9%)      6.4%
 TRAVEL (Ang.)       0.2484         C  3 -- C  7         +18.7% ( 51.1%)     89.8%
 REDUCED MASS        0.7767         C  1 -- C  3         +11.5% ( 40.0%)     15.4%
 EFFECTIVE MASS      4.5183
 FORCE CONSTANT      0.9067

 VIBRATION         36   36A           ATOM PAIR      ENERGY CONTRIBUTION    RADIAL
 FREQUENCY          1413.81         C  4 -- H 14         +42.6% ( 58.4%)      0.0%
 TRANSITION DIPOLE   0.0181         C  4 -- H 13         +16.9% ( 36.7%)     10.5%
 TRAVEL (Ang.)       0.3882         C  4 -- H 15         +16.0% ( 35.8%)     10.7%
 REDUCED MASS        0.3165         C  3 -- H 12          +4.7% ( 19.3%)      5.0%
 EFFECTIVE MASS      1.7749
 FORCE CONSTANT      0.3728

 VIBRATION         37   37A           ATOM PAIR      ENERGY CONTRIBUTION    RADIAL
 FREQUENCY          1419.99         C  1 -- C  4         +22.8% ( 66.1%)     98.1%
 TRANSITION DIPOLE   0.0270         C  4 -- H 14         +16.2% ( 55.9%)      3.4%
 TRAVEL (Ang.)       0.1722         C  4 -- H 15         +13.8% ( 51.5%)      4.1%
 REDUCED MASS        1.6023         C  4 -- H 13         +13.6% ( 51.1%)      4.1%
 EFFECTIVE MASS      6.7362
 FORCE CONSTANT      1.9036

 VIBRATION         38   38A           ATOM PAIR      ENERGY CONTRIBUTION    RADIAL
 FREQUENCY          1485.66         C  5 -- C  6         +25.9% ( 77.4%)     79.7%
 TRANSITION DIPOLE   0.0912         C  2 -- C  6         +22.6% ( 72.3%)     94.8%
 TRAVEL (Ang.)       0.1147         C  6 -- C  7         +15.0% ( 58.8%)      8.7%
 REDUCED MASS        3.4478         C  5 -- H 16          +7.4% ( 41.3%)      3.2%
 EFFECTIVE MASS     10.6526
 FORCE CONSTANT      4.4836

 VIBRATION         39   39A           ATOM PAIR      ENERGY CONTRIBUTION    RADIAL
 FREQUENCY          1881.68         C  6 -- C  7         +43.6% ( 97.6%)     98.1%
 TRANSITION DIPOLE   0.1302         C  5 -- C  6         +18.0% ( 62.6%)     61.3%
 TRAVEL (Ang.)       0.0800         C  2 -- C  6         +16.2% ( 59.6%)      5.5%
 REDUCED MASS        5.5988         C  3 -- C  7         +10.7% ( 48.4%)     25.9%
 EFFECTIVE MASS     11.8663         C  7 -- H 19         +10.2% ( 47.1%)      8.7%
 FORCE CONSTANT     11.6797

 VIBRATION         40   40A           ATOM PAIR      ENERGY CONTRIBUTION    RADIAL
 FREQUENCY          2903.24         C  1 -- H  8         +95.4% ( 99.4%)    100.0%
 TRANSITION DIPOLE   0.0409         C  1 -- C  2          +1.1% ( 10.5%)      8.8%
 TRAVEL (Ang.)       0.1602         C  1 -- C  3          +1.1% ( 10.5%)      8.9%
 REDUCED MASS        0.9054         C  1 -- C  4          +1.1% ( 10.4%)      8.6%
 EFFECTIVE MASS      1.4537
 FORCE CONSTANT      4.4964

 VIBRATION         41   41A           ATOM PAIR      ENERGY CONTRIBUTION    RADIAL
 FREQUENCY          2970.70         C  3 -- H 12         +32.6% ( 59.3%)     97.4%
 TRANSITION DIPOLE   0.0158         C  3 -- H 11         +24.6% ( 51.4%)     95.7%
 TRAVEL (Ang.)       0.2893         C  2 -- H  9         +23.1% ( 49.8%)     97.4%
 REDUCED MASS        0.2713         C  2 -- H 10         +17.5% ( 43.4%)     95.7%
 EFFECTIVE MASS      1.5380
 FORCE CONSTANT      1.4105

 VIBRATION         42   42A           ATOM PAIR      ENERGY CONTRIBUTION    RADIAL
 FREQUENCY          2972.02         C  2 -- H  9         +32.5% ( 59.1%)     97.4%
 TRANSITION DIPOLE   0.0504         C  2 -- H 10         +24.3% ( 51.1%)     95.7%
 TRAVEL (Ang.)       0.2922         C  3 -- H 12         +22.9% ( 49.6%)     97.4%
 REDUCED MASS        0.2657         C  3 -- H 11         +17.1% ( 42.8%)     95.7%
 EFFECTIVE MASS      1.5338
 FORCE CONSTANT      1.3828

 VIBRATION         43   43A           ATOM PAIR      ENERGY CONTRIBUTION    RADIAL
 FREQUENCY          3048.98         C  2 -- H 10         +46.0% ( 66.9%)     98.4%
 TRANSITION DIPOLE   0.0876         C  2 -- H  9         +33.8% ( 57.4%)     96.5%
 TRAVEL (Ang.)       0.2545         C  3 -- H 11         +10.8% ( 32.4%)     98.4%
 REDUCED MASS        0.3414         C  3 -- H 12          +8.0% ( 27.8%)     96.6%
 EFFECTIVE MASS      1.2764
 FORCE CONSTANT      1.8699

 VIBRATION         44   44A           ATOM PAIR      ENERGY CONTRIBUTION    RADIAL
 FREQUENCY          3050.20         C  3 -- H 11         +46.0% ( 66.9%)     98.3%
 TRANSITION DIPOLE   0.0554         C  3 -- H 12         +33.6% ( 57.2%)     96.4%
 TRAVEL (Ang.)       0.2548         C  2 -- H 10         +10.8% ( 32.4%)     98.3%
 REDUCED MASS        0.3406         C  2 -- H  9          +7.9% ( 27.7%)     96.3%
 EFFECTIVE MASS      1.2900
 FORCE CONSTANT      1.8669

 VIBRATION         45   45A           ATOM PAIR      ENERGY CONTRIBUTION    RADIAL
 FREQUENCY          3067.43         C  5 -- H 18         +49.6% ( 72.7%)     97.1%
 TRANSITION DIPOLE   0.0183         C  5 -- H 16         +48.5% ( 71.8%)     96.9%
 TRAVEL (Ang.)       0.2077         C  5 -- C  6          +1.0% ( 10.2%)      0.0%
 REDUCED MASS        0.5098         C  5 -- H 17          +0.9% (  9.9%)      0.1%
 EFFECTIVE MASS      1.5035
 FORCE CONSTANT      2.8263

 VIBRATION         46   46A           ATOM PAIR      ENERGY CONTRIBUTION    RADIAL
 FREQUENCY          3078.03         C  5 -- H 17         +60.9% ( 80.5%)     98.7%
 TRANSITION DIPOLE   0.0338         C  5 -- H 16         +19.5% ( 45.6%)     86.3%
 TRAVEL (Ang.)       0.2148         C  5 -- H 18         +18.5% ( 44.4%)     85.4%
 REDUCED MASS        0.4747         C  5 -- C  6          +1.0% ( 10.5%)      0.0%
 EFFECTIVE MASS      1.5132
 FORCE CONSTANT      2.6500

 VIBRATION         47   47A           ATOM PAIR      ENERGY CONTRIBUTION    RADIAL
 FREQUENCY          3078.23         C  4 -- H 14         +66.9% ( 84.4%)     98.9%
 TRANSITION DIPOLE   0.0127         C  4 -- H 15         +16.3% ( 41.6%)     84.0%
 TRAVEL (Ang.)       0.2040         C  4 -- H 13         +15.7% ( 40.9%)     83.5%
 REDUCED MASS        0.5265         C  1 -- C  4          +1.0% ( 10.3%)      0.0%
 EFFECTIVE MASS      1.5035
 FORCE CONSTANT      2.9396

 VIBRATION         48   48A           ATOM PAIR      ENERGY CONTRIBUTION    RADIAL
 FREQUENCY          3083.27         C  4 -- H 13         +49.2% ( 72.4%)     97.1%
 TRANSITION DIPOLE   0.0090         C  4 -- H 15         +48.8% ( 72.1%)     97.0%
 TRAVEL (Ang.)       0.2071         C  1 -- C  4          +1.0% ( 10.5%)      0.0%
 REDUCED MASS        0.5098         C  4 -- H 14          +1.0% ( 10.2%)      0.0%
 EFFECTIVE MASS      1.5078
 FORCE CONSTANT      2.8556

 VIBRATION         49   49A           ATOM PAIR      ENERGY CONTRIBUTION    RADIAL
 FREQUENCY          3122.44         C  7 -- H 19         +96.4% ( 99.8%)    100.0%
 TRANSITION DIPOLE   0.3642         C  6 -- C  7          +1.8% ( 13.6%)     48.9%
 TRAVEL (Ang.)       0.1527         C  3 -- C  7          +1.6% ( 13.0%)     24.5%
 REDUCED MASS        0.9261
 EFFECTIVE MASS      1.5547
 FORCE CONSTANT      5.3199

 VIBRATION         50   50A           ATOM PAIR      ENERGY CONTRIBUTION    RADIAL
 FREQUENCY          3166.22         C  5 -- H 17         +38.0% ( 59.4%)     97.7%
 TRANSITION DIPOLE   0.0452         C  5 -- H 16         +30.9% ( 53.6%)     96.7%
 TRAVEL (Ang.)       0.2542         C  5 -- H 18         +30.8% ( 53.5%)     96.7%
 REDUCED MASS        0.3297         C  5 -- C  6          +0.3% (  5.5%)     99.3%
 EFFECTIVE MASS      1.1396
 FORCE CONSTANT      1.9473

 VIBRATION         51   51A           ATOM PAIR      ENERGY CONTRIBUTION    RADIAL
 FREQUENCY          3178.77         C  4 -- H 13         +34.4% ( 56.4%)     97.3%
 TRANSITION DIPOLE   0.0244         C  4 -- H 15         +34.3% ( 56.4%)     97.3%
 TRAVEL (Ang.)       0.2545         C  4 -- H 14         +31.0% ( 53.6%)     96.7%
 REDUCED MASS        0.3276         C  1 -- C  4          +0.3% (  5.1%)     99.8%
 EFFECTIVE MASS      1.1358
 FORCE CONSTANT      1.9504

      SYMMETRY NUMBER FOR POINT-GROUP C1  =  1


          SYSTEM IS A GROUND STATE



 InChI=1S/C7H12/c1-6-3-4-7(2)5-6/h3,7H,4-5H2,1-2H3


          MOLECULE IS NOT LINEAR

          THERE ARE 51 GENUINE VIBRATIONS IN THIS SYSTEM
          THIS THERMODYNAMICS CALCULATION IS LIMITED TO
          MOLECULES WHICH HAVE NO INTERNAL ROTATIONS




                    CALCULATED THERMODYNAMIC PROPERTIES
                                          *
   TEMP. (K)   PARTITION FUNCTION   H.O.F.    ENTHALPY  HEAT CAPACITY ENTROPY
                                   KCAL/MOL   CAL/MOLE    CAL/K/MOL  CAL/K/MOL


 298.00  VIB.     0.6078D+02                  3040.9895    22.5180    18.3666
         ROT.     0.2196D+06                   888.2803     2.9808    27.4222
         INT.     0.1334D+08                  3929.2698    25.4988    45.7888
         TRA.     0.9118D+27                  1480.4672     4.9680    39.5994
         TOT.                      -13.149    5409.7370    30.4668    85.3882

 200.00  VIB.     0.1183D+02                  1289.5735    13.5844    11.3579
         ROT.     0.1207D+06                   596.1613     2.9808    26.2336
         INT.     0.1428D+07                  1885.7348    16.5653    37.5915
         TRA.     0.5013D+27                   993.6021     4.9680    37.6183
         TOT.                      -15.679    2879.3369    21.5333    75.2098

 210.00  VIB.     0.1392D+02                  1429.4077    14.3870    12.0400
         ROT.     0.1299D+06                   625.9693     2.9808    26.3790
         INT.     0.1808D+07                  2055.3771    17.3679    38.4190
         TRA.     0.5394D+27                  1043.2822     4.9680    37.8607
         TOT.                      -15.460    3098.6593    22.3359    76.2797

 220.00  VIB.     0.1640D+02                  1577.4080    15.2177    12.7284
         ROT.     0.1393D+06                   655.7774     2.9808    26.5177
         INT.     0.2284D+07                  2233.1854    18.1985    39.2460
         TRA.     0.5784D+27                  1092.9623     4.9680    38.0918
         TOT.                      -15.233    3326.1477    23.1665    77.3378

 230.00  VIB.     0.1933D+02                  1733.8544    16.0762    13.4237
         ROT.     0.1489D+06                   685.5855     2.9808    26.6502
         INT.     0.2877D+07                  2419.4398    19.0570    40.0738
         TRA.     0.6182D+27                  1142.6424     4.9680    38.3126
         TOT.                      -14.997    3562.0823    24.0250    78.3865

 240.00  VIB.     0.2280D+02                  1899.0208    16.9615    14.1265
         ROT.     0.1587D+06                   715.3935     2.9808    26.7770
         INT.     0.3619D+07                  2614.4143    19.9423    40.9035
         TRA.     0.6590D+27                  1192.3226     4.9680    38.5241
         TOT.                      -14.752    3806.7369    24.9103    79.4276

 250.00  VIB.     0.2693D+02                  2073.1682    17.8720    14.8372
         ROT.     0.1687D+06                   745.2016     2.9808    26.8987
         INT.     0.4544D+07                  2818.3698    20.8528    41.7360
         TRA.     0.7006D+27                  1242.0027     4.9680    38.7269
         TOT.                      -14.498    4060.3724    25.8208    80.4628

 260.00  VIB.     0.3184D+02                  2256.5385    18.8057    15.5563
         ROT.     0.1789D+06                   775.0097     2.9808    27.0156
         INT.     0.5698D+07                  3031.5482    21.7865    42.5719
         TRA.     0.7431D+27                  1291.6828     4.9680    38.9217
         TOT.                      -14.236    4323.2310    26.7545    81.4937

 270.00  VIB.     0.3769D+02                  2449.3509    19.7600    16.2839
         ROT.     0.1894D+06                   804.8177     2.9808    27.1281
         INT.     0.7136D+07                  3254.1686    22.7408    43.4120
         TRA.     0.7864D+27                  1341.3629     4.9680    39.1092
         TOT.                      -13.963    4595.5315    27.7088    82.5212

 280.00  VIB.     0.4465D+02                  2651.7980    20.7322    17.0200
         ROT.     0.2000D+06                   834.6258     2.9808    27.2365
         INT.     0.8930D+07                  3486.4238    23.7130    44.2566
         TRA.     0.8304D+27                  1391.0430     4.9680    39.2899
         TOT.                      -13.681    4877.4668    28.6810    83.5464

 290.00  VIB.     0.5297D+02                  2864.0445    21.7194    17.7647
         ROT.     0.2108D+06                   864.4339     2.9808    27.3411
         INT.     0.1117D+08                  3728.4784    24.7002    45.1059
         TRA.     0.8753D+27                  1440.7231     4.9680    39.4642
         TOT.                      -13.390    5169.2015    29.6682    84.5701

 300.00  VIB.     0.6291D+02                  3086.2262    22.7187    18.5179
         ROT.     0.2218D+06                   894.2419     2.9808    27.4422
         INT.     0.1395D+08                  3980.4681    25.6995    45.9600
         TRA.     0.9210D+27                  1490.4032     4.9680    39.6326
         TOT.                      -13.088    5470.8713    30.6675    85.5927

 310.00  VIB.     0.7480D+02                  3318.4494    23.7272    19.2792
         ROT.     0.2330D+06                   924.0500     2.9808    27.5399
         INT.     0.1743D+08                  4242.4993    26.7080    46.8192
         TRA.     0.9674D+27                  1540.0833     4.9680    39.7955
         TOT.                      -12.776    5782.5826    31.6760    86.6147

 320.00  VIB.     0.8906D+02                  3560.7919    24.7421    20.0485
         ROT.     0.2443D+06                   953.8580     2.9808    27.6346
         INT.     0.2176D+08                  4514.6499    27.7229    47.6831
         TRA.     0.1015D+28                  1589.7634     4.9680    39.9533
         TOT.                      -12.454    6104.4133    32.6909    87.6364

 330.00  VIB.     0.1062D+03                  3813.3041    25.7607    20.8255
         ROT.     0.2559D+06                   983.6661     2.9808    27.7263
         INT.     0.2716D+08                  4796.9702    28.7415    48.5518
         TRA.     0.1063D+28                  1639.4435     4.9680    40.1062
         TOT.                      -12.122    6436.4137    33.7095    88.6579

 340.00  VIB.     0.1267D+03                  4076.0100    26.7805    21.6097
         ROT.     0.2676D+06                  1013.4742     2.9808    27.8153
         INT.     0.3390D+08                  5089.4842    29.7613    49.4249
         TRA.     0.1111D+28                  1689.1236     4.9680    40.2545
         TOT.                      -11.780    6778.6078    34.7293    89.6794

 350.00  VIB.     0.1514D+03                  4348.9096    27.7991    22.4007
         ROT.     0.2795D+06                  1043.2822     2.9808    27.9017
         INT.     0.4230D+08                  5392.1919    30.7799    50.3023
         TRA.     0.1161D+28                  1738.8037     4.9680    40.3985
         TOT.                      -11.428    7130.9956    35.7479    90.7008

 360.00  VIB.     0.1811D+03                  4631.9803    28.8144    23.1980
         ROT.     0.2915D+06                  1073.0903     2.9808    27.9857
         INT.     0.5279D+08                  5705.0706    31.7952    51.1837
         TRA.     0.1211D+28                  1788.4838     4.9680    40.5384
         TOT.                      -11.065    7493.5545    36.7632    91.7221

 370.00  VIB.     0.2169D+03                  4925.1792    29.8244    24.0013
         ROT.     0.3038D+06                  1102.8984     2.9808    28.0673
         INT.     0.6589D+08                  6028.0776    32.8052    52.0686
         TRA.     0.1261D+28                  1838.1639     4.9680    40.6745
         TOT.                      -10.693    7866.2415    37.7732    92.7432

 380.00  VIB.     0.2601D+03                  5228.4451    30.8275    24.8100
         ROT.     0.3162D+06                  1132.7064     2.9808    28.1468
         INT.     0.8223D+08                  6361.1515    33.8083    52.9568
         TRA.     0.1313D+28                  1887.8440     4.9680    40.8070
         TOT.                      -10.310    8248.9955    38.7763    93.7639

 390.00  VIB.     0.3123D+03                  5541.7005    31.8221    25.6236
         ROT.     0.3287D+06                  1162.5145     2.9808    28.2242
         INT.     0.1026D+09                  6704.2150    34.8029    53.8479
         TRA.     0.1365D+28                  1937.5242     4.9680    40.9361
         TOT.                       -9.917    8641.7391    39.7709    94.7840

 400.00  VIB.     0.3753D+03                  5864.8538    32.8069    26.4417
         ROT.     0.3415D+06                  1192.3226     2.9808    28.2997
         INT.     0.1281D+09                  7057.1764    35.7877    54.7415
         TRA.     0.1418D+28                  1987.2043     4.9680    41.0619
         TOT.                       -9.514    9044.3806    40.7557    95.8033

   *: NOTE: HEATS OF FORMATION ARE RELATIVE TO THE
            ELEMENTS IN THEIR STANDARD STATE AT 298K
              (=  Standard Enthalpy of Formation).

            Hvib:  Zero-point energy is not included.
                   frequencies of less than zero cm-1 are not included.
            Hrot = (3/2)RT
            Htra = (3/2)RT + pV = (5/2)RT

            Heat capacity is Cp, not Cv

          For more information, see: HTTP://OpenMOPAC.net/Manual/thermochemistry.html


           FORCE CONSTANT IN CARTESIAN COORDINATES (Millidynes/A)

    ATOM   CHEMICAL       X               Y               Z
   NUMBER   SYMBOL  FORCE CONSTANT  FORCE CONSTANT  FORCE CONSTANT

      1       C        7.807630        8.306511        8.540511
      2       C        7.780428        9.209033        8.135494
      3       C        9.632567        7.455831        8.119855
      4       C        8.414823        8.397657        8.185673
      5       C        9.168105        8.544277        7.965635
      6       C       15.034436       10.745300        2.721749
      7       C       12.092744       13.060563        2.309311
      8       H        1.144322        1.466169        3.474978
      9       H        1.349645        1.407948        3.650118
     10       H        1.272188        1.696219        3.419247
     11       H        2.068266        0.899065        3.418588
     12       H        1.749906        1.005944        3.649404
     13       H        5.380063        0.687206        0.708830
     14       H        1.147179        1.490084        4.138649
     15       H        1.090714        4.975846        0.709103
     16       H        1.685969        1.204947        3.747625
     17       H        0.748467        5.331277        0.658143
     18       H        1.509366        1.372593        3.756431
     19       H        0.714196        5.344752        0.349498

 **********************
 *                    *
 * JOB ENDED NORMALLY *
 *                    *
 **********************



 TOTAL JOB TIME:             2.51 SECONDS

 == MOPAC DONE ==
