 *******************************************************************************
 **                                                                           **
 **                              MOPAC v23.1.2                                **
 **                                                                           **
 *******************************************************************************
 **          Digital Object Identifier (DOI): 10.5281/zenodo.6511958          **
 **    Visit the DOI location for information on how to cite this program.    **
 *******************************************************************************

                              PM3 CALCULATION RESULTS

 *******************************************************************************
 *  CALCULATION DONE: (MAX THREADS = 1)              Tue Jun  3 16:29:17 2025  *
 *  PM3        - The PM3 Hamiltonian to be used
 *  PRECISE    - TIGHTER CRITERIA TO BE USED
 *  BFGS       - USE THE BFGS GEOMETRY OPTIMIZER
 *  NOSYM      - POINT-GROUP SYMMETRY SET TO C1
 *  THREADS=1  - MULTI-THREADING NOT USED
 *  T=         - A TIME OF 172800.0 SECONDS REQUESTED
 *  DUMP=N     - RESTART FILE WRITTEN EVERY 7200.0 SECONDS REQUESTED
 *  GNORM      - EXIT WHEN GRADIENT NORM DROPS BELOW 0.000
 *******************************************************************************
pm3  precise nosym gnorm=0.0 bfgs THREADS=1
 InChI=1S/C7H10/c1-6-3-4-7(2)5-6/h4H,1,3,5H2,2H3

   ATOM   CHEMICAL          X               Y               Z
  NUMBER   SYMBOL      (ANGSTROMS)     (ANGSTROMS)     (ANGSTROMS)

     1       C          0.24040000  *  -0.85630000  *   0.69950000  *
     2       C         -1.30150000  *   0.84620000  *  -0.21820000  *
     3       C          2.44550000  *   0.30850000  *  -0.16430000  *
     4       C          0.95660000  *   0.24070000  *  -0.01550000  *
     5       C         -1.18270000  *  -0.43180000  *   0.54590000  *
     6       C          0.12630000  *   1.15890000  *  -0.51050000  *
     7       C         -2.22400000  *  -1.11260000  *   1.03280000  *
     8       H          0.53320000  *  -0.88490000  *   1.77070000  *
     9       H          0.41970000  *  -1.83330000  *   0.20200000  *
    10       H         -1.75610000  *   1.64360000  *   0.40720000  *
    11       H         -1.86960000  *   0.69580000  *  -1.16060000  *
    12       H          2.71550000  *   0.30340000  *  -1.24120000  *
    13       H          2.92180000  *  -0.56470000  *   0.32910000  *
    14       H          2.82750000  *   1.23880000  *   0.30600000  *
    15       H          0.45370000  *   2.03410000  *  -1.06330000  *
    16       H         -3.23640000  *  -0.74940000  *   0.88650000  *
    17       H         -2.06980000  *  -2.03700000  *   1.58050000  *



          CARTESIAN COORDINATES 

    NO.       ATOM           X           Y           Z

     1         C          0.2404     -0.8563      0.6995
     2         C         -1.3015      0.8462     -0.2182
     3         C          2.4455      0.3085     -0.1643
     4         C          0.9566      0.2407     -0.0155
     5         C         -1.1827     -0.4318      0.5459
     6         C          0.1263      1.1589     -0.5105
     7         C         -2.2240     -1.1126      1.0328
     8         H          0.5332     -0.8849      1.7707
     9         H          0.4197     -1.8333      0.2020
    10         H         -1.7561      1.6436      0.4072
    11         H         -1.8696      0.6958     -1.1606
    12         H          2.7155      0.3034     -1.2412
    13         H          2.9218     -0.5647      0.3291
    14         H          2.8275      1.2388      0.3060
    15         H          0.4537      2.0341     -1.0633
    16         H         -3.2364     -0.7494      0.8865
    17         H         -2.0698     -2.0370      1.5805

  H: (PM3): J. J. P. STEWART, J. COMP. CHEM. 10, 209 (1989).
  C: (PM3): J. J. P. STEWART, J. COMP. CHEM. 10, 209 (1989).

           Empirical Formula: C7 H10  =    17 atoms



      MOLECULAR POINT GROUP   :   C1  


      RHF CALCULATION, NO. OF DOUBLY OCCUPIED LEVELS = 19


          Geometry optimization using BFGS

  GNORM HAS BEEN SET TOO LOW, RESET TO 0.01
 CYCLE:     1 TIME:   0.008 TIME LEFT:  2.00D  GRAD.:    67.142 HEAT:  15.70633
 CYCLE:     2 TIME:   0.008 TIME LEFT:  2.00D  GRAD.:    43.956 HEAT:  15.23661
 CYCLE:     3 TIME:   0.004 TIME LEFT:  2.00D  GRAD.:    34.666 HEAT:  14.97536
 CYCLE:     4 TIME:   0.008 TIME LEFT:  2.00D  GRAD.:    23.223 HEAT:  14.58382
 CYCLE:     5 TIME:   0.004 TIME LEFT:  2.00D  GRAD.:    21.812 HEAT:  14.42411
 CYCLE:     6 TIME:   0.004 TIME LEFT:  2.00D  GRAD.:    21.253 HEAT:  14.31507
 CYCLE:     7 TIME:   0.004 TIME LEFT:  2.00D  GRAD.:    13.111 HEAT:  14.18690
 CYCLE:     8 TIME:   0.008 TIME LEFT:  2.00D  GRAD.:     7.208 HEAT:  14.13114
 CYCLE:     9 TIME:   0.004 TIME LEFT:  2.00D  GRAD.:     7.069 HEAT:  14.09850
 CYCLE:    10 TIME:   0.004 TIME LEFT:  2.00D  GRAD.:     8.318 HEAT:  14.07476
 CYCLE:    11 TIME:   0.004 TIME LEFT:  2.00D  GRAD.:     5.968 HEAT:  14.05337
 CYCLE:    12 TIME:   0.004 TIME LEFT:  2.00D  GRAD.:     4.983 HEAT:  14.04199
 CYCLE:    13 TIME:   0.004 TIME LEFT:  2.00D  GRAD.:     4.738 HEAT:  14.03884
 CYCLE:    14 TIME:   0.004 TIME LEFT:  2.00D  GRAD.:     2.773 HEAT:  14.02998
 CYCLE:    15 TIME:   0.008 TIME LEFT:  2.00D  GRAD.:     3.269 HEAT:  14.02316
 CYCLE:    16 TIME:   0.004 TIME LEFT:  2.00D  GRAD.:     3.271 HEAT:  14.01504
 CYCLE:    17 TIME:   0.004 TIME LEFT:  2.00D  GRAD.:     2.632 HEAT:  14.00987
 CYCLE:    18 TIME:   0.008 TIME LEFT:  2.00D  GRAD.:     1.876 HEAT:  14.00332
 CYCLE:    19 TIME:   0.004 TIME LEFT:  2.00D  GRAD.:     1.259 HEAT:  14.00029
 CYCLE:    20 TIME:   0.004 TIME LEFT:  2.00D  GRAD.:     1.271 HEAT:  13.99805
 CYCLE:    21 TIME:   0.004 TIME LEFT:  2.00D  GRAD.:     1.406 HEAT:  13.99585
 CYCLE:    22 TIME:   0.004 TIME LEFT:  2.00D  GRAD.:     1.178 HEAT:  13.99482
 CYCLE:    23 TIME:   0.008 TIME LEFT:  2.00D  GRAD.:     0.466 HEAT:  13.99416
 CYCLE:    24 TIME:   0.004 TIME LEFT:  2.00D  GRAD.:     0.357 HEAT:  13.99393
 CYCLE:    25 TIME:   0.004 TIME LEFT:  2.00D  GRAD.:     0.296 HEAT:  13.99377
 CYCLE:    26 TIME:   0.004 TIME LEFT:  2.00D  GRAD.:     0.248 HEAT:  13.99366
 CYCLE:    27 TIME:   0.004 TIME LEFT:  2.00D  GRAD.:     0.212 HEAT:  13.99360
 CYCLE:    28 TIME:   0.004 TIME LEFT:  2.00D  GRAD.:     0.196 HEAT:  13.99354
 CYCLE:    29 TIME:   0.008 TIME LEFT:  2.00D  GRAD.:     0.093 HEAT:  13.99350
 CYCLE:    30 TIME:   0.004 TIME LEFT:  2.00D  GRAD.:     0.073 HEAT:  13.99348
 CYCLE:    31 TIME:   0.004 TIME LEFT:  2.00D  GRAD.:     0.061 HEAT:  13.99347
 CYCLE:    32 TIME:   0.008 TIME LEFT:  2.00D  GRAD.:     0.063 HEAT:  13.99347
 CYCLE:    33 TIME:   0.004 TIME LEFT:  2.00D  GRAD.:     0.035 HEAT:  13.99347
 CYCLE:    34 TIME:   0.008 TIME LEFT:  2.00D  GRAD.:     0.039 HEAT:  13.99346
 CYCLE:    35 TIME:   0.004 TIME LEFT:  2.00D  GRAD.:     0.090 HEAT:  13.99345
 CYCLE:    36 TIME:   0.008 TIME LEFT:  2.00D  GRAD.:     0.052 HEAT:  13.99344
 CYCLE:    37 TIME:   0.004 TIME LEFT:  2.00D  GRAD.:     0.098 HEAT:  13.99342
 CYCLE:    38 TIME:   0.008 TIME LEFT:  2.00D  GRAD.:     0.051 HEAT:  13.99340
 CYCLE:    39 TIME:   0.004 TIME LEFT:  2.00D  GRAD.:     0.051 HEAT:  13.99340
 CYCLE:    40 TIME:   0.004 TIME LEFT:  2.00D  GRAD.:     0.050 HEAT:  13.99339
 CYCLE:    41 TIME:   0.004 TIME LEFT:  2.00D  GRAD.:     0.046 HEAT:  13.99338
 CYCLE:    42 TIME:   0.004 TIME LEFT:  2.00D  GRAD.:     0.047 HEAT:  13.99337
 CYCLE:    43 TIME:   0.004 TIME LEFT:  2.00D  GRAD.:     0.054 HEAT:  13.99335
 CYCLE:    44 TIME:   0.004 TIME LEFT:  2.00D  GRAD.:     0.069 HEAT:  13.99334
 CYCLE:    45 TIME:   0.004 TIME LEFT:  2.00D  GRAD.:     0.067 HEAT:  13.99333
 CYCLE:    46 TIME:   0.008 TIME LEFT:  2.00D  GRAD.:     0.086 HEAT:  13.99330
 CYCLE:    47 TIME:   0.004 TIME LEFT:  2.00D  GRAD.:     0.062 HEAT:  13.99330
 CYCLE:    48 TIME:   0.004 TIME LEFT:  2.00D  GRAD.:     0.056 HEAT:  13.99329
 CYCLE:    49 TIME:   0.008 TIME LEFT:  2.00D  GRAD.:     0.047 HEAT:  13.99329
 CYCLE:    50 TIME:   0.004 TIME LEFT:  2.00D  GRAD.:     0.043 HEAT:  13.99329
 CYCLE:    51 TIME:   0.008 TIME LEFT:  2.00D  GRAD.:     0.044 HEAT:  13.99329
 CYCLE:    52 TIME:   0.004 TIME LEFT:  2.00D  GRAD.:     0.046 HEAT:  13.99329
 CYCLE:    53 TIME:   0.012 TIME LEFT:  2.00D  GRAD.:     0.049 HEAT:  13.99329
 CYCLE:    54 TIME:   0.004 TIME LEFT:  2.00D  GRAD.:     0.042 HEAT:  13.99329
 CYCLE:    55 TIME:   0.008 TIME LEFT:  2.00D  GRAD.:     0.055 HEAT:  13.99328
 CYCLE:    56 TIME:   0.008 TIME LEFT:  2.00D  GRAD.:     0.036 HEAT:  13.99328
 CYCLE:    57 TIME:   0.004 TIME LEFT:  2.00D  GRAD.:     0.069 HEAT:  13.99327
 CYCLE:    58 TIME:   0.008 TIME LEFT:  2.00D  GRAD.:     0.040 HEAT:  13.99326
 CYCLE:    59 TIME:   0.008 TIME LEFT:  2.00D  GRAD.:     0.170 HEAT:  13.99324
 CYCLE:    60 TIME:   0.008 TIME LEFT:  2.00D  GRAD.:     0.087 HEAT:  13.99322
 CYCLE:    61 TIME:   0.008 TIME LEFT:  2.00D  GRAD.:     0.144 HEAT:  13.99320
 CYCLE:    62 TIME:   0.004 TIME LEFT:  2.00D  GRAD.:     0.053 HEAT:  13.99318
 CYCLE:    63 TIME:   0.008 TIME LEFT:  2.00D  GRAD.:     0.061 HEAT:  13.99317
 CYCLE:    64 TIME:   0.004 TIME LEFT:  2.00D  GRAD.:     0.057 HEAT:  13.99316
 CYCLE:    65 TIME:   0.004 TIME LEFT:  2.00D  GRAD.:     0.058 HEAT:  13.99314
 CYCLE:    66 TIME:   0.008 TIME LEFT:  2.00D  GRAD.:     0.062 HEAT:  13.99312
 CYCLE:    67 TIME:   0.008 TIME LEFT:  2.00D  GRAD.:     0.067 HEAT:  13.99310
 CYCLE:    68 TIME:   0.008 TIME LEFT:  2.00D  GRAD.:     0.081 HEAT:  13.99303
 CYCLE:    69 TIME:   0.012 TIME LEFT:  2.00D  GRAD.:     0.090 HEAT:  13.99299
 CYCLE:    70 TIME:   0.004 TIME LEFT:  2.00D  GRAD.:     0.110 HEAT:  13.99283
 CYCLE:    71 TIME:   0.016 TIME LEFT:  2.00D  GRAD.:     0.136 HEAT:  13.99268
 CYCLE:    72 TIME:   0.012 TIME LEFT:  2.00D  GRAD.:     0.175 HEAT:  13.99244
 CYCLE:    73 TIME:   0.008 TIME LEFT:  2.00D  GRAD.:     0.262 HEAT:  13.99203
 CYCLE:    74 TIME:   0.008 TIME LEFT:  2.00D  GRAD.:     0.974 HEAT:  13.99115
 CYCLE:    75 TIME:   0.004 TIME LEFT:  2.00D  GRAD.:     0.619 HEAT:  13.99104
 CYCLE:    76 TIME:   0.008 TIME LEFT:  2.00D  GRAD.:     0.789 HEAT:  13.99067
 CYCLE:    77 TIME:   0.031 TIME LEFT:  2.00D  GRAD.:     0.849 HEAT:  13.99027
 CYCLE:    78 TIME:   0.023 TIME LEFT:  2.00D  GRAD.:     1.833 HEAT:  13.98340
 CYCLE:    79 TIME:   0.004 TIME LEFT:  2.00D  GRAD.:     3.934 HEAT:  13.97996
 CYCLE:    80 TIME:   0.008 TIME LEFT:  2.00D  GRAD.:     3.616 HEAT:  13.95664
 CYCLE:    81 TIME:   0.008 TIME LEFT:  2.00D  GRAD.:     5.103 HEAT:  13.91568
 CYCLE:    82 TIME:   0.004 TIME LEFT:  2.00D  GRAD.:     6.287 HEAT:  13.88006
 CYCLE:    83 TIME:   0.004 TIME LEFT:  2.00D  GRAD.:     9.215 HEAT:  13.83793
 CYCLE:    84 TIME:   0.008 TIME LEFT:  2.00D  GRAD.:     3.356 HEAT:  13.80703
 CYCLE:    85 TIME:   0.004 TIME LEFT:  2.00D  GRAD.:     7.366 HEAT:  13.76641
 CYCLE:    86 TIME:   0.012 TIME LEFT:  2.00D  GRAD.:     4.338 HEAT:  13.74123
 CYCLE:    87 TIME:   0.008 TIME LEFT:  2.00D  GRAD.:     3.439 HEAT:  13.72701
 CYCLE:    88 TIME:   0.004 TIME LEFT:  2.00D  GRAD.:     3.217 HEAT:  13.71275
 CYCLE:    89 TIME:   0.004 TIME LEFT:  2.00D  GRAD.:     4.634 HEAT:  13.70129
 CYCLE:    90 TIME:   0.004 TIME LEFT:  2.00D  GRAD.:     3.707 HEAT:  13.68697
 CYCLE:    91 TIME:   0.008 TIME LEFT:  2.00D  GRAD.:     3.295 HEAT:  13.67829
 CYCLE:    92 TIME:   0.004 TIME LEFT:  2.00D  GRAD.:     1.809 HEAT:  13.67331
 CYCLE:    93 TIME:   0.004 TIME LEFT:  2.00D  GRAD.:     2.260 HEAT:  13.66946
 CYCLE:    94 TIME:   0.004 TIME LEFT:  2.00D  GRAD.:     1.291 HEAT:  13.66656
 CYCLE:    95 TIME:   0.004 TIME LEFT:  2.00D  GRAD.:     1.940 HEAT:  13.66215
 CYCLE:    96 TIME:   0.008 TIME LEFT:  2.00D  GRAD.:     2.415 HEAT:  13.65444
 CYCLE:    97 TIME:   0.012 TIME LEFT:  2.00D  GRAD.:     5.402 HEAT:  13.63919
 CYCLE:    98 TIME:   0.008 TIME LEFT:  2.00D  GRAD.:     4.422 HEAT:  13.62179
 CYCLE:    99 TIME:   0.004 TIME LEFT:  2.00D  GRAD.:     3.143 HEAT:  13.58480
 CYCLE:   100 TIME:   0.008 TIME LEFT:  2.00D  GRAD.:     3.608 HEAT:  13.57572
 CYCLE:   101 TIME:   0.004 TIME LEFT:  2.00D  GRAD.:     2.170 HEAT:  13.56816
 CYCLE:   102 TIME:   0.004 TIME LEFT:  2.00D  GRAD.:     1.896 HEAT:  13.56305
 CYCLE:   103 TIME:   0.008 TIME LEFT:  2.00D  GRAD.:     1.806 HEAT:  13.55835
 CYCLE:   104 TIME:   0.004 TIME LEFT:  2.00D  GRAD.:     1.786 HEAT:  13.55574
 CYCLE:   105 TIME:   0.004 TIME LEFT:  2.00D  GRAD.:     1.251 HEAT:  13.55323
 CYCLE:   106 TIME:   0.008 TIME LEFT:  2.00D  GRAD.:     1.721 HEAT:  13.55220
 CYCLE:   107 TIME:   0.008 TIME LEFT:  2.00D  GRAD.:     1.080 HEAT:  13.55056
 CYCLE:   108 TIME:   0.008 TIME LEFT:  2.00D  GRAD.:     0.840 HEAT:  13.54839
 CYCLE:   109 TIME:   0.008 TIME LEFT:  2.00D  GRAD.:     0.774 HEAT:  13.54685
 CYCLE:   110 TIME:   0.008 TIME LEFT:  2.00D  GRAD.:     0.676 HEAT:  13.54594
 CYCLE:   111 TIME:   0.008 TIME LEFT:  2.00D  GRAD.:     0.456 HEAT:  13.54536
 CYCLE:   112 TIME:   0.004 TIME LEFT:  2.00D  GRAD.:     0.263 HEAT:  13.54519
 CYCLE:   113 TIME:   0.008 TIME LEFT:  2.00D  GRAD.:     0.168 HEAT:  13.54511
 CYCLE:   114 TIME:   0.004 TIME LEFT:  2.00D  GRAD.:     0.116 HEAT:  13.54509
 CYCLE:   115 TIME:   0.008 TIME LEFT:  2.00D  GRAD.:     0.086 HEAT:  13.54508
 CYCLE:   116 TIME:   0.008 TIME LEFT:  2.00D  GRAD.:     0.047 HEAT:  13.54508
 CYCLE:   117 TIME:   0.004 TIME LEFT:  2.00D  GRAD.:     0.028 HEAT:  13.54507
 CYCLE:   118 TIME:   0.008 TIME LEFT:  2.00D  GRAD.:     0.018 HEAT:  13.54507
 CYCLE:   119 TIME:   0.004 TIME LEFT:  2.00D  GRAD.:     0.011 HEAT:  13.54507
 TEST ON GRADIENT SATISFIED
PETERS TEST SATISFIED

 -------------------------------------------------------------------------------
 pm3  precise nosym gnorm=0.0 bfgs THREADS=1
 InChI=1S/C7H10/c1-6-3-4-7(2)5-6/h4H,1,3,5H2,2H3



     PETERS TEST WAS SATISFIED IN BFGS OPTIMIZATION           
     SCF FIELD WAS ACHIEVED                                   


                              PM3 CALCULATION
                                                       MOPAC v23.1.2 MacOS
                                                       Tue Jun  3 16:29:18 2025




          FINAL HEAT OF FORMATION =         13.54507 KCAL/MOL =      56.67259 KJ/MOL


          COSMO AREA              =        147.22 SQUARE ANGSTROMS
          COSMO VOLUME            =        139.28 CUBIC ANGSTROMS

          GRADIENT NORM           =          0.00477          =       0.00116 PER ATOM
          IONIZATION POTENTIAL    =          9.213312 EV
          HOMO LUMO ENERGIES (EV) =         -9.213  0.997
          NO. OF FILLED LEVELS    =         19
          MOLECULAR WEIGHT        =         94.1560         POINT GROUP:  C1  

          MOLECULAR DIMENSIONS (Angstroms)

            Atom       Atom       Distance
            H    16    H    14     6.58308
            H    11    H     8     3.97387
            H    10    H     9     3.17503


          SCF CALCULATIONS        =        204

          WALL-CLOCK TIME         =      0.773 SECONDS
          COMPUTATION TIME        =      0.435 SECONDS




   ATOM   CHEMICAL          X               Y               Z
  NUMBER   SYMBOL      (ANGSTROMS)     (ANGSTROMS)     (ANGSTROMS)

     1       C          0.20828467  *  -0.95196984  *   0.54473335  *
     2       C         -1.24371436  *   0.93227235  *  -0.02624674  *
     3       C          2.44922512  *   0.11008596  *  -0.21479694  *
     4       C          0.98909378  *   0.19305706  *  -0.04021337  *
     5       C         -1.21236476  *  -0.45915249  *   0.54421716  *
     6       C          0.18896414  *   1.22560406  *  -0.35248860  *
     7       C         -2.26583328  *  -1.14115015  *   0.97658410  *
     8       H          0.55660642  *  -1.19846292  *   1.56521070  *
     9       H          0.32410286  *  -1.87046250  *  -0.06059258  *
    10       H         -1.65043133  *   1.66220565  *   0.69838896  *
    11       H         -1.88305701  *   0.99064429  *  -0.92688430  *
    12       H          2.71421686  *  -0.72837807  *  -0.87297482  *
    13       H          2.94654323  *  -0.05514008  *   0.75051129  *
    14       H          2.86220035  *   1.02700112  *  -0.65411275  *
    15       H          0.49324264  *   2.17631188  *  -0.78897538  *
    16       H         -3.27296791  *  -0.73707206  *   0.95359418  *
    17       H         -2.18658045  *  -2.14558096  *   1.38026543  *

                             CARTESIAN COORDINATES

   1    C        0.208284667    -0.951969842     0.544733350
   2    C       -1.243714363     0.932272345    -0.026246742
   3    C        2.449225119     0.110085957    -0.214796941
   4    C        0.989093777     0.193057060    -0.040213368
   5    C       -1.212364759    -0.459152486     0.544217158
   6    C        0.188964143     1.225604058    -0.352488596
   7    C       -2.265833276    -1.141150153     0.976584099
   8    H        0.556606423    -1.198462915     1.565210697
   9    H        0.324102861    -1.870462495    -0.060592582
  10    H       -1.650431330     1.662205648     0.698388963
  11    H       -1.883057009     0.990644289    -0.926884298
  12    H        2.714216857    -0.728378069    -0.872974822
  13    H        2.946543234    -0.055140079     0.750511294
  14    H        2.862200348     1.027001120    -0.654112754
  15    H        0.493242644     2.176311880    -0.788975380
  16    H       -3.272967907    -0.737072061     0.953594181
  17    H       -2.186580451    -2.145580962     1.380265431


           Empirical Formula: C7 H10  =    17 atoms



      MOLECULAR POINT GROUP   :   C1  


                  EIGENVALUES  
 -40.35586 -32.55910 -29.23529 -26.54814 -22.86627 -18.80627 -18.26994 -16.62181
 -15.77769 -14.67992 -14.60665 -14.07937 -13.80048 -13.32231 -12.85556 -12.62567
 -12.02059 -10.19575  -9.21331   0.99658   1.13413   3.24756   3.34450   3.66635
   3.81937   3.90620   4.04125   4.24554   4.30827   4.37107   4.38598   4.58773
   4.62440   4.72850   5.33991   5.70505   6.00606   6.07918


              NET ATOMIC CHARGES AND DIPOLE CONTRIBUTIONS

  ATOM NO.   TYPE          CHARGE      No. of ELECS.   s-Pop       p-Pop       
    1          C          -0.017300        4.0173     1.13955     2.87775
    2          C          -0.022215        4.0222     1.13979     2.88242
    3          C          -0.050472        4.0505     1.11736     2.93311
    4          C          -0.135283        4.1353     1.20441     2.93087
    5          C          -0.115715        4.1157     1.20609     2.90962
    6          C          -0.159724        4.1597     1.20118     2.95855
    7          C          -0.174443        4.1744     1.17565     2.99879
    8          H           0.064934        0.9351     0.93507
    9          H           0.064935        0.9351     0.93506
   10          H           0.064147        0.9359     0.93585
   11          H           0.064146        0.9359     0.93585
   12          H           0.044988        0.9550     0.95501
   13          H           0.044996        0.9550     0.95500
   14          H           0.042684        0.9573     0.95732
   15          H           0.114909        0.8851     0.88509
   16          H           0.084821        0.9152     0.91518
   17          H           0.084591        0.9154     0.91541
 DIPOLE           X         Y         Z       TOTAL
 POINT-CHG.     0.353     0.029    -0.062     0.359
 HYBRID        -0.030    -0.021     0.013     0.040
 SUM            0.322     0.008    -0.049     0.326


          ATOMIC ORBITAL ELECTRON POPULATIONS

     Atom    s        px        py        pz   
    1  C   1.13955   0.91721   0.96081   0.99973
    2  C   1.13979   0.95009   0.93815   0.99418
    3  C   1.11736   0.91996   1.00908   1.00407
    4  C   1.20441   0.95884   0.96741   1.00462
    5  C   1.20609   0.95783   0.96562   0.98617
    6  C   1.20118   0.95541   0.98109   1.02205
    7  C   1.17565   0.97145   0.99958   1.02776
    8  H   0.93507
    9  H   0.93506
   10  H   0.93585
   11  H   0.93585
   12  H   0.95501
   13  H   0.95500
   14  H   0.95732
   15  H   0.88509
   16  H   0.91518
   17  H   0.91541
 *******************************************************************************
 **                                                                           **
 **                              MOPAC v23.1.2                                **
 **                                                                           **
 *******************************************************************************
 **          Digital Object Identifier (DOI): 10.5281/zenodo.6511958          **
 **    Visit the DOI location for information on how to cite this program.    **
 *******************************************************************************

                              PM3 CALCULATION RESULTS

 *******************************************************************************
 *  CALCULATION DONE: (MAX THREADS = 1)              Tue Jun  3 16:29:18 2025  *
 *  PM3        - The PM3 Hamiltonian to be used
 *  OLDGEO     - PREVIOUS GEOMETRY TO BE USED
 *  PRECISE    - TIGHTER CRITERIA TO BE USED
 *  NOSYM      - POINT-GROUP SYMMETRY SET TO C1
 *  THREADS=1  - MULTI-THREADING NOT USED
 *  T=         - A TIME OF 172800.0 SECONDS REQUESTED
 *  DUMP=N     - RESTART FILE WRITTEN EVERY 7200.0 SECONDS REQUESTED
 *  THERMO     - THERMODYNAMIC QUANTITIES TO BE CALCULATED
 *******************************************************************************
oldgeo thermo nosym precise THREADS=1  pm3
 InChI=1S/C7H10/c1-6-3-4-7(2)5-6/h4H,1,3,5H2,2H3

   ATOM   CHEMICAL          X               Y               Z
  NUMBER   SYMBOL      (ANGSTROMS)     (ANGSTROMS)     (ANGSTROMS)

     1       C          0.20828467  *  -0.95196984  *   0.54473335  *
     2       C         -1.24371436  *   0.93227235  *  -0.02624674  *
     3       C          2.44922512  *   0.11008596  *  -0.21479694  *
     4       C          0.98909378  *   0.19305706  *  -0.04021337  *
     5       C         -1.21236476  *  -0.45915249  *   0.54421716  *
     6       C          0.18896414  *   1.22560406  *  -0.35248860  *
     7       C         -2.26583328  *  -1.14115015  *   0.97658410  *
     8       H          0.55660642  *  -1.19846292  *   1.56521070  *
     9       H          0.32410286  *  -1.87046250  *  -0.06059258  *
    10       H         -1.65043133  *   1.66220565  *   0.69838896  *
    11       H         -1.88305701  *   0.99064429  *  -0.92688430  *
    12       H          2.71421686  *  -0.72837807  *  -0.87297482  *
    13       H          2.94654323  *  -0.05514008  *   0.75051129  *
    14       H          2.86220035  *   1.02700112  *  -0.65411275  *
    15       H          0.49324264  *   2.17631188  *  -0.78897538  *
    16       H         -3.27296791  *  -0.73707206  *   0.95359418  *
    17       H         -2.18658045  *  -2.14558096  *   1.38026543  *



          CARTESIAN COORDINATES 

    NO.       ATOM           X           Y           Z

     1         C          0.2083     -0.9520      0.5447
     2         C         -1.2437      0.9323     -0.0262
     3         C          2.4492      0.1101     -0.2148
     4         C          0.9891      0.1931     -0.0402
     5         C         -1.2124     -0.4592      0.5442
     6         C          0.1890      1.2256     -0.3525
     7         C         -2.2658     -1.1412      0.9766
     8         H          0.5566     -1.1985      1.5652
     9         H          0.3241     -1.8705     -0.0606
    10         H         -1.6504      1.6622      0.6984
    11         H         -1.8831      0.9906     -0.9269
    12         H          2.7142     -0.7284     -0.8730
    13         H          2.9465     -0.0551      0.7505
    14         H          2.8622      1.0270     -0.6541
    15         H          0.4932      2.1763     -0.7890
    16         H         -3.2730     -0.7371      0.9536
    17         H         -2.1866     -2.1456      1.3803

  H: (PM3): J. J. P. STEWART, J. COMP. CHEM. 10, 209 (1989).
  C: (PM3): J. J. P. STEWART, J. COMP. CHEM. 10, 209 (1989).

           Empirical Formula: C7 H10  =    17 atoms



      MOLECULAR POINT GROUP   :   C1  


      RHF CALCULATION, NO. OF DOUBLY OCCUPIED LEVELS = 19



          HEAT OF FORMATION =      13.545073 KCALS/MOLE


          CARTESIAN COORDINATE DERIVATIVES

   NUMBER  ATOM         X            Y            Z

     1       C     -0.000175     0.000228     0.000507
     2       C      0.000800    -0.000629     0.009427
     3       C     -0.000265     0.001130     0.003152
     4       C      0.000058     0.000086    -0.000430
     5       C      0.000135     0.000158    -0.003351
     6       C     -0.000606    -0.001305    -0.009822
     7       C      0.001189     0.000792    -0.000187
     8       H      0.000361     0.000296    -0.000138
     9       H     -0.000608    -0.000353     0.000138
    10       H     -0.001735     0.002899     0.000186
    11       H      0.000936    -0.002610    -0.001635
    12       H     -0.001137     0.000120    -0.001128
    13       H      0.001996    -0.000375     0.000543
    14       H     -0.000829    -0.000720     0.000083
    15       H      0.000771     0.000840     0.001220
    16       H     -0.000079    -0.000132     0.000135
    17       H     -0.000813    -0.000425     0.001301



          GRADIENT NORM =   0.01580

          MOLECULAR WEIGHT =   94.16



          ROTATIONAL CONSTANTS IN CM(-1)

          A =    0.19801567   B =    0.06677062   C =    0.05138102



           PRINCIPAL MOMENTS OF INERTIA IN UNITS OF 10**(-40)*GRAM-CM**2

          A =      141.3663   B =      419.2376   C =      544.8072


          ORIENTATION OF MOLECULE IN FORCE CALCULATION

    NO.       ATOM         X         Y         Z

     1          C      -0.9814   -0.3411   -0.0000
     2          C       1.4650   -0.3411   -0.0000
     3          C      -1.3162    2.2308   -0.0000
     4          C      -0.4264    1.0571   -0.0000
     5          C       0.2415   -1.2161    0.0000
     6          C       0.9167    1.0534   -0.0001
     7          C       0.2406   -2.5434    0.0002
     8          H      -1.6162   -0.5234   -0.8873
     9          H      -1.6163   -0.5233    0.8872
    10          H       2.0994   -0.5254   -0.8870
    11          H       2.0996   -0.5255    0.8868
    12          H      -1.9657    2.2253    0.8857
    13          H      -1.9639    2.2265   -0.8871
    14          H      -0.7525    3.1724    0.0011
    15          H       1.5702    1.9251   -0.0000
    16          H       1.1549   -3.1283    0.0003
    17          H      -0.6743   -3.1274    0.0003


    FIRST DERIVATIVES WILL BE USED IN THE CALCULATION OF SECOND DERIVATIVES

          ESTIMATED TIME TO COMPLETE CALCULATION =        0.80 SECONDS

    FOR POINT-GROUP C1   THERE ARE   1 UNIQUE SYMMETRY FUNCTIONS.

 STEP:   1 TIME =     0.02 SECS, INTEGRAL =      0.02 TIME LEFT: 172799.98
 STEP:   2 TIME =     0.02 SECS, INTEGRAL =      0.03 TIME LEFT: 172799.96
 STEP:   3 TIME =     0.02 SECS, INTEGRAL =      0.05 TIME LEFT: 172799.95
 STEP:   4 TIME =     0.01 SECS, INTEGRAL =      0.06 TIME LEFT: 172799.94
 STEP:   5 TIME =     0.01 SECS, INTEGRAL =      0.07 TIME LEFT: 172799.93
 STEP:   6 TIME =     0.02 SECS, INTEGRAL =      0.09 TIME LEFT: 172799.91
 STEP:   7 TIME =     0.01 SECS, INTEGRAL =      0.10 TIME LEFT: 172799.90
 STEP:   8 TIME =     0.01 SECS, INTEGRAL =      0.11 TIME LEFT: 172799.89
 STEP:   9 TIME =     0.02 SECS, INTEGRAL =      0.12 TIME LEFT: 172799.87
 STEP:  10 TIME =     0.01 SECS, INTEGRAL =      0.14 TIME LEFT: 172799.86
 STEP:  11 TIME =     0.02 SECS, INTEGRAL =      0.15 TIME LEFT: 172799.84
 STEP:  12 TIME =     0.01 SECS, INTEGRAL =      0.16 TIME LEFT: 172799.83
 STEP:  13 TIME =     0.01 SECS, INTEGRAL =      0.18 TIME LEFT: 172799.82
 STEP:  14 TIME =     0.01 SECS, INTEGRAL =      0.19 TIME LEFT: 172799.81
 STEP:  15 TIME =     0.01 SECS, INTEGRAL =      0.20 TIME LEFT: 172799.80
 STEP:  16 TIME =     0.01 SECS, INTEGRAL =      0.21 TIME LEFT: 172799.79
 STEP:  17 TIME =     0.01 SECS, INTEGRAL =      0.22 TIME LEFT: 172799.77
 STEP:  18 TIME =     0.01 SECS, INTEGRAL =      0.23 TIME LEFT: 172799.76
 STEP:  19 TIME =     0.01 SECS, INTEGRAL =      0.25 TIME LEFT: 172799.75
 STEP:  20 TIME =     0.01 SECS, INTEGRAL =      0.26 TIME LEFT: 172799.74
 STEP:  21 TIME =     0.01 SECS, INTEGRAL =      0.27 TIME LEFT: 172799.73
 STEP:  22 TIME =     0.01 SECS, INTEGRAL =      0.28 TIME LEFT: 172799.71
 STEP:  23 TIME =     0.02 SECS, INTEGRAL =      0.30 TIME LEFT: 172799.70
 STEP:  24 TIME =     0.01 SECS, INTEGRAL =      0.31 TIME LEFT: 172799.69
 STEP:  25 TIME =     0.01 SECS, INTEGRAL =      0.32 TIME LEFT: 172799.68
 STEP:  26 TIME =     0.02 SECS, INTEGRAL =      0.34 TIME LEFT: 172799.66
 STEP:  27 TIME =     0.01 SECS, INTEGRAL =      0.35 TIME LEFT: 172799.65
 STEP:  28 TIME =     0.02 SECS, INTEGRAL =      0.36 TIME LEFT: 172799.63
 STEP:  29 TIME =     0.01 SECS, INTEGRAL =      0.38 TIME LEFT: 172799.62
 STEP:  30 TIME =     0.02 SECS, INTEGRAL =      0.39 TIME LEFT: 172799.61
 STEP:  31 TIME =     0.01 SECS, INTEGRAL =      0.40 TIME LEFT: 172799.59
 STEP:  32 TIME =     0.01 SECS, INTEGRAL =      0.41 TIME LEFT: 172799.58
 STEP:  33 TIME =     0.01 SECS, INTEGRAL =      0.43 TIME LEFT: 172799.57
 STEP:  34 TIME =     0.01 SECS, INTEGRAL =      0.44 TIME LEFT: 172799.56
 STEP:  35 TIME =     0.01 SECS, INTEGRAL =      0.45 TIME LEFT: 172799.55
 STEP:  36 TIME =     0.01 SECS, INTEGRAL =      0.46 TIME LEFT: 172799.54
 STEP:  37 TIME =     0.01 SECS, INTEGRAL =      0.47 TIME LEFT: 172799.52
 STEP:  38 TIME =     0.01 SECS, INTEGRAL =      0.48 TIME LEFT: 172799.51
 STEP:  39 TIME =     0.01 SECS, INTEGRAL =      0.50 TIME LEFT: 172799.50
 STEP:  40 TIME =     0.01 SECS, INTEGRAL =      0.51 TIME LEFT: 172799.49
 STEP:  41 TIME =     0.01 SECS, INTEGRAL =      0.52 TIME LEFT: 172799.48
 STEP:  42 TIME =     0.02 SECS, INTEGRAL =      0.53 TIME LEFT: 172799.46
 STEP:  43 TIME =     0.01 SECS, INTEGRAL =      0.54 TIME LEFT: 172799.45
 STEP:  44 TIME =     0.01 SECS, INTEGRAL =      0.55 TIME LEFT: 172799.45
 STEP:  45 TIME =     0.02 SECS, INTEGRAL =      0.57 TIME LEFT: 172799.43
 STEP:  46 TIME =     0.01 SECS, INTEGRAL =      0.58 TIME LEFT: 172799.42
 STEP:  47 TIME =     0.02 SECS, INTEGRAL =      0.59 TIME LEFT: 172799.40
 STEP:  48 TIME =     0.01 SECS, INTEGRAL =      0.61 TIME LEFT: 172799.39
 STEP:  49 TIME =     0.01 SECS, INTEGRAL =      0.62 TIME LEFT: 172799.38
 STEP:  50 TIME =     0.01 SECS, INTEGRAL =      0.63 TIME LEFT: 172799.37
 STEP:  51 TIME =     0.01 SECS, INTEGRAL =      0.64 TIME LEFT: 172799.36

(To convert to Hartree/Bohr^2, multiply by (10^(-21) x N x a0^2)/(4.184 x 627.51) =  0.0642)


           FORCE MATRIX IN MILLIDYNES/ANGSTROM


                  C  1       C  2       C  3       C  4       C  5       C  6
 ------------------------------------------------------------------------------
     C    1  14.887132
     C    2   0.743455  14.946102
     C    3   0.508643   0.131495  14.860337
     C    4   4.401042   1.178175   5.454506  18.843825
     C    5   4.418443   4.403660   0.050940   0.996617  19.068648
     C    6   1.142447   4.626528   0.718204  10.195443   1.008007  18.283953
     C    7   0.711763   0.710404   0.010971   0.056210  10.950059   0.054641
     H    8   4.491729   0.029958   0.011378   0.437949   0.433963   0.035195
     H    9   4.491737   0.029964   0.011390   0.437955   0.433973   0.035198
     H   10   0.030107   4.490534   0.018912   0.035264   0.433717   0.428073
     H   11   0.030115   4.490614   0.018910   0.035267   0.433726   0.428101
     H   12   0.013711   0.018487   4.702812   0.450287   0.002437   0.031935
     H   13   0.013671   0.018501   4.702690   0.450213   0.002432   0.031870
     H   14   0.042558   0.002987   4.751343   0.472386   0.007993   0.026557
     H   15   0.109763   0.407144   0.056506   0.460077   0.044126   5.023210
     H   16   0.128499   0.090485   0.001694   0.006616   0.479494   0.001830
     H   17   0.090490   0.128436   0.001141   0.002165   0.479815   0.006353


                  C  7       H  8       H  9       H 10       H 11       H 12
 ------------------------------------------------------------------------------
     C    7  18.109327
     H    8   0.020460   5.090866
     H    9   0.020458   0.556171   5.090887
     H   10   0.020640   0.001870   0.002209   5.090794
     H   11   0.020640   0.002209   0.001870   0.558379   5.090899
     H   12   0.001090   0.001070   0.005654   0.002301   0.003296   5.411958
     H   13   0.001089   0.005625   0.001071   0.003298   0.002304   0.572015
     H   14   0.002323   0.001317   0.001317   0.000515   0.000513   0.559179
     H   15   0.007667   0.014947   0.014945   0.012483   0.012481   0.007107
     H   16   5.111426   0.013437   0.013433   0.011170   0.011169   0.000172
     H   17   5.111221   0.011227   0.011225   0.013360   0.013356   0.000183


                  H 13       H 14       H 15       H 16       H 17
 ------------------------------------------------------------------
     H   13   5.411856
     H   14   0.559222   5.455125
     H   15   0.007120   0.012720   5.423248
     H   16   0.000172   0.000310   0.000774   5.491360
     H   17   0.000183   0.000269   0.001236   0.411109   5.491456


          HEAT OF FORMATION =      13.545073 KCALS/MOLE

          ZERO POINT ENERGY      92.759 KCAL/MOL


           NORMAL COORDINATE ANALYSIS (Total motion = 1 Angstrom)


   Root No.       1         2         3         4         5         6         7         8

                 1 A       2 A       3 A       4 A       5 A       6 A       7 A       8 A   

                  91.5     100.2     226.4     281.4     408.7     445.1     457.5     576.5
  
           1   -0.0000   -0.0000   -0.0000   -0.0281    0.0133    0.0000   -0.0000   -0.0584
           2   -0.0000   -0.0000    0.0000   -0.0159   -0.0344   -0.0000   -0.0000   -0.0136
           3   -0.0392    0.0460    0.0139   -0.0000    0.0000   -0.0083   -0.0017   -0.0000
           4   -0.0000   -0.0000   -0.0000   -0.0238    0.0193   -0.0000    0.0000    0.0177
           5   -0.0000    0.0000   -0.0000   -0.0022    0.0276    0.0000    0.0000    0.0153
           6   -0.0267    0.0066   -0.0459    0.0000   -0.0000   -0.0047    0.0021    0.0000
           7    0.0000    0.0000   -0.0000    0.0448    0.0202    0.0000    0.0000    0.0466
           8    0.0000    0.0000   -0.0000    0.0475    0.0167    0.0000   -0.0000   -0.0652
           9    0.0269   -0.0232   -0.0422   -0.0000   -0.0000   -0.0033   -0.0045    0.0000
          10   -0.0000   -0.0000    0.0000   -0.0291   -0.0283   -0.0000   -0.0000    0.0079
          11   -0.0000   -0.0000    0.0000   -0.0105   -0.0213    0.0000   -0.0000   -0.0599
          12   -0.0030    0.0059    0.0372   -0.0000   -0.0000    0.0383    0.0738   -0.0000
          13    0.0000    0.0000   -0.0000   -0.0179    0.0405    0.0000   -0.0000   -0.0207
          14   -0.0000   -0.0000   -0.0000   -0.0096   -0.0033    0.0000   -0.0000    0.0616
          15   -0.0080    0.0092   -0.0139    0.0000   -0.0000    0.0677   -0.0540    0.0000
          16   -0.0000   -0.0000    0.0000   -0.0291   -0.0282   -0.0000   -0.0000    0.0082
          17   -0.0000   -0.0000    0.0000   -0.0110    0.0091    0.0000   -0.0000   -0.0080
          18    0.0011   -0.0104    0.0650    0.0000    0.0000   -0.0204   -0.0240   -0.0000
          19    0.0000    0.0000    0.0000    0.0592   -0.0348   -0.0000    0.0000   -0.0057
          20    0.0000   -0.0000    0.0000   -0.0100   -0.0036   -0.0000    0.0000    0.0737
          21    0.0455   -0.0295    0.0068   -0.0000    0.0000   -0.0195    0.0130   -0.0000
          22    0.0336   -0.0381   -0.0099   -0.0263    0.0207    0.1259    0.0115   -0.0628
          23    0.0117   -0.0131    0.0146   -0.0200   -0.0606    0.0250    0.0775   -0.0161
          24   -0.0658    0.0762    0.0180    0.0000    0.0001   -0.1069   -0.0270    0.0022
          25   -0.0336    0.0380    0.0099   -0.0263    0.0207   -0.1259   -0.0115   -0.0628
          26   -0.0117    0.0131   -0.0146   -0.0199   -0.0606   -0.0250   -0.0775   -0.0160
          27   -0.0658    0.0762    0.0180   -0.0000   -0.0001   -0.1069   -0.0270   -0.0022
          28   -0.0228    0.0060   -0.0759   -0.0227    0.0261   -0.0666    0.0874    0.0129
          29    0.0100   -0.0090    0.0612    0.0006    0.0525   -0.0281   -0.0123   -0.0023
          30   -0.0452    0.0129   -0.1141   -0.0000   -0.0001   -0.0480    0.0696    0.0001
          31    0.0228   -0.0060    0.0759   -0.0227    0.0262    0.0666   -0.0874    0.0129
          32   -0.0100    0.0090   -0.0612    0.0006    0.0525    0.0281    0.0123   -0.0023
          33   -0.0452    0.0129   -0.1141    0.0000    0.0001   -0.0480    0.0696   -0.0001
          34   -0.0873   -0.1348   -0.0239    0.0459    0.0216   -0.0223   -0.0438    0.0508
          35   -0.0872   -0.0745    0.0561    0.1011    0.0591    0.0305    0.0601   -0.0573
          36   -0.0378   -0.1228   -0.0599    0.0004    0.0005   -0.0200   -0.0375    0.0025
          37    0.0875    0.1350    0.0239    0.0459    0.0216    0.0223    0.0439    0.0509
          38    0.0874    0.0747   -0.0562    0.1010    0.0589   -0.0306   -0.0602   -0.0573
          39   -0.0375   -0.1224   -0.0600   -0.0004   -0.0005   -0.0200   -0.0375   -0.0025
          40   -0.0001   -0.0002   -0.0000    0.1190    0.0782   -0.0000   -0.0000    0.0740
          41   -0.0001   -0.0001    0.0001    0.0046   -0.0164    0.0000    0.0001   -0.0819
          42    0.1744    0.1403   -0.0876   -0.0000   -0.0000   -0.0230   -0.0430    0.0000
          43   -0.0000   -0.0000    0.0000   -0.0334   -0.0589   -0.0000   -0.0000   -0.0347
          44   -0.0000    0.0000   -0.0000   -0.0073    0.0326    0.0000    0.0000    0.0238
          45    0.0247   -0.0351    0.1166    0.0000    0.0000   -0.0860   -0.1245    0.0000
          46    0.0000    0.0000    0.0000    0.1038   -0.0898   -0.0000    0.0000    0.0095
          47    0.0000   -0.0000    0.0000    0.0580   -0.0867   -0.0000    0.0000    0.0994
          48    0.0744   -0.0621   -0.0079    0.0000    0.0000   -0.0704    0.0440    0.0000
          49    0.0000    0.0000    0.0000    0.1040   -0.0895   -0.0000    0.0000    0.0019
          50    0.0000   -0.0000    0.0000   -0.0786    0.0790   -0.0000    0.0000    0.0640
          51    0.0649   -0.0318    0.0413   -0.0000   -0.0000   -0.0653    0.0580   -0.0001


   Root No.       9        10        11        12        13        14        15        16

                 9 A      10 A      11 A      12 A      13 A      14 A      15 A      16 A   

                 605.4     685.3     811.5     888.1     914.7     934.9     955.2     959.4
  
           1    0.0000    0.0078    0.0000   -0.0000   -0.0192    0.0443    0.0000    0.0250
           2   -0.0000   -0.0083    0.0000   -0.0000   -0.0059   -0.0324    0.0000    0.0375
           3   -0.0011   -0.0000    0.0060    0.0540    0.0000   -0.0000    0.0199   -0.0000
           4   -0.0000   -0.0637    0.0000   -0.0000   -0.0399   -0.0419   -0.0000   -0.0094
           5    0.0000    0.0559   -0.0000    0.0000   -0.0065   -0.0138   -0.0000   -0.0083
           6    0.0016    0.0000   -0.0390   -0.0201    0.0000    0.0000    0.0460   -0.0000
           7   -0.0000    0.0408   -0.0000    0.0000    0.0081   -0.0090   -0.0000   -0.0244
           8    0.0000   -0.0392   -0.0000   -0.0000    0.0046    0.0006   -0.0000   -0.0390
           9    0.0012    0.0000    0.0089   -0.0222    0.0000   -0.0000    0.0009    0.0000
          10    0.0000    0.0306   -0.0000    0.0000    0.0058    0.0017   -0.0000   -0.0089
          11    0.0000   -0.0117    0.0000   -0.0000    0.0065    0.0025   -0.0000   -0.0088
          12    0.0114   -0.0000    0.0074   -0.0142   -0.0000    0.0000   -0.0027   -0.0000
          13    0.0000   -0.0252    0.0000   -0.0000    0.0092   -0.0018    0.0000    0.0020
          14   -0.0000   -0.0354    0.0000    0.0000    0.0055    0.0190   -0.0000   -0.0004
          15   -0.0018   -0.0000    0.0173   -0.0129   -0.0000   -0.0000   -0.0213    0.0000
          16    0.0000    0.0198   -0.0000    0.0000    0.0052    0.0085   -0.0000   -0.0089
          17    0.0000    0.0822    0.0000    0.0000   -0.0021    0.0128   -0.0000   -0.0024
          18   -0.0062   -0.0000   -0.0264    0.0133   -0.0000   -0.0000   -0.0415    0.0000
          19   -0.0000   -0.0100   -0.0000   -0.0000    0.0559   -0.0133    0.0000    0.0141
          20   -0.0000   -0.0456   -0.0000    0.0000    0.0095    0.0339    0.0000    0.0009
          21    0.0001    0.0000    0.0018   -0.0036   -0.0000   -0.0000   -0.0225    0.0000
          22   -0.0496   -0.0012    0.0215    0.1377   -0.0210    0.0794    0.0274    0.0171
          23    0.0117    0.0235   -0.0234    0.0487   -0.0120   -0.1202    0.0855    0.1064
          24    0.0338   -0.0003   -0.0047   -0.0593    0.0026   -0.0060   -0.0190   -0.0075
          25    0.0496   -0.0012   -0.0215   -0.1377   -0.0210    0.0795   -0.0273    0.0171
          26   -0.0117    0.0235    0.0234   -0.0487   -0.0120   -0.1201   -0.0854    0.1066
          27    0.0338    0.0003   -0.0047   -0.0593   -0.0026    0.0061   -0.0190    0.0075
          28   -0.0544   -0.0709    0.1021    0.0667   -0.0559   -0.0719   -0.1222   -0.0147
          29   -0.0025    0.0686   -0.0923    0.0382   -0.0340   -0.0793   -0.0087   -0.0171
          30   -0.0389   -0.0055    0.0578    0.0213   -0.0054   -0.0068   -0.0433   -0.0016
          31    0.0543   -0.0709   -0.1021   -0.0667   -0.0559   -0.0719    0.1222   -0.0149
          32    0.0025    0.0685    0.0923   -0.0382   -0.0340   -0.0792    0.0086   -0.0172
          33   -0.0389    0.0055    0.0578    0.0214    0.0054    0.0068   -0.0434    0.0016
          34   -0.0075    0.0465   -0.0379    0.0704    0.0078   -0.0093   -0.0038   -0.0178
          35    0.0097   -0.0529    0.0513   -0.0928   -0.0342    0.0379    0.0049    0.1151
          36   -0.0045    0.0031   -0.0201    0.0311   -0.0001   -0.0004   -0.0023    0.0037
          37    0.0075    0.0465    0.0379   -0.0705    0.0077   -0.0092    0.0038   -0.0175
          38   -0.0097   -0.0530   -0.0514    0.0929   -0.0341    0.0378   -0.0047    0.1147
          39   -0.0045   -0.0031   -0.0201    0.0311    0.0001    0.0004   -0.0023   -0.0037
          40   -0.0000    0.0387   -0.0000    0.0001   -0.0417    0.0344    0.0001    0.1962
          41    0.0000   -0.0381    0.0001   -0.0001    0.0331   -0.0237   -0.0001   -0.1671
          42   -0.0047    0.0000   -0.0259    0.0373    0.0000   -0.0000   -0.0034   -0.0000
          43    0.0000    0.0064   -0.0000    0.0000    0.0577    0.0698   -0.0000   -0.0107
          44    0.0000    0.0925   -0.0000    0.0000   -0.0418   -0.0338   -0.0000   -0.0020
          45   -0.0405    0.0000    0.2900   -0.0060    0.0000    0.0000    0.1669   -0.0001
          46   -0.0000   -0.0012    0.0000    0.0000   -0.0861    0.0296   -0.0000   -0.0144
          47    0.0000   -0.0335   -0.0000    0.0000   -0.2046    0.1035    0.0000   -0.0426
          48    0.3262   -0.0000    0.0178    0.0759    0.0000   -0.0000    0.0905   -0.0000
          49   -0.0000    0.0062   -0.0000    0.0000   -0.0916    0.0064   -0.0000   -0.0162
          50   -0.0001   -0.0732   -0.0000   -0.0000    0.2348    0.0081    0.0000    0.0479
          51   -0.3232    0.0000   -0.0629   -0.0246   -0.0000    0.0000    0.1281   -0.0001


   Root No.      17        18        19        20        21        22        23        24

                17 A      18 A      19 A      20 A      21 A      22 A      23 A      24 A   

                 982.7    1007.1    1007.6    1057.9    1061.3    1075.3    1205.9    1218.2
  
           1   -0.0000   -0.0478    0.0007   -0.0078    0.0000    0.0000    0.0011   -0.0158
           2   -0.0000   -0.0327    0.0005   -0.0045    0.0000    0.0000   -0.0222    0.0346
           3   -0.0130   -0.0003   -0.0145   -0.0001   -0.0193    0.0110    0.0000   -0.0000
           4    0.0000    0.0288   -0.0004   -0.0183    0.0000    0.0000    0.0054    0.0156
           5    0.0000    0.0048   -0.0001    0.0239   -0.0000    0.0000    0.0145    0.0025
           6   -0.0001   -0.0003   -0.0160    0.0000    0.0067    0.0174    0.0000    0.0000
           7   -0.0000   -0.0401    0.0006   -0.0065    0.0000    0.0000    0.0068    0.0065
           8   -0.0000    0.0115   -0.0002   -0.0073    0.0000   -0.0000    0.0058   -0.0135
           9   -0.0257   -0.0003   -0.0146   -0.0001   -0.0209   -0.0082   -0.0000   -0.0000
          10    0.0000    0.0231   -0.0003    0.0049   -0.0000    0.0000   -0.0192   -0.0184
          11   -0.0000   -0.0038    0.0001    0.0086   -0.0000   -0.0000   -0.0144    0.0271
          12    0.0203    0.0004    0.0168    0.0001    0.0429    0.0180    0.0000    0.0000
          13   -0.0000   -0.0096    0.0001    0.0045   -0.0000   -0.0000    0.0322    0.0039
          14   -0.0000   -0.0039    0.0001   -0.0004    0.0000   -0.0000    0.0001    0.0033
          15    0.0040    0.0003    0.0161    0.0000    0.0133   -0.0469   -0.0000   -0.0000
          16    0.0000    0.0494   -0.0007    0.0043   -0.0000   -0.0000   -0.0173   -0.0192
          17    0.0000    0.0374   -0.0005   -0.0362    0.0000   -0.0000    0.0216    0.0176
          18   -0.0056    0.0004    0.0202   -0.0001   -0.0331   -0.0012   -0.0000   -0.0000
          19    0.0000    0.0021   -0.0000   -0.0070    0.0000    0.0000   -0.0105    0.0008
          20    0.0000   -0.0123    0.0002    0.0024   -0.0000    0.0000    0.0008   -0.0112
          21    0.0215   -0.0008   -0.0380   -0.0000   -0.0081    0.0236    0.0000    0.0000
          22   -0.0696   -0.0696   -0.0253   -0.0071   -0.0152    0.0747   -0.0502    0.0146
          23    0.1177   -0.0544   -0.0379   -0.0180   -0.1077   -0.1630    0.1369   -0.1115
          24    0.0137    0.0167    0.0135    0.0023    0.0154   -0.0094    0.0033    0.0074
          25    0.0695   -0.0685    0.0273   -0.0070    0.0152   -0.0747   -0.0502    0.0146
          26   -0.1176   -0.0525    0.0394   -0.0175    0.1078    0.1630    0.1369   -0.1116
          27    0.0137   -0.0161    0.0140   -0.0022    0.0154   -0.0094   -0.0033   -0.0074
          28   -0.0179    0.0286   -0.0007    0.0210    0.0296   -0.0748   -0.0229    0.0261
          29   -0.0616   -0.0470   -0.1343    0.1985    0.1467   -0.1109   -0.1129   -0.0666
          30   -0.0000    0.0089    0.0131   -0.0083   -0.0029   -0.0142    0.0049    0.0188
          31    0.0179    0.0286   -0.0001    0.0209   -0.0296    0.0748   -0.0229    0.0261
          32    0.0615   -0.0414    0.1355    0.1978   -0.1473    0.1109   -0.1129   -0.0667
          33   -0.0000   -0.0084    0.0134    0.0083   -0.0030   -0.0142   -0.0049   -0.0188
          34    0.0715   -0.0529    0.0412   -0.0056    0.0551    0.0220    0.0085    0.0402
          35   -0.0928    0.1268   -0.0538    0.0183   -0.0701   -0.0278   -0.0242   -0.0613
          36    0.0284   -0.0075    0.0162    0.0005    0.0210    0.0086    0.0010    0.0193
          37   -0.0717   -0.0544   -0.0397   -0.0058   -0.0551   -0.0220    0.0085    0.0403
          38    0.0930    0.1287    0.0503    0.0186    0.0702    0.0278   -0.0241   -0.0613
          39    0.0284    0.0082    0.0160   -0.0004    0.0209    0.0086   -0.0010   -0.0193
          40    0.0001    0.0508   -0.0007    0.0356   -0.0000    0.0000   -0.0248    0.0752
          41   -0.0001   -0.0381    0.0005   -0.0328   -0.0000   -0.0000    0.0235   -0.0589
          42    0.0345    0.0004    0.0198    0.0001    0.0260    0.0105    0.0000    0.0000
          43    0.0000    0.0822   -0.0012    0.2436   -0.0004   -0.0000    0.1483    0.0765
          44    0.0000    0.0172   -0.0002   -0.2142    0.0004    0.0000   -0.1026   -0.0534
          45    0.0478   -0.0009   -0.0442    0.0002    0.0728    0.0091    0.0000    0.0000
          46   -0.0000   -0.0147    0.0002    0.0077   -0.0000   -0.0000    0.0127   -0.0292
          47   -0.0000   -0.0395    0.0006    0.0259   -0.0000   -0.0000    0.0358   -0.0639
          48   -0.1075    0.0031    0.1435    0.0001    0.0285   -0.0764   -0.0000    0.0000
          49   -0.0000   -0.0009    0.0000    0.0053   -0.0000   -0.0000    0.0109    0.0317
          50   -0.0000   -0.0106    0.0002   -0.0162    0.0000   -0.0000   -0.0309   -0.0646
          51   -0.0760    0.0033    0.1520    0.0001    0.0254   -0.0764    0.0000    0.0000


   Root No.      25        26        27        28        29        30        31        32

                25 A      26 A      27 A      28 A      29 A      30 A      31 A      32 A   

                1303.0    1318.4    1350.8    1364.1    1383.1    1390.2    1392.9    1396.0
  
           1    0.0071   -0.0112   -0.0136   -0.0010    0.0438   -0.0000   -0.0007   -0.0438
           2   -0.0123    0.0096    0.0317   -0.0330   -0.0037   -0.0000    0.0123   -0.0063
           3   -0.0000    0.0000   -0.0000   -0.0000    0.0000    0.0003   -0.0000   -0.0000
           4    0.0049   -0.0089    0.0133    0.0214   -0.0218   -0.0000   -0.0130   -0.0522
           5   -0.0305   -0.0100    0.0426    0.0451    0.0487   -0.0000    0.0067    0.0085
           6    0.0000   -0.0000   -0.0000   -0.0000    0.0000   -0.0001    0.0000    0.0000
           7   -0.0005   -0.0076    0.0137   -0.0311    0.0050    0.0001   -0.0219   -0.0039
           8    0.0032   -0.0002   -0.0111    0.0232   -0.0016    0.0001   -0.0272    0.0032
           9   -0.0000   -0.0000    0.0000   -0.0000    0.0000   -0.0439   -0.0001    0.0000
          10   -0.0109    0.0074   -0.0009    0.0079    0.0063    0.0000    0.0027    0.0146
          11    0.0074    0.0231   -0.0152    0.0216    0.0084   -0.0000   -0.0087    0.0144
          12    0.0000    0.0000   -0.0000    0.0000   -0.0000   -0.0010   -0.0000    0.0000
          13   -0.0281    0.0484   -0.0045   -0.0302   -0.0227    0.0000    0.0087    0.0522
          14   -0.0166   -0.0115   -0.0153   -0.0033    0.0008    0.0000   -0.0005    0.0003
          15    0.0000    0.0000    0.0000    0.0000   -0.0000   -0.0000   -0.0000   -0.0000
          16   -0.0117    0.0049   -0.0005    0.0106    0.0010    0.0000   -0.0002    0.0141
          17    0.0352   -0.0065   -0.0158   -0.0322   -0.0342   -0.0000   -0.0046   -0.0174
          18   -0.0000   -0.0000    0.0000   -0.0000    0.0000   -0.0002   -0.0000    0.0000
          19    0.0069   -0.0093    0.0005    0.0028    0.0023   -0.0000   -0.0014   -0.0098
          20   -0.0095   -0.0112   -0.0258   -0.0061    0.0009    0.0000   -0.0015    0.0008
          21    0.0000    0.0000    0.0000    0.0000    0.0000   -0.0000    0.0000   -0.0000
          22    0.0082   -0.1107    0.0612    0.0492   -0.1291    0.0004   -0.0065    0.0832
          23    0.0153   -0.0325   -0.0406    0.0395   -0.0286    0.0014   -0.0148    0.0303
          24   -0.0064    0.0706   -0.0339   -0.0446    0.1131   -0.0005    0.0088   -0.0850
          25    0.0082   -0.1107    0.0613    0.0492   -0.1291   -0.0003   -0.0065    0.0832
          26    0.0153   -0.0325   -0.0406    0.0395   -0.0286   -0.0014   -0.0148    0.0303
          27    0.0064   -0.0706    0.0339    0.0446   -0.1131   -0.0005   -0.0088    0.0850
          28    0.1231   -0.0701   -0.0340   -0.0491    0.1017    0.0001    0.0325    0.1056
          29    0.0270    0.0119   -0.0600   -0.0374   -0.0720   -0.0004   -0.0167   -0.0366
          30    0.0638   -0.0429   -0.0111   -0.0292    0.0996    0.0001    0.0328    0.1060
          31    0.1231   -0.0701   -0.0340   -0.0491    0.1017    0.0001    0.0325    0.1056
          32    0.0270    0.0119   -0.0600   -0.0374   -0.0720    0.0003   -0.0167   -0.0366
          33   -0.0638    0.0429    0.0111    0.0292   -0.0996   -0.0001   -0.0328   -0.1061
          34    0.0290    0.0231   -0.0526    0.0863   -0.0356    0.0888    0.2073   -0.0203
          35   -0.0390   -0.0276    0.0500   -0.0816    0.0019    0.2375    0.1308   -0.0162
          36    0.0173    0.0180   -0.0399    0.0710   -0.0265    0.0524    0.1581   -0.0122
          37    0.0290    0.0231   -0.0526    0.0864   -0.0355   -0.0903    0.2073   -0.0202
          38   -0.0390   -0.0276    0.0500   -0.0817    0.0020   -0.2382    0.1302   -0.0160
          39   -0.0173   -0.0180    0.0399   -0.0709    0.0264    0.0529   -0.1573    0.0121
          40    0.0326    0.0568   -0.0622    0.1103    0.0083   -0.0000   -0.1599    0.0421
          41   -0.0190   -0.0413    0.0373   -0.0674   -0.0055   -0.0005    0.0831   -0.0281
          42    0.0000    0.0000   -0.0001    0.0002   -0.0001    0.4308    0.0007   -0.0002
          43    0.0475   -0.0493    0.0200   -0.0338   -0.0361   -0.0000   -0.0015   -0.0566
          44   -0.0076    0.0343   -0.0318    0.0015   -0.0090    0.0000   -0.0049    0.0353
          45   -0.0000   -0.0000   -0.0000    0.0000    0.0000    0.0008    0.0000    0.0000
          46    0.0857    0.0741    0.0758    0.0089   -0.0113   -0.0000    0.0040    0.0090
          47    0.1253    0.1236    0.0981    0.0063   -0.0195    0.0000    0.0065    0.0282
          48   -0.0000   -0.0000   -0.0000   -0.0000    0.0000    0.0000   -0.0000   -0.0000
          49   -0.1006   -0.0486   -0.0781   -0.0239    0.0005    0.0000   -0.0002    0.0127
          50    0.1688    0.0587    0.1029    0.0352    0.0019   -0.0000   -0.0030   -0.0328
          51   -0.0000   -0.0000   -0.0000   -0.0000    0.0000   -0.0000    0.0000    0.0000


   Root No.      33        34        35        36        37        38        39        40

                33 A      34 A      35 A      36 A      37 A      38 A      39 A      40 A   

                1481.4    1869.0    1921.0    2970.0    2970.9    3042.9    3044.3    3067.5
  
           1   -0.0138   -0.0157    0.0130   -0.0000    0.0000   -0.0253    0.0162   -0.0000
           2   -0.0725    0.0090   -0.0207    0.0000   -0.0000   -0.0073    0.0047   -0.0000
           3    0.0000   -0.0000    0.0000    0.0226   -0.0386   -0.0000    0.0000    0.0001
           4    0.0256    0.0133   -0.0137    0.0000    0.0000   -0.0160   -0.0253   -0.0000
           5   -0.0032    0.0028   -0.0227   -0.0000   -0.0000    0.0047    0.0074    0.0000
           6   -0.0000    0.0000    0.0000   -0.0385   -0.0227   -0.0000   -0.0000   -0.0001
           7    0.0503   -0.0294   -0.0114   -0.0000    0.0000    0.0000   -0.0001   -0.0000
           8   -0.0838    0.0288    0.0120   -0.0000    0.0000    0.0001    0.0000   -0.0000
           9   -0.0000    0.0000    0.0000    0.0001   -0.0001    0.0000   -0.0000   -0.0577
          10    0.0096    0.2003    0.0750   -0.0000   -0.0000   -0.0001    0.0007   -0.0000
          11    0.1351   -0.0323   -0.0209    0.0000   -0.0000   -0.0006   -0.0001    0.0000
          12   -0.0000   -0.0000   -0.0000   -0.0001   -0.0002    0.0000   -0.0000   -0.0001
          13   -0.0114    0.0004    0.0002    0.0000    0.0000   -0.0006   -0.0001   -0.0000
          14    0.0015   -0.0680    0.2299    0.0000    0.0000    0.0001   -0.0004    0.0000
          15    0.0000    0.0000   -0.0000   -0.0000   -0.0001   -0.0000    0.0000    0.0000
          16   -0.0403   -0.1673   -0.0614    0.0000    0.0000    0.0002    0.0001   -0.0000
          17   -0.0078    0.0216    0.0009   -0.0000   -0.0000    0.0004    0.0011   -0.0000
          18    0.0000    0.0000    0.0000    0.0000   -0.0002   -0.0000   -0.0000   -0.0002
          19   -0.0001   -0.0000   -0.0001   -0.0000   -0.0000   -0.0000   -0.0000    0.0000
          20    0.0017    0.0576   -0.1735   -0.0000   -0.0000   -0.0000    0.0001   -0.0000
          21   -0.0000   -0.0000    0.0000   -0.0000   -0.0001   -0.0000   -0.0000   -0.0000
          22    0.0027    0.0009   -0.0008   -0.1017    0.1728    0.1524   -0.0954   -0.0007
          23    0.0514   -0.0384    0.0092   -0.0293    0.0501    0.0440   -0.0277    0.0002
          24   -0.0310    0.0027    0.0026   -0.1371    0.2332    0.2434   -0.1525   -0.0009
          25    0.0026    0.0009   -0.0008    0.1017   -0.1728    0.1524   -0.0954    0.0007
          26    0.0514   -0.0384    0.0092    0.0292   -0.0501    0.0440   -0.0277   -0.0002
          27    0.0310   -0.0027   -0.0026   -0.1371    0.2331   -0.2433    0.1525   -0.0010
          28   -0.0202    0.0013    0.0016   -0.1730   -0.1016    0.0971    0.1497   -0.0001
          29   -0.0119   -0.0303    0.0120    0.0503    0.0298   -0.0281   -0.0436   -0.0000
          30   -0.0278    0.0039    0.0031    0.2331    0.1370   -0.1551   -0.2394    0.0002
          31   -0.0202    0.0013    0.0016    0.1729    0.1016    0.0972    0.1498    0.0001
          32   -0.0119   -0.0303    0.0120   -0.0503   -0.0298   -0.0281   -0.0436    0.0000
          33    0.0278   -0.0039   -0.0031    0.2330    0.1370    0.1551    0.2395    0.0002
          34   -0.0321   -0.0148   -0.0055    0.0004   -0.0004    0.0001    0.0000   -0.2769
          35    0.1278    0.0119    0.0042   -0.0002    0.0002   -0.0002    0.0001   -0.0132
          36   -0.0449    0.0039    0.0017   -0.0005    0.0004   -0.0001   -0.0000    0.3599
          37   -0.0322   -0.0147   -0.0055   -0.0004    0.0004    0.0000    0.0000    0.2766
          38    0.1276    0.0119    0.0042    0.0002   -0.0002   -0.0002    0.0001    0.0126
          39    0.0450   -0.0040   -0.0017   -0.0005    0.0004    0.0000    0.0000    0.3612
          40   -0.0818    0.0407    0.0132    0.0000   -0.0000   -0.0007    0.0006    0.0003
          41    0.0114   -0.0135   -0.0029    0.0000   -0.0000   -0.0012    0.0010    0.0006
          42    0.0000    0.0000    0.0000    0.0001   -0.0001   -0.0000    0.0000   -0.0290
          43   -0.0502   -0.0348   -0.0217    0.0000    0.0000    0.0002   -0.0097    0.0000
          44   -0.0026   -0.1190   -0.0515    0.0000    0.0000    0.0011   -0.0111    0.0000
          45   -0.0000    0.0000   -0.0000   -0.0005   -0.0009   -0.0000   -0.0000    0.0005
          46   -0.0028   -0.0424    0.1278    0.0000    0.0000   -0.0002   -0.0013   -0.0000
          47   -0.0013    0.0073   -0.0283   -0.0000   -0.0000   -0.0000    0.0003    0.0000
          48   -0.0000   -0.0000    0.0000    0.0007   -0.0004   -0.0000   -0.0000   -0.0000
          49   -0.0026    0.0426   -0.1279   -0.0000   -0.0000   -0.0008    0.0011   -0.0000
          50    0.0050    0.0069   -0.0284   -0.0000   -0.0000   -0.0001    0.0003   -0.0000
          51   -0.0000   -0.0000    0.0000   -0.0008   -0.0000    0.0000   -0.0000   -0.0000


   Root No.      41        42        43        44        45

                41 A      42 A      43 A      44 A      45 A   

                3078.0    3127.0    3144.3    3146.7    3166.2
  
           1   -0.0002    0.0018    0.0001    0.0001   -0.0001
           2    0.0003    0.0008   -0.0000   -0.0005    0.0001
           3   -0.0000   -0.0000    0.0000    0.0000    0.0000
           4    0.0000   -0.0019   -0.0001    0.0001    0.0000
           5    0.0000    0.0006   -0.0000    0.0005   -0.0000
           6   -0.0000   -0.0000    0.0000   -0.0000    0.0000
           7   -0.0407    0.0007   -0.0000    0.0000    0.0134
           8   -0.0306    0.0006    0.0000    0.0000   -0.0209
           9    0.0000    0.0000   -0.0000   -0.0000   -0.0000
          10   -0.0005    0.0066   -0.0001    0.0000    0.0002
          11    0.0001   -0.0010    0.0001    0.0000   -0.0002
          12    0.0000   -0.0000   -0.0000   -0.0000   -0.0000
          13    0.0000    0.0001   -0.0000   -0.0005   -0.0000
          14    0.0000    0.0012   -0.0068    0.0000   -0.0000
          15   -0.0000   -0.0000    0.0000   -0.0000    0.0000
          16    0.0000   -0.0481    0.0004    0.0001    0.0001
          17   -0.0009   -0.0564    0.0005    0.0001    0.0004
          18    0.0000   -0.0000   -0.0000    0.0000    0.0000
          19   -0.0000   -0.0001   -0.0002   -0.0650   -0.0000
          20    0.0000    0.0003    0.0471   -0.0002    0.0000
          21    0.0000   -0.0000   -0.0000    0.0000   -0.0000
          22    0.0004   -0.0052   -0.0006    0.0003    0.0005
          23    0.0004   -0.0015   -0.0002   -0.0004   -0.0000
          24    0.0008   -0.0082   -0.0008    0.0003    0.0008
          25    0.0004   -0.0052   -0.0006    0.0003    0.0005
          26    0.0004   -0.0015   -0.0002   -0.0004   -0.0000
          27   -0.0008    0.0082    0.0008   -0.0003   -0.0008
          28   -0.0000    0.0074    0.0005    0.0003   -0.0001
          29   -0.0000   -0.0045   -0.0002    0.0004    0.0000
          30    0.0000   -0.0121   -0.0007   -0.0003    0.0001
          31   -0.0000    0.0074    0.0005    0.0003   -0.0001
          32   -0.0000   -0.0045   -0.0002    0.0004    0.0000
          33   -0.0000    0.0121    0.0007    0.0003   -0.0001
          34    0.1286   -0.0055    0.0003   -0.0000   -0.1760
          35   -0.0079    0.0002    0.0000    0.0000   -0.0175
          36   -0.2106    0.0081   -0.0004    0.0000    0.2569
          37    0.1276   -0.0055    0.0003   -0.0000   -0.1755
          38   -0.0082    0.0002    0.0000    0.0000   -0.0171
          39    0.2100   -0.0081    0.0004   -0.0000   -0.2572
          40    0.2298   -0.0034   -0.0003   -0.0000    0.1914
          41    0.3795   -0.0038   -0.0005   -0.0001    0.2842
          42    0.0005   -0.0000   -0.0000   -0.0000    0.0004
          43    0.0057    0.4957   -0.0033   -0.0005   -0.0025
          44    0.0064    0.6633   -0.0043   -0.0007   -0.0042
          45   -0.0000    0.0000   -0.0000   -0.0000   -0.0000
          46    0.0001    0.0052    0.4019    0.3865    0.0004
          47   -0.0001   -0.0032   -0.2416   -0.2552   -0.0002
          48   -0.0000    0.0000    0.0000    0.0000    0.0000
          49   -0.0000   -0.0038   -0.3993    0.3899   -0.0004
          50   -0.0000   -0.0023   -0.2393    0.2567   -0.0002
          51    0.0000    0.0000    0.0000   -0.0000   -0.0000


           MASS-WEIGHTED COORDINATE ANALYSIS (NORMAL COORDINATES)


   Root No.       1         2         3         4         5         6         7         8

                 1 A       2 A       3 A       4 A       5 A       6 A       7 A       8 A   

                  91.5     100.2     226.4     281.4     408.7     445.1     457.5     576.5
  
           1   -0.0000   -0.0000   -0.0000   -0.2092    0.1143    0.0000   -0.0000   -0.3485
           2   -0.0000   -0.0000    0.0000   -0.1187   -0.2960   -0.0000   -0.0000   -0.0810
           3   -0.3471    0.3925    0.1063   -0.0000    0.0000   -0.0682   -0.0137   -0.0000
           4   -0.0000   -0.0000   -0.0000   -0.1774    0.1661   -0.0000    0.0000    0.1058
           5   -0.0000    0.0000   -0.0000   -0.0164    0.2371    0.0000    0.0000    0.0911
           6   -0.2365    0.0564   -0.3520    0.0000   -0.0000   -0.0389    0.0168    0.0000
           7    0.0000    0.0000   -0.0000    0.3333    0.1736    0.0000    0.0001    0.2780
           8    0.0000    0.0001   -0.0000    0.3534    0.1433    0.0000   -0.0000   -0.3888
           9    0.2381   -0.1975   -0.3237   -0.0000   -0.0000   -0.0269   -0.0362    0.0000
          10   -0.0000   -0.0000    0.0000   -0.2165   -0.2431   -0.0000   -0.0000    0.0472
          11   -0.0000   -0.0000    0.0000   -0.0780   -0.1829    0.0000   -0.0000   -0.3574
          12   -0.0270    0.0500    0.2854   -0.0000   -0.0000    0.3163    0.5934   -0.0000
          13    0.0000    0.0000   -0.0000   -0.1332    0.3477    0.0000   -0.0000   -0.1235
          14   -0.0000   -0.0000   -0.0000   -0.0713   -0.0286    0.0000   -0.0000    0.3676
          15   -0.0713    0.0783   -0.1064    0.0000   -0.0000    0.5596   -0.4342    0.0001
          16   -0.0000   -0.0000    0.0000   -0.2166   -0.2426   -0.0000   -0.0000    0.0488
          17   -0.0000   -0.0000    0.0000   -0.0822    0.0783    0.0000   -0.0000   -0.0478
          18    0.0095   -0.0883    0.4991    0.0001    0.0000   -0.1686   -0.1929   -0.0000
          19    0.0000    0.0000    0.0000    0.4403   -0.2993   -0.0000    0.0000   -0.0341
          20    0.0001   -0.0001    0.0000   -0.0745   -0.0307   -0.0001    0.0001    0.4393
          21    0.4038   -0.2515    0.0521   -0.0000    0.0000   -0.1608    0.1041   -0.0001
          22    0.0864   -0.0940   -0.0219   -0.0567    0.0516    0.3016    0.0267   -0.1085
          23    0.0300   -0.0323    0.0325   -0.0430   -0.1510    0.0598    0.1805   -0.0277
          24   -0.1689    0.1882    0.0400    0.0001    0.0004   -0.2559   -0.0629    0.0038
          25   -0.0864    0.0939    0.0219   -0.0567    0.0516   -0.3015   -0.0268   -0.1085
          26   -0.0300    0.0323   -0.0325   -0.0430   -0.1510   -0.0598   -0.1805   -0.0277
          27   -0.1689    0.1882    0.0401   -0.0001   -0.0003   -0.2559   -0.0629   -0.0038
          28   -0.0585    0.0148   -0.1688   -0.0490    0.0651   -0.1595    0.2035    0.0222
          29    0.0257   -0.0223    0.1361    0.0014    0.1307   -0.0672   -0.0286   -0.0040
          30   -0.1162    0.0318   -0.2538   -0.0000   -0.0002   -0.1148    0.1619    0.0002
          31    0.0585   -0.0148    0.1687   -0.0490    0.0651    0.1595   -0.2035    0.0223
          32   -0.0257    0.0223   -0.1361    0.0014    0.1306    0.0672    0.0286   -0.0040
          33   -0.1162    0.0318   -0.2538    0.0000    0.0001   -0.1149    0.1620   -0.0002
          34   -0.2243   -0.3327   -0.0532    0.0989    0.0537   -0.0534   -0.1020    0.0878
          35   -0.2240   -0.1840    0.1248    0.2180    0.1470    0.0731    0.1398   -0.0989
          36   -0.0971   -0.3031   -0.1332    0.0009    0.0013   -0.0480   -0.0874    0.0042
          37    0.2246    0.3333    0.0532    0.0989    0.0539    0.0535    0.1022    0.0879
          38    0.2244    0.1844   -0.1251    0.2177    0.1467   -0.0732   -0.1400   -0.0990
          39   -0.0963   -0.3022   -0.1333   -0.0009   -0.0012   -0.0480   -0.0873   -0.0043
          40   -0.0003   -0.0004   -0.0001    0.2566    0.1948   -0.0001   -0.0001    0.1278
          41   -0.0003   -0.0003    0.0002    0.0099   -0.0409    0.0001    0.0002   -0.1415
          42    0.4479    0.3465   -0.1949   -0.0001   -0.0000   -0.0551   -0.1001    0.0000
          43   -0.0000   -0.0000    0.0000   -0.0721   -0.1468   -0.0000   -0.0000   -0.0599
          44   -0.0000    0.0000   -0.0000   -0.0158    0.0812    0.0000    0.0000    0.0412
          45    0.0634   -0.0868    0.2592    0.0000    0.0000   -0.2060   -0.2898    0.0000
          46    0.0000    0.0000    0.0000    0.2238   -0.2236   -0.0000    0.0000    0.0164
          47    0.0000   -0.0000    0.0000    0.1250   -0.2157   -0.0001    0.0000    0.1718
          48    0.1911   -0.1533   -0.0176    0.0000    0.0000   -0.1687    0.1024    0.0000
          49    0.0000    0.0000    0.0000    0.2242   -0.2227   -0.0000    0.0000    0.0032
          50    0.0000   -0.0000    0.0000   -0.1695    0.1967   -0.0000    0.0000    0.1106
          51    0.1666   -0.0785    0.0919   -0.0000   -0.0000   -0.1564    0.1351   -0.0001


   Root No.       9        10        11        12        13        14        15        16

                 9 A      10 A      11 A      12 A      13 A      14 A      15 A      16 A   

                 605.4     685.3     811.5     888.1     914.7     934.9     955.2     959.4
  
           1    0.0000    0.0474    0.0000   -0.0000   -0.1484    0.3707    0.0002    0.2042
           2   -0.0000   -0.0504    0.0000   -0.0000   -0.0460   -0.2714    0.0002    0.3058
           3   -0.0077   -0.0000    0.0496    0.4788    0.0000   -0.0000    0.1692   -0.0001
           4   -0.0000   -0.3883    0.0000   -0.0000   -0.3086   -0.3509   -0.0001   -0.0769
           5    0.0000    0.3411   -0.0000    0.0000   -0.0503   -0.1158   -0.0000   -0.0675
           6    0.0114    0.0000   -0.3202   -0.1782    0.0000    0.0000    0.3907   -0.0002
           7   -0.0000    0.2490   -0.0000    0.0000    0.0629   -0.0750   -0.0001   -0.1990
           8    0.0000   -0.2393   -0.0000   -0.0000    0.0356    0.0052   -0.0002   -0.3182
           9    0.0084    0.0000    0.0730   -0.1970    0.0000   -0.0000    0.0076    0.0000
          10    0.0000    0.1868   -0.0000    0.0000    0.0448    0.0144   -0.0001   -0.0724
          11    0.0000   -0.0716    0.0000   -0.0000    0.0502    0.0212   -0.0000   -0.0719
          12    0.0818   -0.0000    0.0605   -0.1261   -0.0000    0.0001   -0.0231   -0.0001
          13    0.0000   -0.1537    0.0000   -0.0000    0.0712   -0.0152    0.0000    0.0167
          14   -0.0001   -0.2160    0.0000    0.0000    0.0429    0.1588   -0.0000   -0.0032
          15   -0.0131   -0.0000    0.1425   -0.1143   -0.0000   -0.0000   -0.1808    0.0001
          16    0.0000    0.1205   -0.0000    0.0001    0.0404    0.0712   -0.0001   -0.0729
          17    0.0000    0.5012    0.0000    0.0000   -0.0160    0.1073   -0.0001   -0.0199
          18   -0.0446   -0.0000   -0.2168    0.1179   -0.0000   -0.0000   -0.3527    0.0003
          19   -0.0000   -0.0611   -0.0000   -0.0000    0.4324   -0.1113    0.0001    0.1152
          20   -0.0001   -0.2782   -0.0000    0.0000    0.0737    0.2835    0.0000    0.0076
          21    0.0007    0.0000    0.0151   -0.0323   -0.0000   -0.0000   -0.1910    0.0001
          22   -0.1031   -0.0021    0.0511    0.3540   -0.0470    0.1926    0.0674    0.0403
          23    0.0243    0.0414   -0.0557    0.1251   -0.0268   -0.2912    0.2104    0.2514
          24    0.0702   -0.0006   -0.0113   -0.1524    0.0057   -0.0146   -0.0468   -0.0177
          25    0.1031   -0.0021   -0.0511   -0.3539   -0.0470    0.1926   -0.0673    0.0404
          26   -0.0243    0.0415    0.0557   -0.1252   -0.0268   -0.2911   -0.2101    0.2517
          27    0.0702    0.0006   -0.0113   -0.1525   -0.0058    0.0147   -0.0467    0.0178
          28   -0.1130   -0.1252    0.2429    0.1714   -0.1252   -0.1743   -0.3007   -0.0348
          29   -0.0052    0.1211   -0.2195    0.0982   -0.0761   -0.1921   -0.0213   -0.0404
          30   -0.0808   -0.0097    0.1374    0.0549   -0.0121   -0.0164   -0.1067   -0.0037
          31    0.1130   -0.1253   -0.2429   -0.1714   -0.1252   -0.1742    0.3006   -0.0352
          32    0.0052    0.1211    0.2195   -0.0982   -0.0761   -0.1920    0.0213   -0.0405
          33   -0.0809    0.0097    0.1375    0.0549    0.0121    0.0164   -0.1067    0.0039
          34   -0.0156    0.0821   -0.0901    0.1810    0.0174   -0.0224   -0.0093   -0.0420
          35    0.0201   -0.0935    0.1221   -0.2385   -0.0767    0.0919    0.0120    0.2718
          36   -0.0093    0.0054   -0.0478    0.0799   -0.0003   -0.0010   -0.0056    0.0087
          37    0.0156    0.0821    0.0902   -0.1812    0.0173   -0.0223    0.0093   -0.0413
          38   -0.0202   -0.0935   -0.1223    0.2389   -0.0765    0.0917   -0.0117    0.2709
          39   -0.0093   -0.0054   -0.0478    0.0799    0.0003    0.0010   -0.0056   -0.0087
          40   -0.0000    0.0684   -0.0001    0.0002   -0.0933    0.0833    0.0003    0.4635
          41    0.0000   -0.0674    0.0001   -0.0003    0.0741   -0.0575   -0.0002   -0.3946
          42   -0.0097    0.0000   -0.0616    0.0958    0.0000   -0.0000   -0.0084   -0.0000
          43    0.0000    0.0113   -0.0000    0.0000    0.1292    0.1693   -0.0000   -0.0252
          44    0.0000    0.1634   -0.0000    0.0000   -0.0936   -0.0818   -0.0000   -0.0047
          45   -0.0842    0.0000    0.6900   -0.0154    0.0000    0.0000    0.4107   -0.0003
          46   -0.0000   -0.0022    0.0000    0.0000   -0.1928    0.0717   -0.0000   -0.0339
          47    0.0001   -0.0592   -0.0000    0.0001   -0.4584    0.2508    0.0000   -0.1005
          48    0.6782   -0.0000    0.0423    0.1950    0.0001   -0.0000    0.2227   -0.0001
          49   -0.0000    0.0109   -0.0000    0.0000   -0.2052    0.0155   -0.0000   -0.0382
          50   -0.0001   -0.1292   -0.0000   -0.0000    0.5260    0.0196    0.0001    0.1130
          51   -0.6718    0.0001   -0.1496   -0.0633   -0.0001    0.0000    0.3153   -0.0002


   Root No.      17        18        19        20        21        22        23        24

                17 A      18 A      19 A      20 A      21 A      22 A      23 A      24 A   

                 982.7    1007.1    1007.6    1057.9    1061.3    1075.3    1205.9    1218.2
  
           1   -0.0001   -0.3695    0.0064   -0.0575    0.0002    0.0000    0.0101   -0.1569
           2   -0.0001   -0.2527    0.0044   -0.0332    0.0002    0.0001   -0.2009    0.3431
           3   -0.1311   -0.0024   -0.1371   -0.0004   -0.1772    0.0957    0.0000   -0.0000
           4    0.0000    0.2228   -0.0038   -0.1344    0.0002    0.0000    0.0484    0.1541
           5    0.0000    0.0372   -0.0006    0.1758   -0.0004    0.0000    0.1310    0.0250
           6   -0.0006   -0.0025   -0.1514    0.0001    0.0617    0.1515    0.0000    0.0000
           7   -0.0001   -0.3103    0.0054   -0.0478    0.0002    0.0000    0.0618    0.0647
           8   -0.0000    0.0886   -0.0016   -0.0539    0.0000   -0.0000    0.0527   -0.1339
           9   -0.2593   -0.0023   -0.1382   -0.0004   -0.1915   -0.0715   -0.0000   -0.0001
          10    0.0001    0.1789   -0.0031    0.0361   -0.0001    0.0000   -0.1733   -0.1821
          11   -0.0001   -0.0295    0.0005    0.0629   -0.0002   -0.0000   -0.1300    0.2682
          12    0.2050    0.0028    0.1590    0.0008    0.3935    0.1566    0.0000    0.0000
          13   -0.0000   -0.0741    0.0013    0.0330   -0.0001   -0.0000    0.2911    0.0389
          14   -0.0000   -0.0304    0.0005   -0.0026    0.0000   -0.0001    0.0007    0.0328
          15    0.0400    0.0026    0.1524    0.0003    0.1223   -0.4078   -0.0000   -0.0000
          16    0.0001    0.3821   -0.0066    0.0317   -0.0001   -0.0000   -0.1567   -0.1898
          17    0.0001    0.2891   -0.0050   -0.2659    0.0004   -0.0000    0.1952    0.1744
          18   -0.0565    0.0032    0.1909   -0.0006   -0.3039   -0.0101   -0.0000   -0.0000
          19    0.0000    0.0159   -0.0003   -0.0516    0.0001    0.0000   -0.0950    0.0083
          20    0.0000   -0.0952    0.0016    0.0179   -0.0000    0.0000    0.0076   -0.1110
          21    0.2170   -0.0063   -0.3591   -0.0002   -0.0739    0.2046    0.0000    0.0000
          22   -0.2037   -0.1559   -0.0693   -0.0152   -0.0404    0.1880   -0.1313    0.0419
          23    0.3444   -0.1217   -0.1037   -0.0383   -0.2865   -0.4103    0.3582   -0.3202
          24    0.0402    0.0374    0.0370    0.0049    0.0410   -0.0237    0.0087    0.0212
          25    0.2035   -0.1535    0.0746   -0.0150    0.0405   -0.1880   -0.1314    0.0419
          26   -0.3444   -0.1177    0.1079   -0.0372    0.2868    0.4103    0.3583   -0.3202
          27    0.0402   -0.0361    0.0383   -0.0048    0.0410   -0.0237   -0.0087   -0.0212
          28   -0.0524    0.0641   -0.0018    0.0447    0.0786   -0.1884   -0.0599    0.0748
          29   -0.1802   -0.1053   -0.3676    0.4228    0.3902   -0.2791   -0.2953   -0.1913
          30   -0.0000    0.0199    0.0359   -0.0177   -0.0078   -0.0358    0.0129    0.0539
          31    0.0524    0.0642   -0.0004    0.0444   -0.0788    0.1884   -0.0599    0.0748
          32    0.1801   -0.0928    0.3709    0.4213   -0.3917    0.2791   -0.2954   -0.1914
          33   -0.0001   -0.0187    0.0366    0.0176   -0.0079   -0.0359   -0.0129   -0.0539
          34    0.2094   -0.1184    0.1127   -0.0118    0.1464    0.0553    0.0223    0.1155
          35   -0.2716    0.2839   -0.1473    0.0390   -0.1865   -0.0699   -0.0632   -0.1760
          36    0.0830   -0.0168    0.0444    0.0011    0.0557    0.0218    0.0027    0.0553
          37   -0.2098   -0.1218   -0.1087   -0.0123   -0.1466   -0.0553    0.0222    0.1156
          38    0.2723    0.2882    0.1377    0.0396    0.1866    0.0700   -0.0630   -0.1758
          39    0.0830    0.0183    0.0438   -0.0009    0.0557    0.0217   -0.0027   -0.0553
          40    0.0003    0.1137   -0.0018    0.0759   -0.0000    0.0000   -0.0649    0.2158
          41   -0.0004   -0.0853    0.0013   -0.0698   -0.0001   -0.0001    0.0615   -0.1691
          42    0.1010    0.0008    0.0542    0.0001    0.0691    0.0265    0.0000    0.0001
          43    0.0001    0.1840   -0.0032    0.5190   -0.0011   -0.0000    0.3880    0.2197
          44    0.0000    0.0386   -0.0006   -0.4562    0.0009    0.0000   -0.2684   -0.1532
          45    0.1398   -0.0020   -0.1209    0.0004    0.1937    0.0230    0.0000    0.0000
          46   -0.0000   -0.0329    0.0006    0.0165   -0.0000   -0.0000    0.0332   -0.0838
          47   -0.0001   -0.0884    0.0016    0.0551   -0.0001   -0.0000    0.0936   -0.1834
          48   -0.3148    0.0069    0.3928    0.0002    0.0757   -0.1924   -0.0000    0.0000
          49   -0.0000   -0.0020    0.0000    0.0113   -0.0000   -0.0000    0.0285    0.0910
          50   -0.0000   -0.0238    0.0005   -0.0346    0.0001   -0.0000   -0.0808   -0.1854
          51   -0.2225    0.0073    0.4162    0.0002    0.0675   -0.1924    0.0000    0.0000


   Root No.      25        26        27        28        29        30        31        32

                25 A      26 A      27 A      28 A      29 A      30 A      31 A      32 A   

                1303.0    1318.4    1350.8    1364.1    1383.1    1390.2    1392.9    1396.0
  
           1    0.0613   -0.1059   -0.1285   -0.0085    0.3416   -0.0001   -0.0053   -0.3472
           2   -0.1069    0.0906    0.2993   -0.2747   -0.0291   -0.0000    0.0888   -0.0499
           3   -0.0000    0.0000   -0.0000   -0.0000    0.0000    0.0017   -0.0000   -0.0000
           4    0.0425   -0.0835    0.1257    0.1786   -0.1703   -0.0002   -0.0941   -0.4133
           5   -0.2650   -0.0939    0.4023    0.3756    0.3793   -0.0000    0.0486    0.0675
           6    0.0000   -0.0000   -0.0000   -0.0000    0.0000   -0.0005    0.0000    0.0000
           7   -0.0042   -0.0716    0.1292   -0.2593    0.0389    0.0007   -0.1582   -0.0311
           8    0.0277   -0.0021   -0.1052    0.1937   -0.0128    0.0006   -0.1962    0.0255
           9   -0.0000   -0.0000    0.0001   -0.0002    0.0002   -0.2589   -0.0009    0.0002
          10   -0.0949    0.0700   -0.0086    0.0657    0.0489    0.0000    0.0192    0.1153
          11    0.0647    0.2182   -0.1434    0.1799    0.0657   -0.0000   -0.0626    0.1144
          12    0.0000    0.0000   -0.0000    0.0000   -0.0000   -0.0056   -0.0000    0.0000
          13   -0.2440    0.4563   -0.0423   -0.2519   -0.1771    0.0002    0.0629    0.4134
          14   -0.1437   -0.1084   -0.1441   -0.0271    0.0064    0.0000   -0.0038    0.0021
          15    0.0000    0.0000    0.0000    0.0000   -0.0000   -0.0002   -0.0000   -0.0000
          16   -0.1020    0.0464   -0.0045    0.0882    0.0080    0.0001   -0.0016    0.1117
          17    0.3057   -0.0613   -0.1488   -0.2685   -0.2668   -0.0000   -0.0333   -0.1375
          18   -0.0000   -0.0000    0.0000   -0.0000    0.0000   -0.0014   -0.0000    0.0000
          19    0.0602   -0.0882    0.0046    0.0232    0.0176   -0.0000   -0.0100   -0.0776
          20   -0.0822   -0.1055   -0.2435   -0.0505    0.0073    0.0000   -0.0109    0.0060
          21    0.0000    0.0000    0.0000    0.0000    0.0000   -0.0000    0.0000   -0.0000
          22    0.0207   -0.3024    0.1676    0.1189   -0.2915    0.0006   -0.0135    0.1909
          23    0.0385   -0.0889   -0.1110    0.0954   -0.0646    0.0023   -0.0309    0.0694
          24   -0.0161    0.1929   -0.0927   -0.1077    0.2553   -0.0009    0.0183   -0.1950
          25    0.0207   -0.3024    0.1676    0.1189   -0.2914   -0.0005   -0.0135    0.1909
[...]
 FREQUENCY          1350.77         C  2 -- C  5          +9.9% ( 41.1%)     63.2%
 TRANSITION DIPOLE   0.0876         C  7 -- H 17          +9.7% ( 40.6%)      3.0%
 TRAVEL (Ang.)       0.2823         C  2 -- C  6          +9.6% ( 40.3%)     67.5%
 REDUCED MASS        0.6264         C  2 -- H 11          +9.4% ( 39.9%)      0.0%
 EFFECTIVE MASS      5.3626
 FORCE CONSTANT      0.6734

 VIBRATION         28   28A           ATOM PAIR      ENERGY CONTRIBUTION    RADIAL
 FREQUENCY          1364.10         C  2 -- C  6         +12.1% ( 46.9%)     75.8%
 TRANSITION DIPOLE   0.0755         C  2 -- C  5         +10.6% ( 43.9%)     98.3%
 TRAVEL (Ang.)       0.2583         C  3 -- H 14          +9.2% ( 41.1%)      0.3%
 REDUCED MASS        0.7409         C  3 -- H 13          +8.9% ( 40.4%)      4.6%
 EFFECTIVE MASS      6.5928
 FORCE CONSTANT      0.8123

 VIBRATION         29   29A           ATOM PAIR      ENERGY CONTRIBUTION    RADIAL
 FREQUENCY          1383.10         C  2 -- C  6         +15.3% ( 48.5%)     98.9%
 TRANSITION DIPOLE   0.0453         C  2 -- H 11         +13.8% ( 46.1%)      3.9%
 TRAVEL (Ang.)       0.2677         C  2 -- H 10         +13.8% ( 46.1%)      3.9%
 REDUCED MASS        0.6804         C  1 -- H  9         +12.4% ( 43.6%)      5.8%
 EFFECTIVE MASS      5.3220         C  1 -- H  8         +12.4% ( 43.6%)      5.8%
 FORCE CONSTANT      0.7669

 VIBRATION         30   30A           ATOM PAIR      ENERGY CONTRIBUTION    RADIAL
 FREQUENCY          1390.24         C  3 -- H 14         +54.5% ( 63.9%)      0.0%
 TRANSITION DIPOLE   0.0661         C  3 -- H 13         +20.3% ( 39.0%)     11.5%
 TRAVEL (Ang.)       0.3374         C  3 -- H 12         +20.1% ( 38.8%)     11.7%
 REDUCED MASS        0.4261         C  3 -- C  4          +5.2% ( 19.7%)      0.0%
 EFFECTIVE MASS      1.5743
 FORCE CONSTANT      0.4852

 VIBRATION         31   31A           ATOM PAIR      ENERGY CONTRIBUTION    RADIAL
 FREQUENCY          1392.89         C  3 -- H 12         +35.1% ( 53.3%)      1.1%
 TRANSITION DIPOLE   0.0663         C  3 -- H 13         +35.0% ( 53.2%)      1.1%
 TRAVEL (Ang.)       0.3726         C  3 -- H 14         +13.5% ( 33.0%)     30.7%
 REDUCED MASS        0.3487         C  3 -- C  4          +4.8% ( 19.8%)      0.0%
 EFFECTIVE MASS      1.8594
 FORCE CONSTANT      0.3987

 VIBRATION         32   32A           ATOM PAIR      ENERGY CONTRIBUTION    RADIAL
 FREQUENCY          1396.04         C  2 -- C  5         +16.7% ( 54.6%)     58.5%
 TRANSITION DIPOLE   0.1119         C  1 -- C  5         +14.0% ( 50.0%)     59.5%
 TRAVEL (Ang.)       0.2234         C  2 -- H 10         +11.7% ( 45.7%)      8.3%
 REDUCED MASS        0.9678         C  2 -- H 11         +11.7% ( 45.7%)      8.3%
 EFFECTIVE MASS      6.8181
 FORCE CONSTANT      1.1113

 VIBRATION         33   33A           ATOM PAIR      ENERGY CONTRIBUTION    RADIAL
 FREQUENCY          1481.42         C  3 -- C  4         +26.0% ( 77.7%)     79.9%
 TRANSITION DIPOLE   0.0707         C  1 -- C  4         +21.2% ( 70.2%)     93.1%
 TRAVEL (Ang.)       0.1167         C  4 -- C  6         +15.1% ( 59.3%)     10.7%
 REDUCED MASS        3.3434         C  3 -- H 12          +7.8% ( 42.5%)      3.2%
 EFFECTIVE MASS     10.6743
 FORCE CONSTANT      4.3231

 VIBRATION         34   34A           ATOM PAIR      ENERGY CONTRIBUTION    RADIAL
 FREQUENCY          1869.03         C  4 -- C  6         +38.7% ( 92.5%)     98.0%
 TRANSITION DIPOLE   0.1913         C  3 -- C  4         +16.2% ( 59.8%)     62.2%
 TRAVEL (Ang.)       0.0892         C  1 -- C  4         +14.7% ( 56.9%)      3.5%
 REDUCED MASS        4.5380         C  2 -- C  6          +9.4% ( 45.6%)     21.2%
 EFFECTIVE MASS     11.8456
 FORCE CONSTANT      9.3400

 VIBRATION         35   35A           ATOM PAIR      ENERGY CONTRIBUTION    RADIAL
 FREQUENCY          1920.99         C  5 -- C  7         +39.9% ( 93.5%)    100.0%
 TRANSITION DIPOLE   0.2544         C  2 -- C  5         +16.7% ( 60.5%)     39.1%
 TRAVEL (Ang.)       0.0861         C  1 -- C  5         +16.7% ( 60.4%)     38.8%
 REDUCED MASS        4.7345         C  7 -- H 16          +8.0% ( 41.7%)     11.6%
 EFFECTIVE MASS     11.9125
 FORCE CONSTANT     10.2938

 VIBRATION         36   36A           ATOM PAIR      ENERGY CONTRIBUTION    RADIAL
 FREQUENCY          2969.97         C  2 -- H 10         +36.4% ( 62.5%)     96.7%
 TRANSITION DIPOLE   0.0166         C  2 -- H 11         +36.3% ( 62.5%)     96.7%
 TRAVEL (Ang.)       0.2664         C  1 -- H  8         +12.6% ( 36.8%)     96.7%
 REDUCED MASS        0.3199         C  1 -- H  9         +12.6% ( 36.8%)     96.7%
 EFFECTIVE MASS      1.5330
 FORCE CONSTANT      1.6623

 VIBRATION         37   37A           ATOM PAIR      ENERGY CONTRIBUTION    RADIAL
 FREQUENCY          2970.89         C  1 -- H  8         +36.4% ( 62.5%)     96.7%
 TRANSITION DIPOLE   0.0742         C  1 -- H  9         +36.3% ( 62.5%)     96.7%
 TRAVEL (Ang.)       0.2662         C  2 -- H 10         +12.6% ( 36.7%)     96.7%
 REDUCED MASS        0.3203         C  2 -- H 11         +12.6% ( 36.7%)     96.7%
 EFFECTIVE MASS      1.5374
 FORCE CONSTANT      1.6655

 VIBRATION         38   38A           ATOM PAIR      ENERGY CONTRIBUTION    RADIAL
 FREQUENCY          3042.86         C  1 -- H  9         +35.1% ( 58.5%)     97.5%
 TRANSITION DIPOLE   0.1492         C  1 -- H  8         +35.1% ( 58.5%)     97.5%
 TRAVEL (Ang.)       0.2787         C  2 -- H 11         +14.2% ( 37.3%)     97.6%
 REDUCED MASS        0.2853         C  2 -- H 10         +14.2% ( 37.2%)     97.6%
 EFFECTIVE MASS      1.2762
 FORCE CONSTANT      1.5562

 VIBRATION         39   39A           ATOM PAIR      ENERGY CONTRIBUTION    RADIAL
 FREQUENCY          3044.28         C  2 -- H 11         +35.0% ( 58.4%)     97.5%
 TRANSITION DIPOLE   0.0489         C  2 -- H 10         +35.0% ( 58.4%)     97.5%
 TRAVEL (Ang.)       0.2788         C  1 -- H  9         +14.2% ( 37.2%)     97.4%
 REDUCED MASS        0.2849         C  1 -- H  8         +14.2% ( 37.2%)     97.4%
 EFFECTIVE MASS      1.2926
 FORCE CONSTANT      1.5556

 VIBRATION         40   40A           ATOM PAIR      ENERGY CONTRIBUTION    RADIAL
 FREQUENCY          3067.52         C  3 -- H 13         +49.1% ( 72.3%)     97.0%
 TRANSITION DIPOLE   0.0239         C  3 -- H 12         +49.0% ( 72.2%)     97.0%
 TRAVEL (Ang.)       0.2076         C  3 -- C  4          +1.0% ( 10.2%)      0.0%
 REDUCED MASS        0.5098         C  3 -- H 14          +0.9% (  9.9%)      0.0%
 EFFECTIVE MASS      1.5036
 FORCE CONSTANT      2.8265

 VIBRATION         41   41A           ATOM PAIR      ENERGY CONTRIBUTION    RADIAL
 FREQUENCY          3078.05         C  3 -- H 14         +60.9% ( 80.5%)     98.7%
 TRANSITION DIPOLE   0.0390         C  3 -- H 12         +19.1% ( 45.0%)     85.9%
 TRAVEL (Ang.)       0.2147         C  3 -- H 13         +18.9% ( 44.9%)     85.8%
 REDUCED MASS        0.4751         C  3 -- C  4          +1.0% ( 10.5%)      0.0%
 EFFECTIVE MASS      1.5131
 FORCE CONSTANT      2.6523

 VIBRATION         42   42A           ATOM PAIR      ENERGY CONTRIBUTION    RADIAL
 FREQUENCY          3127.04         C  6 -- H 15         +96.4% ( 99.9%)    100.0%
 TRANSITION DIPOLE   0.3787         C  4 -- C  6          +1.8% ( 13.6%)     49.1%
 TRAVEL (Ang.)       0.1525         C  2 -- C  6          +1.6% ( 13.0%)     24.3%
 REDUCED MASS        0.9273
 EFFECTIVE MASS      1.5563
 FORCE CONSTANT      5.3422

 VIBRATION         43   43A           ATOM PAIR      ENERGY CONTRIBUTION    RADIAL
 FREQUENCY          3144.29         C  7 -- H 16         +49.6% ( 70.4%)     95.3%
 TRANSITION DIPOLE   0.3109         C  7 -- H 17         +48.8% ( 69.9%)     95.2%
 TRAVEL (Ang.)       0.2101         C  5 -- C  7          +1.5% ( 12.4%)    100.0%
 REDUCED MASS        0.4860
 EFFECTIVE MASS      1.3894
 FORCE CONSTANT      2.8309

 VIBRATION         44   44A           ATOM PAIR      ENERGY CONTRIBUTION    RADIAL
 FREQUENCY          3146.74         C  7 -- H 17         +49.7% ( 72.3%)     97.1%
 TRANSITION DIPOLE   0.1927         C  7 -- H 16         +49.0% ( 71.7%)     97.0%
 TRAVEL (Ang.)       0.2002         C  5 -- C  7          +1.3% ( 11.7%)      0.0%
 REDUCED MASS        0.5349
 EFFECTIVE MASS      1.6057
 FORCE CONSTANT      3.1205

 VIBRATION         45   45A           ATOM PAIR      ENERGY CONTRIBUTION    RADIAL
 FREQUENCY          3166.19         C  3 -- H 14         +37.9% ( 59.3%)     97.7%
 TRANSITION DIPOLE   0.0550         C  3 -- H 12         +30.9% ( 53.5%)     96.7%
 TRAVEL (Ang.)       0.2542         C  3 -- H 13         +30.9% ( 53.5%)     96.7%
 REDUCED MASS        0.3296         C  3 -- C  4          +0.3% (  5.5%)     99.4%
 EFFECTIVE MASS      1.1397
 FORCE CONSTANT      1.9470

      SYMMETRY NUMBER FOR POINT-GROUP C1  =  1


          SYSTEM IS A GROUND STATE



 InChI=1S/C7H10/c1-6-3-4-7(2)5-6/h4H,1,3,5H2,2H3


          MOLECULE IS NOT LINEAR

          THERE ARE 45 GENUINE VIBRATIONS IN THIS SYSTEM
          THIS THERMODYNAMICS CALCULATION IS LIMITED TO
          MOLECULES WHICH HAVE NO INTERNAL ROTATIONS




                    CALCULATED THERMODYNAMIC PROPERTIES
                                          *
   TEMP. (K)   PARTITION FUNCTION   H.O.F.    ENTHALPY  HEAT CAPACITY ENTROPY
                                   KCAL/MOL   CAL/MOLE    CAL/K/MOL  CAL/K/MOL


 298.00  VIB.     0.2925D+02                  2725.3127    21.0104    15.8540
         ROT.     0.2027D+06                   888.2803     2.9808    27.2635
         INT.     0.5929D+07                  3613.5931    23.9912    43.1175
         TRA.     0.8833D+27                  1480.4672     4.9680    39.5363
         TOT.                       13.545    5094.0602    28.9592    82.6537

 200.00  VIB.     0.6950D+01                  1102.7832    12.3305     9.3666
         ROT.     0.1115D+06                   596.1613     2.9808    26.0748
         INT.     0.7746D+06                  1698.9445    15.3113    35.4414
         TRA.     0.4856D+27                   993.6021     4.9680    37.5551
         TOT.                       11.144    2692.5466    20.2793    72.9966

 210.00  VIB.     0.7991D+01                  1230.1228    13.1412     9.9878
         ROT.     0.1199D+06                   625.9693     2.9808    26.2202
         INT.     0.9582D+06                  1856.0921    16.1220    36.2080
         TRA.     0.5225D+27                  1043.2822     4.9680    37.7975
         TOT.                       11.350    2899.3743    21.0900    74.0055

 220.00  VIB.     0.9203D+01                  1365.6806    13.9739    10.6182
         ROT.     0.1286D+06                   655.7774     2.9808    26.3589
         INT.     0.1183D+07                  2021.4580    16.9547    36.9771
         TRA.     0.5603D+27                  1092.9623     4.9680    38.0286
         TOT.                       11.565    3114.4204    21.9228    75.0058

 230.00  VIB.     0.1062D+02                  1509.6703    14.8273    11.2582
         ROT.     0.1374D+06                   685.5855     2.9808    26.4914
         INT.     0.1459D+07                  2195.2557    17.8081    37.7496
         TRA.     0.5989D+27                  1142.6424     4.9680    38.2495
         TOT.                       11.789    3337.8982    22.7761    75.9990

 240.00  VIB.     0.1226D+02                  1662.2890    15.6994    11.9076
         ROT.     0.1465D+06                   715.3935     2.9808    26.6183
         INT.     0.1797D+07                  2377.6826    18.6802    38.5258
         TRA.     0.6384D+27                  1192.3226     4.9680    38.4609
         TOT.                       12.021    3570.0051    23.6483    76.9867

 250.00  VIB.     0.1419D+02                  1823.7146    16.5883    12.5664
         ROT.     0.1558D+06                   745.2016     2.9808    26.7399
         INT.     0.2211D+07                  2568.9162    19.5691    39.3064
         TRA.     0.6787D+27                  1242.0027     4.9680    38.6637
         TOT.                       12.262    3810.9189    24.5371    77.9701

 260.00  VIB.     0.1645D+02                  1994.1023    17.4914    13.2346
         ROT.     0.1652D+06                   775.0097     2.9808    26.8568
         INT.     0.2718D+07                  2769.1119    20.4723    40.0914
         TRA.     0.7198D+27                  1291.6828     4.9680    38.8586
         TOT.                       12.512    4060.7947    25.4403    78.9500

 270.00  VIB.     0.1910D+02                  2173.5831    18.4065    13.9118
         ROT.     0.1748D+06                   804.8177     2.9808    26.9693
         INT.     0.3339D+07                  2978.4009    21.3873    40.8812
         TRA.     0.7618D+27                  1341.3629     4.9680    39.0461
         TOT.                       12.771    4319.7637    26.3553    79.9272

 280.00  VIB.     0.2221D+02                  2362.2634    19.3309    14.5979
         ROT.     0.1846D+06                   834.6258     2.9808    27.0778
         INT.     0.4100D+07                  3196.8892    22.3117    41.6757
         TRA.     0.8045D+27                  1391.0430     4.9680    39.2267
         TOT.                       13.039    4587.9322    27.2797    80.9024

 290.00  VIB.     0.2586D+02                  2560.2240    20.2621    15.2925
         ROT.     0.1946D+06                   864.4339     2.9808    27.1824
         INT.     0.5033D+07                  3424.6578    23.2430    42.4748
         TRA.     0.8479D+27                  1440.7231     4.9680    39.4011
         TOT.                       13.316    4865.3809    28.2110    81.8759

 300.00  VIB.     0.3017D+02                  2767.5209    21.1978    15.9952
         ROT.     0.2047D+06                   894.2419     2.9808    27.2834
         INT.     0.6177D+07                  3661.7628    24.1786    43.2786
         TRA.     0.8922D+27                  1490.4032     4.9680    39.5695
         TOT.                       13.603    5152.1660    29.1466    82.8481

 310.00  VIB.     0.3525D+02                  2984.1862    22.1354    16.7055
         ROT.     0.2151D+06                   924.0500     2.9808    27.3811
         INT.     0.7580D+07                  3908.2361    25.1162    44.0867
         TRA.     0.9372D+27                  1540.0833     4.9680    39.7324
         TOT.                       13.899    5448.3194    30.0842    83.8191

 320.00  VIB.     0.4124D+02                  3210.2289    23.0729    17.4231
         ROT.     0.2256D+06                   953.8580     2.9808    27.4758
         INT.     0.9302D+07                  4164.0869    26.0537    44.8989
         TRA.     0.9829D+27                  1589.7634     4.9680    39.8901
         TOT.                       14.205    5753.8503    31.0217    84.7890

 330.00  VIB.     0.4832D+02                  3445.6369    24.0082    18.1474
         ROT.     0.2362D+06                   983.6661     2.9808    27.5675
         INT.     0.1141D+08                  4429.3030    26.9890    45.7149
         TRA.     0.1029D+28                  1639.4435     4.9680    40.0430
         TOT.                       14.520    6068.7465    31.9570    85.7579

 340.00  VIB.     0.5670D+02                  3690.3783    24.9393    18.8780
         ROT.     0.2470D+06                  1013.4742     2.9808    27.6565
         INT.     0.1401D+08                  4703.8524    27.9201    46.5345
         TRA.     0.1076D+28                  1689.1236     4.9680    40.1913
         TOT.                       14.844    6392.9761    32.8881    86.7258

 350.00  VIB.     0.6663D+02                  3944.4032    25.8646    19.6143
         ROT.     0.2580D+06                  1043.2822     2.9808    27.7429
         INT.     0.1719D+08                  4987.6854    28.8454    47.3572
         TRA.     0.1124D+28                  1738.8037     4.9680    40.3353
         TOT.                       15.178    6726.4891    33.8134    87.6925

 360.00  VIB.     0.7840D+02                  4207.6457    26.7826    20.3558
         ROT.     0.2692D+06                  1073.0903     2.9808    27.8269
         INT.     0.2110D+08                  5280.7360    29.7634    48.1827
         TRA.     0.1173D+28                  1788.4838     4.9680    40.4753
         TOT.                       15.520    7069.2198    34.7314    88.6579

 370.00  VIB.     0.9238D+02                  4480.0255    27.6918    21.1020
         ROT.     0.2804D+06                  1102.8984     2.9808    27.9085
         INT.     0.2591D+08                  5582.9238    30.6727    49.0106
         TRA.     0.1222D+28                  1838.1639     4.9680    40.6114
         TOT.                       15.872    7421.0878    35.6407    89.6220

 380.00  VIB.     0.1090D+03                  4761.4498    28.5913    21.8525
         ROT.     0.2919D+06                  1132.7064     2.9808    27.9880
         INT.     0.3181D+08                  5894.1562    31.5721    49.8405
         TRA.     0.1272D+28                  1887.8440     4.9680    40.7439
         TOT.                       16.233    7782.0002    36.5401    90.5844

 390.00  VIB.     0.1287D+03                  5051.8149    29.4799    22.6067
         ROT.     0.3035D+06                  1162.5145     2.9808    28.0655
         INT.     0.3907D+08                  6214.3294    32.4607    50.6721
         TRA.     0.1322D+28                  1937.5242     4.9680    40.8729
         TOT.                       16.603    8151.8536    37.4287    91.5451

 400.00  VIB.     0.1522D+03                  5351.0082    30.3568    23.3641
         ROT.     0.3152D+06                  1192.3226     2.9808    28.1409
         INT.     0.4799D+08                  6543.3307    33.3376    51.5050
         TRA.     0.1374D+28                  1987.2043     4.9680    40.9987
         TOT.                       16.982    8530.5350    38.3056    92.5038

   *: NOTE: HEATS OF FORMATION ARE RELATIVE TO THE
            ELEMENTS IN THEIR STANDARD STATE AT 298K
              (=  Standard Enthalpy of Formation).

            Hvib:  Zero-point energy is not included.
                   frequencies of less than zero cm-1 are not included.
            Hrot = (3/2)RT
            Htra = (3/2)RT + pV = (5/2)RT

            Heat capacity is Cp, not Cv

          For more information, see: HTTP://OpenMOPAC.net/Manual/thermochemistry.html


           FORCE CONSTANT IN CARTESIAN COORDINATES (Millidynes/A)

    ATOM   CHEMICAL       X               Y               Z
   NUMBER   SYMBOL  FORCE CONSTANT  FORCE CONSTANT  FORCE CONSTANT

      1       C        9.549558        8.258193        7.859007
      2       C        9.539731        8.372574        7.843663
      3       C        8.665123        9.058943        7.961140
      4       C       15.299625       10.394794        2.721967
      5       C        8.257568       16.964887        2.760163
      6       C       14.944191       10.101929        2.310194
      7       C        9.154182       15.503898        1.943656
      8       H        2.001950        0.758945        3.537531
      9       H        2.002520        0.758959        3.537043
     10       H        2.001678        0.758524        3.536512
     11       H        2.002411        0.758574        3.535895
     12       H        2.220397        0.663500        3.752113
     13       H        2.211740        0.663093        3.760916
     14       H        2.029751        4.053269        0.652447
     15       H        2.377685        3.697460        0.342215
     16       H        4.075250        2.036221        0.329584
     17       H        4.079206        2.032460        0.329517

 **********************
 *                    *
 * JOB ENDED NORMALLY *
 *                    *
 **********************



 TOTAL JOB TIME:             2.34 SECONDS

 == MOPAC DONE ==
