 *******************************************************************************
 **                                                                           **
 **                              MOPAC v23.1.2                                **
 **                                                                           **
 *******************************************************************************
 **          Digital Object Identifier (DOI): 10.5281/zenodo.6511958          **
 **    Visit the DOI location for information on how to cite this program.    **
 *******************************************************************************

                              PM3 CALCULATION RESULTS

 *******************************************************************************
 *  CALCULATION DONE: (MAX THREADS = 1)              Tue Jun  3 16:37:28 2025  *
 *  PM3        - The PM3 Hamiltonian to be used
 *  PRECISE    - TIGHTER CRITERIA TO BE USED
 *  NOSYM      - POINT-GROUP SYMMETRY SET TO C1
 *  THREADS=1  - MULTI-THREADING NOT USED
 *  T=         - A TIME OF 172800.0 SECONDS REQUESTED
 *  DUMP=N     - RESTART FILE WRITTEN EVERY 7200.0 SECONDS REQUESTED
 *******************************************************************************
pm3  precise nosym THREADS=1
 InChI=1S/C12H22/c1-3-5-6-7-8-12-9-11(4-2)10-12/h5-6,11-12H,3-4,7-10H2,1-2H3

   ATOM   CHEMICAL          X               Y               Z
  NUMBER   SYMBOL      (ANGSTROMS)     (ANGSTROMS)     (ANGSTROMS)

     1       C         -2.92250000  *   0.49990000  *  -0.71380000  *
     2       C         -0.95850000  *   0.46540000  *  -1.62000000  *
     3       C         -1.94700000  *  -0.59910000  *  -1.13970000  *
     4       C         -1.92910000  *   1.56320000  *  -1.18340000  *
     5       C          0.37110000  *   0.48680000  *  -0.84560000  *
     6       C         -3.19580000  *   0.55060000  *   0.79970000  *
     7       C          1.27800000  *  -0.67500000  *  -1.27020000  *
     8       C          3.99860000  *  -0.89620000  *   1.48920000  *
     9       C         -4.13840000  *  -0.56930000  *   1.23180000  *
    10       C          4.50930000  *   0.53120000  *   1.66450000  *
    11       C          2.68140000  *  -0.91990000  *   0.76500000  *
    12       C          2.59270000  *  -0.62960000  *  -0.54210000  *
    13       H         -3.85350000  *   0.50450000  *  -1.32420000  *
    14       H         -0.81870000  *   0.45120000  *  -2.72440000  *
    15       H         -3.66840000  *   1.52570000  *   1.04680000  *
    16       H         -2.24620000  *   0.47410000  *   1.37410000  *
    17       H         -2.34540000  *  -1.20820000  *  -1.98010000  *
    18       H         -1.56870000  *  -1.21880000  *  -0.29640000  *
    19       H          0.17790000  *   0.43880000  *   0.24920000  *
    20       H          0.89010000  *   1.44670000  *  -1.06050000  *
    21       H         -2.31760000  *   2.14510000  *  -2.04760000  *
    22       H         -1.54040000  *   2.21100000  *  -0.36550000  *
    23       H          4.74780000  *  -1.50010000  *   0.93260000  *
    24       H          3.86600000  *  -1.35330000  *   2.49320000  *
    25       H          0.78050000  *  -1.64970000  *  -1.07440000  *
    26       H          1.47520000  *  -0.60350000  *  -2.36180000  *
    27       H         -5.10550000  *  -0.48890000  *   0.69120000  *
    28       H         -4.33370000  *  -0.49000000  *   2.32190000  *
    29       H         -3.68510000  *  -1.56160000  *   1.02500000  *
    30       H          3.76530000  *   1.14030000  *   2.22120000  *
    31       H          5.45920000  *   0.51730000  *   2.23920000  *
    32       H          4.70180000  *   1.00070000  *   0.67640000  *
    33       H          1.79050000  *  -1.20760000  *   1.31690000  *
    34       H          3.48940000  *  -0.38160000  *  -1.10370000  *



          CARTESIAN COORDINATES 

    NO.       ATOM           X           Y           Z

     1         C         -2.9225      0.4999     -0.7138
     2         C         -0.9585      0.4654     -1.6200
     3         C         -1.9470     -0.5991     -1.1397
     4         C         -1.9291      1.5632     -1.1834
     5         C          0.3711      0.4868     -0.8456
     6         C         -3.1958      0.5506      0.7997
     7         C          1.2780     -0.6750     -1.2702
     8         C          3.9986     -0.8962      1.4892
     9         C         -4.1384     -0.5693      1.2318
    10         C          4.5093      0.5312      1.6645
    11         C          2.6814     -0.9199      0.7650
    12         C          2.5927     -0.6296     -0.5421
    13         H         -3.8535      0.5045     -1.3242
    14         H         -0.8187      0.4512     -2.7244
    15         H         -3.6684      1.5257      1.0468
    16         H         -2.2462      0.4741      1.3741
    17         H         -2.3454     -1.2082     -1.9801
    18         H         -1.5687     -1.2188     -0.2964
    19         H          0.1779      0.4388      0.2492
    20         H          0.8901      1.4467     -1.0605
    21         H         -2.3176      2.1451     -2.0476
    22         H         -1.5404      2.2110     -0.3655
    23         H          4.7478     -1.5001      0.9326
    24         H          3.8660     -1.3533      2.4932
    25         H          0.7805     -1.6497     -1.0744
    26         H          1.4752     -0.6035     -2.3618
    27         H         -5.1055     -0.4889      0.6912
    28         H         -4.3337     -0.4900      2.3219
    29         H         -3.6851     -1.5616      1.0250
    30         H          3.7653      1.1403      2.2212
    31         H          5.4592      0.5173      2.2392
    32         H          4.7018      1.0007      0.6764
    33         H          1.7905     -1.2076      1.3169
    34         H          3.4894     -0.3816     -1.1037

  H: (PM3): J. J. P. STEWART, J. COMP. CHEM. 10, 209 (1989).
  C: (PM3): J. J. P. STEWART, J. COMP. CHEM. 10, 209 (1989).

           Empirical Formula: C12 H22  =    34 atoms



      MOLECULAR POINT GROUP   :   C1  


      RHF CALCULATION, NO. OF DOUBLY OCCUPIED LEVELS = 35


          Geometry optimization using L-BFGS
 CYCLE:     1 TIME:   0.012 TIME LEFT:  2.00D  GRAD.:    84.691 HEAT: -17.10132
 CYCLE:     2 TIME:   0.012 TIME LEFT:  2.00D  GRAD.:    83.281 HEAT: -17.17244
 CYCLE:     3 TIME:   0.008 TIME LEFT:  2.00D  GRAD.:    32.778 HEAT: -19.97773
 CYCLE:     4 TIME:   0.012 TIME LEFT:  2.00D  GRAD.:    83.285 HEAT: -17.17250
 CYCLE:     5 TIME:   0.012 TIME LEFT:  2.00D  GRAD.:    32.780 HEAT: -19.97772
 CYCLE:     6 TIME:   0.012 TIME LEFT:  2.00D  GRAD.:    31.071 HEAT: -20.48143
 CYCLE:     7 TIME:   0.008 TIME LEFT:  2.00D  GRAD.:    21.312 HEAT: -21.06404
 CYCLE:     8 TIME:   0.012 TIME LEFT:  2.00D  GRAD.:    19.803 HEAT: -21.48078
 CYCLE:     9 TIME:   0.012 TIME LEFT:  2.00D  GRAD.:    14.886 HEAT: -21.73221
 CYCLE:    10 TIME:   0.012 TIME LEFT:  2.00D  GRAD.:     6.676 HEAT: -21.80675
 CYCLE:    11 TIME:   0.008 TIME LEFT:  2.00D  GRAD.:     3.149 HEAT: -21.82147
 CYCLE:    12 TIME:   0.012 TIME LEFT:  2.00D  GRAD.:     2.597 HEAT: -21.83016
 CYCLE:    13 TIME:   0.008 TIME LEFT:  2.00D  GRAD.:     2.642 HEAT: -21.83779
 CYCLE:    14 TIME:   0.012 TIME LEFT:  2.00D  GRAD.:     2.910 HEAT: -21.84719
 CYCLE:    15 TIME:   0.012 TIME LEFT:  2.00D  GRAD.:     5.227 HEAT: -21.84568
 CYCLE:    16 TIME:   0.008 TIME LEFT:  2.00D  GRAD.:     1.218 HEAT: -21.85317
 CYCLE:    17 TIME:   0.012 TIME LEFT:  2.00D  GRAD.:     1.024 HEAT: -21.85430
 CYCLE:    18 TIME:   0.012 TIME LEFT:  2.00D  GRAD.:     1.152 HEAT: -21.85701
 CYCLE:    19 TIME:   0.012 TIME LEFT:  2.00D  GRAD.:     1.270 HEAT: -21.85920
 CYCLE:    20 TIME:   0.008 TIME LEFT:  2.00D  GRAD.:     2.716 HEAT: -21.85963
 CYCLE:    21 TIME:   0.012 TIME LEFT:  2.00D  GRAD.:     0.809 HEAT: -21.86214
 CYCLE:    22 TIME:   0.012 TIME LEFT:  2.00D  GRAD.:     0.788 HEAT: -21.86283
 CYCLE:    23 TIME:   0.008 TIME LEFT:  2.00D  GRAD.:     1.406 HEAT: -21.86430
 CYCLE:    24 TIME:   0.012 TIME LEFT:  2.00D  GRAD.:     2.780 HEAT: -21.86488
 CYCLE:    25 TIME:   0.012 TIME LEFT:  2.00D  GRAD.:     0.979 HEAT: -21.86644
 CYCLE:    26 TIME:   0.008 TIME LEFT:  2.00D  GRAD.:     0.894 HEAT: -21.86723
 CYCLE:    27 TIME:   0.012 TIME LEFT:  2.00D  GRAD.:     1.064 HEAT: -21.86812
 CYCLE:    28 TIME:   0.012 TIME LEFT:  2.00D  GRAD.:     1.378 HEAT: -21.86994
 CYCLE:    29 TIME:   0.012 TIME LEFT:  2.00D  GRAD.:     2.210 HEAT: -21.87182
 CYCLE:    30 TIME:   0.008 TIME LEFT:  2.00D  GRAD.:     1.348 HEAT: -21.87511
 CYCLE:    31 TIME:   0.012 TIME LEFT:  2.00D  GRAD.:     1.455 HEAT: -21.87853
 CYCLE:    32 TIME:   0.012 TIME LEFT:  2.00D  GRAD.:     2.050 HEAT: -21.88218
 CYCLE:    33 TIME:   0.008 TIME LEFT:  2.00D  GRAD.:     2.354 HEAT: -21.88586
 CYCLE:    34 TIME:   0.012 TIME LEFT:  2.00D  GRAD.:     2.687 HEAT: -21.88937
 CYCLE:    35 TIME:   0.012 TIME LEFT:  2.00D  GRAD.:     4.275 HEAT: -21.89209
 CYCLE:    36 TIME:   0.008 TIME LEFT:  2.00D  GRAD.:     3.556 HEAT: -21.89861
 CYCLE:    37 TIME:   0.012 TIME LEFT:  2.00D  GRAD.:     3.277 HEAT: -21.90571
 CYCLE:    38 TIME:   0.012 TIME LEFT:  2.00D  GRAD.:     3.830 HEAT: -21.91248
 CYCLE:    39 TIME:   0.012 TIME LEFT:  2.00D  GRAD.:     5.052 HEAT: -21.91793
 CYCLE:    40 TIME:   0.012 TIME LEFT:  2.00D  GRAD.:    32.013 HEAT: -21.77550
 CYCLE:    41 TIME:   0.012 TIME LEFT:  2.00D  GRAD.:     9.172 HEAT: -21.90606
 CYCLE:    42 TIME:   0.008 TIME LEFT:  2.00D  GRAD.:     7.308 HEAT: -21.91715
 CYCLE:    43 TIME:   0.012 TIME LEFT:  2.00D  GRAD.:    21.743 HEAT: -21.78062
 CYCLE:    44 TIME:   0.008 TIME LEFT:  2.00D  GRAD.:     3.937 HEAT: -21.92557
 CYCLE:    45 TIME:   0.012 TIME LEFT:  2.00D  GRAD.:    16.054 HEAT: -21.86000
 CYCLE:    46 TIME:   0.012 TIME LEFT:  2.00D  GRAD.:     8.369 HEAT: -21.90860
 CYCLE:    47 TIME:   0.008 TIME LEFT:  2.00D  GRAD.:     2.453 HEAT: -21.92490
 CYCLE:    48 TIME:   0.012 TIME LEFT:  2.00D  GRAD.:     5.887 HEAT: -21.91784
 CYCLE:    49 TIME:   0.012 TIME LEFT:  2.00D  GRAD.:     3.030 HEAT: -21.92872
 CYCLE:    50 TIME:   0.012 TIME LEFT:  2.00D  GRAD.:     1.157 HEAT: -21.93048
 CYCLE:    51 TIME:   0.008 TIME LEFT:  2.00D  GRAD.:     4.508 HEAT: -21.92412
 CYCLE:    52 TIME:   0.012 TIME LEFT:  2.00D  GRAD.:     0.969 HEAT: -21.93295
 CYCLE:    53 TIME:   0.012 TIME LEFT:  2.00D  GRAD.:     0.690 HEAT: -21.93343
 CYCLE:    54 TIME:   0.012 TIME LEFT:  2.00D  GRAD.:     0.697 HEAT: -21.93462
 CYCLE:    55 TIME:   0.008 TIME LEFT:  2.00D  GRAD.:     4.435 HEAT: -21.94000
 CYCLE:    56 TIME:   0.012 TIME LEFT:  2.00D  GRAD.:     3.420 HEAT: -21.94322
 CYCLE:    57 TIME:   0.012 TIME LEFT:  2.00D  GRAD.:     1.144 HEAT: -21.94494
 CYCLE:    58 TIME:   0.012 TIME LEFT:  2.00D  GRAD.:     0.811 HEAT: -21.94555
 CYCLE:    59 TIME:   0.008 TIME LEFT:  2.00D  GRAD.:     1.214 HEAT: -21.94750
 CYCLE:    60 TIME:   0.012 TIME LEFT:  2.00D  GRAD.:     1.395 HEAT: -21.94894
 CYCLE:    61 TIME:   0.012 TIME LEFT:  2.00D  GRAD.:     1.704 HEAT: -21.95167
 CYCLE:    62 TIME:   0.012 TIME LEFT:  2.00D  GRAD.:     1.728 HEAT: -21.95391
 CYCLE:    63 TIME:   0.008 TIME LEFT:  2.00D  GRAD.:     1.196 HEAT: -21.95595
 CYCLE:    64 TIME:   0.012 TIME LEFT:  2.00D  GRAD.:     1.288 HEAT: -21.95858
 CYCLE:    65 TIME:   0.012 TIME LEFT:  2.00D  GRAD.:     1.881 HEAT: -21.96115
 CYCLE:    66 TIME:   0.012 TIME LEFT:  2.00D  GRAD.:     1.856 HEAT: -21.96563
 CYCLE:    67 TIME:   0.012 TIME LEFT:  2.00D  GRAD.:     2.959 HEAT: -21.97110
 CYCLE:    68 TIME:   0.012 TIME LEFT:  2.00D  GRAD.:     2.236 HEAT: -21.97885
 CYCLE:    69 TIME:   0.012 TIME LEFT:  2.00D  GRAD.:     2.481 HEAT: -21.98626
 CYCLE:    70 TIME:   0.012 TIME LEFT:  2.00D  GRAD.:     3.006 HEAT: -21.99660
 CYCLE:    71 TIME:   0.012 TIME LEFT:  2.00D  GRAD.:     5.646 HEAT: -22.00570
 CYCLE:    72 TIME:   0.008 TIME LEFT:  2.00D  GRAD.:     7.205 HEAT: -22.01855
 CYCLE:    73 TIME:   0.012 TIME LEFT:  2.00D  GRAD.:     4.954 HEAT: -22.03201
 CYCLE:    74 TIME:   0.012 TIME LEFT:  2.00D  GRAD.:     8.940 HEAT: -22.01502
 CYCLE:    75 TIME:   0.012 TIME LEFT:  2.00D  GRAD.:     4.760 HEAT: -22.04434
 CYCLE:    76 TIME:   0.008 TIME LEFT:  2.00D  GRAD.:     2.498 HEAT: -22.05631
 CYCLE:    77 TIME:   0.012 TIME LEFT:  2.00D  GRAD.:     3.382 HEAT: -22.07099
 CYCLE:    78 TIME:   0.012 TIME LEFT:  2.00D  GRAD.:     5.453 HEAT: -22.09956
 CYCLE:    79 TIME:   0.012 TIME LEFT:  2.00D  GRAD.:    11.022 HEAT: -22.10239
 CYCLE:    80 TIME:   0.012 TIME LEFT:  2.00D  GRAD.:    10.564 HEAT: -22.11470
 CYCLE:    81 TIME:   0.008 TIME LEFT:  2.00D  GRAD.:    15.785 HEAT: -22.10259
 CYCLE:    82 TIME:   0.012 TIME LEFT:  2.00D  GRAD.:     5.468 HEAT: -22.17133
 CYCLE:    83 TIME:   0.012 TIME LEFT:  2.00D  GRAD.:     2.945 HEAT: -22.18700
 CYCLE:    84 TIME:   0.012 TIME LEFT:  2.00D  GRAD.:     3.763 HEAT: -22.20348
 CYCLE:    85 TIME:   0.008 TIME LEFT:  2.00D  GRAD.:     5.550 HEAT: -22.22960
 CYCLE:    86 TIME:   0.012 TIME LEFT:  2.00D  GRAD.:     9.974 HEAT: -22.23995
 CYCLE:    87 TIME:   0.012 TIME LEFT:  2.00D  GRAD.:     3.726 HEAT: -22.26450
 CYCLE:    88 TIME:   0.008 TIME LEFT:  2.00D  GRAD.:     5.268 HEAT: -22.26914
 CYCLE:    89 TIME:   0.012 TIME LEFT:  2.00D  GRAD.:     2.821 HEAT: -22.28086
 CYCLE:    90 TIME:   0.012 TIME LEFT:  2.00D  GRAD.:     3.345 HEAT: -22.29107
 CYCLE:    91 TIME:   0.012 TIME LEFT:  2.00D  GRAD.:     3.930 HEAT: -22.30596
 CYCLE:    92 TIME:   0.008 TIME LEFT:  2.00D  GRAD.:     4.440 HEAT: -22.31688
 CYCLE:    93 TIME:   0.012 TIME LEFT:  2.00D  GRAD.:     2.920 HEAT: -22.32770
 CYCLE:    94 TIME:   0.008 TIME LEFT:  2.00D  GRAD.:     3.723 HEAT: -22.33996
 CYCLE:    95 TIME:   0.016 TIME LEFT:  2.00D  GRAD.:     3.941 HEAT: -22.35372
 CYCLE:    96 TIME:   0.008 TIME LEFT:  2.00D  GRAD.:     6.650 HEAT: -22.35906
 CYCLE:    97 TIME:   0.012 TIME LEFT:  2.00D  GRAD.:     3.489 HEAT: -22.37958
 CYCLE:    98 TIME:   0.012 TIME LEFT:  2.00D  GRAD.:     2.359 HEAT: -22.39527
 CYCLE:    99 TIME:   0.012 TIME LEFT:  2.00D  GRAD.:     4.020 HEAT: -22.40560
 CYCLE:   100 TIME:   0.008 TIME LEFT:  2.00D  GRAD.:     8.602 HEAT: -22.39977
 CYCLE:   101 TIME:   0.012 TIME LEFT:  2.00D  GRAD.:     2.310 HEAT: -22.41970
 CYCLE:   102 TIME:   0.008 TIME LEFT:  2.00D  GRAD.:     1.796 HEAT: -22.42479
 CYCLE:   103 TIME:   0.016 TIME LEFT:  2.00D  GRAD.:     2.940 HEAT: -22.43599
 CYCLE:   104 TIME:   0.008 TIME LEFT:  2.00D  GRAD.:     4.858 HEAT: -22.44659
 CYCLE:   105 TIME:   0.012 TIME LEFT:  2.00D  GRAD.:     4.245 HEAT: -22.46209
 CYCLE:   106 TIME:   0.012 TIME LEFT:  2.00D  GRAD.:     6.811 HEAT: -22.48342
 CYCLE:   107 TIME:   0.012 TIME LEFT:  2.00D  GRAD.:     5.293 HEAT: -22.51203
 CYCLE:   108 TIME:   0.008 TIME LEFT:  2.00D  GRAD.:     6.840 HEAT: -22.53122
 CYCLE:   109 TIME:   0.012 TIME LEFT:  2.00D  GRAD.:     6.174 HEAT: -22.55520
 CYCLE:   110 TIME:   0.012 TIME LEFT:  2.00D  GRAD.:     8.878 HEAT: -22.56805
 CYCLE:   111 TIME:   0.008 TIME LEFT:  2.00D  GRAD.:     4.303 HEAT: -22.58279
 CYCLE:   112 TIME:   0.012 TIME LEFT:  2.00D  GRAD.:     3.906 HEAT: -22.59473
 CYCLE:   113 TIME:   0.008 TIME LEFT:  2.00D  GRAD.:     4.404 HEAT: -22.60852
 CYCLE:   114 TIME:   0.012 TIME LEFT:  2.00D  GRAD.:     5.289 HEAT: -22.61790
 CYCLE:   115 TIME:   0.012 TIME LEFT:  2.00D  GRAD.:     6.280 HEAT: -22.63043
 CYCLE:   116 TIME:   0.008 TIME LEFT:  2.00D  GRAD.:     2.334 HEAT: -22.64483
 CYCLE:   117 TIME:   0.012 TIME LEFT:  2.00D  GRAD.:     2.373 HEAT: -22.65195
 CYCLE:   118 TIME:   0.012 TIME LEFT:  2.00D  GRAD.:     2.940 HEAT: -22.66115
 CYCLE:   119 TIME:   0.008 TIME LEFT:  2.00D  GRAD.:     5.046 HEAT: -22.66766
 CYCLE:   120 TIME:   0.012 TIME LEFT:  2.00D  GRAD.:     2.304 HEAT: -22.67843
 CYCLE:   121 TIME:   0.008 TIME LEFT:  2.00D  GRAD.:     2.537 HEAT: -22.68530
 CYCLE:   122 TIME:   0.016 TIME LEFT:  2.00D  GRAD.:     2.728 HEAT: -22.69519
 CYCLE:   123 TIME:   0.008 TIME LEFT:  2.00D  GRAD.:     6.615 HEAT: -22.70011
 CYCLE:   124 TIME:   0.012 TIME LEFT:  2.00D  GRAD.:     2.747 HEAT: -22.71265
 CYCLE:   125 TIME:   0.012 TIME LEFT:  2.00D  GRAD.:     1.590 HEAT: -22.71640
 CYCLE:   126 TIME:   0.008 TIME LEFT:  2.00D  GRAD.:     2.173 HEAT: -22.71997
 CYCLE:   127 TIME:   0.012 TIME LEFT:  2.00D  GRAD.:     4.297 HEAT: -22.72360
 CYCLE:   128 TIME:   0.008 TIME LEFT:  2.00D  GRAD.:     2.558 HEAT: -22.72950
 CYCLE:   129 TIME:   0.012 TIME LEFT:  2.00D  GRAD.:     2.192 HEAT: -22.73779
 CYCLE:   130 TIME:   0.012 TIME LEFT:  2.00D  GRAD.:     2.667 HEAT: -22.74243
 CYCLE:   131 TIME:   0.012 TIME LEFT:  2.00D  GRAD.:     3.281 HEAT: -22.75029
 CYCLE:   132 TIME:   0.008 TIME LEFT:  2.00D  GRAD.:     4.755 HEAT: -22.76114
 CYCLE:   133 TIME:   0.012 TIME LEFT:  2.00D  GRAD.:     2.657 HEAT: -22.76726
 CYCLE:   134 TIME:   0.012 TIME LEFT:  2.00D  GRAD.:     2.876 HEAT: -22.77092
 CYCLE:   135 TIME:   0.008 TIME LEFT:  2.00D  GRAD.:     2.306 HEAT: -22.77741
 CYCLE:   136 TIME:   0.012 TIME LEFT:  2.00D  GRAD.:     2.316 HEAT: -22.78688
 CYCLE:   137 TIME:   0.012 TIME LEFT:  2.00D  GRAD.:     3.232 HEAT: -22.80058
 CYCLE:   138 TIME:   0.012 TIME LEFT:  2.00D  GRAD.:     5.854 HEAT: -22.80189
 CYCLE:   139 TIME:   0.008 TIME LEFT:  2.00D  GRAD.:     2.803 HEAT: -22.81014
 CYCLE:   140 TIME:   0.012 TIME LEFT:  2.00D  GRAD.:     2.728 HEAT: -22.81468
 CYCLE:   141 TIME:   0.012 TIME LEFT:  2.00D  GRAD.:     2.015 HEAT: -22.82062
 CYCLE:   142 TIME:   0.012 TIME LEFT:  2.00D  GRAD.:     3.482 HEAT: -22.83341
 CYCLE:   143 TIME:   0.012 TIME LEFT:  2.00D  GRAD.:    11.397 HEAT: -22.82523
 CYCLE:   144 TIME:   0.012 TIME LEFT:  2.00D  GRAD.:     3.307 HEAT: -22.84538
 CYCLE:   145 TIME:   0.012 TIME LEFT:  2.00D  GRAD.:     2.095 HEAT: -22.85076
 CYCLE:   146 TIME:   0.012 TIME LEFT:  2.00D  GRAD.:     3.070 HEAT: -22.86227
 CYCLE:   147 TIME:   0.012 TIME LEFT:  2.00D  GRAD.:     2.898 HEAT: -22.87085
 CYCLE:   148 TIME:   0.012 TIME LEFT:  2.00D  GRAD.:     7.763 HEAT: -22.87756
 CYCLE:   149 TIME:   0.012 TIME LEFT:  2.00D  GRAD.:     2.702 HEAT: -22.89307
 CYCLE:   150 TIME:   0.012 TIME LEFT:  2.00D  GRAD.:     2.958 HEAT: -22.90170
 CYCLE:   151 TIME:   0.008 TIME LEFT:  2.00D  GRAD.:     3.276 HEAT: -22.91088
 CYCLE:   152 TIME:   0.012 TIME LEFT:  2.00D  GRAD.:     4.074 HEAT: -22.92431
 CYCLE:   153 TIME:   0.012 TIME LEFT:  2.00D  GRAD.:     5.031 HEAT: -22.93244
 CYCLE:   154 TIME:   0.012 TIME LEFT:  2.00D  GRAD.:     1.854 HEAT: -22.94027
 CYCLE:   155 TIME:   0.012 TIME LEFT:  2.00D  GRAD.:     1.783 HEAT: -22.94363
 CYCLE:   156 TIME:   0.012 TIME LEFT:  2.00D  GRAD.:     1.852 HEAT: -22.94953
 CYCLE:   157 TIME:   0.012 TIME LEFT:  2.00D  GRAD.:     4.194 HEAT: -22.95456
 CYCLE:   158 TIME:   0.012 TIME LEFT:  2.00D  GRAD.:     2.112 HEAT: -22.96285
 CYCLE:   159 TIME:   0.008 TIME LEFT:  2.00D  GRAD.:     1.831 HEAT: -22.96666
 CYCLE:   160 TIME:   0.012 TIME LEFT:  2.00D  GRAD.:     2.059 HEAT: -22.97260
 CYCLE:   161 TIME:   0.012 TIME LEFT:  2.00D  GRAD.:     4.347 HEAT: -22.97702
 CYCLE:   162 TIME:   0.012 TIME LEFT:  2.00D  GRAD.:     2.461 HEAT: -22.98259
 CYCLE:   163 TIME:   0.012 TIME LEFT:  2.00D  GRAD.:     1.991 HEAT: -22.98883
 CYCLE:   164 TIME:   0.012 TIME LEFT:  2.00D  GRAD.:     2.428 HEAT: -22.99223
 CYCLE:   165 TIME:   0.012 TIME LEFT:  2.00D  GRAD.:     3.003 HEAT: -22.99935
 CYCLE:   166 TIME:   0.012 TIME LEFT:  2.00D  GRAD.:     2.969 HEAT: -23.01012
 CYCLE:   167 TIME:   0.012 TIME LEFT:  2.00D  GRAD.:     2.465 HEAT: -23.01708
 CYCLE:   168 TIME:   0.012 TIME LEFT:  2.00D  GRAD.:     2.735 HEAT: -23.02599
 CYCLE:   169 TIME:   0.012 TIME LEFT:  2.00D  GRAD.:     3.505 HEAT: -23.03782
 CYCLE:   170 TIME:   0.012 TIME LEFT:  2.00D  GRAD.:     4.848 HEAT: -23.04589
 CYCLE:   171 TIME:   0.012 TIME LEFT:  2.00D  GRAD.:     3.000 HEAT: -23.05382
 CYCLE:   172 TIME:   0.012 TIME LEFT:  2.00D  GRAD.:     4.680 HEAT: -23.05867
 CYCLE:   173 TIME:   0.008 TIME LEFT:  2.00D  GRAD.:     2.678 HEAT: -23.07213
 CYCLE:   174 TIME:   0.012 TIME LEFT:  2.00D  GRAD.:     2.845 HEAT: -23.08895
 CYCLE:   175 TIME:   0.012 TIME LEFT:  2.00D  GRAD.:     4.458 HEAT: -23.10945
 CYCLE:   176 TIME:   0.012 TIME LEFT:  2.00D  GRAD.:     8.730 HEAT: -23.12041
 CYCLE:   177 TIME:   0.012 TIME LEFT:  2.00D  GRAD.:     3.985 HEAT: -23.14301
 CYCLE:   178 TIME:   0.016 TIME LEFT:  2.00D  GRAD.:     3.765 HEAT: -23.15565
 CYCLE:   179 TIME:   0.008 TIME LEFT:  2.00D  GRAD.:     4.284 HEAT: -23.16893
 CYCLE:   180 TIME:   0.012 TIME LEFT:  2.00D  GRAD.:     9.937 HEAT: -23.17070
 CYCLE:   181 TIME:   0.012 TIME LEFT:  2.00D  GRAD.:     2.663 HEAT: -23.19064
 CYCLE:   182 TIME:   0.012 TIME LEFT:  2.00D  GRAD.:     2.201 HEAT: -23.19499
 CYCLE:   183 TIME:   0.012 TIME LEFT:  2.00D  GRAD.:     2.587 HEAT: -23.20327
 CYCLE:   184 TIME:   0.008 TIME LEFT:  2.00D  GRAD.:     3.107 HEAT: -23.21367
 CYCLE:   185 TIME:   0.012 TIME LEFT:  2.00D  GRAD.:     3.851 HEAT: -23.22309
 CYCLE:   186 TIME:   0.012 TIME LEFT:  2.00D  GRAD.:     3.471 HEAT: -23.23212
 CYCLE:   187 TIME:   0.012 TIME LEFT:  2.00D  GRAD.:     3.054 HEAT: -23.24104
 CYCLE:   188 TIME:   0.012 TIME LEFT:  2.00D  GRAD.:     2.891 HEAT: -23.25181
 CYCLE:   189 TIME:   0.012 TIME LEFT:  2.00D  GRAD.:     3.574 HEAT: -23.26651
 CYCLE:   190 TIME:   0.012 TIME LEFT:  2.00D  GRAD.:     9.048 HEAT: -23.25855
 CYCLE:   191 TIME:   0.012 TIME LEFT:  2.00D  GRAD.:     2.569 HEAT: -23.28297
 CYCLE:   192 TIME:   0.012 TIME LEFT:  2.00D  GRAD.:     1.618 HEAT: -23.28586
 CYCLE:   193 TIME:   0.012 TIME LEFT:  2.00D  GRAD.:     1.754 HEAT: -23.28918
 CYCLE:   194 TIME:   0.008 TIME LEFT:  2.00D  GRAD.:     3.580 HEAT: -23.29388
 CYCLE:   195 TIME:   0.012 TIME LEFT:  2.00D  GRAD.:     2.602 HEAT: -23.29895
 CYCLE:   196 TIME:   0.012 TIME LEFT:  2.00D  GRAD.:     1.879 HEAT: -23.30341
 CYCLE:   197 TIME:   0.012 TIME LEFT:  2.00D  GRAD.:     2.087 HEAT: -23.30958
 CYCLE:   198 TIME:   0.008 TIME LEFT:  2.00D  GRAD.:     2.907 HEAT: -23.31829
 CYCLE:   199 TIME:   0.012 TIME LEFT:  2.00D  GRAD.:     2.888 HEAT: -23.32941
 CYCLE:   200 TIME:   0.012 TIME LEFT:  2.00D  GRAD.:     3.098 HEAT: -23.33862
 CYCLE:   201 TIME:   0.012 TIME LEFT:  2.00D  GRAD.:     2.017 HEAT: -23.34637
 CYCLE:   202 TIME:   0.008 TIME LEFT:  2.00D  GRAD.:     1.868 HEAT: -23.35252
 CYCLE:   203 TIME:   0.012 TIME LEFT:  2.00D  GRAD.:     3.168 HEAT: -23.35850
 CYCLE:   204 TIME:   0.012 TIME LEFT:  2.00D  GRAD.:     1.940 HEAT: -23.36493
 CYCLE:   205 TIME:   0.008 TIME LEFT:  2.00D  GRAD.:     2.047 HEAT: -23.37000
 CYCLE:   206 TIME:   0.012 TIME LEFT:  2.00D  GRAD.:     2.170 HEAT: -23.37394
 CYCLE:   207 TIME:   0.012 TIME LEFT:  2.00D  GRAD.:     2.046 HEAT: -23.37869
 CYCLE:   208 TIME:   0.008 TIME LEFT:  2.00D  GRAD.:     3.691 HEAT: -23.38468
 CYCLE:   209 TIME:   0.012 TIME LEFT:  2.00D  GRAD.:     3.525 HEAT: -23.38843
 CYCLE:   210 TIME:   0.012 TIME LEFT:  2.00D  GRAD.:     2.140 HEAT: -23.39155
 CYCLE:   211 TIME:   0.012 TIME LEFT:  2.00D  GRAD.:     1.354 HEAT: -23.39564
 CYCLE:   212 TIME:   0.008 TIME LEFT:  2.00D  GRAD.:     1.583 HEAT: -23.39966
 CYCLE:   213 TIME:   0.012 TIME LEFT:  2.00D  GRAD.:     2.145 HEAT: -23.40460
 CYCLE:   214 TIME:   0.012 TIME LEFT:  2.00D  GRAD.:     2.932 HEAT: -23.40746
 CYCLE:   215 TIME:   0.008 TIME LEFT:  2.00D  GRAD.:     1.145 HEAT: -23.41118
 CYCLE:   216 TIME:   0.012 TIME LEFT:  2.00D  GRAD.:     1.065 HEAT: -23.41270
 CYCLE:   217 TIME:   0.012 TIME LEFT:  2.00D  GRAD.:     1.321 HEAT: -23.41451
 CYCLE:   218 TIME:   0.012 TIME LEFT:  2.00D  GRAD.:     2.421 HEAT: -23.41657
 CYCLE:   219 TIME:   0.008 TIME LEFT:  2.00D  GRAD.:     1.129 HEAT: -23.41910
 CYCLE:   220 TIME:   0.012 TIME LEFT:  2.00D  GRAD.:     1.165 HEAT: -23.42101
 CYCLE:   221 TIME:   0.012 TIME LEFT:  2.00D  GRAD.:     1.288 HEAT: -23.42277
 CYCLE:   222 TIME:   0.008 TIME LEFT:  2.00D  GRAD.:     3.469 HEAT: -23.42404
 CYCLE:   223 TIME:   0.012 TIME LEFT:  2.00D  GRAD.:     1.120 HEAT: -23.42712
 CYCLE:   224 TIME:   0.008 TIME LEFT:  2.00D  GRAD.:     0.810 HEAT: -23.42823
 CYCLE:   225 TIME:   0.012 TIME LEFT:  2.00D  GRAD.:     1.645 HEAT: -23.42917
 CYCLE:   226 TIME:   0.012 TIME LEFT:  2.00D  GRAD.:     1.015 HEAT: -23.43001
 CYCLE:   227 TIME:   0.008 TIME LEFT:  2.00D  GRAD.:     0.879 HEAT: -23.43076
 CYCLE:   228 TIME:   0.012 TIME LEFT:  2.00D  GRAD.:     0.914 HEAT: -23.43224
 CYCLE:   229 TIME:   0.012 TIME LEFT:  2.00D  GRAD.:     1.583 HEAT: -23.43326
 CYCLE:   230 TIME:   0.012 TIME LEFT:  2.00D  GRAD.:     1.091 HEAT: -23.43470
 CYCLE:   231 TIME:   0.008 TIME LEFT:  2.00D  GRAD.:     0.884 HEAT: -23.43704
 CYCLE:   232 TIME:   0.012 TIME LEFT:  2.00D  GRAD.:     1.479 HEAT: -23.43865
 CYCLE:   233 TIME:   0.012 TIME LEFT:  2.00D  GRAD.:     1.158 HEAT: -23.44035
 CYCLE:   234 TIME:   0.008 TIME LEFT:  2.00D  GRAD.:     0.910 HEAT: -23.44185
 CYCLE:   235 TIME:   0.012 TIME LEFT:  2.00D  GRAD.:     1.549 HEAT: -23.44363
 CYCLE:   236 TIME:   0.012 TIME LEFT:  2.00D  GRAD.:     1.343 HEAT: -23.44486
 CYCLE:   237 TIME:   0.008 TIME LEFT:  2.00D  GRAD.:     0.901 HEAT: -23.44574
 CYCLE:   238 TIME:   0.012 TIME LEFT:  2.00D  GRAD.:     0.744 HEAT: -23.44722
 CYCLE:   239 TIME:   0.012 TIME LEFT:  2.00D  GRAD.:     1.032 HEAT: -23.44777
 CYCLE:   240 TIME:   0.008 TIME LEFT:  2.00D  GRAD.:     0.992 HEAT: -23.44832
 CYCLE:   241 TIME:   0.012 TIME LEFT:  2.00D  GRAD.:     0.609 HEAT: -23.44894
 CYCLE:   242 TIME:   0.012 TIME LEFT:  2.00D  GRAD.:     0.634 HEAT: -23.44946
 CYCLE:   243 TIME:   0.008 TIME LEFT:  2.00D  GRAD.:     1.176 HEAT: -23.45034
 CYCLE:   244 TIME:   0.012 TIME LEFT:  2.00D  GRAD.:     0.879 HEAT: -23.45126
 CYCLE:   245 TIME:   0.012 TIME LEFT:  2.00D  GRAD.:     0.671 HEAT: -23.45198
 CYCLE:   246 TIME:   0.008 TIME LEFT:  2.00D  GRAD.:     0.737 HEAT: -23.45263
 CYCLE:   247 TIME:   0.012 TIME LEFT:  2.00D  GRAD.:     0.710 HEAT: -23.45314
 CYCLE:   248 TIME:   0.012 TIME LEFT:  2.00D  GRAD.:     0.608 HEAT: -23.45365
 CYCLE:   249 TIME:   0.012 TIME LEFT:  2.00D  GRAD.:     0.880 HEAT: -23.45418
 CYCLE:   250 TIME:   0.008 TIME LEFT:  2.00D  GRAD.:     0.571 HEAT: -23.45461
 CYCLE:   251 TIME:   0.012 TIME LEFT:  2.00D  GRAD.:     0.498 HEAT: -23.45489
 CYCLE:   252 TIME:   0.008 TIME LEFT:  2.00D  GRAD.:     0.664 HEAT: -23.45533
 CYCLE:   253 TIME:   0.012 TIME LEFT:  2.00D  GRAD.:     0.964 HEAT: -23.45557
 CYCLE:   254 TIME:   0.012 TIME LEFT:  2.00D  GRAD.:     0.535 HEAT: -23.45586
 CYCLE:   255 TIME:   0.012 TIME LEFT:  2.00D  GRAD.:     0.502 HEAT: -23.45623
 CYCLE:   256 TIME:   0.008 TIME LEFT:  2.00D  GRAD.:     0.926 HEAT: -23.45651
 CYCLE:   257 TIME:   0.012 TIME LEFT:  2.00D  GRAD.:     0.740 HEAT: -23.45692
 CYCLE:   258 TIME:   0.012 TIME LEFT:  2.00D  GRAD.:     0.647 HEAT: -23.45761
 CYCLE:   259 TIME:   0.008 TIME LEFT:  2.00D  GRAD.:     1.058 HEAT: -23.45823
 CYCLE:   260 TIME:   0.012 TIME LEFT:  2.00D  GRAD.:     0.830 HEAT: -23.45912
 CYCLE:   261 TIME:   0.012 TIME LEFT:  2.00D  GRAD.:     0.959 HEAT: -23.46016
 CYCLE:   262 TIME:   0.008 TIME LEFT:  2.00D  GRAD.:     1.127 HEAT: -23.46115
 CYCLE:   263 TIME:   0.012 TIME LEFT:  2.00D  GRAD.:     0.650 HEAT: -23.46195
 CYCLE:   264 TIME:   0.008 TIME LEFT:  2.00D  GRAD.:     0.598 HEAT: -23.46258
 CYCLE:   265 TIME:   0.012 TIME LEFT:  2.00D  GRAD.:     0.906 HEAT: -23.46309
 CYCLE:   266 TIME:   0.012 TIME LEFT:  2.00D  GRAD.:     0.564 HEAT: -23.46363
 CYCLE:   267 TIME:   0.012 TIME LEFT:  2.00D  GRAD.:     0.519 HEAT: -23.46405
 CYCLE:   268 TIME:   0.008 TIME LEFT:  2.00D  GRAD.:     0.707 HEAT: -23.46455
 CYCLE:   269 TIME:   0.012 TIME LEFT:  2.00D  GRAD.:     0.746 HEAT: -23.46502
 CYCLE:   270 TIME:   0.008 TIME LEFT:  2.00D  GRAD.:     0.862 HEAT: -23.46546
 CYCLE:   271 TIME:   0.012 TIME LEFT:  2.00D  GRAD.:     0.768 HEAT: -23.46599
 CYCLE:   272 TIME:   0.012 TIME LEFT:  2.00D  GRAD.:     0.782 HEAT: -23.46647
 CYCLE:   273 TIME:   0.012 TIME LEFT:  2.00D  GRAD.:     0.839 HEAT: -23.46756
 CYCLE:   274 TIME:   0.008 TIME LEFT:  2.00D  GRAD.:     1.194 HEAT: -23.46868
 CYCLE:   275 TIME:   0.012 TIME LEFT:  2.00D  GRAD.:     1.020 HEAT: -23.46979
 CYCLE:   276 TIME:   0.012 TIME LEFT:  2.00D  GRAD.:     0.803 HEAT: -23.47070
 CYCLE:   277 TIME:   0.012 TIME LEFT:  2.00D  GRAD.:     1.034 HEAT: -23.47163
 CYCLE:   278 TIME:   0.008 TIME LEFT:  2.00D  GRAD.:     1.067 HEAT: -23.47298
 CYCLE:   279 TIME:   0.012 TIME LEFT:  2.00D  GRAD.:     2.229 HEAT: -23.47418
 CYCLE:   280 TIME:   0.012 TIME LEFT:  2.00D  GRAD.:     1.708 HEAT: -23.47560
 CYCLE:   281 TIME:   0.012 TIME LEFT:  2.00D  GRAD.:     0.925 HEAT: -23.47684
 CYCLE:   282 TIME:   0.008 TIME LEFT:  2.00D  GRAD.:     0.784 HEAT: -23.47756
 CYCLE:   283 TIME:   0.012 TIME LEFT:  2.00D  GRAD.:     0.931 HEAT: -23.47863
 CYCLE:   284 TIME:   0.012 TIME LEFT:  2.00D  GRAD.:     1.280 HEAT: -23.47999
 CYCLE:   285 TIME:   0.012 TIME LEFT:  2.00D  GRAD.:     0.899 HEAT: -23.48100
 CYCLE:   286 TIME:   0.008 TIME LEFT:  2.00D  GRAD.:     0.778 HEAT: -23.48144
 CYCLE:   287 TIME:   0.012 TIME LEFT:  2.00D  GRAD.:     0.956 HEAT: -23.48211
 CYCLE:   288 TIME:   0.012 TIME LEFT:  2.00D  GRAD.:     0.871 HEAT: -23.48274
 CYCLE:   289 TIME:   0.012 TIME LEFT:  2.00D  GRAD.:     0.865 HEAT: -23.48329
 CYCLE:   290 TIME:   0.008 TIME LEFT:  2.00D  GRAD.:     0.833 HEAT: -23.48400
 CYCLE:   291 TIME:   0.012 TIME LEFT:  2.00D  GRAD.:     1.072 HEAT: -23.48581
 CYCLE:   292 TIME:   0.012 TIME LEFT:  2.00D  GRAD.:     1.824 HEAT: -23.48724
 CYCLE:   293 TIME:   0.008 TIME LEFT:  2.00D  GRAD.:     1.128 HEAT: -23.48934
 CYCLE:   294 TIME:   0.012 TIME LEFT:  2.00D  GRAD.:     1.019 HEAT: -23.49147
 CYCLE:   295 TIME:   0.012 TIME LEFT:  2.00D  GRAD.:     1.659 HEAT: -23.49386
 CYCLE:   296 TIME:   0.012 TIME LEFT:  2.00D  GRAD.:     1.598 HEAT: -23.49583
 CYCLE:   297 TIME:   0.012 TIME LEFT:  2.00D  GRAD.:     0.824 HEAT: -23.49728
 CYCLE:   298 TIME:   0.008 TIME LEFT:  2.00D  GRAD.:     0.793 HEAT: -23.49800
 CYCLE:   299 TIME:   0.012 TIME LEFT:  2.00D  GRAD.:     0.827 HEAT: -23.49875
 CYCLE:   300 TIME:   0.012 TIME LEFT:  2.00D  GRAD.:     1.989 HEAT: -23.49924
 CYCLE:   301 TIME:   0.012 TIME LEFT:  2.00D  GRAD.:     0.867 HEAT: -23.50034
 CYCLE:   302 TIME:   0.008 TIME LEFT:  2.00D  GRAD.:     0.641 HEAT: -23.50070
 CYCLE:   303 TIME:   0.012 TIME LEFT:  2.00D  GRAD.:     0.711 HEAT: -23.50122
 CYCLE:   304 TIME:   0.012 TIME LEFT:  2.00D  GRAD.:     1.485 HEAT: -23.50239
 CYCLE:   305 TIME:   0.012 TIME LEFT:  2.00D  GRAD.:     0.970 HEAT: -23.50373
 CYCLE:   306 TIME:   0.008 TIME LEFT:  2.00D  GRAD.:     1.005 HEAT: -23.50479
 CYCLE:   307 TIME:   0.012 TIME LEFT:  2.00D  GRAD.:     1.702 HEAT: -23.50538
 CYCLE:   308 TIME:   0.012 TIME LEFT:  2.00D  GRAD.:     1.081 HEAT: -23.50770
 CYCLE:   309 TIME:   0.012 TIME LEFT:  2.00D  GRAD.:     0.883 HEAT: -23.50929
 CYCLE:   310 TIME:   0.008 TIME LEFT:  2.00D  GRAD.:     1.052 HEAT: -23.51066
 CYCLE:   311 TIME:   0.012 TIME LEFT:  2.00D  GRAD.:     1.229 HEAT: -23.51272
 CYCLE:   312 TIME:   0.012 TIME LEFT:  2.00D  GRAD.:     2.538 HEAT: -23.51365
 CYCLE:   313 TIME:   0.012 TIME LEFT:  2.00D  GRAD.:     1.045 HEAT: -23.51590
 CYCLE:   314 TIME:   0.012 TIME LEFT:  2.00D  GRAD.:     1.232 HEAT: -23.51699
 CYCLE:   315 TIME:   0.012 TIME LEFT:  2.00D  GRAD.:     1.079 HEAT: -23.51835
 CYCLE:   316 TIME:   0.012 TIME LEFT:  2.00D  GRAD.:     1.001 HEAT: -23.51972
 CYCLE:   317 TIME:   0.008 TIME LEFT:  2.00D  GRAD.:     2.089 HEAT: -23.51988
 CYCLE:   318 TIME:   0.012 TIME LEFT:  2.00D  GRAD.:     0.712 HEAT: -23.52083
 CYCLE:   319 TIME:   0.012 TIME LEFT:  2.00D  GRAD.:     0.637 HEAT: -23.52117
 CYCLE:   320 TIME:   0.012 TIME LEFT:  2.00D  GRAD.:     0.906 HEAT: -23.52212
 CYCLE:   321 TIME:   0.008 TIME LEFT:  2.00D  GRAD.:     1.101 HEAT: -23.52334
 CYCLE:   322 TIME:   0.012 TIME LEFT:  2.00D  GRAD.:     1.526 HEAT: -23.52363
 CYCLE:   323 TIME:   0.012 TIME LEFT:  2.00D  GRAD.:     0.580 HEAT: -23.52457
 CYCLE:   324 TIME:   0.012 TIME LEFT:  2.00D  GRAD.:     0.564 HEAT: -23.52504
 CYCLE:   325 TIME:   0.008 TIME LEFT:  2.00D  GRAD.:     0.854 HEAT: -23.52592
 CYCLE:   326 TIME:   0.016 TIME LEFT:  2.00D  GRAD.:     1.457 HEAT: -23.52662
 CYCLE:   327 TIME:   0.008 TIME LEFT:  2.00D  GRAD.:     1.237 HEAT: -23.52779
 CYCLE:   328 TIME:   0.012 TIME LEFT:  2.00D  GRAD.:     0.827 HEAT: -23.52885
 CYCLE:   329 TIME:   0.012 TIME LEFT:  2.00D  GRAD.:     1.041 HEAT: -23.53022
 CYCLE:   330 TIME:   0.012 TIME LEFT:  2.00D  GRAD.:     1.132 HEAT: -23.53109
 CYCLE:   331 TIME:   0.012 TIME LEFT:  2.00D  GRAD.:     1.319 HEAT: -23.53232
 CYCLE:   332 TIME:   0.008 TIME LEFT:  2.00D  GRAD.:     1.516 HEAT: -23.53308
 CYCLE:   333 TIME:   0.012 TIME LEFT:  2.00D  GRAD.:     0.752 HEAT: -23.53373
 CYCLE:   334 TIME:   0.012 TIME LEFT:  2.00D  GRAD.:     0.688 HEAT: -23.53424
 CYCLE:   335 TIME:   0.008 TIME LEFT:  2.00D  GRAD.:     0.944 HEAT: -23.53510
 CYCLE:   336 TIME:   0.012 TIME LEFT:  2.00D  GRAD.:     1.255 HEAT: -23.53590
 CYCLE:   337 TIME:   0.012 TIME LEFT:  2.00D  GRAD.:     1.504 HEAT: -23.53628
 CYCLE:   338 TIME:   0.012 TIME LEFT:  2.00D  GRAD.:     0.551 HEAT: -23.53700
 CYCLE:   339 TIME:   0.008 TIME LEFT:  2.00D  GRAD.:     0.445 HEAT: -23.53730
 CYCLE:   340 TIME:   0.012 TIME LEFT:  2.00D  GRAD.:     0.618 HEAT: -23.53760
 CYCLE:   341 TIME:   0.008 TIME LEFT:  2.00D  GRAD.:     0.771 HEAT: -23.53804
 CYCLE:   342 TIME:   0.012 TIME LEFT:  2.00D  GRAD.:     1.421 HEAT: -23.53811
 CYCLE:   343 TIME:   0.012 TIME LEFT:  2.00D  GRAD.:     0.524 HEAT: -23.53878
 CYCLE:   344 TIME:   0.012 TIME LEFT:  2.00D  GRAD.:     0.529 HEAT: -23.53910
 CYCLE:   345 TIME:   0.008 TIME LEFT:  2.00D  GRAD.:     0.602 HEAT: -23.53948
 CYCLE:   346 TIME:   0.012 TIME LEFT:  2.00D  GRAD.:     1.128 HEAT: -23.54019
 CYCLE:   347 TIME:   0.012 TIME LEFT:  2.00D  GRAD.:     2.415 HEAT: -23.54004
 CYCLE:   348 TIME:   0.012 TIME LEFT:  2.00D  GRAD.:     0.684 HEAT: -23.54097
 CYCLE:   349 TIME:   0.008 TIME LEFT:  2.00D  GRAD.:     0.466 HEAT: -23.54123
 CYCLE:   350 TIME:   0.012 TIME LEFT:  2.00D  GRAD.:     0.750 HEAT: -23.54176
 CYCLE:   351 TIME:   0.012 TIME LEFT:  2.00D  GRAD.:     0.873 HEAT: -23.54214
 CYCLE:   352 TIME:   0.008 TIME LEFT:  2.00D  GRAD.:     2.794 HEAT: -23.54130
 CYCLE:   353 TIME:   0.012 TIME LEFT:  2.00D  GRAD.:     0.578 HEAT: -23.54306
 CYCLE:   354 TIME:   0.012 TIME LEFT:  2.00D  GRAD.:     0.336 HEAT: -23.54324
 CYCLE:   355 TIME:   0.008 TIME LEFT:  2.00D  GRAD.:     0.437 HEAT: -23.54347
 CYCLE:   356 TIME:   0.012 TIME LEFT:  2.00D  GRAD.:     0.523 HEAT: -23.54369
 CYCLE:   357 TIME:   0.012 TIME LEFT:  2.00D  GRAD.:     1.173 HEAT: -23.54374
 CYCLE:   358 TIME:   0.012 TIME LEFT:  2.00D  GRAD.:     0.403 HEAT: -23.54411
 CYCLE:   359 TIME:   0.008 TIME LEFT:  2.00D  GRAD.:     0.297 HEAT: -23.54423
 CYCLE:   360 TIME:   0.012 TIME LEFT:  2.00D  GRAD.:     0.272 HEAT: -23.54437
 CYCLE:   361 TIME:   0.012 TIME LEFT:  2.00D  GRAD.:     1.114 HEAT: -23.54439
 CYCLE:   362 TIME:   0.008 TIME LEFT:  2.00D  GRAD.:     0.270 HEAT: -23.54462
 CYCLE:   363 TIME:   0.012 TIME LEFT:  2.00D  GRAD.:     0.215 HEAT: -23.54467
 CYCLE:   364 TIME:   0.012 TIME LEFT:  2.00D  GRAD.:     0.357 HEAT: -23.54474
 CYCLE:   365 TIME:   0.008 TIME LEFT:  2.00D  GRAD.:     0.558 HEAT: -23.54482
 CYCLE:   366 TIME:   0.012 TIME LEFT:  2.00D  GRAD.:     0.246 HEAT: -23.54492
 CYCLE:   367 TIME:   0.012 TIME LEFT:  2.00D  GRAD.:     0.283 HEAT: -23.54499
 CYCLE:   368 TIME:   0.008 TIME LEFT:  2.00D  GRAD.:     0.382 HEAT: -23.54506
 CYCLE:   369 TIME:   0.012 TIME LEFT:  2.00D  GRAD.:     0.448 HEAT: -23.54517
 CYCLE:   370 TIME:   0.012 TIME LEFT:  2.00D  GRAD.:     0.809 HEAT: -23.54520
 CYCLE:   371 TIME:   0.012 TIME LEFT:  2.00D  GRAD.:     0.665 HEAT: -23.54539
 CYCLE:   372 TIME:   0.008 TIME LEFT:  2.00D  GRAD.:     0.270 HEAT: -23.54561
 CYCLE:   373 TIME:   0.012 TIME LEFT:  2.00D  GRAD.:     0.340 HEAT: -23.54572
 CYCLE:   374 TIME:   0.012 TIME LEFT:  2.00D  GRAD.:     0.403 HEAT: -23.54579
 CYCLE:   375 TIME:   0.012 TIME LEFT:  2.00D  GRAD.:     1.804 HEAT: -23.54519
 CYCLE:   376 TIME:   0.008 TIME LEFT:  2.00D  GRAD.:     0.414 HEAT: -23.54608
 CYCLE:   377 TIME:   0.012 TIME LEFT:  2.00D  GRAD.:     0.240 HEAT: -23.54616
 CYCLE:   378 TIME:   0.012 TIME LEFT:  2.00D  GRAD.:     0.219 HEAT: -23.54620
 CYCLE:   379 TIME:   0.012 TIME LEFT:  2.00D  GRAD.:     1.234 HEAT: -23.54613
 CYCLE:   380 TIME:   0.008 TIME LEFT:  2.00D  GRAD.:     0.391 HEAT: -23.54638
 CYCLE:   381 TIME:   0.012 TIME LEFT:  2.00D  GRAD.:     0.206 HEAT: -23.54644
 CYCLE:   382 TIME:   0.012 TIME LEFT:  2.00D  GRAD.:     0.215 HEAT: -23.54644
 CYCLE:   383 TIME:   0.012 TIME LEFT:  2.00D  GRAD.:     0.182 HEAT: -23.54653

 -------------------------------------------------------------------------------
 pm3  precise nosym THREADS=1
 InChI=1S/C12H22/c1-3-5-6-7-8-12-9-11(4-2)10-12/h5-6,11-12H,3-4,7-10H2,1-2H3



     HERBERTS TEST WAS SATISFIED IN BFGS                      
     SCF FIELD WAS ACHIEVED                                   


                              PM3 CALCULATION
                                                       MOPAC v23.1.2 MacOS
                                                       Tue Jun  3 16:37:32 2025




          FINAL HEAT OF FORMATION =        -23.54653 KCAL/MOL =     -98.51867 KJ/MOL


          COSMO AREA              =        251.04 SQUARE ANGSTROMS
          COSMO VOLUME            =        257.09 CUBIC ANGSTROMS

          GRADIENT NORM           =          0.18222          =       0.03125 PER ATOM
          IONIZATION POTENTIAL    =          9.750479 EV
          HOMO LUMO ENERGIES (EV) =         -9.750  1.111
          NO. OF FILLED LEVELS    =         35
          MOLECULAR WEIGHT        =        166.3058         POINT GROUP:  C1  

          MOLECULAR DIMENSIONS (Angstroms)

            Atom       Atom       Distance
            H    31    H    27    10.75405
            H    28    H    26     5.73751
            H    22    H    30     4.25515


          SCF CALCULATIONS        =        384

          WALL-CLOCK TIME         =      4.137 SECONDS
          COMPUTATION TIME        =      2.889 SECONDS




   ATOM   CHEMICAL          X               Y               Z
  NUMBER   SYMBOL      (ANGSTROMS)     (ANGSTROMS)     (ANGSTROMS)

     1       C         -3.04504900  *   0.33314178  *  -0.81358584  *
     2       C         -1.06136870  *   0.10388796  *  -1.72648500  *
     3       C         -1.95795946  *  -0.76889472  *  -0.81482058  *
     4       C         -2.14517326  *   1.20886562  *  -1.71837704  *
     5       C          0.26093368  *   0.52858301  *  -1.12301750  *
     6       C         -3.34937549  *   0.94187806  *   0.53948330  *
     7       C          1.26532392  *  -0.61482249  *  -1.11079158  *
     8       C          4.48667499  *  -0.42937672  *   1.01798588  *
     9       C         -4.18443403  *   0.01918494  *   1.39837961  *
    10       C          4.43965703  *  -0.38436505  *   2.53034629  *
    11       C          3.17652430  *  -0.84826142  *   0.45045491  *
    12       C          2.56061639  *  -0.17787349  *  -0.52396752  *
    13       H         -3.98782439  *   0.01653259  *  -1.30728185  *
    14       H         -0.89595606  *  -0.34116463  *  -2.73024712  *
    15       H         -3.87616118  *   1.90535274  *   0.39153825  *
    16       H         -2.40385477  *   1.19522987  *   1.06129989  *
    17       H         -2.27327260  *  -1.72369941  *  -1.26018002  *
    18       H         -1.52963707  *  -0.99629659  *   0.17511444  *
    19       H          0.10550391  *   0.90579740  *  -0.09159910  *
    20       H          0.66468774  *   1.38614069  *  -1.69770147  *
    21       H         -2.57229018  *   1.44062202  *  -2.70482763  *
    22       H         -1.82703621  *   2.16234511  *  -1.26709905  *
    23       H          4.80012776  *   0.55606899  *   0.61862286  *
    24       H          5.25971363  *  -1.14885630  *   0.68026325  *
    25       H          0.84217840  *  -1.47972250  *  -0.55980011  *
    26       H          1.44915400  *  -0.97692091  *  -2.14289762  *
    27       H         -5.14726807  *  -0.21590666  *   0.92557212  *
    28       H         -4.39925238  *   0.47056027  *   2.37527750  *
    29       H         -3.66973798  *  -0.93376687  *   1.58168534  *
    30       H          4.16638694  *  -1.35836075  *   2.95766993  *
    31       H          5.41395496  *  -0.10301391  *   2.94978264  *
    32       H          3.70355193  *   0.34660272  *   2.88911512  *
    33       H          2.73698779  *  -1.75771345  *   0.88021765  *
    34       H          2.99397345  *   0.73832209  *  -0.94562993  *

                             CARTESIAN COORDINATES

   1    C       -3.045048999     0.333141776    -0.813585840
   2    C       -1.061368704     0.103887957    -1.726485004
   3    C       -1.957959463    -0.768894717    -0.814820583
   4    C       -2.145173261     1.208865617    -1.718377045
   5    C        0.260933683     0.528583012    -1.123017500
   6    C       -3.349375487     0.941878057     0.539483304
   7    C        1.265323915    -0.614822489    -1.110791581
   8    C        4.486674989    -0.429376720     1.017985877
   9    C       -4.184434032     0.019184943     1.398379606
  10    C        4.439657035    -0.384365046     2.530346294
  11    C        3.176524305    -0.848261417     0.450454909
  12    C        2.560616394    -0.177873486    -0.523967522
  13    H       -3.987824388     0.016532592    -1.307281847
  14    H       -0.895956061    -0.341164625    -2.730247121
  15    H       -3.876161178     1.905352745     0.391538252
  16    H       -2.403854772     1.195229873     1.061299887
  17    H       -2.273272597    -1.723699408    -1.260180020
  18    H       -1.529637068    -0.996296586     0.175114438
  19    H        0.105503908     0.905797399    -0.091599103
  20    H        0.664687743     1.386140687    -1.697701467
  21    H       -2.572290183     1.440622016    -2.704827633
  22    H       -1.827036205     2.162345113    -1.267099049
  23    H        4.800127760     0.556068986     0.618622859
  24    H        5.259713632    -1.148856303     0.680263249
  25    H        0.842178400    -1.479722503    -0.559800110
  26    H        1.449153998    -0.976920908    -2.142897616
  27    H       -5.147268068    -0.215906660     0.925572123
  28    H       -4.399252383     0.470560271     2.375277504
  29    H       -3.669737984    -0.933766870     1.581685335
  30    H        4.166386937    -1.358360755     2.957669929
  31    H        5.413954957    -0.103013907     2.949782636
  32    H        3.703551932     0.346602718     2.889115115
  33    H        2.736987793    -1.757713447     0.880217654
  34    H        2.993973449     0.738322087    -0.945629930


           Empirical Formula: C12 H22  =    34 atoms



      MOLECULAR POINT GROUP   :   C1  


                  EIGENVALUES  
 -41.80600 -37.89349 -34.90979 -32.30511 -28.39110 -25.73121 -24.80876 -22.94121
 -21.16112 -20.22317 -19.53986 -18.72063 -17.18419 -16.39285 -15.98259 -15.82991
 -15.23646 -14.88201 -14.67813 -14.34151 -13.83757 -13.52170 -13.43503 -13.04977
 -12.97276 -12.78450 -12.32723 -12.17672 -12.05108 -11.90838 -11.76790 -11.36462
 -11.24604 -11.09834  -9.75048   1.11071   3.18054   3.33750   3.43060   3.52959
   3.65793   3.70584   3.84136   3.86389   3.93847   3.96787   3.99002   4.00903
   4.08222   4.10656   4.14134   4.19298   4.24471   4.36669   4.43745   4.52802
   4.53947   4.61468   4.63918   4.76724   4.82050   4.87414   4.94537   5.00474
   5.02640   5.06958   5.50568   5.64336   5.75135   5.99763


              NET ATOMIC CHARGES AND DIPOLE CONTRIBUTIONS

  ATOM NO.   TYPE          CHARGE      No. of ELECS.   s-Pop       p-Pop       
    1          C          -0.092620        4.0926     1.19031     2.90231
    2          C          -0.092928        4.0929     1.19016     2.90276
    3          C          -0.112721        4.1127     1.17802     2.93470
    4          C          -0.111836        4.1118     1.17823     2.93361
    5          C          -0.090365        4.0904     1.16087     2.92949
    6          C          -0.089857        4.0899     1.15746     2.93239
    7          C          -0.065560        4.0656     1.14918     2.91638
    8          C          -0.061071        4.0611     1.14567     2.91540
    9          C          -0.109384        4.1094     1.13795     2.97143
   10          C          -0.105708        4.1057     1.13765     2.96805
   11          C          -0.151290        4.1513     1.19747     2.95382
   12          C          -0.151255        4.1513     1.19679     2.95447
   13          H           0.071368        0.9286     0.92863
   14          H           0.070988        0.9290     0.92901
   15          H           0.049187        0.9508     0.95081
   16          H           0.052426        0.9476     0.94757
   17          H           0.054911        0.9451     0.94509
   18          H           0.065622        0.9344     0.93438
   19          H           0.056998        0.9430     0.94300
   20          H           0.051511        0.9485     0.94849
   21          H           0.055258        0.9447     0.94474
   22          H           0.062128        0.9379     0.93787
   23          H           0.050817        0.9492     0.94918
   24          H           0.052441        0.9476     0.94756
   25          H           0.055190        0.9448     0.94481
   26          H           0.054881        0.9451     0.94512
   27          H           0.037675        0.9623     0.96233
   28          H           0.036925        0.9631     0.96308
   29          H           0.039137        0.9609     0.96086
   30          H           0.037719        0.9623     0.96228
   31          H           0.036498        0.9635     0.96350
   32          H           0.039912        0.9601     0.96009
   33          H           0.101696        0.8983     0.89830
   34          H           0.101309        0.8987     0.89869
 DIPOLE           X         Y         Z       TOTAL
 POINT-CHG.     0.032     0.045     0.071     0.090
 HYBRID         0.001    -0.020     0.005     0.020
 SUM            0.033     0.026     0.075     0.086


          ATOMIC ORBITAL ELECTRON POPULATIONS

     Atom    s        px        py        pz   
    1  C   1.19031   0.97294   0.96770   0.96167
    2  C   1.19016   0.93966   0.97221   0.99090
    3  C   1.17802   0.96911   0.96409   1.00150
    4  C   1.17823   0.96922   0.96770   0.99668
    5  C   1.16087   0.94490   0.97325   1.01134
    6  C   1.15746   1.00002   0.97939   0.95298
    7  C   1.14918   0.93512   0.97599   1.00527
    8  C   1.14567   0.95266   1.00728   0.95547
    9  C   1.13795   0.99148   0.99164   0.98831
   10  C   1.13765   1.00781   1.01040   0.94984
   11  C   1.19747   0.97560   0.99697   0.98125
   12  C   1.19679   0.97256   0.99787   0.98403
   13  H   0.92863
   14  H   0.92901
   15  H   0.95081
   16  H   0.94757
   17  H   0.94509
   18  H   0.93438
   19  H   0.94300
   20  H   0.94849
   21  H   0.94474
   22  H   0.93787
   23  H   0.94918
   24  H   0.94756
   25  H   0.94481
   26  H   0.94512
   27  H   0.96233
   28  H   0.96308
   29  H   0.96086
   30  H   0.96228
   31  H   0.96350
   32  H   0.96009
   33  H   0.89830
   34  H   0.89869
 *******************************************************************************
 **                                                                           **
 **                              MOPAC v23.1.2                                **
 **                                                                           **
 *******************************************************************************
 **          Digital Object Identifier (DOI): 10.5281/zenodo.6511958          **
 **    Visit the DOI location for information on how to cite this program.    **
 *******************************************************************************

                              PM3 CALCULATION RESULTS

 *******************************************************************************
 *  CALCULATION DONE: (MAX THREADS = 1)              Tue Jun  3 16:37:32 2025  *
 *  PM3        - The PM3 Hamiltonian to be used
 *  OLDGEO     - PREVIOUS GEOMETRY TO BE USED
 *  PRECISE    - TIGHTER CRITERIA TO BE USED
 *  NOSYM      - POINT-GROUP SYMMETRY SET TO C1
 *  THREADS=1  - MULTI-THREADING NOT USED
 *  T=         - A TIME OF 172800.0 SECONDS REQUESTED
 *  DUMP=N     - RESTART FILE WRITTEN EVERY 7200.0 SECONDS REQUESTED
 *  THERMO     - THERMODYNAMIC QUANTITIES TO BE CALCULATED
 *******************************************************************************
oldgeo thermo nosym precise THREADS=1  pm3
 InChI=1S/C12H22/c1-3-5-6-7-8-12-9-11(4-2)10-12/h5-6,11-12H,3-4,7-10H2,1-2H3

   ATOM   CHEMICAL          X               Y               Z
  NUMBER   SYMBOL      (ANGSTROMS)     (ANGSTROMS)     (ANGSTROMS)

     1       C         -3.04504900  *   0.33314178  *  -0.81358584  *
     2       C         -1.06136870  *   0.10388796  *  -1.72648500  *
     3       C         -1.95795946  *  -0.76889472  *  -0.81482058  *
     4       C         -2.14517326  *   1.20886562  *  -1.71837704  *
     5       C          0.26093368  *   0.52858301  *  -1.12301750  *
     6       C         -3.34937549  *   0.94187806  *   0.53948330  *
     7       C          1.26532392  *  -0.61482249  *  -1.11079158  *
     8       C          4.48667499  *  -0.42937672  *   1.01798588  *
     9       C         -4.18443403  *   0.01918494  *   1.39837961  *
    10       C          4.43965703  *  -0.38436505  *   2.53034629  *
    11       C          3.17652430  *  -0.84826142  *   0.45045491  *
    12       C          2.56061639  *  -0.17787349  *  -0.52396752  *
    13       H         -3.98782439  *   0.01653259  *  -1.30728185  *
    14       H         -0.89595606  *  -0.34116463  *  -2.73024712  *
    15       H         -3.87616118  *   1.90535274  *   0.39153825  *
    16       H         -2.40385477  *   1.19522987  *   1.06129989  *
    17       H         -2.27327260  *  -1.72369941  *  -1.26018002  *
    18       H         -1.52963707  *  -0.99629659  *   0.17511444  *
    19       H          0.10550391  *   0.90579740  *  -0.09159910  *
    20       H          0.66468774  *   1.38614069  *  -1.69770147  *
    21       H         -2.57229018  *   1.44062202  *  -2.70482763  *
    22       H         -1.82703621  *   2.16234511  *  -1.26709905  *
    23       H          4.80012776  *   0.55606899  *   0.61862286  *
    24       H          5.25971363  *  -1.14885630  *   0.68026325  *
    25       H          0.84217840  *  -1.47972250  *  -0.55980011  *
    26       H          1.44915400  *  -0.97692091  *  -2.14289762  *
    27       H         -5.14726807  *  -0.21590666  *   0.92557212  *
    28       H         -4.39925238  *   0.47056027  *   2.37527750  *
    29       H         -3.66973798  *  -0.93376687  *   1.58168534  *
    30       H          4.16638694  *  -1.35836075  *   2.95766993  *
    31       H          5.41395496  *  -0.10301391  *   2.94978264  *
    32       H          3.70355193  *   0.34660272  *   2.88911512  *
    33       H          2.73698779  *  -1.75771345  *   0.88021765  *
    34       H          2.99397345  *   0.73832209  *  -0.94562993  *



          CARTESIAN COORDINATES 

    NO.       ATOM           X           Y           Z

     1         C         -3.0450      0.3331     -0.8136
     2         C         -1.0614      0.1039     -1.7265
     3         C         -1.9580     -0.7689     -0.8148
     4         C         -2.1452      1.2089     -1.7184
     5         C          0.2609      0.5286     -1.1230
     6         C         -3.3494      0.9419      0.5395
     7         C          1.2653     -0.6148     -1.1108
     8         C          4.4867     -0.4294      1.0180
     9         C         -4.1844      0.0192      1.3984
    10         C          4.4397     -0.3844      2.5303
    11         C          3.1765     -0.8483      0.4505
    12         C          2.5606     -0.1779     -0.5240
    13         H         -3.9878      0.0165     -1.3073
    14         H         -0.8960     -0.3412     -2.7302
    15         H         -3.8762      1.9054      0.3915
    16         H         -2.4039      1.1952      1.0613
    17         H         -2.2733     -1.7237     -1.2602
    18         H         -1.5296     -0.9963      0.1751
    19         H          0.1055      0.9058     -0.0916
    20         H          0.6647      1.3861     -1.6977
    21         H         -2.5723      1.4406     -2.7048
    22         H         -1.8270      2.1623     -1.2671
    23         H          4.8001      0.5561      0.6186
    24         H          5.2597     -1.1489      0.6803
    25         H          0.8422     -1.4797     -0.5598
    26         H          1.4492     -0.9769     -2.1429
    27         H         -5.1473     -0.2159      0.9256
    28         H         -4.3993      0.4706      2.3753
    29         H         -3.6697     -0.9338      1.5817
    30         H          4.1664     -1.3584      2.9577
    31         H          5.4140     -0.1030      2.9498
    32         H          3.7036      0.3466      2.8891
    33         H          2.7370     -1.7577      0.8802
    34         H          2.9940      0.7383     -0.9456

  H: (PM3): J. J. P. STEWART, J. COMP. CHEM. 10, 209 (1989).
  C: (PM3): J. J. P. STEWART, J. COMP. CHEM. 10, 209 (1989).

           Empirical Formula: C12 H22  =    34 atoms



      MOLECULAR POINT GROUP   :   C1  


      RHF CALCULATION, NO. OF DOUBLY OCCUPIED LEVELS = 35



          HEAT OF FORMATION =     -23.546528 KCALS/MOLE


          CARTESIAN COORDINATE DERIVATIVES

   NUMBER  ATOM         X            Y            Z

     1       C     -0.008237    -0.006391     0.021488
     2       C      0.016021     0.004067     0.013084
     3       C     -0.001814     0.014939    -0.014440
     4       C      0.010856    -0.010567    -0.018821
     5       C     -0.006135    -0.012085     0.001087
     6       C      0.000410     0.019715     0.003897
     7       C      0.022461    -0.020178    -0.009168
     8       C     -0.016595     0.009237     0.015994
     9       C     -0.016067     0.009896     0.000680
    10       C      0.015260    -0.002626    -0.004257
    11       C      0.017791     0.026517    -0.058269
    12       C     -0.024257    -0.039946     0.076006
    13       H      0.019038    -0.049824     0.002964
    14       H     -0.017292     0.003021     0.013183
    15       H      0.013184     0.002867    -0.015196
    16       H      0.006224     0.001878     0.012155
    17       H     -0.018789     0.004848    -0.004495
    18       H     -0.015562     0.005445     0.003912
    19       H      0.023192     0.012077    -0.003258
    20       H      0.004194    -0.007807     0.020539
    21       H     -0.004539     0.001752    -0.004216
    22       H      0.023481     0.040360    -0.021393
    23       H      0.017566    -0.015472     0.016421
    24       H      0.013188    -0.000859    -0.011473
    25       H     -0.002587    -0.010263     0.000206
    26       H      0.019109     0.012855    -0.002479
    27       H      0.012488     0.021621     0.006109
    28       H      0.000022    -0.000776    -0.013901
    29       H     -0.018454    -0.006409    -0.014582
    30       H     -0.014858     0.014435     0.004366
    31       H     -0.024745     0.013168    -0.026475
    32       H     -0.009703    -0.017073     0.018231
    33       H     -0.005409    -0.003111     0.005391
    34       H     -0.029441    -0.015312    -0.013288



          GRADIENT NORM =   0.18150

          MOLECULAR WEIGHT =  166.31



          ROTATIONAL CONSTANTS IN CM(-1)

          A =    0.05148973   B =    0.01024129   C =    0.00914712



           PRINCIPAL MOMENTS OF INERTIA IN UNITS OF 10**(-40)*GRAM-CM**2

          A =      543.6570   B =     2733.3237   C =     3060.2814


          ORIENTATION OF MOLECULE IN FORCE CALCULATION

    NO.       ATOM         X         Y         Z

     1          C      -2.5248   -0.8645    1.7109
     2          C      -0.3291   -0.8645    1.7109
     3          C      -1.4270    0.2269    1.7109
     4          C      -1.4270   -1.9555    1.7028
     5          C       0.5703   -0.8816    0.4928
     6          C      -3.4258   -0.8776    0.4936
     7          C       1.5920    0.2457    0.5337
     8          C       3.5979    1.2471   -2.6154
     9          C      -4.4410    0.2424    0.5311
    10          C       2.9219    1.8330   -3.8365
    11          C       2.6940    1.2750   -1.4338
    12          C       2.4727    0.2083   -0.6647
    13          H      -3.1382   -0.8663    2.6364
    14          H       0.2842   -0.8660    2.6366
    15          H      -3.9408   -1.8569    0.4363
    16          H      -2.8150   -0.8065   -0.4296
    17          H      -1.4270    0.8775    2.5976
    18          H      -1.4279    0.8829    0.8250
    19          H      -0.0383   -0.8063   -0.4314
    20          H       1.0845   -1.8618    0.4336
    21          H      -1.4269   -2.6138    2.5836
    22          H      -1.4268   -2.6021    0.8107
    23          H       3.9443    0.2165   -2.8312
    24          H       4.5119    1.8247   -2.3696
    25          H       1.0709    1.2210    0.6233
    26          H       2.2250    0.1589    1.4403
    27          H      -5.0898    0.1738    1.4144
    28          H      -5.0884    0.2227   -0.3548
    29          H      -3.9527    1.2260    0.5605
    30          H       2.5991    2.8685   -3.6649
    31          H       3.5984    1.8385   -4.7007
    32          H       2.0314    1.2570   -4.1195
    33          H       2.2131    2.2386   -1.2210
    34          H       2.9438   -0.7586   -0.8842


    FIRST DERIVATIVES WILL BE USED IN THE CALCULATION OF SECOND DERIVATIVES

          ESTIMATED TIME TO COMPLETE CALCULATION =        4.78 SECONDS

    FOR POINT-GROUP C1   THERE ARE   1 UNIQUE SYMMETRY FUNCTIONS.

 STEP:   1 TIME =     0.04 SECS, INTEGRAL =      0.04 TIME LEFT: 172799.95
 STEP:   2 TIME =     0.04 SECS, INTEGRAL =      0.07 TIME LEFT: 172799.91
 STEP:   3 TIME =     0.04 SECS, INTEGRAL =      0.11 TIME LEFT: 172799.88
 STEP:   4 TIME =     0.04 SECS, INTEGRAL =      0.15 TIME LEFT: 172799.84
 STEP:   5 TIME =     0.04 SECS, INTEGRAL =      0.19 TIME LEFT: 172799.80
 STEP:   6 TIME =     0.04 SECS, INTEGRAL =      0.23 TIME LEFT: 172799.76
 STEP:   7 TIME =     0.04 SECS, INTEGRAL =      0.27 TIME LEFT: 172799.72
 STEP:   8 TIME =     0.04 SECS, INTEGRAL =      0.31 TIME LEFT: 172799.68
 STEP:   9 TIME =     0.04 SECS, INTEGRAL =      0.35 TIME LEFT: 172799.64
 STEP:  10 TIME =     0.04 SECS, INTEGRAL =      0.39 TIME LEFT: 172799.59
 STEP:  11 TIME =     0.04 SECS, INTEGRAL =      0.43 TIME LEFT: 172799.55
 STEP:  12 TIME =     0.04 SECS, INTEGRAL =      0.48 TIME LEFT: 172799.51
 STEP:  13 TIME =     0.04 SECS, INTEGRAL =      0.52 TIME LEFT: 172799.47
 STEP:  14 TIME =     0.04 SECS, INTEGRAL =      0.55 TIME LEFT: 172799.43
 STEP:  15 TIME =     0.04 SECS, INTEGRAL =      0.59 TIME LEFT: 172799.40
 STEP:  16 TIME =     0.04 SECS, INTEGRAL =      0.63 TIME LEFT: 172799.36
 STEP:  17 TIME =     0.04 SECS, INTEGRAL =      0.67 TIME LEFT: 172799.32
 STEP:  18 TIME =     0.04 SECS, INTEGRAL =      0.71 TIME LEFT: 172799.28
 STEP:  19 TIME =     0.04 SECS, INTEGRAL =      0.75 TIME LEFT: 172799.24
 STEP:  20 TIME =     0.04 SECS, INTEGRAL =      0.79 TIME LEFT: 172799.20
 STEP:  21 TIME =     0.04 SECS, INTEGRAL =      0.82 TIME LEFT: 172799.16
 STEP:  22 TIME =     0.04 SECS, INTEGRAL =      0.86 TIME LEFT: 172799.13
 STEP:  23 TIME =     0.04 SECS, INTEGRAL =      0.90 TIME LEFT: 172799.09
 STEP:  24 TIME =     0.04 SECS, INTEGRAL =      0.94 TIME LEFT: 172799.05
 STEP:  25 TIME =     0.04 SECS, INTEGRAL =      0.97 TIME LEFT: 172799.02
 STEP:  26 TIME =     0.04 SECS, INTEGRAL =      1.01 TIME LEFT: 172798.98
 STEP:  27 TIME =     0.04 SECS, INTEGRAL =      1.05 TIME LEFT: 172798.93
 STEP:  28 TIME =     0.04 SECS, INTEGRAL =      1.09 TIME LEFT: 172798.89
 STEP:  29 TIME =     0.04 SECS, INTEGRAL =      1.13 TIME LEFT: 172798.86
 STEP:  30 TIME =     0.04 SECS, INTEGRAL =      1.17 TIME LEFT: 172798.82
 STEP:  31 TIME =     0.04 SECS, INTEGRAL =      1.21 TIME LEFT: 172798.78
 STEP:  32 TIME =     0.04 SECS, INTEGRAL =      1.25 TIME LEFT: 172798.74
 STEP:  33 TIME =     0.04 SECS, INTEGRAL =      1.29 TIME LEFT: 172798.70
 STEP:  34 TIME =     0.04 SECS, INTEGRAL =      1.33 TIME LEFT: 172798.66
 STEP:  35 TIME =     0.04 SECS, INTEGRAL =      1.37 TIME LEFT: 172798.62
 STEP:  36 TIME =     0.04 SECS, INTEGRAL =      1.41 TIME LEFT: 172798.57
 STEP:  37 TIME =     0.04 SECS, INTEGRAL =      1.46 TIME LEFT: 172798.53
 STEP:  38 TIME =     0.04 SECS, INTEGRAL =      1.50 TIME LEFT: 172798.49
 STEP:  39 TIME =     0.04 SECS, INTEGRAL =      1.54 TIME LEFT: 172798.45
 STEP:  40 TIME =     0.04 SECS, INTEGRAL =      1.58 TIME LEFT: 172798.41
 STEP:  41 TIME =     0.04 SECS, INTEGRAL =      1.62 TIME LEFT: 172798.37
 STEP:  42 TIME =     0.04 SECS, INTEGRAL =      1.66 TIME LEFT: 172798.33
 STEP:  43 TIME =     0.04 SECS, INTEGRAL =      1.70 TIME LEFT: 172798.29
 STEP:  44 TIME =     0.04 SECS, INTEGRAL =      1.74 TIME LEFT: 172798.25
 STEP:  45 TIME =     0.04 SECS, INTEGRAL =      1.78 TIME LEFT: 172798.21
 STEP:  46 TIME =     0.04 SECS, INTEGRAL =      1.82 TIME LEFT: 172798.17
 STEP:  47 TIME =     0.04 SECS, INTEGRAL =      1.86 TIME LEFT: 172798.12
 STEP:  48 TIME =     0.04 SECS, INTEGRAL =      1.90 TIME LEFT: 172798.09
 STEP:  49 TIME =     0.04 SECS, INTEGRAL =      1.95 TIME LEFT: 172798.04
 STEP:  50 TIME =     0.04 SECS, INTEGRAL =      1.99 TIME LEFT: 172798.00
 STEP:  51 TIME =     0.04 SECS, INTEGRAL =      2.03 TIME LEFT: 172797.96
 STEP:  52 TIME =     0.04 SECS, INTEGRAL =      2.07 TIME LEFT: 172797.92
 STEP:  53 TIME =     0.04 SECS, INTEGRAL =      2.11 TIME LEFT: 172797.88
 STEP:  54 TIME =     0.04 SECS, INTEGRAL =      2.15 TIME LEFT: 172797.84
 STEP:  55 TIME =     0.04 SECS, INTEGRAL =      2.19 TIME LEFT: 172797.80
 STEP:  56 TIME =     0.05 SECS, INTEGRAL =      2.24 TIME LEFT: 172797.75
 STEP:  57 TIME =     0.04 SECS, INTEGRAL =      2.28 TIME LEFT: 172797.71
 STEP:  58 TIME =     0.04 SECS, INTEGRAL =      2.32 TIME LEFT: 172797.67
 STEP:  59 TIME =     0.04 SECS, INTEGRAL =      2.36 TIME LEFT: 172797.63
 STEP:  60 TIME =     0.04 SECS, INTEGRAL =      2.40 TIME LEFT: 172797.59
 STEP:  61 TIME =     0.04 SECS, INTEGRAL =      2.44 TIME LEFT: 172797.55
 STEP:  62 TIME =     0.04 SECS, INTEGRAL =      2.48 TIME LEFT: 172797.50
 STEP:  63 TIME =     0.04 SECS, INTEGRAL =      2.52 TIME LEFT: 172797.46
 STEP:  64 TIME =     0.04 SECS, INTEGRAL =      2.57 TIME LEFT: 172797.42
 STEP:  65 TIME =     0.04 SECS, INTEGRAL =      2.61 TIME LEFT: 172797.38
 STEP:  66 TIME =     0.04 SECS, INTEGRAL =      2.64 TIME LEFT: 172797.34
 STEP:  67 TIME =     0.04 SECS, INTEGRAL =      2.68 TIME LEFT: 172797.30
 STEP:  68 TIME =     0.04 SECS, INTEGRAL =      2.72 TIME LEFT: 172797.27
 STEP:  69 TIME =     0.04 SECS, INTEGRAL =      2.77 TIME LEFT: 172797.22
 STEP:  70 TIME =     0.04 SECS, INTEGRAL =      2.80 TIME LEFT: 172797.18
 STEP:  71 TIME =     0.04 SECS, INTEGRAL =      2.84 TIME LEFT: 172797.14
 STEP:  72 TIME =     0.04 SECS, INTEGRAL =      2.88 TIME LEFT: 172797.11
 STEP:  73 TIME =     0.04 SECS, INTEGRAL =      2.92 TIME LEFT: 172797.07
 STEP:  74 TIME =     0.04 SECS, INTEGRAL =      2.96 TIME LEFT: 172797.03
 STEP:  75 TIME =     0.04 SECS, INTEGRAL =      3.00 TIME LEFT: 172796.99
 STEP:  76 TIME =     0.04 SECS, INTEGRAL =      3.04 TIME LEFT: 172796.95
 STEP:  77 TIME =     0.04 SECS, INTEGRAL =      3.08 TIME LEFT: 172796.91
 STEP:  78 TIME =     0.04 SECS, INTEGRAL =      3.12 TIME LEFT: 172796.86
 STEP:  79 TIME =     0.04 SECS, INTEGRAL =      3.16 TIME LEFT: 172796.82
 STEP:  80 TIME =     0.04 SECS, INTEGRAL =      3.21 TIME LEFT: 172796.78
 STEP:  81 TIME =     0.04 SECS, INTEGRAL =      3.25 TIME LEFT: 172796.74
 STEP:  82 TIME =     0.04 SECS, INTEGRAL =      3.29 TIME LEFT: 172796.70
 STEP:  83 TIME =     0.04 SECS, INTEGRAL =      3.33 TIME LEFT: 172796.66
 STEP:  84 TIME =     0.04 SECS, INTEGRAL =      3.37 TIME LEFT: 172796.62
 STEP:  85 TIME =     0.04 SECS, INTEGRAL =      3.41 TIME LEFT: 172796.58
 STEP:  86 TIME =     0.04 SECS, INTEGRAL =      3.44 TIME LEFT: 172796.55
 STEP:  87 TIME =     0.04 SECS, INTEGRAL =      3.48 TIME LEFT: 172796.50
 STEP:  88 TIME =     0.04 SECS, INTEGRAL =      3.52 TIME LEFT: 172796.46
 STEP:  89 TIME =     0.04 SECS, INTEGRAL =      3.56 TIME LEFT: 172796.43
 STEP:  90 TIME =     0.04 SECS, INTEGRAL =      3.61 TIME LEFT: 172796.38
 STEP:  91 TIME =     0.04 SECS, INTEGRAL =      3.64 TIME LEFT: 172796.34
 STEP:  92 TIME =     0.04 SECS, INTEGRAL =      3.69 TIME LEFT: 172796.30
 STEP:  93 TIME =     0.04 SECS, INTEGRAL =      3.73 TIME LEFT: 172796.26
 STEP:  94 TIME =     0.04 SECS, INTEGRAL =      3.77 TIME LEFT: 172796.22
 STEP:  95 TIME =     0.04 SECS, INTEGRAL =      3.80 TIME LEFT: 172796.18
 STEP:  96 TIME =     0.04 SECS, INTEGRAL =      3.85 TIME LEFT: 172796.14
 STEP:  97 TIME =     0.04 SECS, INTEGRAL =      3.89 TIME LEFT: 172796.10
 STEP:  98 TIME =     0.04 SECS, INTEGRAL =      3.93 TIME LEFT: 172796.05
 STEP:  99 TIME =     0.04 SECS, INTEGRAL =      3.98 TIME LEFT: 172796.01
 STEP: 100 TIME =     0.04 SECS, INTEGRAL =      4.02 TIME LEFT: 172795.97
 STEP: 101 TIME =     0.04 SECS, INTEGRAL =      4.05 TIME LEFT: 172795.93
 STEP: 102 TIME =     0.04 SECS, INTEGRAL =      4.09 TIME LEFT: 172795.89

(To convert to Hartree/Bohr^2, multiply by (10^(-21) x N x a0^2)/(4.184 x 627.51) =  0.0642)


           FORCE MATRIX IN MILLIDYNES/ANGSTROM


                  C  1       C  2       C  3       C  4       C  5       C  6
 ------------------------------------------------------------------------------
     C    1  14.547051
     C    2   1.803519  14.548170
     C    3   3.466046   3.460967  14.322082
     C    4   3.481412   3.478237   1.829376  14.351355
     C    5   0.040216   4.315888   0.541196   0.552929  14.438787
     C    6   4.308313   0.040086   0.542657   0.551182   0.005961  14.489614
     C    7   0.004746   0.643571   0.033943   0.050014   4.119380   0.001033
     C    8   0.000063   0.003447   0.000262   0.000695   0.019503   0.000089
     C    9   0.658546   0.004856   0.032320   0.051028   0.000918   4.471022
     C   10   0.000067   0.001153   0.000082   0.000386   0.003924   0.000087
     C   11   0.000141   0.007695   0.000768   0.001451   0.040605   0.000197
     C   12   0.000570   0.054686   0.002083   0.009641   0.703324   0.000333
     H   13   4.427638   0.028501   0.428983   0.427687   0.002154   0.431586
     H   14   0.028568   4.424358   0.428547   0.427651   0.431724   0.002166
     H   15   0.434023   0.003417   0.047658   0.019338   0.000959   4.457000
     H   16   0.450549   0.002741   0.024002   0.021284   0.004348   4.421246
     H   17   0.441530   0.441415   4.714545   0.031322   0.034601   0.034438
     H   18   0.452832   0.452717   4.628679   0.028176   0.025259   0.026016
     H   19   0.002753   0.449798   0.023696   0.021255   4.428609   0.004415
     H   20   0.003393   0.433836   0.047189   0.019562   4.443085   0.000947
     H   21   0.442152   0.442415   0.031341   4.717953   0.033937   0.034106
     H   22   0.452756   0.452930   0.028244   4.644543   0.032231   0.031488
     H   23   0.000026   0.000135   0.000071   0.000070   0.000447   0.000029
     H   24   0.000040   0.000226   0.000089   0.000108   0.002330   0.000052
     H   25   0.000533   0.026989   0.007918   0.001635   0.441270   0.000454
     H   26   0.000330   0.026906   0.002122   0.001484   0.453163   0.000212
     H   27   0.023864   0.000310   0.002099   0.001655   0.000242   0.464183
     H   28   0.052597   0.000594   0.002221   0.008792   0.000222   0.451232
     H   29   0.019796   0.000493   0.007208   0.001870   0.000450   0.464086
     H   30   0.000029   0.000102   0.000022   0.000060   0.000171   0.000022
     H   31   0.000016   0.000293   0.000032   0.000117   0.000828   0.000029
     H   32   0.000038   0.000108   0.000022   0.000066   0.000236   0.000034
     H   33   0.000138   0.002027   0.000256   0.000499   0.008780   0.000154
     H   34   0.000141   0.001962   0.000556   0.000628   0.027082   0.000143


                  C  7       C  8       C  9       C 10       C 11       C 12
 ------------------------------------------------------------------------------
     C    7  14.671099
     C    8   0.145489  14.692561
     C    9   0.000676   0.000103  14.374567
     C   10   0.019766   4.408902   0.000071  14.349464
     C   11   0.826066   4.965083   0.000199   0.717524  18.188518
     C   12   4.974932   0.822174   0.000321   0.041007  10.698596  18.195118
     H   13   0.000632   0.000026   0.030997   0.000049   0.000066   0.000179
     H   14   0.032773   0.000172   0.000566   0.000106   0.000617   0.001689
     H   15   0.000260   0.000030   0.440094   0.000032   0.000068   0.000067
     H   16   0.000427   0.000050   0.437325   0.000066   0.000114   0.000252
     H   17   0.001852   0.000098   0.001731   0.000046   0.000156   0.000587
     H   18   0.010216   0.000188   0.008939   0.000123   0.000332   0.001046
     H   19   0.441944   0.000732   0.000485   0.000266   0.002447   0.022921
     H   20   0.447216   0.000608   0.000235   0.000181   0.001727   0.031532
     H   21   0.006073   0.000137   0.006416   0.000135   0.000322   0.001449
     H   22   0.003146   0.000076   0.002999   0.000066   0.000176   0.001137
     H   23   0.003197   4.440765   0.000021   0.435107   0.460639   0.049954
     H   24   0.020291   4.421619   0.000047   0.446264   0.410241   0.031809
     H   25   4.413728   0.003197   0.000141   0.000541   0.049600   0.460208
     H   26   4.408165   0.019824   0.000137   0.002073   0.031518   0.410659
     H   27   0.000130   0.000031   4.724913   0.000015   0.000052   0.000092
     H   28   0.000176   0.000038   4.752345   0.000030   0.000085   0.000120
     H   29   0.000140   0.000039   4.713526   0.000036   0.000090   0.000095
     H   30   0.000677   0.464706   0.000014   4.724666   0.027342   0.002013
     H   31   0.003291   0.450193   0.000034   4.749975   0.052494   0.006978
     H   32   0.000788   0.461274   0.000031   4.745244   0.016050   0.002493
     H   33   0.084853   0.430555   0.000151   0.025398   4.760900   0.469383
     H   34   0.430231   0.084392   0.000088   0.009021   0.469491   4.759361


                  H 13       H 14       H 15       H 16       H 17       H 18
 ------------------------------------------------------------------------------
     H   13   4.928459
     H   14   0.002649   4.925967
     H   15   0.024792   0.000676   5.066061
     H   16   0.043836   0.000541   0.568792   5.033293
     H   17   0.026871   0.026907   0.005995   0.001753   5.333291
     H   18   0.030618   0.030679   0.003533   0.023354   0.552641   5.265757
     H   19   0.000547   0.043466   0.000289   0.010401   0.001779   0.023106
     H   20   0.000676   0.024301   0.000339   0.000281   0.005950   0.003537
     H   21   0.026553   0.026501   0.001947   0.001306   0.003378   0.001032
     H   22   0.030850   0.030852   0.011967   0.016795   0.000946   0.002831
     H   23   0.000012   0.000051   0.000008   0.000022   0.000029   0.000057
     H   24   0.000027   0.000075   0.000017   0.000040   0.000036   0.000081
     H   25   0.000345   0.002030   0.000157   0.000187   0.000958   0.015937
     H   26   0.000106   0.023956   0.000078   0.000165   0.000348   0.000471
     H   27   0.021792   0.000123   0.024285   0.048226   0.000355   0.000471
     H   28   0.001995   0.000127   0.029096   0.030058   0.000324   0.000619
     H   29   0.001911   0.000313   0.048986   0.024509   0.000801   0.013392
     H   30   0.000015   0.000021   0.000009   0.000024   0.000011   0.000044
     H   31   0.000013   0.000041   0.000009   0.000024   0.000017   0.000049
     H   32   0.000016   0.000042   0.000012   0.000032   0.000020   0.000054
     H   33   0.000062   0.000206   0.000053   0.000104   0.000156   0.000285
     H   34   0.000088   0.000675   0.000044   0.000111   0.000228   0.000359


                  H 19       H 20       H 21       H 22       H 23       H 24
 ------------------------------------------------------------------------------
     H   19   5.038763
     H   20   0.567038   5.056974
     H   21   0.001322   0.001986   5.335485
     H   22   0.016716   0.012233   0.552088   5.279651
     H   23   0.000156   0.000183   0.000024   0.000029   5.051950
     H   24   0.000219   0.000145   0.000062   0.000031   0.567315   5.020318
     H   25   0.023669   0.046045   0.000379   0.000426   0.000479   0.000804
     H   26   0.046620   0.023993   0.000331   0.000447   0.000764   0.003453
     H   27   0.000164   0.000096   0.000349   0.000467   0.000010   0.000011
     H   28   0.000122   0.000069   0.001275   0.000710   0.000006   0.000020
     H   29   0.000171   0.000150   0.000411   0.000424   0.000011   0.000020
     H   30   0.000049   0.000045   0.000025   0.000016   0.048101   0.023682
     H   31   0.000088   0.000068   0.000038   0.000021   0.030040   0.028496
     H   32   0.000075   0.000035   0.000027   0.000024   0.024549   0.049353
     H   33   0.000508   0.000628   0.000141   0.000094   0.039236   0.017966
     H   34   0.002718   0.021542   0.000128   0.000301   0.030102   0.009931


                  H 25       H 26       H 27       H 28       H 29       H 30
 ------------------------------------------------------------------------------
     H   25   5.025847
     H   26   0.563207   5.010001
     H   27   0.000044   0.000048   5.467672
     H   28   0.000045   0.000027   0.572985   5.488839
     H   29   0.000107   0.000032   0.576941   0.572550   5.453281
     H   30   0.000204   0.000148   0.000005   0.000004   0.000014   5.469673
     H   31   0.000136   0.000265   0.000008   0.000011   0.000015   0.573777
     H   32   0.000162   0.000208   0.000011   0.000011   0.000018   0.579157
     H   33   0.030070   0.009733   0.000045   0.000058   0.000073   0.019793
     H   34   0.038911   0.018200   0.000042   0.000022   0.000040   0.000604


                  H 31       H 32       H 33       H 34
 ------------------------------------------------------
     H   31   5.487827
     H   32   0.574225   5.483706
     H   33   0.002036   0.002632   5.142307
     H   34   0.001750   0.000491   0.106584   5.141685


          HEAT OF FORMATION =     -23.546528 KCALS/MOLE

          ZERO POINT ENERGY     194.682 KCAL/MOL


           NORMAL COORDINATE ANALYSIS (Total motion = 1 Angstrom)


   Root No.       1         2         3         4         5         6         7         8

                 1 A       2 A       3 A       4 A       5 A       6 A       7 A       8 A   

                  18.5      30.2      55.5      69.6      79.9     101.2     119.8     175.3
  
           1   -0.0042    0.0009    0.0001    0.0011   -0.0004   -0.0046    0.0010   -0.0029
           2   -0.0012    0.0093   -0.0129   -0.0006   -0.0008   -0.0159   -0.0063   -0.0086
           3    0.0117    0.0014    0.0075   -0.0094   -0.0009    0.0067   -0.0090   -0.0049
           4   -0.0042    0.0009    0.0002    0.0011   -0.0003   -0.0046    0.0010   -0.0024
           5    0.0087    0.0052   -0.0121    0.0016    0.0072    0.0102   -0.0048    0.0058
           6   -0.0045    0.0120    0.0119    0.0000    0.0036   -0.0092    0.0035    0.0076
           7   -0.0091    0.0029   -0.0002   -0.0000   -0.0043   -0.0172    0.0003   -0.0095
           8    0.0037    0.0072   -0.0127    0.0006    0.0033   -0.0029   -0.0058   -0.0017
           9   -0.0053   -0.0056    0.0339    0.0002    0.0265    0.0038   -0.0076    0.0027
          10    0.0006   -0.0011    0.0005    0.0021    0.0035    0.0083    0.0014    0.0039
          11    0.0037    0.0071   -0.0126    0.0007    0.0033   -0.0029   -0.0057   -0.0014
          12    0.0098    0.0239    0.0047   -0.0168   -0.0005   -0.0082   -0.0141   -0.0094
          13   -0.0108    0.0027   -0.0121    0.0108   -0.0166   -0.0121    0.0169    0.0073
          14    0.0042   -0.0122    0.0036    0.0092    0.0207    0.0273   -0.0042    0.0069
          15   -0.0093    0.0135    0.0023    0.0074   -0.0087   -0.0149    0.0161    0.0152
          16   -0.0151    0.0105    0.0175    0.0003    0.0197   -0.0144   -0.0058   -0.0052
          17   -0.0139   -0.0056    0.0041    0.0082    0.0093   -0.0209    0.0008   -0.0022
          18    0.0200   -0.0057   -0.0058   -0.0089   -0.0163    0.0142   -0.0038   -0.0031
          19   -0.0122    0.0055   -0.0286    0.0114    0.0062    0.0126   -0.0109    0.0023
          20    0.0058   -0.0144    0.0189    0.0083   -0.0005    0.0043    0.0220    0.0116
          21   -0.0197    0.0018   -0.0094    0.0193    0.0005    0.0098   -0.0005    0.0022
          22    0.0219   -0.0160   -0.0020   -0.0178    0.0025   -0.0026   -0.0001   -0.0004
          23   -0.0110   -0.0108   -0.0075   -0.0242   -0.0103   -0.0116   -0.0185   -0.0136
          24   -0.0032   -0.0104   -0.0010   -0.0099   -0.0057   -0.0057   -0.0076   -0.0109
          25   -0.0211    0.0138    0.0296   -0.0167   -0.0112    0.0207    0.0007    0.0021
          26   -0.0194   -0.0018    0.0153   -0.0079   -0.0193    0.0117    0.0066    0.0046
          27    0.0223   -0.0305   -0.0147    0.0136   -0.0021   -0.0096    0.0069    0.0041
          28    0.0457   -0.0097    0.0244    0.0119   -0.0115   -0.0070   -0.0146   -0.0039
          29    0.0244    0.0390    0.0009    0.0165   -0.0047    0.0009   -0.0049    0.0066
          30    0.0006    0.0100   -0.0114   -0.0066    0.0046    0.0027    0.0066    0.0002
          31    0.0160   -0.0032   -0.0181   -0.0242    0.0191    0.0082    0.0231    0.0133
          32   -0.0019   -0.0111    0.0022   -0.0167   -0.0003   -0.0027    0.0110   -0.0060
          33   -0.0080   -0.0007   -0.0135   -0.0149    0.0068    0.0024    0.0097   -0.0007
          34   -0.0098   -0.0082   -0.0187    0.0203   -0.0035    0.0132   -0.0093   -0.0036
          35   -0.0035   -0.0155    0.0107    0.0034   -0.0051    0.0020    0.0117   -0.0038
          36   -0.0177   -0.0082   -0.0019    0.0258   -0.0067    0.0101    0.0010   -0.0028
          37    0.0041   -0.0063   -0.0122    0.0013   -0.0147    0.0028    0.0050   -0.0023
          38    0.0024    0.0230   -0.0253   -0.0088   -0.0147   -0.0270   -0.0099   -0.0184
          39    0.0172   -0.0034   -0.0009   -0.0092   -0.0105    0.0115   -0.0062   -0.0044
          40    0.0009   -0.0007    0.0088   -0.0064    0.0105    0.0009   -0.0114   -0.0109
          41    0.0177    0.0165   -0.0238   -0.0045   -0.0018    0.0115   -0.0058    0.0067
          42   -0.0079    0.0130    0.0060    0.0050   -0.0037   -0.0128    0.0116    0.0131
          43   -0.0102    0.0077    0.0076    0.0149    0.0465   -0.0444   -0.0113   -0.0110
          44   -0.0171   -0.0048    0.0102    0.0016   -0.0028   -0.0069    0.0037    0.0011
          45    0.0307    0.0046   -0.0193   -0.0265   -0.0520    0.0444   -0.0035   -0.0048
          46   -0.0239    0.0182    0.0323   -0.0019    0.0334   -0.0192   -0.0114   -0.0072
          47   -0.0162   -0.0212    0.0029    0.0343    0.0508   -0.0637    0.0004   -0.0028
          48    0.0140   -0.0018    0.0038   -0.0083   -0.0041    0.0077   -0.0075   -0.0044
          49   -0.0055   -0.0002   -0.0022   -0.0045   -0.0085   -0.0190   -0.0051   -0.0192
          50    0.0111    0.0169   -0.0335   -0.0031   -0.0192   -0.0070   -0.0005   -0.0023
[...]
 REDUCED MASS        0.2600         C  1 -- H 13          +5.5% ( 24.2%)    100.0%
 EFFECTIVE MASS      1.4817
 FORCE CONSTANT      1.3380

 VIBRATION         81   81A           ATOM PAIR      ENERGY CONTRIBUTION    RADIAL
 FREQUENCY          3017.69         C  7 -- H 25         +47.4% ( 67.9%)     97.7%
 TRANSITION DIPOLE   0.0292         C  7 -- H 26         +46.9% ( 67.5%)     97.7%
 TRAVEL (Ang.)       0.2246         C  5 -- H 20          +1.6% ( 12.6%)     98.4%
 REDUCED MASS        0.4428         C  5 -- H 19          +1.3% ( 11.4%)     97.2%
 EFFECTIVE MASS      1.2792
 FORCE CONSTANT      2.3760

 VIBRATION         82   82A           ATOM PAIR      ENERGY CONTRIBUTION    RADIAL
 FREQUENCY          3024.58         C  8 -- H 23         +51.0% ( 70.4%)     98.1%
 TRANSITION DIPOLE   0.0383         C  8 -- H 24         +45.0% ( 66.2%)     97.3%
 TRAVEL (Ang.)       0.2198         C 11 -- H 33          +1.5% ( 12.0%)     99.8%
 REDUCED MASS        0.4613         C  8 -- C 11          +0.7% (  8.1%)     29.6%
 EFFECTIVE MASS      1.2847
 FORCE CONSTANT      2.4865

 VIBRATION         83   83A           ATOM PAIR      ENERGY CONTRIBUTION    RADIAL
 FREQUENCY          3026.44         C  5 -- H 20         +36.2% ( 59.3%)     98.2%
 TRANSITION DIPOLE   0.0466         C  5 -- H 19         +30.0% ( 54.0%)     97.1%
 TRAVEL (Ang.)       0.2948         C  6 -- H 15         +15.5% ( 38.9%)     98.6%
 REDUCED MASS        0.2563         C  6 -- H 16         +10.7% ( 32.2%)     96.4%
 EFFECTIVE MASS      1.2789
 FORCE CONSTANT      1.3832

 VIBRATION         84   84A           ATOM PAIR      ENERGY CONTRIBUTION    RADIAL
 FREQUENCY          3028.62         C  6 -- H 15         +37.4% ( 60.3%)     98.3%
 TRANSITION DIPOLE   0.0212         C  6 -- H 16         +28.9% ( 53.0%)     96.9%
 TRAVEL (Ang.)       0.2907         C  5 -- H 20         +14.9% ( 38.1%)     98.0%
 REDUCED MASS        0.2635         C  5 -- H 19         +13.7% ( 36.5%)     97.4%
 EFFECTIVE MASS      1.2810
 FORCE CONSTANT      1.4241

 VIBRATION         85   85A           ATOM PAIR      ENERGY CONTRIBUTION    RADIAL
 FREQUENCY          3030.45         C  3 -- H 18         +52.5% ( 75.2%)     98.2%
 TRANSITION DIPOLE   0.0572         C  3 -- H 17         +27.7% ( 54.6%)     94.5%
 TRAVEL (Ang.)       0.2383         C  4 -- H 22          +6.8% ( 27.1%)     98.1%
 REDUCED MASS        0.3918         C  4 -- H 21          +3.9% ( 20.4%)     94.9%
 EFFECTIVE MASS      1.5205
 FORCE CONSTANT      2.1200

 VIBRATION         86   86A           ATOM PAIR      ENERGY CONTRIBUTION    RADIAL
 FREQUENCY          3034.79         C  4 -- H 22         +54.1% ( 76.5%)     98.1%
 TRANSITION DIPOLE   0.0952         C  4 -- H 21         +31.0% ( 57.9%)     94.8%
 TRAVEL (Ang.)       0.2261         C  3 -- H 18          +6.8% ( 27.1%)     98.4%
 REDUCED MASS        0.4345         C  3 -- H 17          +3.4% ( 19.3%)     94.1%
 EFFECTIVE MASS      1.5386
 FORCE CONSTANT      2.3578

 VIBRATION         87   87A           ATOM PAIR      ENERGY CONTRIBUTION    RADIAL
 FREQUENCY          3035.47         C 12 -- H 34         +56.2% ( 75.7%)    100.0%
 TRANSITION DIPOLE   0.3390         C 11 -- H 33         +41.5% ( 65.0%)    100.0%
 TRAVEL (Ang.)       0.2170         C 11 -- C 12          +0.8% (  8.9%)     39.9%
 REDUCED MASS        0.4717         C  7 -- C 12          +0.7% (  8.5%)     20.0%
 EFFECTIVE MASS      1.4331
 FORCE CONSTANT      2.5605

 VIBRATION         88   88A           ATOM PAIR      ENERGY CONTRIBUTION    RADIAL
 FREQUENCY          3037.48         C 11 -- H 33         +53.8% ( 74.6%)     99.9%
 TRANSITION DIPOLE   0.0263         C 12 -- H 34         +39.8% ( 64.1%)     99.9%
 TRAVEL (Ang.)       0.2226         C 11 -- C 12          +2.2% ( 14.9%)     39.9%
 REDUCED MASS        0.4480         C  8 -- H 23          +1.6% ( 12.8%)     99.5%
 EFFECTIVE MASS      1.5806
 FORCE CONSTANT      2.4353

 VIBRATION         89   89A           ATOM PAIR      ENERGY CONTRIBUTION    RADIAL
 FREQUENCY          3076.77         C  9 -- H 29         +57.9% ( 78.5%)     98.1%
 TRANSITION DIPOLE   0.0078         C  9 -- H 27         +38.7% ( 64.2%)     95.3%
 TRAVEL (Ang.)       0.2068         C  9 -- H 28          +2.1% ( 14.8%)     24.4%
 REDUCED MASS        0.5126         C  6 -- C  9          +1.0% ( 10.2%)      0.0%
 EFFECTIVE MASS      1.5010
 FORCE CONSTANT      2.8589

 VIBRATION         90   90A           ATOM PAIR      ENERGY CONTRIBUTION    RADIAL
 FREQUENCY          3081.06         C 10 -- H 30         +63.6% ( 82.2%)     98.7%
 TRANSITION DIPOLE   0.0104         C 10 -- H 32         +29.4% ( 55.9%)     92.6%
 TRAVEL (Ang.)       0.2049         C 10 -- H 31          +5.8% ( 24.8%)     59.3%
 REDUCED MASS        0.5213         C  8 -- C 10          +1.0% ( 10.2%)      0.0%
 EFFECTIVE MASS      1.5011
 FORCE CONSTANT      2.9156

 VIBRATION         91   91A           ATOM PAIR      ENERGY CONTRIBUTION    RADIAL
 FREQUENCY          3084.22         C  9 -- H 28         +60.1% ( 79.9%)     98.6%
 TRANSITION DIPOLE   0.0027         C  9 -- H 27         +27.8% ( 54.3%)     91.5%
 TRAVEL (Ang.)       0.2139         C  9 -- H 29         +10.7% ( 33.7%)     74.9%
 REDUCED MASS        0.4781         C  6 -- C  9          +1.0% ( 10.3%)      0.0%
 EFFECTIVE MASS      1.5037
 FORCE CONSTANT      2.6793

 VIBRATION         92   92A           ATOM PAIR      ENERGY CONTRIBUTION    RADIAL
 FREQUENCY          3085.94         C 10 -- H 31         +58.8% ( 79.1%)     98.3%
 TRANSITION DIPOLE   0.0114         C 10 -- H 32         +35.5% ( 61.5%)     94.3%
 TRAVEL (Ang.)       0.2087         C 10 -- H 30          +4.3% ( 21.4%)     49.1%
 REDUCED MASS        0.5016         C  8 -- C 10          +1.0% ( 10.3%)      0.1%
 EFFECTIVE MASS      1.5041
 FORCE CONSTANT      2.8142

 VIBRATION         93   93A           ATOM PAIR      ENERGY CONTRIBUTION    RADIAL
 FREQUENCY          3099.35         C  3 -- H 17         +48.9% ( 69.4%)     98.8%
 TRANSITION DIPOLE   0.1021         C  3 -- H 18         +24.1% ( 48.7%)     94.0%
 TRAVEL (Ang.)       0.2575         C  4 -- H 21         +16.1% ( 39.8%)     98.7%
 REDUCED MASS        0.3282         C  4 -- H 22          +8.9% ( 29.6%)     94.9%
 EFFECTIVE MASS      1.2708
 FORCE CONSTANT      1.8575

 VIBRATION         94   94A           ATOM PAIR      ENERGY CONTRIBUTION    RADIAL
 FREQUENCY          3102.55         C  4 -- H 21         +47.0% ( 68.1%)     98.5%
 TRANSITION DIPOLE   0.0305         C  4 -- H 22         +25.7% ( 50.4%)     94.3%
 TRAVEL (Ang.)       0.2594         C  3 -- H 17         +16.7% ( 40.5%)     98.6%
 REDUCED MASS        0.3229         C  3 -- H 18          +8.2% ( 28.5%)     93.4%
 EFFECTIVE MASS      1.3065
 FORCE CONSTANT      1.8314

 VIBRATION         95   95A           ATOM PAIR      ENERGY CONTRIBUTION    RADIAL
 FREQUENCY          3179.62         C  9 -- H 28         +37.2% ( 58.7%)     97.7%
 TRANSITION DIPOLE   0.0101         C  9 -- H 27         +32.5% ( 54.9%)     97.0%
 TRAVEL (Ang.)       0.2538         C  9 -- H 29         +30.0% ( 52.7%)     96.5%
 REDUCED MASS        0.3292         C  6 -- C  9          +0.3% (  5.1%)     99.3%
 EFFECTIVE MASS      1.1368
 FORCE CONSTANT      1.9608

 VIBRATION         96   96A           ATOM PAIR      ENERGY CONTRIBUTION    RADIAL
 FREQUENCY          3182.98         C 10 -- H 31         +34.5% ( 56.5%)     97.3%
 TRANSITION DIPOLE   0.0191         C 10 -- H 32         +34.3% ( 56.3%)     97.3%
 TRAVEL (Ang.)       0.2543         C 10 -- H 30         +30.9% ( 53.5%)     96.7%
 REDUCED MASS        0.3277         C  8 -- C 10          +0.3% (  5.1%)     99.8%
 EFFECTIVE MASS      1.1360
 FORCE CONSTANT      1.9561

      SYMMETRY NUMBER FOR POINT-GROUP C1  =  1


          SYSTEM IS A GROUND STATE



 InChI=1S/C12H22/c1-3-5-6-7-8-12-9-11(4-2)10-12/h5-6,11-12H,3-4,7-10H2,1-2H3


          MOLECULE IS NOT LINEAR

          THERE ARE 96 GENUINE VIBRATIONS IN THIS SYSTEM
          THIS THERMODYNAMICS CALCULATION IS LIMITED TO
          MOLECULES WHICH HAVE NO INTERNAL ROTATIONS




                    CALCULATED THERMODYNAMIC PROPERTIES
                                          *
   TEMP. (K)   PARTITION FUNCTION   H.O.F.    ENTHALPY  HEAT CAPACITY ENTROPY
                                   KCAL/MOL   CAL/MOLE    CAL/K/MOL  CAL/K/MOL


 298.00  VIB.     0.8374D+06                  7331.2188    47.0884    51.7029
         ROT.     0.2406D+07                   888.2803     2.9808    32.1794
         INT.     0.2014D+13                  8219.4991    50.0692    83.8824
         TRA.     0.2073D+28                  1480.4672     4.9680    41.2320
         TOT.                      -23.547    9699.9663    55.0372   125.1144

 200.00  VIB.     0.1281D+05                  3528.9128    31.2741    36.4398
         ROT.     0.1323D+07                   596.1613     2.9808    30.9908
         INT.     0.1695D+11                  4125.0741    34.2549    67.4306
         TRA.     0.1140D+28                   993.6021     4.9680    39.2509
         TOT.                      -28.128    5118.6763    39.2229   106.6814

 210.00  VIB.     0.1992D+05                  3848.5389    32.6603    37.9990
         ROT.     0.1423D+07                   625.9693     2.9808    31.1362
         INT.     0.2835D+11                  4474.5082    35.6412    69.1352
         TRA.     0.1227D+28                  1043.2822     4.9680    39.4932
         TOT.                      -27.729    5517.7904    40.6092   108.6284

 220.00  VIB.     0.3084D+05                  4182.3075    34.1029    39.5514
         ROT.     0.1526D+07                   655.7774     2.9808    31.2749
         INT.     0.4706D+11                  4838.0849    37.0837    70.8263
         TRA.     0.1315D+28                  1092.9623     4.9680    39.7244
         TOT.                      -27.315    5931.0473    42.0517   110.5506

 230.00  VIB.     0.4755D+05                  4530.7867    35.6024    41.1002
         ROT.     0.1631D+07                   685.5855     2.9808    31.4074
         INT.     0.7756D+11                  5216.3721    38.5832    72.5076
         TRA.     0.1406D+28                  1142.6424     4.9680    39.9452
         TOT.                      -26.887    6359.0146    43.5512   112.4528

 240.00  VIB.     0.7304D+05                  4894.5422    37.1578    42.6481
         ROT.     0.1739D+07                   715.3935     2.9808    31.5342
         INT.     0.1270D+12                  5609.9357    40.1386    74.1823
         TRA.     0.1499D+28                  1192.3226     4.9680    40.1566
         TOT.                      -26.444    6802.2583    45.1067   114.3390

 250.00  VIB.     0.1118D+06                  5274.1213    38.7666    44.1974
         ROT.     0.1848D+07                   745.2016     2.9808    31.6559
         INT.     0.2067D+12                  6019.3229    41.7474    75.8533
         TRA.     0.1593D+28                  1242.0027     4.9680    40.3594
         TOT.                      -25.985    7261.3256    46.7154   116.2128

 260.00  VIB.     0.1708D+06                  5670.0389    40.4248    45.7500
         ROT.     0.1960D+07                   775.0097     2.9808    31.7728
         INT.     0.3348D+12                  6445.0486    43.4056    77.5228
         TRA.     0.1690D+28                  1291.6828     4.9680    40.5543
         TOT.                      -25.510    7736.7314    48.3736   118.0771

 270.00  VIB.     0.2602D+06                  6082.7672    42.1279    47.3074
         ROT.     0.2075D+07                   804.8177     2.9808    31.8853
         INT.     0.5398D+12                  6887.5850    45.1087    79.1928
         TRA.     0.1788D+28                  1341.3629     4.9680    40.7418
         TOT.                      -25.018    8228.9478    50.0767   119.9346

 280.00  VIB.     0.3956D+06                  6512.7283    43.8704    48.8709
         ROT.     0.2191D+07                   834.6258     2.9808    31.9937
         INT.     0.8667D+12                  7347.3541    46.8513    80.8647
         TRA.     0.1888D+28                  1391.0430     4.9680    40.9225
         TOT.                      -24.508    8738.3970    51.8193   121.7871

 290.00  VIB.     0.6004D+06                  6960.2889    45.6468    50.4413
         ROT.     0.2309D+07                   864.4339     2.9808    32.0983
         INT.     0.1386D+13                  7824.7228    48.6276    82.5396
         TRA.     0.1990D+28                  1440.7231     4.9680    41.0968
         TOT.                      -23.981    9265.4458    53.5957   123.6364

 300.00  VIB.     0.9099D+06                  7425.7582    47.4512    52.0191
         ROT.     0.2430D+07                   894.2419     2.9808    32.1994
         INT.     0.2211D+13                  8320.0001    50.4320    84.2185
         TRA.     0.2094D+28                  1490.4032     4.9680    41.2652
         TOT.                      -23.436    9810.4033    55.4000   125.4837

 310.00  VIB.     0.1377D+07                  7909.3865    49.2777    53.6048
         ROT.     0.2552D+07                   924.0500     2.9808    32.2971
         INT.     0.3516D+13                  8833.4365    52.2585    85.9019
         TRA.     0.2200D+28                  1540.0833     4.9680    41.4281
         TOT.                      -22.873   10373.5198    57.2265   127.3300

 320.00  VIB.     0.2083D+07                  8411.3664    51.1206    55.1983
         ROT.     0.2677D+07                   953.8580     2.9808    32.3918
         INT.     0.5577D+13                  9365.2245    54.1014    87.5901
         TRA.     0.2307D+28                  1589.7634     4.9680    41.5859
         TOT.                      -22.292   10954.9879    59.0694   129.1760

 330.00  VIB.     0.3149D+07                  8931.8343    52.9744    56.7998
         ROT.     0.2803D+07                   983.6661     2.9808    32.4835
         INT.     0.8827D+13                  9915.5004    55.9552    89.2832
         TRA.     0.2416D+28                  1639.4435     4.9680    41.7387
         TOT.                      -21.692   11554.9439    60.9232   131.0220

 340.00  VIB.     0.4756D+07                  9470.8735    54.8340    58.4088
         ROT.     0.2932D+07                  1013.4742     2.9808    32.5725
         INT.     0.1394D+14                 10484.3476    57.8148    90.9813
         TRA.     0.2527D+28                  1689.1236     4.9680    41.8870
         TOT.                      -21.073   12173.4713    62.7828   132.8683

 350.00  VIB.     0.7182D+07                 10028.5174    56.6946    60.0252
         ROT.     0.3062D+07                  1043.2822     2.9808    32.6589
         INT.     0.2199D+14                 11071.7996    59.6754    92.6840
         TRA.     0.2639D+28                  1738.8037     4.9680    42.0310
         TOT.                      -20.436   12810.6034    64.6434   134.7151

 360.00  VIB.     0.1084D+08                 10604.7536    58.5518    61.6483
         ROT.     0.3194D+07                  1073.0903     2.9808    32.7428
         INT.     0.3463D+14                 11677.8439    61.5326    94.3912
         TRA.     0.2753D+28                  1788.4838     4.9680    42.1710
         TOT.                      -19.780   13466.3278    66.5006   136.5622

 370.00  VIB.     0.1637D+08                 11199.5281    60.4016    63.2778
         ROT.     0.3328D+07                  1102.8984     2.9808    32.8245
         INT.     0.5447D+14                 12302.4264    63.3824    96.1024
         TRA.     0.2869D+28                  1838.1639     4.9680    42.3071
         TOT.                      -19.106   14140.5904    68.3504   138.4095

 380.00  VIB.     0.2470D+08                 11812.7489    62.2405    64.9131
         ROT.     0.3464D+07                  1132.7064     2.9808    32.9040
         INT.     0.8557D+14                 12945.4553    65.2213    97.8171
         TRA.     0.2986D+28                  1887.8440     4.9680    42.4396
         TOT.                      -18.413   14833.2993    70.1893   140.2567

 390.00  VIB.     0.3728D+08                 12444.2910    64.0654    66.5535
         ROT.     0.3602D+07                  1162.5145     2.9808    32.9814
         INT.     0.1343D+15                 13606.8055    67.0462    99.5349
         TRA.     0.3104D+28                  1937.5242     4.9680    42.5687
         TOT.                      -17.702   15544.3296    72.0142   142.1035

 400.00  VIB.     0.5628D+08                 13093.9999    65.8734    68.1983
         ROT.     0.3741D+07                  1192.3226     2.9808    33.0569
         INT.     0.2105D+15                 14286.3225    68.8542   101.2552
         TRA.     0.3224D+28                  1987.2043     4.9680    42.6944
         TOT.                      -16.973   16273.5267    73.8223   143.9496

   *: NOTE: HEATS OF FORMATION ARE RELATIVE TO THE
            ELEMENTS IN THEIR STANDARD STATE AT 298K
              (=  Standard Enthalpy of Formation).

            Hvib:  Zero-point energy is not included.
                   frequencies of less than zero cm-1 are not included.
            Hrot = (3/2)RT
            Htra = (3/2)RT + pV = (5/2)RT

            Heat capacity is Cp, not Cv

          For more information, see: HTTP://OpenMOPAC.net/Manual/thermochemistry.html


           FORCE CONSTANT IN CARTESIAN COORDINATES (Millidynes/A)

    ATOM   CHEMICAL       X               Y               Z
   NUMBER   SYMBOL  FORCE CONSTANT  FORCE CONSTANT  FORCE CONSTANT

      1       C        9.839341        6.330765        8.642891
      2       C        9.834415        6.328709        8.652042
      3       C        5.972460        9.726098        8.651438
      4       C        5.998400        9.747556        8.657918
      5       C        8.381511        8.262823        8.361510
      6       C        8.402779        8.424623        8.267076
      7       C        8.387280        8.273303        8.700855
      8       C        8.393329        8.348134        8.678532
      9       C        8.343493        8.206313        8.344833
     10       C        8.252081        8.197296        8.402144
     11       C        5.341185       12.492650        9.337548
     12       C        5.415268       12.597826        9.169256
     13       H        2.030607        0.666453        3.563324
     14       H        2.030253        0.666558        3.562928
     15       H        1.677640        4.003212        0.695723
     16       H        2.029469        0.742013        3.602043
     17       H        0.665283        2.253794        3.714929
     18       H        0.695253        2.273454        3.641530
     19       H        2.021748        0.742407        3.610265
     20       H        1.673390        4.008160        0.698437
     21       H        0.666543        2.292832        3.677779
     22       H        0.688924        2.239043        3.688466
     23       H        1.051142        4.424491        0.921580
     24       H        3.463413        1.923678        0.892916
     25       H        1.694521        3.945367        0.734275
     26       H        2.116630        0.732253        3.431770
     27       H        2.279164        0.737187        3.762118
     28       H        2.271081        0.708517        3.811709
     29       H        1.714996        4.368653        0.671883
     30       H        1.059280        4.852481        0.869315
     31       H        2.583312        0.676433        3.530814
     32       H        3.752709        2.058985        0.969231
     33       H        1.351170        4.047363        0.813014
     34       H        1.324927        4.069910        0.817228

 **********************
 *                    *
 * JOB ENDED NORMALLY *
 *                    *
 **********************



 TOTAL JOB TIME:            12.66 SECONDS

 == MOPAC DONE ==
