 *******************************************************************************
 **                                                                           **
 **                              MOPAC v23.1.2                                **
 **                                                                           **
 *******************************************************************************
 **          Digital Object Identifier (DOI): 10.5281/zenodo.6511958          **
 **    Visit the DOI location for information on how to cite this program.    **
 *******************************************************************************

                              PM3 CALCULATION RESULTS

 *******************************************************************************
 *  CALCULATION DONE: (MAX THREADS = 1)              Tue Jun  3 16:31:12 2025  *
 *  PM3        - The PM3 Hamiltonian to be used
 *  PRECISE    - TIGHTER CRITERIA TO BE USED
 *  NOSYM      - POINT-GROUP SYMMETRY SET TO C1
 *  THREADS=1  - MULTI-THREADING NOT USED
 *  T=         - A TIME OF 172800.0 SECONDS REQUESTED
 *  DUMP=N     - RESTART FILE WRITTEN EVERY 7200.0 SECONDS REQUESTED
 *******************************************************************************
pm3  precise nosym THREADS=1
 InChI=1S/C10H10/c1-2-3-7-10-8-5-4-6-9-10/h3-8H,1,9H2

   ATOM   CHEMICAL          X               Y               Z
  NUMBER   SYMBOL      (ANGSTROMS)     (ANGSTROMS)     (ANGSTROMS)

     1       C          0.95760000  *  -0.82450000  *  -0.86180000  *
     2       C          0.38030000  *   0.28730000  *  -0.00260000  *
     3       C          2.44840000  *  -0.72810000  *  -1.06400000  *
     4       C          1.27980000  *   1.32860000  *   0.54340000  *
     5       C         -0.93410000  *   0.35470000  *   0.27920000  *
     6       C          3.18900000  *   0.24840000  *  -0.53340000  *
     7       C          2.58850000  *   1.30550000  *   0.29270000  *
     8       C         -1.92770000  *  -0.62200000  *  -0.20610000  *
     9       C         -4.44240000  *  -0.35450000  *   0.42730000  *
    10       C         -3.18600000  *  -0.48830000  *   0.11070000  *
    11       H          0.47510000  *  -0.80060000  *  -1.86210000  *
    12       H          0.74030000  *  -1.80420000  *  -0.38530000  *
    13       H          2.93450000  *  -1.48560000  *  -1.66600000  *
    14       H         -1.29650000  *   1.16970000  *   0.89810000  *
    15       H          0.88020000  *   2.12710000  *   1.15790000  *
    16       H          3.22560000  *   2.07840000  *   0.70360000  *
    17       H          4.25640000  *   0.26580000  *  -0.71320000  *
    18       H         -1.64170000  *  -1.45990000  *  -0.82680000  *
    19       H         -5.16920000  *  -1.07140000  *   0.07070000  *
    20       H         -4.75810000  *   0.47370000  *   1.04680000  *



          CARTESIAN COORDINATES 

    NO.       ATOM           X           Y           Z

     1         C          0.9576     -0.8245     -0.8618
     2         C          0.3803      0.2873     -0.0026
     3         C          2.4484     -0.7281     -1.0640
     4         C          1.2798      1.3286      0.5434
     5         C         -0.9341      0.3547      0.2792
     6         C          3.1890      0.2484     -0.5334
     7         C          2.5885      1.3055      0.2927
     8         C         -1.9277     -0.6220     -0.2061
     9         C         -4.4424     -0.3545      0.4273
    10         C         -3.1860     -0.4883      0.1107
    11         H          0.4751     -0.8006     -1.8621
    12         H          0.7403     -1.8042     -0.3853
    13         H          2.9345     -1.4856     -1.6660
    14         H         -1.2965      1.1697      0.8981
    15         H          0.8802      2.1271      1.1579
    16         H          3.2256      2.0784      0.7036
    17         H          4.2564      0.2658     -0.7132
    18         H         -1.6417     -1.4599     -0.8268
    19         H         -5.1692     -1.0714      0.0707
    20         H         -4.7581      0.4737      1.0468

  H: (PM3): J. J. P. STEWART, J. COMP. CHEM. 10, 209 (1989).
  C: (PM3): J. J. P. STEWART, J. COMP. CHEM. 10, 209 (1989).

           Empirical Formula: C10 H10  =    20 atoms



      MOLECULAR POINT GROUP   :   C1  


      RHF CALCULATION, NO. OF DOUBLY OCCUPIED LEVELS = 25


          Geometry optimization using EF

          DIAGONAL MATRIX USED AS START HESSIAN

 CYCLE:     1 TIME:   0.012 TIME LEFT:  2.00D  GRAD.:   103.288 HEAT:  141.5589
 CYCLE:     2 TIME:   0.016 TIME LEFT:  2.00D  GRAD.:   164.367 HEAT:  137.4316
 CYCLE:     3 TIME:   0.008 TIME LEFT:  2.00D  GRAD.:   137.430 HEAT:  131.8136
 CYCLE:     4 TIME:   0.008 TIME LEFT:  2.00D  GRAD.:   219.341 HEAT:  130.5285
 CYCLE:     5 TIME:   0.008 TIME LEFT:  2.00D  GRAD.:   203.329 HEAT:  122.3190
 CYCLE:     6 TIME:   0.012 TIME LEFT:  2.00D  GRAD.:   158.436 HEAT:  116.5916
 CYCLE:     7 TIME:   0.008 TIME LEFT:  2.00D  GRAD.:   107.944 HEAT:  110.6138
 CYCLE:     8 TIME:   0.008 TIME LEFT:  2.00D  GRAD.:   213.693 HEAT:  109.7548
 CYCLE:     9 TIME:   0.008 TIME LEFT:  2.00D  GRAD.:   156.023 HEAT:  104.6485
 CYCLE:    10 TIME:   0.008 TIME LEFT:  2.00D  GRAD.:   198.681 HEAT:  104.3411
 CYCLE:    11 TIME:   0.004 TIME LEFT:  2.00D  GRAD.:   185.280 HEAT:  102.2910
 CYCLE:    12 TIME:   0.008 TIME LEFT:  2.00D  GRAD.:   155.846 HEAT:  97.56153
 CYCLE:    13 TIME:   0.008 TIME LEFT:  2.00D  GRAD.:   157.593 HEAT:  96.63104
 CYCLE:    14 TIME:   0.012 TIME LEFT:  2.00D  GRAD.:    67.546 HEAT:  91.69152
 CYCLE:    15 TIME:   0.016 TIME LEFT:  2.00D  GRAD.:    50.957 HEAT:  90.93638
 CYCLE:    16 TIME:   0.008 TIME LEFT:  2.00D  GRAD.:    49.420 HEAT:  90.42443
 CYCLE:    17 TIME:   0.008 TIME LEFT:  2.00D  GRAD.:    46.712 HEAT:  89.99814
 CYCLE:    18 TIME:   0.008 TIME LEFT:  2.00D  GRAD.:    26.548 HEAT:  89.36483
 CYCLE:    19 TIME:   0.008 TIME LEFT:  2.00D  GRAD.:    43.305 HEAT:  89.18881
 CYCLE:    20 TIME:   0.008 TIME LEFT:  2.00D  GRAD.:    35.664 HEAT:  88.61210
 CYCLE:    21 TIME:   0.016 TIME LEFT:  2.00D  GRAD.:    26.320 HEAT:  88.41839
 CYCLE:    22 TIME:   0.008 TIME LEFT:  2.00D  GRAD.:    19.622 HEAT:  88.25118
 CYCLE:    23 TIME:   0.008 TIME LEFT:  2.00D  GRAD.:    13.507 HEAT:  88.01496
 CYCLE:    24 TIME:   0.008 TIME LEFT:  2.00D  GRAD.:    16.234 HEAT:  87.76224
 CYCLE:    25 TIME:   0.008 TIME LEFT:  2.00D  GRAD.:    19.457 HEAT:  87.32570
 CYCLE:    26 TIME:   0.008 TIME LEFT:  2.00D  GRAD.:    37.686 HEAT:  86.92568
 CYCLE:    27 TIME:   0.008 TIME LEFT:  2.00D  GRAD.:    18.929 HEAT:  86.60846
 CYCLE:    28 TIME:   0.008 TIME LEFT:  2.00D  GRAD.:    19.500 HEAT:  86.51098
 CYCLE:    29 TIME:   0.012 TIME LEFT:  2.00D  GRAD.:     8.909 HEAT:  86.29492
 CYCLE:    30 TIME:   0.008 TIME LEFT:  2.00D  GRAD.:    11.745 HEAT:  86.17227
 CYCLE:    31 TIME:   0.008 TIME LEFT:  2.00D  GRAD.:    11.835 HEAT:  86.04314
 CYCLE:    32 TIME:   0.008 TIME LEFT:  2.00D  GRAD.:     9.460 HEAT:  85.94095
 CYCLE:    33 TIME:   0.004 TIME LEFT:  2.00D  GRAD.:     7.139 HEAT:  85.90341
 CYCLE:    34 TIME:   0.012 TIME LEFT:  2.00D  GRAD.:     4.156 HEAT:  85.86929
 CYCLE:    35 TIME:   0.008 TIME LEFT:  2.00D  GRAD.:     3.354 HEAT:  85.83398
 CYCLE:    36 TIME:   0.004 TIME LEFT:  2.00D  GRAD.:     6.141 HEAT:  85.80615
 CYCLE:    37 TIME:   0.008 TIME LEFT:  2.00D  GRAD.:     4.336 HEAT:  85.78227
 CYCLE:    38 TIME:   0.008 TIME LEFT:  2.00D  GRAD.:     3.366 HEAT:  85.76238
 CYCLE:    39 TIME:   0.004 TIME LEFT:  2.00D  GRAD.:     3.444 HEAT:  85.74760
 CYCLE:    40 TIME:   0.012 TIME LEFT:  2.00D  GRAD.:     2.523 HEAT:  85.73708
 CYCLE:    41 TIME:   0.004 TIME LEFT:  2.00D  GRAD.:     2.026 HEAT:  85.72925
 CYCLE:    42 TIME:   0.008 TIME LEFT:  2.00D  GRAD.:     1.614 HEAT:  85.72449
 CYCLE:    43 TIME:   0.008 TIME LEFT:  2.00D  GRAD.:     1.250 HEAT:  85.72168
 CYCLE:    44 TIME:   0.008 TIME LEFT:  2.00D  GRAD.:     1.106 HEAT:  85.71913
 CYCLE:    45 TIME:   0.004 TIME LEFT:  2.00D  GRAD.:     0.986 HEAT:  85.71765
 CYCLE:    46 TIME:   0.012 TIME LEFT:  2.00D  GRAD.:     0.870 HEAT:  85.71614
 CYCLE:    47 TIME:   0.008 TIME LEFT:  2.00D  GRAD.:     0.840 HEAT:  85.71479
 CYCLE:    48 TIME:   0.004 TIME LEFT:  2.00D  GRAD.:     0.974 HEAT:  85.71333
 CYCLE:    49 TIME:   0.008 TIME LEFT:  2.00D  GRAD.:     0.921 HEAT:  85.71197
 CYCLE:    50 TIME:   0.008 TIME LEFT:  2.00D  GRAD.:     0.854 HEAT:  85.71041
 CYCLE:    51 TIME:   0.008 TIME LEFT:  2.00D  GRAD.:     1.034 HEAT:  85.70867
 CYCLE:    52 TIME:   0.008 TIME LEFT:  2.00D  GRAD.:     1.256 HEAT:  85.70646
 CYCLE:    53 TIME:   0.008 TIME LEFT:  2.00D  GRAD.:     1.451 HEAT:  85.70360
 CYCLE:    54 TIME:   0.004 TIME LEFT:  2.00D  GRAD.:     1.320 HEAT:  85.70070
 CYCLE:    55 TIME:   0.008 TIME LEFT:  2.00D  GRAD.:     1.341 HEAT:  85.69744
 CYCLE:    56 TIME:   0.008 TIME LEFT:  2.00D  GRAD.:     1.360 HEAT:  85.69420
 CYCLE:    57 TIME:   0.008 TIME LEFT:  2.00D  GRAD.:     1.457 HEAT:  85.68993
 CYCLE:    58 TIME:   0.008 TIME LEFT:  2.00D  GRAD.:     1.359 HEAT:  85.68632
 CYCLE:    59 TIME:   0.008 TIME LEFT:  2.00D  GRAD.:     1.271 HEAT:  85.68311
 CYCLE:    60 TIME:   0.004 TIME LEFT:  2.00D  GRAD.:     1.262 HEAT:  85.68020
 CYCLE:    61 TIME:   0.008 TIME LEFT:  2.00D  GRAD.:     1.291 HEAT:  85.67743
 CYCLE:    62 TIME:   0.008 TIME LEFT:  2.00D  GRAD.:     1.212 HEAT:  85.67459
 CYCLE:    63 TIME:   0.008 TIME LEFT:  2.00D  GRAD.:     0.891 HEAT:  85.67186
 CYCLE:    64 TIME:   0.008 TIME LEFT:  2.00D  GRAD.:     0.717 HEAT:  85.67012
 CYCLE:    65 TIME:   0.008 TIME LEFT:  2.00D  GRAD.:     0.694 HEAT:  85.66903
 CYCLE:    66 TIME:   0.008 TIME LEFT:  2.00D  GRAD.:     0.632 HEAT:  85.66825
 CYCLE:    67 TIME:   0.008 TIME LEFT:  2.00D  GRAD.:     0.507 HEAT:  85.66752
 CYCLE:    68 TIME:   0.004 TIME LEFT:  2.00D  GRAD.:     0.466 HEAT:  85.66696
 CYCLE:    69 TIME:   0.008 TIME LEFT:  2.00D  GRAD.:     0.460 HEAT:  85.66652
 CYCLE:    70 TIME:   0.008 TIME LEFT:  2.00D  GRAD.:     0.454 HEAT:  85.66603
 CYCLE:    71 TIME:   0.008 TIME LEFT:  2.00D  GRAD.:     0.410 HEAT:  85.66563
 CYCLE:    72 TIME:   0.004 TIME LEFT:  2.00D  GRAD.:     0.288 HEAT:  85.66531
 CYCLE:    73 TIME:   0.008 TIME LEFT:  2.00D  GRAD.:     0.291 HEAT:  85.66507
 CYCLE:    74 TIME:   0.008 TIME LEFT:  2.00D  GRAD.:     0.262 HEAT:  85.66490
 CYCLE:    75 TIME:   0.008 TIME LEFT:  2.00D  GRAD.:     0.260 HEAT:  85.66467
 CYCLE:    76 TIME:   0.004 TIME LEFT:  2.00D  GRAD.:     0.196 HEAT:  85.66457
 CYCLE:    77 TIME:   0.008 TIME LEFT:  2.00D  GRAD.:     0.212 HEAT:  85.66442
 CYCLE:    78 TIME:   0.008 TIME LEFT:  2.00D  GRAD.:     0.289 HEAT:  85.66430
 CYCLE:    79 TIME:   0.004 TIME LEFT:  2.00D  GRAD.:     0.361 HEAT:  85.66416
 CYCLE:    80 TIME:   0.008 TIME LEFT:  2.00D  GRAD.:     0.406 HEAT:  85.66377
 CYCLE:    81 TIME:   0.008 TIME LEFT:  2.00D  GRAD.:     0.356 HEAT:  85.66342
 CYCLE:    82 TIME:   0.008 TIME LEFT:  2.00D  GRAD.:     0.323 HEAT:  85.66314
 CYCLE:    83 TIME:   0.004 TIME LEFT:  2.00D  GRAD.:     0.323 HEAT:  85.66292
 CYCLE:    84 TIME:   0.008 TIME LEFT:  2.00D  GRAD.:     0.320 HEAT:  85.66270
 CYCLE:    85 TIME:   0.008 TIME LEFT:  2.00D  GRAD.:     0.267 HEAT:  85.66242
 CYCLE:    86 TIME:   0.008 TIME LEFT:  2.00D  GRAD.:     0.187 HEAT:  85.66229
 CYCLE:    87 TIME:   0.004 TIME LEFT:  2.00D  GRAD.:     0.132 HEAT:  85.66220
 CYCLE:    88 TIME:   0.008 TIME LEFT:  2.00D  GRAD.:     0.110 HEAT:  85.66216
 CYCLE:    89 TIME:   0.008 TIME LEFT:  2.00D  GRAD.:     0.108 HEAT:  85.66211
 CYCLE:    90 TIME:   0.004 TIME LEFT:  2.00D  GRAD.:     0.125 HEAT:  85.66207
 CYCLE:    91 TIME:   0.008 TIME LEFT:  2.00D  GRAD.:     0.214 HEAT:  85.66201
 CYCLE:    92 TIME:   0.008 TIME LEFT:  2.00D  GRAD.:     0.219 HEAT:  85.66193
 CYCLE:    93 TIME:   0.008 TIME LEFT:  2.00D  GRAD.:     0.254 HEAT:  85.66166
 CYCLE:    94 TIME:   0.008 TIME LEFT:  2.00D  GRAD.:     0.374 HEAT:  85.66135
 CYCLE:    95 TIME:   0.008 TIME LEFT:  2.00D  GRAD.:     0.436 HEAT:  85.66116
 CYCLE:    96 TIME:   0.008 TIME LEFT:  2.00D  GRAD.:     0.390 HEAT:  85.66077
 CYCLE:    97 TIME:   0.008 TIME LEFT:  2.00D  GRAD.:     0.490 HEAT:  85.66004
 CYCLE:    98 TIME:   0.008 TIME LEFT:  2.00D  GRAD.:     0.558 HEAT:  85.65941
 CYCLE:    99 TIME:   0.008 TIME LEFT:  2.00D  GRAD.:     0.640 HEAT:  85.65788
 CYCLE:   100 TIME:   0.008 TIME LEFT:  2.00D  GRAD.:     0.360 HEAT:  85.65720
 CYCLE:   101 TIME:   0.008 TIME LEFT:  2.00D  GRAD.:     0.481 HEAT:  85.65658
 CYCLE:   102 TIME:   0.008 TIME LEFT:  2.00D  GRAD.:     0.332 HEAT:  85.65646
 CYCLE:   103 TIME:   0.008 TIME LEFT:  2.00D  GRAD.:     0.301 HEAT:  85.65629
 CYCLE:   104 TIME:   0.012 TIME LEFT:  2.00D  GRAD.:     0.168 HEAT:  85.65617
 CYCLE:   105 TIME:   0.004 TIME LEFT:  2.00D  GRAD.:     0.108 HEAT:  85.65612
 CYCLE:   106 TIME:   0.008 TIME LEFT:  2.00D  GRAD.:     0.684 HEAT:  85.65854
 CYCLE:   107 TIME:   0.008 TIME LEFT:  2.00D  GRAD.:     0.162 HEAT:  85.65613
 CYCLE:   108 TIME:   0.008 TIME LEFT:  2.00D  GRAD.:     0.099 HEAT:  85.65611
 CYCLE:   109 TIME:   0.008 TIME LEFT:  2.00D  GRAD.:     0.139 HEAT:  85.65612
 CYCLE:   110 TIME:   0.008 TIME LEFT:  2.00D  GRAD.:     0.096 HEAT:  85.65610
 CYCLE:   111 TIME:   0.004 TIME LEFT:  2.00D  GRAD.:     0.045 HEAT:  85.65609

     GRADIENT =  0.04477 IS LESS THAN CUTOFF =  0.05000



 -------------------------------------------------------------------------------
 pm3  precise nosym THREADS=1
 InChI=1S/C10H10/c1-2-3-7-10-8-5-4-6-9-10/h3-8H,1,9H2



     GEOMETRY OPTIMISED USING EIGENVECTOR FOLLOWING (EF).     
     SCF FIELD WAS ACHIEVED                                   


                              PM3 CALCULATION
                                                       MOPAC v23.1.2 MacOS
                                                       Tue Jun  3 16:31:13 2025




          FINAL HEAT OF FORMATION =         85.65609 KCAL/MOL =     358.38509 KJ/MOL


          COSMO AREA              =        186.82 SQUARE ANGSTROMS
          COSMO VOLUME            =        181.89 CUBIC ANGSTROMS

          GRADIENT NORM           =          0.04477          =       0.01001 PER ATOM
          IONIZATION POTENTIAL    =          8.233283 EV
          HOMO LUMO ENERGIES (EV) =         -8.233 -0.520
          NO. OF FILLED LEVELS    =         25
          MOLECULAR WEIGHT        =        130.1890         POINT GROUP:  C1  

          MOLECULAR DIMENSIONS (Angstroms)

            Atom       Atom       Distance
            H    20    H    17     9.43714
            H    15    H    13     4.52580
            H    12    H    19     2.28077


          SCF CALCULATIONS        =        118

          WALL-CLOCK TIME         =      0.867 SECONDS
          COMPUTATION TIME        =      0.543 SECONDS




   ATOM   CHEMICAL          X               Y               Z
  NUMBER   SYMBOL      (ANGSTROMS)     (ANGSTROMS)     (ANGSTROMS)

     1       C          0.97951700  *  -0.83235162  *  -0.79813516  *
     2       C          0.38359818  *   0.29295908  *  -0.01561143  *
     3       C          2.44692803  *  -0.75349058  *  -1.00667110  *
     4       C          1.27105025  *   1.34379427  *   0.46432081  *
     5       C         -0.93652968  *   0.36985864  *   0.25991369  *
     6       C          3.19648064  *   0.25015355  *  -0.53157914  *
     7       C          2.59326551  *   1.32636089  *   0.22340655  *
     8       C         -1.91859815  *  -0.61100044  *  -0.16134701  *
     9       C         -4.44597397  *  -0.37060744  *   0.41422804  *
    10       C         -3.18821780  *  -0.48600385  *   0.13036641  *
    11       H          0.48912887  *  -0.88893508  *  -1.79326428  *
    12       H          0.75113329  *  -1.79432173  *  -0.29171912  *
    13       H          2.89560226  *  -1.57268015  *  -1.57957802  *
    14       H         -1.31947192  *   1.22062285  *   0.83954654  *
    15       H          0.81755826  *   2.16188561  *   1.03725522  *
    16       H          3.24819485  *   2.12320931  *   0.59039289  *
    17       H          4.27775459  *   0.28586354  *  -0.69878504  *
    18       H         -1.58814493  *  -1.48286578  *  -0.74110387  *
    19       H         -5.14400364  *   0.14865599  *  -0.23719554  *
    20       H         -4.87822419  *  -0.78635659  *   1.32061852  *

                             CARTESIAN COORDINATES

   1    C        0.979517004    -0.832351620    -0.798135164
   2    C        0.383598179     0.292959077    -0.015611429
   3    C        2.446928025    -0.753490579    -1.006671095
   4    C        1.271050255     1.343794269     0.464320813
   5    C       -0.936529679     0.369858645     0.259913691
   6    C        3.196480642     0.250153545    -0.531579143
   7    C        2.593265513     1.326360886     0.223406547
   8    C       -1.918598155    -0.611000441    -0.161347013
   9    C       -4.445973969    -0.370607438     0.414228045
  10    C       -3.188217799    -0.486003850     0.130366409
  11    H        0.489128874    -0.888935084    -1.793264282
  12    H        0.751133291    -1.794321735    -0.291719116
  13    H        2.895602261    -1.572680153    -1.579578018
  14    H       -1.319471917     1.220622849     0.839546538
  15    H        0.817558257     2.161885609     1.037255220
  16    H        3.248194853     2.123209306     0.590392889
  17    H        4.277754586     0.285863539    -0.698785038
  18    H       -1.588144928    -1.482865783    -0.741103870
  19    H       -5.144003637     0.148655989    -0.237195541
  20    H       -4.878224192    -0.786356589     1.320618520


           Empirical Formula: C10 H10  =    20 atoms



      MOLECULAR POINT GROUP   :   C1  


                  EIGENVALUES  
 -40.02114 -35.11909 -31.36530 -30.34697 -27.29594 -24.05574 -21.61876 -19.82903
 -17.94029 -17.78028 -16.69891 -15.90055 -15.38965 -15.26710 -14.98484 -14.83539
 -14.40345 -13.37106 -12.62191 -11.98844 -11.84782 -11.43941 -10.37428  -9.93858
  -8.23328  -0.51960   0.71332   1.07260   1.81346   2.44463   2.91634   3.16781
   3.34124   3.38267   3.62467   3.73372   3.83342   4.12587   4.16538   4.36690
   4.42474   4.72351   4.82364   4.88650   5.24015   5.37273   5.73054   6.11107
   6.25918   6.50772


              NET ATOMIC CHARGES AND DIPOLE CONTRIBUTIONS

  ATOM NO.   TYPE          CHARGE      No. of ELECS.   s-Pop       p-Pop       
    1          C          -0.020098        4.0201     1.13114     2.88896
    2          C          -0.070739        4.0707     1.18253     2.88821
    3          C          -0.128313        4.1283     1.19571     2.93261
    4          C          -0.095676        4.0957     1.18184     2.91383
    5          C          -0.110767        4.1108     1.17751     2.93325
    6          C          -0.116221        4.1162     1.17792     2.93830
    7          C          -0.095488        4.0955     1.17974     2.91575
    8          C          -0.051372        4.0514     1.14423     2.90714
    9          C          -0.095553        4.0956     1.14695     2.94860
   10          C          -0.167013        4.1670     1.21643     2.95059
   11          H           0.067674        0.9323     0.93233
   12          H           0.067669        0.9323     0.93233
   13          H           0.098754        0.9012     0.90125
   14          H           0.105303        0.8947     0.89470
   15          H           0.102394        0.8976     0.89761
   16          H           0.101533        0.8985     0.89847
   17          H           0.102862        0.8971     0.89714
   18          H           0.112292        0.8877     0.88771
   19          H           0.096380        0.9036     0.90362
   20          H           0.096378        0.9036     0.90362
 DIPOLE           X         Y         Z       TOTAL
 POINT-CHG.    -0.008    -0.262    -0.157     0.306
 HYBRID        -0.071    -0.032    -0.008     0.078
 SUM           -0.079    -0.295    -0.165     0.347


          ATOMIC ORBITAL ELECTRON POPULATIONS

     Atom    s        px        py        pz   
    1  C   1.13114   0.93609   0.96571   0.98716
    2  C   1.18253   0.94322   0.95986   0.98514
    3  C   1.19571   0.95837   0.98174   0.99249
    4  C   1.18184   0.94780   0.97073   0.99530
    5  C   1.17751   0.92820   0.98761   1.01744
    6  C   1.17792   0.98219   0.95962   0.99649
    7  C   1.17974   0.95596   0.97482   0.98497
    8  C   1.14423   0.89891   0.98988   1.01835
    9  C   1.14695   0.91993   1.02157   1.00710
   10  C   1.21643   0.96776   0.99174   0.99109
   11  H   0.93233
   12  H   0.93233
   13  H   0.90125
   14  H   0.89470
   15  H   0.89761
   16  H   0.89847
   17  H   0.89714
   18  H   0.88771
   19  H   0.90362
   20  H   0.90362
 *******************************************************************************
 **                                                                           **
 **                              MOPAC v23.1.2                                **
 **                                                                           **
 *******************************************************************************
 **          Digital Object Identifier (DOI): 10.5281/zenodo.6511958          **
 **    Visit the DOI location for information on how to cite this program.    **
 *******************************************************************************

                              PM3 CALCULATION RESULTS

 *******************************************************************************
 *  CALCULATION DONE: (MAX THREADS = 1)              Tue Jun  3 16:31:13 2025  *
 *  PM3        - The PM3 Hamiltonian to be used
 *  OLDGEO     - PREVIOUS GEOMETRY TO BE USED
 *  PRECISE    - TIGHTER CRITERIA TO BE USED
 *  NOSYM      - POINT-GROUP SYMMETRY SET TO C1
 *  THREADS=1  - MULTI-THREADING NOT USED
 *  T=         - A TIME OF 172800.0 SECONDS REQUESTED
 *  DUMP=N     - RESTART FILE WRITTEN EVERY 7200.0 SECONDS REQUESTED
 *  THERMO     - THERMODYNAMIC QUANTITIES TO BE CALCULATED
 *******************************************************************************
oldgeo thermo nosym precise THREADS=1  pm3
 InChI=1S/C10H10/c1-2-3-7-10-8-5-4-6-9-10/h3-8H,1,9H2

   ATOM   CHEMICAL          X               Y               Z
  NUMBER   SYMBOL      (ANGSTROMS)     (ANGSTROMS)     (ANGSTROMS)

     1       C          0.97951700  *  -0.83235162  *  -0.79813516  *
     2       C          0.38359818  *   0.29295908  *  -0.01561143  *
     3       C          2.44692803  *  -0.75349058  *  -1.00667110  *
     4       C          1.27105025  *   1.34379427  *   0.46432081  *
     5       C         -0.93652968  *   0.36985864  *   0.25991369  *
     6       C          3.19648064  *   0.25015355  *  -0.53157914  *
     7       C          2.59326551  *   1.32636089  *   0.22340655  *
     8       C         -1.91859815  *  -0.61100044  *  -0.16134701  *
     9       C         -4.44597397  *  -0.37060744  *   0.41422804  *
    10       C         -3.18821780  *  -0.48600385  *   0.13036641  *
    11       H          0.48912887  *  -0.88893508  *  -1.79326428  *
    12       H          0.75113329  *  -1.79432173  *  -0.29171912  *
    13       H          2.89560226  *  -1.57268015  *  -1.57957802  *
    14       H         -1.31947192  *   1.22062285  *   0.83954654  *
    15       H          0.81755826  *   2.16188561  *   1.03725522  *
    16       H          3.24819485  *   2.12320931  *   0.59039289  *
    17       H          4.27775459  *   0.28586354  *  -0.69878504  *
    18       H         -1.58814493  *  -1.48286578  *  -0.74110387  *
    19       H         -5.14400364  *   0.14865599  *  -0.23719554  *
    20       H         -4.87822419  *  -0.78635659  *   1.32061852  *



          CARTESIAN COORDINATES 

    NO.       ATOM           X           Y           Z

     1         C          0.9795     -0.8324     -0.7981
     2         C          0.3836      0.2930     -0.0156
     3         C          2.4469     -0.7535     -1.0067
     4         C          1.2711      1.3438      0.4643
     5         C         -0.9365      0.3699      0.2599
     6         C          3.1965      0.2502     -0.5316
     7         C          2.5933      1.3264      0.2234
     8         C         -1.9186     -0.6110     -0.1613
     9         C         -4.4460     -0.3706      0.4142
    10         C         -3.1882     -0.4860      0.1304
    11         H          0.4891     -0.8889     -1.7933
    12         H          0.7511     -1.7943     -0.2917
    13         H          2.8956     -1.5727     -1.5796
    14         H         -1.3195      1.2206      0.8395
    15         H          0.8176      2.1619      1.0373
    16         H          3.2482      2.1232      0.5904
    17         H          4.2778      0.2859     -0.6988
    18         H         -1.5881     -1.4829     -0.7411
    19         H         -5.1440      0.1487     -0.2372
    20         H         -4.8782     -0.7864      1.3206

  H: (PM3): J. J. P. STEWART, J. COMP. CHEM. 10, 209 (1989).
  C: (PM3): J. J. P. STEWART, J. COMP. CHEM. 10, 209 (1989).

           Empirical Formula: C10 H10  =    20 atoms



      MOLECULAR POINT GROUP   :   C1  


      RHF CALCULATION, NO. OF DOUBLY OCCUPIED LEVELS = 25



          HEAT OF FORMATION =      85.656092 KCALS/MOLE


          CARTESIAN COORDINATE DERIVATIVES

   NUMBER  ATOM         X            Y            Z

     1       C     -0.005468     0.004839     0.000575
     2       C     -0.004546    -0.000132    -0.004864
     3       C      0.006372    -0.004058     0.001814
     4       C     -0.002157     0.009762    -0.001006
     5       C      0.000620    -0.003419     0.001871
     6       C     -0.004034     0.000748    -0.001721
     7       C      0.000293    -0.004942    -0.002669
     8       C      0.001695    -0.010702     0.002204
     9       C     -0.011249     0.008467     0.001070
    10       C      0.008514    -0.011295    -0.001027
    11       H     -0.000732     0.010511    -0.005030
    12       H     -0.002520     0.005289     0.001157
    13       H      0.006446    -0.009912     0.003013
    14       H      0.002180    -0.004279     0.000249
    15       H     -0.002368     0.002988     0.001406
    16       H      0.003186    -0.002112     0.002036
    17       H      0.000517    -0.004012     0.001847
    18       H      0.008495     0.000699    -0.001329
    19       H     -0.003585     0.005304    -0.013797
    20       H     -0.001659     0.006254     0.014200



          GRADIENT NORM =   0.04240

          MOLECULAR WEIGHT =  130.19



          ROTATIONAL CONSTANTS IN CM(-1)

          A =    0.15403031   B =    0.02007946   C =    0.01788755



           PRINCIPAL MOMENTS OF INERTIA IN UNITS OF 10**(-40)*GRAM-CM**2

          A =      181.7354   B =     1394.0989   C =     1564.9295


          ORIENTATION OF MOLECULE IN FORCE CALCULATION

    NO.       ATOM         X         Y         Z

     1          C      -1.4002    0.4301   -0.0018
     2          C       0.0943    0.4301   -0.0018
     3          C      -2.0351    1.7717   -0.0018
     4          C       0.7830    1.7138   -0.0028
     5          C       0.8229   -0.7074   -0.0008
     6          C      -1.3296    2.9105   -0.0024
     7          C       0.1165    2.8810   -0.0031
     8          C       0.2553   -2.0423    0.0003
     9          C       1.7454   -4.1769    0.0091
    10          C       1.0084   -3.1126    0.0047
    11          H      -1.7683   -0.1292    0.8846
    12          H      -1.7683   -0.1292   -0.8882
    13          H      -3.1308    1.7848   -0.0012
    14          H       1.9196   -0.6473   -0.0006
    15          H       1.8797    1.6958   -0.0032
    16          H       0.6475    3.8384   -0.0038
    17          H      -1.8214    3.8886   -0.0024
    18          H      -0.8364   -2.1586   -0.0028
    19          H       2.0736   -4.6532    0.9292
    20          H       2.0793   -4.6570   -0.9070


    FIRST DERIVATIVES WILL BE USED IN THE CALCULATION OF SECOND DERIVATIVES

          ESTIMATED TIME TO COMPLETE CALCULATION =        1.88 SECONDS

    FOR POINT-GROUP C1   THERE ARE   1 UNIQUE SYMMETRY FUNCTIONS.

 STEP:   1 TIME =     0.02 SECS, INTEGRAL =      0.02 TIME LEFT: 172799.97
 STEP:   2 TIME =     0.02 SECS, INTEGRAL =      0.04 TIME LEFT: 172799.95
 STEP:   3 TIME =     0.02 SECS, INTEGRAL =      0.06 TIME LEFT: 172799.93
 STEP:   4 TIME =     0.02 SECS, INTEGRAL =      0.08 TIME LEFT: 172799.91
 STEP:   5 TIME =     0.02 SECS, INTEGRAL =      0.10 TIME LEFT: 172799.89
 STEP:   6 TIME =     0.02 SECS, INTEGRAL =      0.12 TIME LEFT: 172799.87
 STEP:   7 TIME =     0.02 SECS, INTEGRAL =      0.14 TIME LEFT: 172799.85
 STEP:   8 TIME =     0.02 SECS, INTEGRAL =      0.16 TIME LEFT: 172799.83
 STEP:   9 TIME =     0.02 SECS, INTEGRAL =      0.18 TIME LEFT: 172799.81
 STEP:  10 TIME =     0.02 SECS, INTEGRAL =      0.20 TIME LEFT: 172799.79
 STEP:  11 TIME =     0.02 SECS, INTEGRAL =      0.22 TIME LEFT: 172799.77
 STEP:  12 TIME =     0.02 SECS, INTEGRAL =      0.24 TIME LEFT: 172799.75
 STEP:  13 TIME =     0.02 SECS, INTEGRAL =      0.26 TIME LEFT: 172799.73
 STEP:  14 TIME =     0.02 SECS, INTEGRAL =      0.28 TIME LEFT: 172799.71
 STEP:  15 TIME =     0.02 SECS, INTEGRAL =      0.30 TIME LEFT: 172799.70
 STEP:  16 TIME =     0.02 SECS, INTEGRAL =      0.32 TIME LEFT: 172799.68
 STEP:  17 TIME =     0.02 SECS, INTEGRAL =      0.34 TIME LEFT: 172799.66
 STEP:  18 TIME =     0.02 SECS, INTEGRAL =      0.36 TIME LEFT: 172799.63
 STEP:  19 TIME =     0.02 SECS, INTEGRAL =      0.38 TIME LEFT: 172799.61
 STEP:  20 TIME =     0.02 SECS, INTEGRAL =      0.40 TIME LEFT: 172799.59
 STEP:  21 TIME =     0.02 SECS, INTEGRAL =      0.42 TIME LEFT: 172799.57
 STEP:  22 TIME =     0.02 SECS, INTEGRAL =      0.44 TIME LEFT: 172799.55
 STEP:  23 TIME =     0.02 SECS, INTEGRAL =      0.46 TIME LEFT: 172799.54
 STEP:  24 TIME =     0.02 SECS, INTEGRAL =      0.48 TIME LEFT: 172799.51
 STEP:  25 TIME =     0.02 SECS, INTEGRAL =      0.50 TIME LEFT: 172799.49
 STEP:  26 TIME =     0.02 SECS, INTEGRAL =      0.52 TIME LEFT: 172799.47
 STEP:  27 TIME =     0.02 SECS, INTEGRAL =      0.54 TIME LEFT: 172799.45
 STEP:  28 TIME =     0.02 SECS, INTEGRAL =      0.56 TIME LEFT: 172799.43
 STEP:  29 TIME =     0.02 SECS, INTEGRAL =      0.58 TIME LEFT: 172799.41
 STEP:  30 TIME =     0.02 SECS, INTEGRAL =      0.60 TIME LEFT: 172799.39
 STEP:  31 TIME =     0.02 SECS, INTEGRAL =      0.62 TIME LEFT: 172799.38
 STEP:  32 TIME =     0.02 SECS, INTEGRAL =      0.64 TIME LEFT: 172799.36
 STEP:  33 TIME =     0.02 SECS, INTEGRAL =      0.66 TIME LEFT: 172799.34
 STEP:  34 TIME =     0.02 SECS, INTEGRAL =      0.68 TIME LEFT: 172799.32
 STEP:  35 TIME =     0.02 SECS, INTEGRAL =      0.70 TIME LEFT: 172799.30
 STEP:  36 TIME =     0.02 SECS, INTEGRAL =      0.71 TIME LEFT: 172799.28
 STEP:  37 TIME =     0.02 SECS, INTEGRAL =      0.73 TIME LEFT: 172799.26
 STEP:  38 TIME =     0.02 SECS, INTEGRAL =      0.75 TIME LEFT: 172799.24
 STEP:  39 TIME =     0.02 SECS, INTEGRAL =      0.77 TIME LEFT: 172799.22
 STEP:  40 TIME =     0.02 SECS, INTEGRAL =      0.79 TIME LEFT: 172799.21
 STEP:  41 TIME =     0.02 SECS, INTEGRAL =      0.80 TIME LEFT: 172799.19
 STEP:  42 TIME =     0.02 SECS, INTEGRAL =      0.82 TIME LEFT: 172799.17
 STEP:  43 TIME =     0.02 SECS, INTEGRAL =      0.84 TIME LEFT: 172799.15
 STEP:  44 TIME =     0.02 SECS, INTEGRAL =      0.86 TIME LEFT: 172799.13
 STEP:  45 TIME =     0.02 SECS, INTEGRAL =      0.88 TIME LEFT: 172799.11
 STEP:  46 TIME =     0.02 SECS, INTEGRAL =      0.90 TIME LEFT: 172799.09
 STEP:  47 TIME =     0.02 SECS, INTEGRAL =      0.92 TIME LEFT: 172799.07
 STEP:  48 TIME =     0.02 SECS, INTEGRAL =      0.95 TIME LEFT: 172799.05
 STEP:  49 TIME =     0.02 SECS, INTEGRAL =      0.96 TIME LEFT: 172799.03
 STEP:  50 TIME =     0.02 SECS, INTEGRAL =      0.98 TIME LEFT: 172799.01
 STEP:  51 TIME =     0.02 SECS, INTEGRAL =      1.00 TIME LEFT: 172798.99
 STEP:  52 TIME =     0.02 SECS, INTEGRAL =      1.02 TIME LEFT: 172798.97
 STEP:  53 TIME =     0.02 SECS, INTEGRAL =      1.04 TIME LEFT: 172798.95
 STEP:  54 TIME =     0.02 SECS, INTEGRAL =      1.07 TIME LEFT: 172798.93
 STEP:  55 TIME =     0.02 SECS, INTEGRAL =      1.09 TIME LEFT: 172798.90
 STEP:  56 TIME =     0.02 SECS, INTEGRAL =      1.11 TIME LEFT: 172798.88
 STEP:  57 TIME =     0.02 SECS, INTEGRAL =      1.13 TIME LEFT: 172798.86
 STEP:  58 TIME =     0.02 SECS, INTEGRAL =      1.15 TIME LEFT: 172798.84
 STEP:  59 TIME =     0.02 SECS, INTEGRAL =      1.18 TIME LEFT: 172798.82
 STEP:  60 TIME =     0.02 SECS, INTEGRAL =      1.20 TIME LEFT: 172798.80

(To convert to Hartree/Bohr^2, multiply by (10^(-21) x N x a0^2)/(4.184 x 627.51) =  0.0642)


           FORCE MATRIX IN MILLIDYNES/ANGSTROM


                  C  1       C  2       C  3       C  4       C  5       C  6
 ------------------------------------------------------------------------------
     C    1  14.988930
     C    2   4.698054  18.356355
     C    3   5.017375   0.696949  18.004002
     C    4   0.617783   5.336949   0.235610  18.284881
     C    5   0.763432   9.432634   0.077830   1.235363  18.161796
     C    6   0.867481   0.196843  10.186818   1.201816   0.088354  18.359028
     C    7   0.145038   1.129364   1.223017   9.872912   0.195694   5.711702
     C    8   0.104931   1.090822   0.016520   0.165830   5.531606   0.028918
     C    9   0.002822   0.034452   0.000257   0.013352   0.115140   0.001823
     C   10   0.015939   0.164895   0.005395   0.058928   1.293887   0.010966
     H   11   4.339089   0.420588   0.414536   0.027788   0.033228   0.041927
     H   12   4.338483   0.420577   0.414542   0.027758   0.033208   0.041915
     H   13   0.422218   0.049812   4.829578   0.011035   0.009041   0.444932
     H   14   0.105918   0.448860   0.007673   0.092575   4.747610   0.006856
     H   15   0.042103   0.446802   0.011464   4.790063   0.056332   0.124536
     H   16   0.004424   0.119609   0.048717   0.439819   0.007288   0.435404
     H   17   0.123111   0.002611   0.444597   0.048961   0.001056   4.861141
     H   18   0.039054   0.020277   0.003403   0.006377   0.456360   0.002470
     H   19   0.005293   0.005064   0.000351   0.006903   0.082262   0.000664
     H   20   0.005295   0.005053   0.000351   0.006903   0.082265   0.000666


                  C  7       C  8       C  9       C 10       H 11       H 12
 ------------------------------------------------------------------------------
     C    7  18.232551
     C    8   0.061824  18.449009
     C    9   0.005347   0.792548  18.122493
     C   10   0.025881  11.015490  11.872315  24.618248
     H   11   0.015997   0.017585   0.001246   0.002516   4.926071
     H   12   0.016017   0.017693   0.001247   0.002509   0.563505   4.925534
     H   13   0.124984   0.002731   0.000462   0.000751   0.030585   0.030531
     H   14   0.006561   0.442235   0.005195   0.036050   0.012226   0.012249
     H   15   0.439619   0.003502   0.000738   0.001281   0.004355   0.004348
     H   16   4.860588   0.010463   0.000991   0.001332   0.001015   0.001016
     H   17   0.436801   0.000918   0.000490   0.000656   0.016161   0.016171
     H   18   0.002028   4.703214   0.044237   0.441217   0.028839   0.028788
     H   19   0.000862   0.047333   5.013548   0.479241   0.001309   0.001181
     H   20   0.000859   0.047296   5.013781   0.479264   0.001174   0.001317


                  H 13       H 14       H 15       H 16       H 17       H 18
 ------------------------------------------------------------------------------
     H   13   5.204851
     H   14   0.003517   5.117728
     H   15   0.009614   0.028406   5.163426
     H   16   0.007719   0.005059   0.064557   5.222966
     H   17   0.065703   0.000571   0.007237   0.031331   5.226679
     H   18   0.000647   0.035599   0.000782   0.000617   0.000419   5.089715
     H   19   0.000163   0.001654   0.000243   0.000599   0.000128   0.070664
     H   20   0.000163   0.001658   0.000248   0.000598   0.000128   0.070669


                  H 19       H 20
 ------------------------------
     H   19   5.393774
     H   20   0.408241   5.393884


          HEAT OF FORMATION =      85.656092 KCALS/MOLE

          ZERO POINT ENERGY     102.595 KCAL/MOL


           NORMAL COORDINATE ANALYSIS (Total motion = 1 Angstrom)


   Root No.       1         2         3         4         5         6         7         8

                 1 A       2 A       3 A       4 A       5 A       6 A       7 A       8 A   

                  27.2      75.4     110.4     178.4     237.6     284.3     341.2     399.7
  
           1    0.0001    0.0001   -0.0279   -0.0001   -0.0366   -0.0000   -0.0001   -0.0410
           2   -0.0001   -0.0001    0.0145    0.0000    0.0269    0.0000    0.0000   -0.0333
           3   -0.0174    0.0675    0.0001   -0.0092    0.0000   -0.0187   -0.0020    0.0000
           4    0.0001    0.0001   -0.0286   -0.0001   -0.0356    0.0000   -0.0001   -0.0405
           5   -0.0000    0.0001   -0.0154   -0.0000   -0.0043   -0.0000   -0.0000   -0.0049
           6   -0.0294    0.0252   -0.0000    0.0312   -0.0001    0.0083   -0.0123    0.0000
           7    0.0000   -0.0000    0.0022    0.0000   -0.0123    0.0000    0.0000   -0.0032
           8   -0.0001   -0.0001    0.0296    0.0001    0.0434    0.0000    0.0000   -0.0186
           9    0.0256   -0.0093   -0.0002    0.0329   -0.0001    0.0349    0.0119    0.0000
          10    0.0000    0.0000   -0.0007   -0.0000   -0.0231   -0.0000   -0.0000    0.0097
          11    0.0000    0.0001   -0.0299   -0.0001   -0.0086    0.0000   -0.0000   -0.0395
          12   -0.0165    0.0340    0.0003    0.0003   -0.0001    0.0472    0.0088    0.0001
          13    0.0001    0.0002   -0.0418   -0.0001   -0.0130    0.0000   -0.0000    0.0061
          14   -0.0000    0.0000   -0.0230    0.0000    0.0070   -0.0000    0.0000    0.0343
          15   -0.0485   -0.0224   -0.0003    0.0556   -0.0001   -0.0369   -0.0242    0.0001
          16   -0.0000   -0.0001    0.0265    0.0001    0.0036   -0.0000    0.0000    0.0340
          17   -0.0001   -0.0001    0.0148    0.0001    0.0341    0.0000    0.0000   -0.0406
          18    0.0431   -0.0462   -0.0001   -0.0043    0.0000   -0.0255   -0.0114   -0.0000
          19   -0.0000   -0.0001    0.0258    0.0000    0.0022   -0.0000    0.0000    0.0337
          20    0.0000    0.0000   -0.0153   -0.0001    0.0054    0.0000   -0.0000   -0.0333
          21    0.0186   -0.0041    0.0003   -0.0488    0.0001   -0.0203    0.0009    0.0000
          22    0.0001    0.0002   -0.0348    0.0000    0.0567    0.0000    0.0001    0.0135
          23   -0.0000    0.0000   -0.0260   -0.0001   -0.0205   -0.0000   -0.0000    0.0484
          24   -0.0583   -0.0471   -0.0003   -0.0308   -0.0000    0.0071   -0.0191    0.0000
          25   -0.0003   -0.0003    0.0683    0.0001   -0.0018   -0.0000    0.0001   -0.0326
          26    0.0002   -0.0000    0.0448    0.0001   -0.0655   -0.0001   -0.0001    0.0283
          27    0.0705    0.0137    0.0002   -0.0004    0.0002    0.0043   -0.0298   -0.0001
          28   -0.0001   -0.0000   -0.0009   -0.0000    0.0688    0.0001   -0.0002    0.0284
          29    0.0001    0.0000   -0.0031   -0.0001   -0.0146    0.0000    0.0003    0.0657
          30    0.0059   -0.0182   -0.0001   -0.0173   -0.0000   -0.0017    0.1105   -0.0001
          31    0.0069    0.0290   -0.0389   -0.0253   -0.0470   -0.0275    0.0055   -0.0434
          32   -0.0252    0.0622    0.0213   -0.0459    0.0327   -0.0641   -0.0131   -0.0326
          33   -0.0306    0.1187   -0.0002   -0.0492   -0.0011   -0.0714   -0.0084   -0.0005
          34   -0.0067   -0.0287   -0.0391    0.0250   -0.0472    0.0275   -0.0057   -0.0434
          35    0.0250   -0.0624    0.0208    0.0460    0.0324    0.0642    0.0131   -0.0326
          36   -0.0306    0.1187    0.0009   -0.0492    0.0014   -0.0714   -0.0084    0.0005
          37    0.0000   -0.0000    0.0025    0.0000   -0.0121    0.0000    0.0000   -0.0026
          38   -0.0002   -0.0002    0.0541    0.0002    0.0623    0.0000    0.0001    0.0216
          39    0.0426   -0.0330   -0.0005    0.0845   -0.0002    0.1004    0.0324    0.0001
          40    0.0001    0.0002   -0.0409   -0.0001   -0.0142    0.0000   -0.0000    0.0049
          41    0.0000    0.0000   -0.0264    0.0001    0.0466   -0.0001    0.0001    0.0595
          42   -0.0536   -0.0444   -0.0005    0.1135   -0.0002   -0.0781   -0.0336    0.0002
          43    0.0000    0.0000   -0.0010   -0.0000   -0.0228    0.0000   -0.0000    0.0095
          44    0.0001    0.0002   -0.0537   -0.0001   -0.0229    0.0001   -0.0000   -0.0778
          45   -0.0354    0.0654    0.0005   -0.0017   -0.0002    0.1189    0.0349    0.0002
          46   -0.0001   -0.0001    0.0467    0.0001    0.0235   -0.0000    0.0001    0.0402
          47    0.0000    0.0001   -0.0269   -0.0001   -0.0064   -0.0000   -0.0000   -0.0377
          48    0.0293   -0.0040    0.0005   -0.1073    0.0002   -0.0349    0.0154    0.0000
          49   -0.0001   -0.0002    0.0472    0.0001    0.0208   -0.0000    0.0000    0.0488
          50   -0.0001   -0.0001    0.0252    0.0001    0.0428    0.0000    0.0000   -0.0328
          51    0.0756   -0.1057   -0.0003    0.0101    0.0000   -0.0409   -0.0256   -0.0000
          52    0.0003    0.0003   -0.0327    0.0003    0.0590   -0.0002    0.0005    0.0152
          53   -0.0001    0.0000   -0.0381   -0.0002   -0.0519   -0.0000   -0.0003    0.0337
          54   -0.1199   -0.0894   -0.0002   -0.1280   -0.0001    0.0765   -0.1560    0.0002
          55   -0.0542   -0.0391    0.0986   -0.0805   -0.0330    0.0559   -0.0023   -0.0627
          56    0.0190    0.0014    0.0659   -0.0394   -0.0882    0.0458   -0.1804    0.0108
          57    0.0995    0.0283    0.0003    0.0080   -0.0002    0.0082   -0.1244    0.0011
          58    0.0534    0.0382    0.0988    0.0809   -0.0324   -0.0561    0.0029   -0.0630
          59   -0.0185   -0.0015    0.0657    0.0397   -0.0885   -0.0460    0.1796    0.0105
          60    0.0998    0.0285    0.0003    0.0083    0.0009    0.0080   -0.1251   -0.0015


   Root No.       9        10        11        12        13        14        15        16

                 9 A      10 A      11 A      12 A      13 A      14 A      15 A      16 A   

                 431.3     521.6     530.0     568.4     580.0     618.4     747.5     801.4
  
           1   -0.0000   -0.0000   -0.0137   -0.0000   -0.0285   -0.0286    0.0000    0.0000
           2    0.0000    0.0001    0.0114    0.0001   -0.0650    0.0182    0.0000    0.0000
           3    0.0002    0.0114   -0.0001   -0.0017    0.0000    0.0000   -0.0072    0.0311
           4    0.0000   -0.0000   -0.0039    0.0000   -0.0361   -0.0126    0.0000   -0.0000
           5    0.0000   -0.0001   -0.0378   -0.0001    0.0041    0.0544    0.0000   -0.0000
           6    0.0551    0.0655   -0.0004   -0.0044    0.0001   -0.0000    0.0271   -0.0112
           7   -0.0000   -0.0001   -0.0105   -0.0002    0.0668   -0.0638   -0.0000    0.0000
           8    0.0000    0.0001    0.0269    0.0001   -0.0251   -0.0079   -0.0000   -0.0000
           9   -0.0443    0.0043    0.0000   -0.0052   -0.0000    0.0000   -0.0209    0.0067
          10   -0.0000   -0.0001   -0.0290   -0.0000   -0.0521    0.0679   -0.0000   -0.0000
          11   -0.0000   -0.0002   -0.0368   -0.0002    0.0307    0.0246   -0.0000   -0.0000
          12    0.0197   -0.0371    0.0002    0.0090    0.0000   -0.0000   -0.0211   -0.0277
          13    0.0000    0.0003    0.0806    0.0004   -0.0057   -0.0242   -0.0000   -0.0000
          14   -0.0000    0.0000    0.0103    0.0001    0.0195    0.0409   -0.0000    0.0000
          15   -0.0243   -0.0087    0.0002   -0.0238   -0.0001   -0.0001    0.0094    0.0099
          16    0.0000   -0.0000   -0.0092   -0.0000    0.0323    0.0148   -0.0000    0.0000
          17    0.0000    0.0001    0.0258    0.0000    0.0023   -0.0585   -0.0000    0.0000
          18    0.0507   -0.0188    0.0001    0.0051   -0.0000    0.0000   -0.0240    0.0181
          19   -0.0000   -0.0000   -0.0130   -0.0001    0.0266    0.0241   -0.0000   -0.0000
          20   -0.0000   -0.0001   -0.0303   -0.0002    0.0772   -0.0048   -0.0000   -0.0000
          21   -0.0390    0.0319   -0.0001   -0.0079   -0.0000   -0.0000   -0.0082   -0.0312
          22    0.0000    0.0001    0.0420    0.0001    0.0168    0.0342   -0.0000   -0.0000
          23   -0.0000    0.0001    0.0312    0.0003    0.0012    0.0043   -0.0000    0.0000
          24   -0.0113   -0.0028   -0.0002    0.0573    0.0001   -0.0000   -0.0033    0.0033
          25   -0.0000    0.0000    0.0076    0.0000    0.0119    0.0221   -0.0000    0.0000
          26   -0.0000    0.0001    0.0123    0.0000   -0.0086   -0.0218    0.0000    0.0000
          27   -0.0010   -0.0001    0.0000   -0.0036    0.0001    0.0001    0.0001   -0.0012
          28   -0.0000   -0.0002   -0.0624   -0.0002   -0.0336   -0.0451    0.0000    0.0000
          29    0.0001   -0.0001   -0.0370   -0.0002   -0.0366   -0.0598    0.0000    0.0000
          30    0.0145    0.0005    0.0001   -0.0248   -0.0001    0.0000    0.0001   -0.0010
          31   -0.0428   -0.0871   -0.0315   -0.0078   -0.0424   -0.0056   -0.0163   -0.0416
          32    0.0290   -0.0847    0.0264    0.0022   -0.0625    0.0030    0.0505   -0.0765
          33    0.0009   -0.0815    0.0015   -0.0039   -0.0029   -0.0004    0.0190   -0.0370
          34    0.0429    0.0870   -0.0325    0.0076   -0.0422   -0.0056    0.0164    0.0417
          35   -0.0290    0.0849    0.0255   -0.0019   -0.0624    0.0031   -0.0505    0.0765
          36    0.0009   -0.0815   -0.0006   -0.0039    0.0029    0.0003    0.0190   -0.0370
          37   -0.0001   -0.0001   -0.0106   -0.0001    0.0665   -0.0631    0.0001   -0.0001
          38   -0.0000    0.0001    0.0291    0.0001    0.0108    0.0264    0.0000   -0.0001
          39   -0.1037   -0.0450    0.0003    0.0000    0.0000   -0.0000    0.1954   -0.1766
          40    0.0000    0.0003    0.0782    0.0004   -0.0081   -0.0256    0.0000   -0.0000
          41   -0.0001    0.0000    0.0422    0.0000    0.0494    0.0706   -0.0001   -0.0000
          42   -0.0876   -0.1182    0.0013   -0.1490   -0.0006   -0.0003   -0.0763   -0.0306
          43   -0.0000   -0.0002   -0.0280    0.0000   -0.0523    0.0674    0.0000    0.0001
          44   -0.0000   -0.0002   -0.0289   -0.0001   -0.0065    0.0087    0.0000    0.0001
          45   -0.0173   -0.1631    0.0008    0.0451   -0.0000    0.0000    0.0630    0.2221
          46   -0.0001    0.0001    0.0221    0.0000    0.0374   -0.0348    0.0001    0.0001
          47   -0.0001   -0.0002   -0.0498   -0.0003    0.0706    0.0282    0.0001    0.0001
          48   -0.1705    0.0612   -0.0002   -0.0134   -0.0000    0.0000    0.1841    0.1351
          49    0.0001    0.0000    0.0177    0.0002   -0.0313    0.0395    0.0001    0.0000
          50    0.0001    0.0001    0.0391    0.0001   -0.0295   -0.0453    0.0001    0.0000
          51    0.1554   -0.1159    0.0004    0.0335    0.0001    0.0000    0.1899    0.0068
          52   -0.0000    0.0001    0.0309    0.0001    0.0139    0.0297    0.0001    0.0001
          53   -0.0000    0.0004    0.1254    0.0007    0.0169    0.0283   -0.0000   -0.0001
          54    0.0083   -0.0056   -0.0000    0.0394    0.0001   -0.0002   -0.0224   -0.0512
          55    0.0442   -0.0065    0.0462   -0.2510    0.0387    0.0659    0.0149    0.0158
          56    0.0066   -0.0054    0.0397   -0.1197    0.0075    0.0014    0.0089    0.0171
          57   -0.0137   -0.0006    0.0003    0.0249   -0.0009   -0.0026   -0.0006    0.0021
          58   -0.0442    0.0068    0.0430    0.2513    0.0392    0.0649   -0.0149   -0.0159
          59   -0.0067    0.0057    0.0382    0.1201    0.0077    0.0010   -0.0089   -0.0171
          60   -0.0139   -0.0006   -0.0005    0.0260    0.0011    0.0029   -0.0007    0.0021


   Root No.      17        18        19        20        21        22        23        24

                17 A      18 A      19 A      20 A      21 A      22 A      23 A      24 A   

                 856.0     870.3     897.2     922.1     946.8     952.1     971.0     984.2
  
           1   -0.0002    0.0284    0.0000    0.0000   -0.0561   -0.0001    0.0000   -0.0045
           2    0.0000   -0.0080   -0.0000    0.0000   -0.0535   -0.0001    0.0000   -0.0052
           3    0.0142    0.0001    0.0353    0.0257    0.0001   -0.0165    0.0134   -0.0000
           4    0.0001   -0.0259   -0.0000    0.0000    0.0172    0.0000   -0.0000    0.0051
           5   -0.0001    0.0320    0.0000   -0.0000   -0.0001    0.0000    0.0000   -0.0037
           6    0.0105    0.0001   -0.0137   -0.0267   -0.0000    0.0248    0.0047   -0.0000
           7   -0.0003    0.0638    0.0000   -0.0000    0.0165   -0.0000   -0.0000   -0.0042
           8    0.0000   -0.0105   -0.0000   -0.0000    0.0146    0.0000   -0.0000    0.0032
           9   -0.0022   -0.0000   -0.0141   -0.0101   -0.0000    0.0071   -0.0325    0.0000
          10   -0.0001    0.0223    0.0000   -0.0000    0.0643    0.0001   -0.0000    0.0022
          11    0.0001   -0.0239   -0.0000    0.0000    0.0233    0.0000   -0.0000    0.0024
          12   -0.0065   -0.0001    0.0117    0.0084   -0.0001    0.0047   -0.0371    0.0000
          13    0.0003   -0.0548   -0.0000    0.0000    0.0198    0.0001    0.0000    0.0035
          14   -0.0002    0.0361    0.0000    0.0000   -0.0077   -0.0000   -0.0000   -0.0051
          15   -0.0247   -0.0002   -0.0260    0.0184    0.0001   -0.0418   -0.0136    0.0000
          16    0.0001   -0.0271   -0.0000    0.0000   -0.0185   -0.0000    0.0000    0.0002
          17   -0.0002    0.0435    0.0000   -0.0000    0.0381    0.0001    0.0000    0.0017
          18   -0.0045   -0.0000   -0.0217   -0.0178   -0.0000    0.0129    0.0222   -0.0000
          19    0.0002   -0.0306   -0.0000    0.0000   -0.0202   -0.0000    0.0000    0.0001
          20    0.0003   -0.0589   -0.0000    0.0000   -0.0176   -0.0000    0.0000    0.0020
          21   -0.0086   -0.0000    0.0070    0.0150    0.0001   -0.0218    0.0286   -0.0000
          22   -0.0000    0.0241   -0.0000   -0.0000   -0.0111   -0.0001   -0.0000    0.0009
          23   -0.0001    0.0153    0.0001    0.0000   -0.0066    0.0001    0.0000   -0.0013
          24   -0.0355   -0.0003    0.0211    0.0069   -0.0001    0.0414    0.0071    0.0000
          25   -0.0000   -0.0003    0.0001   -0.0001    0.0044   -0.0000   -0.0000   -0.0751
          26    0.0000   -0.0051   -0.0001    0.0001    0.0007    0.0000   -0.0000   -0.0448
          27    0.0147    0.0002   -0.0195    0.0400   -0.0000    0.0211    0.0022   -0.0001
          28    0.0001   -0.0147   -0.0000    0.0001    0.0040    0.0001    0.0000    0.0238
          29    0.0000   -0.0128    0.0000   -0.0001    0.0018   -0.0001   -0.0000    0.0191
          30    0.0005   -0.0001    0.0109   -0.0368    0.0001   -0.0290   -0.0037    0.0000
          31   -0.0303    0.0458   -0.0406   -0.0167   -0.1118    0.0051   -0.0642   -0.0052
          32   -0.0222   -0.0204   -0.0759   -0.0631   -0.0458    0.0432    0.0074   -0.0089
          33   -0.0127    0.0013   -0.0316   -0.0229   -0.0159    0.0141   -0.0091   -0.0026
          34    0.0298    0.0463    0.0407    0.0167   -0.1117   -0.0054    0.0643   -0.0053
          35    0.0225   -0.0202    0.0758    0.0632   -0.0455   -0.0435   -0.0075   -0.0089
          36   -0.0127   -0.0014   -0.0316   -0.0229    0.0158    0.0141   -0.0091    0.0026
          37   -0.0003    0.0640    0.0000   -0.0000    0.0170   -0.0000    0.0001   -0.0041
          38    0.0005   -0.0908   -0.0000    0.0000    0.0913    0.0002    0.0001    0.0180
          39   -0.0120   -0.0001    0.0168    0.0093    0.0000   -0.0118    0.1659   -0.0000
          40    0.0003   -0.0597   -0.0000    0.0000    0.0230    0.0000   -0.0000    0.0047
          41   -0.0002    0.1040    0.0002   -0.0001   -0.0566   -0.0000    0.0001   -0.0213
          42    0.1950    0.0014    0.1336   -0.0755   -0.0003    0.1469    0.0681   -0.0001
          43   -0.0001    0.0226   -0.0000   -0.0000    0.0665    0.0001    0.0001    0.0024
          44    0.0002   -0.0286   -0.0001   -0.0000    0.1040    0.0001    0.0001    0.0124
          45    0.0083    0.0001   -0.0661   -0.0270    0.0001   -0.0366    0.1729   -0.0000
          46   -0.0000    0.0065    0.0000   -0.0000   -0.0764   -0.0000   -0.0000   -0.0043
          47    0.0005   -0.0816   -0.0001   -0.0000    0.0148    0.0001   -0.0001    0.0048
          48    0.0678    0.0006   -0.0236   -0.0781   -0.0002    0.1086   -0.1409    0.0000
          49    0.0002   -0.0339    0.0001    0.0001   -0.0021    0.0000   -0.0000    0.0079
          50   -0.0002    0.0394    0.0001    0.0000    0.0490    0.0001   -0.0000    0.0059
          51    0.0492    0.0003    0.1362    0.0991    0.0001   -0.0607   -0.1163    0.0000
          52   -0.0009    0.0266    0.0003    0.0001   -0.0117    0.0004    0.0001    0.0065
          53    0.0004   -0.0174   -0.0002    0.0000    0.0026   -0.0002   -0.0001   -0.0470
          54    0.2660    0.0025   -0.0897   -0.0292    0.0002   -0.1458   -0.0222    0.0001
          55   -0.0296    0.0283   -0.0337    0.0966   -0.0157    0.0584    0.0059    0.2852
          56   -0.0929    0.0110    0.0712   -0.1237   -0.0147   -0.0583   -0.0060    0.2120
          57   -0.0243   -0.0014    0.0313   -0.0624   -0.0007   -0.0319   -0.0032    0.0037
          58    0.0296    0.0284    0.0336   -0.0962   -0.0154   -0.0581   -0.0058    0.2852
          59    0.0927    0.0129   -0.0711    0.1233   -0.0150    0.0580    0.0060    0.2120
          60   -0.0245    0.0009    0.0318   -0.0634    0.0008   -0.0324   -0.0033   -0.0028


   Root No.      25        26        27        28        29        30        31        32

                25 A      26 A      27 A      28 A      29 A      30 A      31 A      32 A   

                1014.7    1040.4    1073.2    1085.6    1109.7    1151.0    1156.6    1184.5
  
           1    0.0000   -0.0049   -0.0000    0.0107    0.0024   -0.0052   -0.0027   -0.0004
           2    0.0000    0.0379   -0.0000    0.0036   -0.0089    0.0012    0.0041   -0.0022
           3    0.0273   -0.0000   -0.0012   -0.0000    0.0000    0.0000   -0.0000   -0.0000
           4    0.0000   -0.0057    0.0000    0.0036   -0.0002    0.0084    0.0117   -0.0077
           5   -0.0000   -0.0102    0.0001    0.0018    0.0158    0.0016    0.0134   -0.0267
           6   -0.0287    0.0000    0.0366    0.0000   -0.0000   -0.0000   -0.0000    0.0000
           7   -0.0000    0.0390   -0.0001    0.0171   -0.0014   -0.0041    0.0033   -0.0097
           8   -0.0000   -0.0187   -0.0000    0.0018   -0.0027   -0.0106   -0.0018    0.0100
           9   -0.0425   -0.0001   -0.0377   -0.0000    0.0000    0.0000    0.0000    0.0000
          10    0.0000    0.0079    0.0000   -0.0287   -0.0108   -0.0061   -0.0064    0.0138
          11    0.0000   -0.0005   -0.0000    0.0022    0.0005    0.0090   -0.0042   -0.0035
          12    0.0360   -0.0000   -0.0118   -0.0000    0.0000   -0.0000    0.0000   -0.0000
          13   -0.0000   -0.0005    0.0000   -0.0088    0.0051   -0.0023    0.0003   -0.0027
          14    0.0000   -0.0049    0.0000    0.0023    0.0164   -0.0005    0.0072   -0.0193
          15    0.0151   -0.0000   -0.0078   -0.0000   -0.0000    0.0000    0.0000    0.0000
          16    0.0000    0.0055   -0.0001    0.0364    0.0022    0.0006   -0.0003   -0.0002
          17    0.0000   -0.0239    0.0001   -0.0275   -0.0003   -0.0046   -0.0079    0.0086
          18    0.0427    0.0000    0.0105   -0.0000   -0.0000    0.0000    0.0000   -0.0000
          19   -0.0000   -0.0087    0.0001   -0.0360   -0.0058    0.0014   -0.0062    0.0153
          20   -0.0000   -0.0047    0.0000   -0.0239   -0.0074   -0.0008   -0.0090    0.0062
          21   -0.0396    0.0000    0.0001    0.0000    0.0000    0.0000    0.0000   -0.0000
          22    0.0000   -0.0020   -0.0000    0.0040   -0.0491    0.0037   -0.0034   -0.0040
          23   -0.0000    0.0005    0.0000   -0.0003    0.0074   -0.0036    0.0033   -0.0180
          24   -0.0074    0.0000    0.0025    0.0000   -0.0002    0.0000   -0.0000    0.0001
          25   -0.0000   -0.0004    0.0000   -0.0008    0.0174   -0.0020    0.0020   -0.0044
          26    0.0000   -0.0047   -0.0000    0.0033   -0.0361    0.0038   -0.0024    0.0040
          27   -0.0012    0.0000    0.0003   -0.0000    0.0001   -0.0000    0.0000   -0.0000
          28   -0.0000    0.0055   -0.0000   -0.0032    0.0194   -0.0018   -0.0014    0.0060
          29    0.0000    0.0024   -0.0000   -0.0014    0.0074   -0.0015   -0.0006    0.0015
          30    0.0027    0.0000   -0.0005   -0.0000    0.0001   -0.0000   -0.0000    0.0000
          31   -0.0435   -0.1311    0.3184    0.0254    0.0165   -0.0784    0.0265    0.0572
          32   -0.0443    0.1395   -0.2028    0.0035   -0.0079    0.0410   -0.0077   -0.0374
          33   -0.0200    0.0105    0.0033    0.0041    0.0064   -0.0041    0.0025    0.0019
          34    0.0436   -0.1314   -0.3184    0.0247    0.0165   -0.0782    0.0264    0.0570
          35    0.0443    0.1397    0.2026    0.0039   -0.0079    0.0409   -0.0076   -0.0374
          36   -0.0200   -0.0105    0.0034   -0.0041   -0.0065    0.0041   -0.0025   -0.0019
          37    0.0001    0.0380   -0.0000    0.0232   -0.0008   -0.0075    0.0072   -0.0105
          38    0.0001   -0.0333   -0.0004    0.1807   -0.0026   -0.1440    0.2447   -0.0120
          39    0.1448    0.0001    0.0558   -0.0000    0.0000    0.0000   -0.0001   -0.0000
          40   -0.0000   -0.0017    0.0000   -0.0123    0.0039   -0.0043    0.0022   -0.0196
          41   -0.0000    0.0158   -0.0001    0.0462    0.0164    0.0267   -0.0277    0.2674
          42   -0.0453    0.0001    0.0101   -0.0000   -0.0001   -0.0000    0.0000   -0.0002
          43   -0.0001    0.0076    0.0000   -0.0300   -0.0110   -0.0040   -0.0052    0.0168
          44   -0.0001    0.0222   -0.0003    0.1807    0.0150    0.1935    0.0691    0.1215
          45   -0.1253    0.0000    0.0405   -0.0001   -0.0000   -0.0001   -0.0000   -0.0001
          46    0.0001   -0.1003    0.0005   -0.1269    0.0590    0.1944    0.1808   -0.0221
          47    0.0001    0.0451   -0.0002    0.0254   -0.0440   -0.1073   -0.1153    0.0287
          48    0.1341    0.0000    0.0034    0.0000   -0.0000   -0.0000   -0.0000    0.0000
          49   -0.0001   -0.1206   -0.0001    0.1723    0.0764    0.0824   -0.2214   -0.0844
          50   -0.0000   -0.0899    0.0001    0.0396    0.0368    0.0348   -0.1204   -0.0328
          51   -0.1465    0.0000   -0.0138   -0.0001   -0.0000   -0.0001    0.0001    0.0001
          52   -0.0001   -0.0117   -0.0000    0.0081   -0.0839    0.0087    0.0004   -0.0173
          53    0.0000    0.0852   -0.0001   -0.0374    0.2903   -0.0452   -0.0315    0.0937
          54    0.0211   -0.0003    0.0047    0.0001   -0.0006    0.0000    0.0001   -0.0002
          55   -0.0025    0.0130   -0.0024   -0.0080    0.0856   -0.0125    0.0086   -0.0249
          56    0.0035   -0.0016   -0.0029    0.0059   -0.1013    0.0159   -0.0136    0.0379
          57    0.0016   -0.0027   -0.0003    0.0034   -0.0508    0.0089   -0.0072    0.0224
          58    0.0024    0.0130    0.0024   -0.0080    0.0854   -0.0125    0.0086   -0.0248
          59   -0.0034   -0.0015    0.0029    0.0059   -0.1012    0.0158   -0.0136    0.0379
          60    0.0016    0.0027   -0.0003   -0.0034    0.0518   -0.0090    0.0074   -0.0228


   Root No.      33        34        35        36        37        38        39        40

                33 A      34 A      35 A      36 A      37 A      38 A      39 A      40 A   

                1200.2    1232.1    1287.7    1336.7    1379.0    1410.5    1510.2    1527.6
  
           1    0.0046   -0.0166   -0.0231   -0.0315   -0.0463   -0.0272   -0.0900   -0.0180
           2   -0.0093    0.0103    0.0144   -0.0192    0.0565   -0.0360    0.0392    0.0063
           3   -0.0000    0.0000    0.0000   -0.0000   -0.0000    0.0000    0.0000   -0.0000
           4    0.0081   -0.0140   -0.0122   -0.0237   -0.0085    0.0525    0.1109    0.0252
           5   -0.0023   -0.0051    0.0254   -0.0165   -0.0147    0.0257    0.0627   -0.0509
           6    0.0000    0.0000   -0.0000    0.0000    0.0000   -0.0000   -0.0001    0.0000
           7   -0.0044    0.0008    0.0137    0.0095    0.0322   -0.0092    0.0245    0.0029
           8   -0.0028    0.0146    0.0030   -0.0179   -0.0152    0.0418   -0.0530    0.0058
           9   -0.0000   -0.0000   -0.0000    0.0000   -0.0000   -0.0000    0.0000   -0.0000
          10    0.0001   -0.0033   -0.0064    0.0188    0.0175   -0.0201   -0.0470    0.0126
          11    0.0039   -0.0135    0.0017    0.0083    0.0334    0.0143   -0.0679    0.0142
          12   -0.0000    0.0000    0.0000   -0.0000   -0.0000   -0.0000    0.0001   -0.0000
          13   -0.0461   -0.0031    0.0335    0.0082    0.0095   -0.0117   -0.0143   -0.0308
          14   -0.0321    0.0019    0.0330   -0.0020   -0.0277   -0.0150   -0.0154   -0.0417
          15   -0.0000   -0.0000   -0.0000    0.0000    0.0000    0.0000    0.0000    0.0001
          16   -0.0041    0.0174    0.0141   -0.0213    0.0041    0.0548   -0.0569    0.0092
          17    0.0007    0.0044   -0.0047    0.0022   -0.0194   -0.0021    0.0114   -0.0069
          18    0.0000   -0.0000   -0.0000    0.0000    0.0000   -0.0000    0.0000   -0.0000
          19   -0.0022    0.0107   -0.0113    0.0042   -0.0383   -0.0353    0.0686   -0.0227
          20    0.0060   -0.0070   -0.0136    0.0099    0.0068   -0.0189   -0.0031    0.0140
          21   -0.0000   -0.0000    0.0000   -0.0000    0.0000    0.0000   -0.0000    0.0000
          22    0.0500    0.0071   -0.0321    0.0016    0.0127    0.0109    0.0039   -0.0238
          23    0.0020    0.0155   -0.0264   -0.0019   -0.0121   -0.0080    0.0077    0.1353
          24    0.0001   -0.0000   -0.0000    0.0000    0.0001    0.0000   -0.0000   -0.0003
          25   -0.0058    0.0003    0.0169   -0.0031   -0.0139   -0.0086    0.0014    0.0580
          26    0.0088    0.0003   -0.0267    0.0044    0.0198    0.0126   -0.0016   -0.0819
          27   -0.0000   -0.0000    0.0001   -0.0000   -0.0001   -0.0001    0.0000    0.0003
          28    0.0065   -0.0037    0.0154   -0.0012   -0.0012   -0.0012   -0.0008   -0.0126
          29   -0.0045    0.0027   -0.0135    0.0014    0.0043    0.0008   -0.0008    0.0107
          30    0.0000   -0.0000    0.0001   -0.0000   -0.0000   -0.0000    0.0000   -0.0001
          31    0.0052    0.0656    0.0509    0.1580    0.0649    0.0205    0.0327    0.0223
          32   -0.0016   -0.0488   -0.0188    0.1767   -0.0984    0.0524   -0.0237   -0.0093
          33    0.0050   -0.0021    0.0088    0.1737   -0.0434    0.0640    0.0082    0.0059
          34    0.0051    0.0655    0.0510    0.1579    0.0648    0.0206    0.0328    0.0222
          35   -0.0015   -0.0488   -0.0188    0.1767   -0.0984    0.0523   -0.0237   -0.0092
          36   -0.0050    0.0021   -0.0088   -0.1737    0.0434   -0.0640   -0.0082   -0.0059
          37   -0.0036   -0.0011    0.0140    0.0102    0.0354   -0.0123    0.0245    0.0029
          38    0.0499   -0.1165   -0.0617    0.0337   -0.0234   -0.1247    0.0286   -0.0182
          39   -0.0000    0.0000    0.0000   -0.0000   -0.0000    0.0000   -0.0000    0.0000
          40   -0.0415    0.0043    0.0402    0.0101    0.0083   -0.0160   -0.0184   -0.0407
          41   -0.1634   -0.1467   -0.0512   -0.0300    0.0236    0.0708    0.0875    0.0585
          42    0.0003    0.0001    0.0001    0.0000   -0.0000   -0.0001   -0.0001   -0.0002
          43   -0.0002   -0.0028   -0.0078    0.0205    0.0172   -0.0233   -0.0470    0.0143
          44    0.0110    0.1641   -0.0125    0.0253   -0.0868   -0.1048    0.0304   -0.0394
          45    0.0000   -0.0001    0.0000   -0.0000    0.0000    0.0001   -0.0000    0.0000
          46    0.0363   -0.0636   -0.0044    0.0318    0.0784   -0.0099   -0.0786    0.0289
          47   -0.0148    0.0347   -0.0198   -0.0034   -0.0593   -0.0383    0.0815   -0.0133
          48   -0.0000    0.0000    0.0000   -0.0000   -0.0000    0.0000    0.0000   -0.0000
          49    0.0235   -0.0812   -0.0150    0.0503    0.0588   -0.0708    0.0461    0.0099
          50    0.0151   -0.0459   -0.0212    0.0395    0.0048   -0.0685    0.0675   -0.0080
          51   -0.0000    0.0001    0.0000   -0.0000   -0.0000    0.0001   -0.0000   -0.0000
          52    0.0224    0.0092   -0.0385    0.0044    0.0105    0.0098    0.0056   -0.0038
          53    0.2661    0.0009    0.0172   -0.0233    0.0243    0.0109   -0.0050   -0.1027
          54   -0.0003    0.0001   -0.0001    0.0000    0.0000   -0.0000    0.0000    0.0001
          55   -0.0633    0.0285   -0.0957    0.0079    0.0227    0.0106   -0.0008   -0.0277
          56    0.0956   -0.0405    0.1371   -0.0113   -0.0322   -0.0153    0.0013    0.0418
          57    0.0595   -0.0287    0.1178   -0.0117   -0.0394   -0.0213    0.0025    0.1011
          58   -0.0629    0.0283   -0.0950    0.0079    0.0225    0.0105   -0.0008   -0.0271
          59    0.0954   -0.0404    0.1367   -0.0113   -0.0321   -0.0152    0.0012    0.0415
          60   -0.0604    0.0291   -0.1190    0.0118    0.0397    0.0214   -0.0025   -0.1015


   Root No.      41        42        43        44        45        46        47        48

                41 A      42 A      43 A      44 A      45 A      46 A      47 A      48 A   

                1822.0    1845.4    1866.3    2245.9    2916.2    2995.1    3020.7    3031.0
  
           1   -0.0021   -0.0122    0.0189    0.0004   -0.0000    0.0211    0.0013    0.0010
           2   -0.0096   -0.0069   -0.0270   -0.0002   -0.0000    0.0322    0.0023    0.0007
           3    0.0000   -0.0000    0.0000    0.0000   -0.0610   -0.0001    0.0000    0.0000
           4    0.0170    0.0687   -0.0602   -0.0026   -0.0000    0.0010   -0.0008    0.0014
           5   -0.0538   -0.0824    0.1157    0.0110    0.0000   -0.0003    0.0011   -0.0029
           6    0.0000    0.0001   -0.0001   -0.0000   -0.0000    0.0000   -0.0000    0.0000
           7    0.0483    0.0290    0.0446    0.0002   -0.0000   -0.0037   -0.0003   -0.0003
           8    0.1026    0.0761    0.1075   -0.0000   -0.0000    0.0007    0.0001   -0.0000
           9   -0.0000   -0.0000   -0.0000   -0.0000   -0.0001    0.0000    0.0000    0.0000
          10   -0.0555    0.0332    0.0143   -0.0004    0.0000    0.0003    0.0014   -0.0045
          11    0.1419   -0.0828   -0.0657   -0.0035   -0.0000   -0.0000   -0.0003    0.0005
          12   -0.0001    0.0000    0.0000    0.0000   -0.0002   -0.0000   -0.0000    0.0000
          13   -0.0172   -0.0409    0.0422    0.0036    0.0000   -0.0005    0.0256   -0.0463
          14    0.0274    0.1153   -0.1081   -0.0014   -0.0000    0.0003    0.0011   -0.0000
          15   -0.0000   -0.0001    0.0001    0.0000   -0.0001   -0.0000    0.0000   -0.0000
          16   -0.1018   -0.0382   -0.0682    0.0003    0.0000   -0.0003   -0.0001    0.0001
          17   -0.0810   -0.0659   -0.0876   -0.0001    0.0000   -0.0002   -0.0000    0.0001
          18    0.0001    0.0000    0.0001   -0.0000   -0.0003    0.0000    0.0000    0.0000
          19    0.1137   -0.0494   -0.0152   -0.0010   -0.0000    0.0002   -0.0002    0.0007
          20   -0.1090    0.0805    0.0418    0.0011    0.0000   -0.0001   -0.0003    0.0009
          21    0.0000   -0.0000   -0.0000   -0.0000    0.0001    0.0000    0.0000   -0.0000
          22    0.0010   -0.0024    0.0014    0.0750   -0.0000    0.0038   -0.0468   -0.0252
          23   -0.0028   -0.0294    0.0234   -0.1330    0.0000   -0.0000   -0.0026   -0.0004
          24    0.0000    0.0000   -0.0000    0.0005    0.0000    0.0000   -0.0001   -0.0001
          25    0.0011   -0.0043    0.0020    0.0827   -0.0000    0.0001   -0.0004   -0.0003
          26   -0.0015    0.0061   -0.0028   -0.1200    0.0000   -0.0001    0.0004    0.0003
          27    0.0000   -0.0000    0.0000    0.0005    0.0000    0.0000   -0.0000   -0.0000
          28   -0.0019    0.0012    0.0008   -0.1739    0.0000   -0.0003    0.0025    0.0014
          29    0.0015   -0.0050    0.0020    0.2539   -0.0000    0.0004   -0.0036   -0.0027
          30   -0.0000    0.0000   -0.0000   -0.0010   -0.0000   -0.0000    0.0000    0.0000
          31    0.0143    0.0107   -0.0092   -0.0008   -0.1570   -0.1276   -0.0090   -0.0031
          32   -0.0198   -0.0174    0.0005    0.0010   -0.2387   -0.1927   -0.0134   -0.0056
          33   -0.0040   -0.0012    0.0044   -0.0009    0.3683    0.3571    0.0251    0.0098
          34    0.0142    0.0107   -0.0091   -0.0008    0.1573   -0.1273   -0.0091   -0.0031
          35   -0.0197   -0.0174    0.0005    0.0010    0.2391   -0.1923   -0.0134   -0.0056
          36    0.0041    0.0012   -0.0045    0.0009    0.3691   -0.3564   -0.0252   -0.0098
          37    0.0636    0.0394    0.0627    0.0002   -0.0000    0.0406    0.0039    0.0025
          38   -0.0155   -0.0282   -0.0315   -0.0002   -0.0000    0.0026    0.0002    0.0001
          39   -0.0000   -0.0000   -0.0000   -0.0000   -0.0016   -0.0000   -0.0000   -0.0000
          40   -0.0213   -0.0459    0.0497    0.0110   -0.0000    0.0058   -0.2944    0.5302
          41   -0.0153   -0.0328    0.0386   -0.0094   -0.0000    0.0000   -0.0132    0.0302
          42    0.0000    0.0001   -0.0001    0.0001   -0.0011    0.0000   -0.0000    0.0001
          43   -0.0784    0.0515    0.0216   -0.0004    0.0000   -0.0074   -0.0150    0.0505
          44   -0.0356    0.0049    0.0460    0.0013    0.0000   -0.0002   -0.0009    0.0013
          45    0.0001   -0.0000   -0.0000   -0.0000   -0.0003    0.0000    0.0000   -0.0000
          46   -0.0381    0.0652    0.0474    0.0003   -0.0000    0.0004    0.0022   -0.0073
          47   -0.0480    0.0342    0.0138    0.0009   -0.0000    0.0007    0.0038   -0.0125
          48    0.0000   -0.0000   -0.0000   -0.0000    0.0000   -0.0000   -0.0000    0.0000
          49    0.0151    0.0601    0.0608    0.0003   -0.0000    0.0012    0.0000    0.0003
          50   -0.0412   -0.0297   -0.0417    0.0000    0.0000   -0.0035   -0.0002   -0.0005
          51    0.0000   -0.0000   -0.0000   -0.0000   -0.0007   -0.0000   -0.0000   -0.0000
          52   -0.0003   -0.0093    0.0071    0.1044    0.0001   -0.0421    0.5346    0.2889
          53    0.0063    0.0197   -0.0165    0.0179    0.0000   -0.0068    0.0589    0.0354
          54    0.0000   -0.0000   -0.0000    0.0003   -0.0010   -0.0001    0.0015    0.0008
          55    0.0004   -0.0003   -0.0000    0.0363   -0.0001    0.0000   -0.0002   -0.0002
          56   -0.0005    0.0001    0.0003   -0.0527   -0.0001   -0.0000    0.0000    0.0003
          57    0.0008   -0.0064    0.0036    0.1053    0.0000   -0.0000    0.0000   -0.0003
          58    0.0004   -0.0004    0.0000    0.0369    0.0001    0.0000   -0.0002   -0.0002
          59   -0.0005    0.0001    0.0003   -0.0531    0.0001   -0.0000    0.0000    0.0003
          60   -0.0008    0.0064   -0.0036   -0.1049    0.0000   -0.0000   -0.0000    0.0003


   Root No.      49        50        51        52        53        54

                49 A      50 A      51 A      52 A      53 A      54 A   

                3040.7    3051.1    3064.6    3076.1    3117.1    3121.6
  
           1    0.0004   -0.0011   -0.0005    0.0008   -0.0000    0.0000
           2    0.0006   -0.0015   -0.0008    0.0012    0.0000    0.0000
           3   -0.0000    0.0000    0.0000   -0.0000   -0.0000    0.0000
           4   -0.0002    0.0003   -0.0000   -0.0002    0.0001   -0.0000
           5    0.0007   -0.0004    0.0005    0.0006   -0.0002    0.0000
           6   -0.0000    0.0000   -0.0000   -0.0000    0.0000   -0.0000
           7   -0.0016   -0.0380   -0.0179    0.0186    0.0001    0.0000
           8   -0.0001   -0.0002   -0.0019    0.0029    0.0000   -0.0000
           9    0.0000    0.0000    0.0000   -0.0000   -0.0000    0.0000
          10   -0.0491    0.0046   -0.0136   -0.0093   -0.0000    0.0000
          11    0.0022   -0.0004    0.0028    0.0021    0.0000   -0.0000
          12    0.0000   -0.0000    0.0000    0.0000    0.0000   -0.0000
          13    0.0046   -0.0003    0.0004    0.0001   -0.0000    0.0000
          14   -0.0004    0.0001   -0.0002   -0.0002    0.0004   -0.0000
          15    0.0000   -0.0000    0.0000    0.0000   -0.0000   -0.0000
          16    0.0014    0.0129   -0.0057    0.0119    0.0000   -0.0000
          17   -0.0025   -0.0232    0.0168   -0.0287   -0.0001    0.0000
          18   -0.0000   -0.0000   -0.0000    0.0000   -0.0000    0.0000
          19    0.0108    0.0021   -0.0129   -0.0106   -0.0000    0.0000
          20    0.0150    0.0048   -0.0285   -0.0215   -0.0001    0.0000
          21   -0.0000   -0.0000    0.0000    0.0000    0.0000   -0.0000
          22    0.0011    0.0000    0.0001   -0.0000   -0.0004    0.0000
          23   -0.0000    0.0000    0.0000    0.0000    0.0005   -0.0000
          24    0.0000    0.0000    0.0000   -0.0000   -0.0000   -0.0002
          25    0.0000   -0.0000    0.0000    0.0000   -0.0272    0.0003
          26   -0.0000    0.0000   -0.0000   -0.0001    0.0393   -0.0002
          27   -0.0000   -0.0000    0.0000    0.0000   -0.0003   -0.0649
          28   -0.0001   -0.0000    0.0000    0.0000    0.0048   -0.0000
          29    0.0002   -0.0000    0.0000    0.0000   -0.0070    0.0000
          30   -0.0000    0.0000   -0.0000   -0.0000    0.0000   -0.0004
          31   -0.0012    0.0046    0.0023   -0.0028   -0.0000    0.0000
          32   -0.0017    0.0113    0.0052   -0.0059   -0.0000    0.0000
          33    0.0033   -0.0177   -0.0082    0.0096    0.0001   -0.0000
          34   -0.0012    0.0046    0.0023   -0.0028   -0.0000   -0.0000
          35   -0.0017    0.0113    0.0051   -0.0058   -0.0000   -0.0000
          36   -0.0033    0.0177    0.0082   -0.0096   -0.0001   -0.0000
          37    0.0173    0.4468    0.2004   -0.1951   -0.0006   -0.0000
          38   -0.0005   -0.0098   -0.0023    0.0017   -0.0000    0.0000
          39   -0.0000   -0.0002   -0.0001    0.0001   -0.0000    0.0000
          40   -0.0536    0.0027   -0.0042   -0.0009    0.0003   -0.0000
          41   -0.0050    0.0003   -0.0008   -0.0004    0.0000   -0.0000
          42   -0.0000    0.0000   -0.0000    0.0000   -0.0000   -0.0000
          43    0.5676   -0.0535    0.1445    0.0919    0.0003   -0.0000
          44   -0.0041    0.0009   -0.0035   -0.0023   -0.0000    0.0000
          45   -0.0002    0.0000   -0.0001   -0.0000    0.0000    0.0000
          46   -0.1146   -0.0255    0.1688    0.1292    0.0007   -0.0000
          47   -0.1995   -0.0503    0.3072    0.2289    0.0012   -0.0000
          48    0.0001    0.0000   -0.0002   -0.0002   -0.0000   -0.0000
          49   -0.0129   -0.1461    0.0851   -0.1530   -0.0004    0.0000
          50    0.0284    0.2844   -0.1756    0.3017    0.0008   -0.0000
          51    0.0000    0.0000   -0.0000    0.0000   -0.0000    0.0000
          52   -0.0120   -0.0003   -0.0016    0.0002   -0.0015    0.0000
          53   -0.0016    0.0000   -0.0001   -0.0000   -0.0001   -0.0000
          54   -0.0000   -0.0000   -0.0000    0.0000   -0.0000   -0.0002
          55    0.0001    0.0000   -0.0001   -0.0003    0.1350    0.1439
          56   -0.0001   -0.0000    0.0001    0.0004   -0.1961   -0.2090
          57    0.0002    0.0001   -0.0002   -0.0008    0.4048    0.3908
          58    0.0001    0.0000   -0.0001   -0.0003    0.1368   -0.1470
          59   -0.0001   -0.0000    0.0001    0.0004   -0.1967    0.2115
          60   -0.0002   -0.0001    0.0002    0.0008   -0.4014    0.3910


           MASS-WEIGHTED COORDINATE ANALYSIS (NORMAL COORDINATES)


   Root No.       1         2         3         4         5         6         7         8

                 1 A       2 A       3 A       4 A       5 A       6 A       7 A       8 A   

                  27.2      75.4     110.4     178.4     237.6     284.3     341.2     399.7
  
           1    0.0006    0.0009   -0.1947   -0.0007   -0.2375   -0.0000   -0.0003   -0.2596
           2   -0.0007   -0.0004    0.1008    0.0004    0.1750    0.0002    0.0000   -0.2110
           3   -0.1240    0.5086    0.0010   -0.0744    0.0002   -0.1691   -0.0127    0.0001
           4    0.0006    0.0009   -0.1998   -0.0008   -0.2313    0.0000   -0.0004   -0.2566
           5   -0.0002    0.0004   -0.1077   -0.0001   -0.0280   -0.0000   -0.0002   -0.0308
           6   -0.2088    0.1903   -0.0001    0.2539   -0.0005    0.0756   -0.0776    0.0002
           7    0.0002   -0.0001    0.0153    0.0001   -0.0799    0.0000    0.0000   -0.0204
           8   -0.0009   -0.0009    0.2065    0.0009    0.2822    0.0003    0.0003   -0.1178
           9    0.1817   -0.0704   -0.0013    0.2670   -0.0006    0.3155    0.0755    0.0002
          10    0.0001    0.0001   -0.0051   -0.0002   -0.1497   -0.0000   -0.0001    0.0615
          11    0.0002    0.0008   -0.2085   -0.0006   -0.0558    0.0003   -0.0002   -0.2503
          12   -0.1175    0.2566    0.0019    0.0021   -0.0005    0.4276    0.0555    0.0004
          13    0.0009    0.0013   -0.2913   -0.0008   -0.0845    0.0001   -0.0000    0.0385
          14   -0.0001    0.0003   -0.1601    0.0001    0.0454   -0.0004    0.0000    0.2171
          15   -0.3445   -0.1686   -0.0022    0.4521   -0.0006   -0.3341   -0.1527    0.0003
          16   -0.0002   -0.0008    0.1849    0.0005    0.0231   -0.0003    0.0001    0.2154
          17   -0.0005   -0.0006    0.1029    0.0004    0.2217    0.0002    0.0001   -0.2569
          18    0.3062   -0.3485   -0.0008   -0.0348    0.0001   -0.2310   -0.0721   -0.0001
          19   -0.0003   -0.0006    0.1796    0.0004    0.0144   -0.0003    0.0002    0.2138
          20    0.0000    0.0003   -0.1064   -0.0004    0.0351    0.0000   -0.0001   -0.2107
          21    0.1323   -0.0308    0.0019   -0.3962    0.0005   -0.1838    0.0060    0.0000
          22    0.0009    0.0012   -0.2423    0.0002    0.3680    0.0001    0.0008    0.0853
          23   -0.0002    0.0002   -0.1816   -0.0009   -0.1332   -0.0001   -0.0003    0.3065
          24   -0.4146   -0.3554   -0.0018   -0.2504   -0.0003    0.0645   -0.1204    0.0001
          25   -0.0020   -0.0022    0.4766    0.0011   -0.0118   -0.0003    0.0005   -0.2063
          26    0.0016   -0.0002    0.3126    0.0007   -0.4251   -0.0006   -0.0008    0.1790
          27    0.5012    0.1032    0.0015   -0.0031    0.0014    0.0385   -0.1885   -0.0009
          28   -0.0006   -0.0003   -0.0060   -0.0001    0.4466    0.0009   -0.0014    0.1797
          29    0.0007    0.0001   -0.0216   -0.0007   -0.0947    0.0001    0.0016    0.4162
          30    0.0421   -0.1375   -0.0005   -0.1406   -0.0000   -0.0152    0.6983   -0.0004
          31    0.0142    0.0633   -0.0785   -0.0595   -0.0885   -0.0722    0.0101   -0.0797
          32   -0.0519    0.1359    0.0431   -0.1081    0.0615   -0.1681   -0.0239   -0.0599
          33   -0.0630    0.2591   -0.0004   -0.1158   -0.0021   -0.1872   -0.0153   -0.0009
          34   -0.0137   -0.0626   -0.0789    0.0589   -0.0888    0.0721   -0.0104   -0.0797
          35    0.0514   -0.1362    0.0420    0.1084    0.0610    0.1683    0.0239   -0.0599
          36   -0.0630    0.2592    0.0018   -0.1158    0.0027   -0.1873   -0.0153    0.0009
          37    0.0001   -0.0000    0.0051    0.0001   -0.0228    0.0001    0.0000   -0.0048
[...]
 TRAVEL (Ang.)       0.3565         C  2 -- C  4          +7.1% ( 27.2%)     72.6%
 REDUCED MASS        0.3970         C  1 -- C  3          +6.3% ( 25.6%)     15.9%
 EFFECTIVE MASS      2.8959
 FORCE CONSTANT      0.4180

 VIBRATION         37   37A           ATOM PAIR      ENERGY CONTRIBUTION    RADIAL
 FREQUENCY          1379.00         C  1 -- C  3         +15.8% ( 60.0%)     85.6%
 TRANSITION DIPOLE   0.0207         C  1 -- H 11         +13.5% ( 55.4%)      1.1%
 TRAVEL (Ang.)       0.1821         C  1 -- H 12         +13.5% ( 55.4%)      1.1%
 REDUCED MASS        1.4740         C  1 -- C  2         +10.0% ( 47.8%)     22.0%
 EFFECTIVE MASS      8.5038
 FORCE CONSTANT      1.6515

 VIBRATION         38   38A           ATOM PAIR      ENERGY CONTRIBUTION    RADIAL
 FREQUENCY          1410.50         C  6 -- C  7         +13.6% ( 53.2%)     95.9%
 TRANSITION DIPOLE   0.1322         C  1 -- C  2         +12.6% ( 51.2%)     62.5%
 TRAVEL (Ang.)       0.2052         C  1 -- C  3          +9.1% ( 43.4%)     61.5%
 REDUCED MASS        1.1354         C  3 -- C  6          +8.5% ( 41.9%)      0.2%
 EFFECTIVE MASS      8.9387
 FORCE CONSTANT      1.3309

 VIBRATION         39   39A           ATOM PAIR      ENERGY CONTRIBUTION    RADIAL
 FREQUENCY          1510.21         C  1 -- C  2         +19.2% ( 66.5%)     98.7%
 TRANSITION DIPOLE   0.0740         C  2 -- C  4         +19.0% ( 66.1%)     85.7%
 TRAVEL (Ang.)       0.1373         C  2 -- C  5          +9.9% ( 47.9%)      0.0%
 REDUCED MASS        2.3688         C  1 -- C  3          +9.6% ( 47.0%)     81.0%
 EFFECTIVE MASS     11.3577
 FORCE CONSTANT      3.1832

 VIBRATION         40   40A           ATOM PAIR      ENERGY CONTRIBUTION    RADIAL
 FREQUENCY          1527.65         C  5 -- C  8         +21.5% ( 74.0%)     87.4%
 TRANSITION DIPOLE   0.1269         C  8 -- H 18         +17.8% ( 67.3%)      0.1%
 TRAVEL (Ang.)       0.1127         C  8 -- C 10         +14.3% ( 60.4%)     75.0%
 REDUCED MASS        3.4769         C  9 -- C 10         +12.0% ( 55.3%)     99.8%
 EFFECTIVE MASS     11.1521
 FORCE CONSTANT      4.7806

 VIBRATION         41   41A           ATOM PAIR      ENERGY CONTRIBUTION    RADIAL
 FREQUENCY          1821.96         C  4 -- C  7         +25.5% ( 75.9%)     99.4%
 TRANSITION DIPOLE   0.4681         C  3 -- C  6         +15.8% ( 59.8%)     98.3%
 TRAVEL (Ang.)       0.1156         C  6 -- C  7         +15.3% ( 58.9%)     98.8%
 REDUCED MASS        2.7680         C  2 -- C  4          +9.8% ( 47.1%)     43.8%
 EFFECTIVE MASS     11.9444
 FORCE CONSTANT      5.4137

 VIBRATION         42   42A           ATOM PAIR      ENERGY CONTRIBUTION    RADIAL
 FREQUENCY          1845.37         C  2 -- C  5         +20.6% ( 66.7%)     99.6%
 TRANSITION DIPOLE   0.4540         C  4 -- C  7         +13.5% ( 54.0%)     99.7%
 TRAVEL (Ang.)       0.1344         C  3 -- C  6         +10.1% ( 46.5%)     98.7%
 REDUCED MASS        2.0224         C  5 -- C  8          +8.6% ( 43.0%)     62.2%
 EFFECTIVE MASS     11.8468
 FORCE CONSTANT      4.0578

 VIBRATION         43   43A           ATOM PAIR      ENERGY CONTRIBUTION    RADIAL
 FREQUENCY          1866.32         C  2 -- C  5         +20.5% ( 66.9%)     98.0%
 TRANSITION DIPOLE   0.3344         C  3 -- C  6         +17.9% ( 62.4%)     99.9%
 TRAVEL (Ang.)       0.1258         C  2 -- C  4         +10.2% ( 47.2%)     40.3%
 REDUCED MASS        2.2826         C  1 -- C  2          +8.0% ( 41.7%)     23.5%
 EFFECTIVE MASS     11.8428
 FORCE CONSTANT      4.6843

 VIBRATION         44   44A           ATOM PAIR      ENERGY CONTRIBUTION    RADIAL
 FREQUENCY          2245.85         C  9 -- C 10         +42.2% ( 85.3%)    100.0%
 TRANSITION DIPOLE   0.9657         C  8 -- C 10         +42.0% ( 85.2%)     99.8%
 TRAVEL (Ang.)       0.0716         C  5 -- C  8          +4.2% ( 26.8%)     38.7%
 REDUCED MASS        5.8586         C  8 -- H 18          +4.1% ( 26.7%)      4.2%
 EFFECTIVE MASS     11.8585
 FORCE CONSTANT     17.4104

 VIBRATION         45   45A           ATOM PAIR      ENERGY CONTRIBUTION    RADIAL
 FREQUENCY          2916.22         C  1 -- H 12         +49.0% ( 72.6%)     96.5%
 TRANSITION DIPOLE   0.0780         C  1 -- H 11         +48.8% ( 72.5%)     96.5%
 TRAVEL (Ang.)       0.2114         C  1 -- C  2          +1.1% ( 10.8%)      0.0%
 REDUCED MASS        0.5175         C  1 -- C  3          +1.1% ( 10.8%)      0.0%
 EFFECTIVE MASS      1.5345
 FORCE CONSTANT      2.5932

 VIBRATION         46   46A           ATOM PAIR      ENERGY CONTRIBUTION    RADIAL
 FREQUENCY          2995.11         C  1 -- H 11         +48.9% ( 68.9%)     97.8%
 TRANSITION DIPOLE   0.1387         C  1 -- H 12         +48.7% ( 68.8%)     97.8%
 TRAVEL (Ang.)       0.2179         C  1 -- C  3          +0.7% (  8.0%)     19.9%
 REDUCED MASS        0.4743         C  1 -- C  2          +0.6% (  7.9%)     27.7%
 EFFECTIVE MASS      1.2793
 FORCE CONSTANT      2.5068

 VIBRATION         47   47A           ATOM PAIR      ENERGY CONTRIBUTION    RADIAL
 FREQUENCY          3020.67         C  8 -- H 18         +74.1% ( 87.5%)    100.0%
 TRANSITION DIPOLE   0.0811         C  5 -- H 14         +22.3% ( 48.0%)    100.0%
 TRAVEL (Ang.)       0.1940         C  5 -- C  8          +1.6% ( 12.8%)     19.1%
 REDUCED MASS        0.5930         C  8 -- C 10          +1.2% ( 11.0%)     35.2%
 EFFECTIVE MASS      1.5281
 FORCE CONSTANT      3.1879

 VIBRATION         48   48A           ATOM PAIR      ENERGY CONTRIBUTION    RADIAL
 FREQUENCY          3030.97         C  5 -- H 14         +74.3% ( 87.2%)    100.0%
 TRANSITION DIPOLE   0.4361         C  8 -- H 18         +22.2% ( 47.7%)    100.0%
 TRAVEL (Ang.)       0.1943         C  5 -- C  8          +1.1% ( 10.8%)     14.0%
 REDUCED MASS        0.5894         C  2 -- C  5          +1.1% ( 10.7%)     34.6%
 EFFECTIVE MASS      1.5002
 FORCE CONSTANT      3.1902

 VIBRATION         49   49A           ATOM PAIR      ENERGY CONTRIBUTION    RADIAL
 FREQUENCY          3040.71         C  4 -- H 15         +82.6% ( 92.3%)    100.0%
 TRANSITION DIPOLE   0.2540         C  7 -- H 16         +13.6% ( 37.4%)     99.9%
 TRAVEL (Ang.)       0.1792         C  4 -- C  7          +1.3% ( 11.5%)      9.2%
 REDUCED MASS        0.6904         C  2 -- C  4          +1.2% ( 11.2%)     19.9%
 EFFECTIVE MASS      1.4876
 FORCE CONSTANT      3.7612

 VIBRATION         50   50A           ATOM PAIR      ENERGY CONTRIBUTION    RADIAL
 FREQUENCY          3051.11         C  3 -- H 13         +63.0% ( 80.6%)    100.0%
 TRANSITION DIPOLE   0.2502         C  6 -- H 17         +32.3% ( 57.7%)    100.0%
 TRAVEL (Ang.)       0.2121         C  3 -- C  6          +1.1% ( 10.7%)      1.7%
 REDUCED MASS        0.4911         C  7 -- H 16          +1.0% ( 10.3%)     99.7%
 EFFECTIVE MASS      1.4675
 FORCE CONSTANT      2.6936

 VIBRATION         51   51A           ATOM PAIR      ENERGY CONTRIBUTION    RADIAL
 FREQUENCY          3064.64         C  7 -- H 16         +53.4% ( 74.3%)    100.0%
 TRANSITION DIPOLE   0.3456         C  3 -- H 13         +17.4% ( 42.4%)     99.9%
 TRAVEL (Ang.)       0.2508         C  6 -- H 17         +16.6% ( 41.4%)     99.8%
 REDUCED MASS        0.3497         C  4 -- H 15          +9.1% ( 30.6%)     99.7%
 EFFECTIVE MASS      1.5618
 FORCE CONSTANT      1.9350

 VIBRATION         52   52A           ATOM PAIR      ENERGY CONTRIBUTION    RADIAL
 FREQUENCY          3076.10         C  6 -- H 17         +47.9% ( 70.2%)    100.0%
 TRANSITION DIPOLE   0.4695         C  7 -- H 16         +28.9% ( 54.5%)    100.0%
 TRAVEL (Ang.)       0.2540         C  3 -- H 13         +16.0% ( 40.5%)     99.8%
 REDUCED MASS        0.3398         C  4 -- H 15          +3.6% ( 19.1%)     99.6%
 EFFECTIVE MASS      1.5988
 FORCE CONSTANT      1.8945

 VIBRATION         53   53A           ATOM PAIR      ENERGY CONTRIBUTION    RADIAL
 FREQUENCY          3117.10         C  9 -- H 19         +49.3% ( 70.3%)     95.2%
 TRANSITION DIPOLE   0.4330         C  9 -- H 20         +48.9% ( 70.0%)     95.1%
 TRAVEL (Ang.)       0.2110         C  9 -- C 10          +1.8% ( 13.3%)    100.0%
 REDUCED MASS        0.4859
 EFFECTIVE MASS      1.4123
 FORCE CONSTANT      2.7819

 VIBRATION         54   54A           ATOM PAIR      ENERGY CONTRIBUTION    RADIAL
 FREQUENCY          3121.60         C  9 -- H 20         +49.6% ( 72.1%)     97.1%
 TRANSITION DIPOLE   0.2482         C  9 -- H 19         +49.2% ( 71.8%)     97.1%
 TRAVEL (Ang.)       0.2013         C  9 -- C 10          +1.2% ( 11.2%)      0.0%
 REDUCED MASS        0.5332
 EFFECTIVE MASS      1.5942
 FORCE CONSTANT      3.0615

      SYMMETRY NUMBER FOR POINT-GROUP C1  =  1


          SYSTEM IS A GROUND STATE



 InChI=1S/C10H10/c1-2-3-7-10-8-5-4-6-9-10/h3-8H,1,9H2


          MOLECULE IS NOT LINEAR

          THERE ARE 54 GENUINE VIBRATIONS IN THIS SYSTEM
          THIS THERMODYNAMICS CALCULATION IS LIMITED TO
          MOLECULES WHICH HAVE NO INTERNAL ROTATIONS




                    CALCULATED THERMODYNAMIC PROPERTIES
                                          *
   TEMP. (K)   PARTITION FUNCTION   H.O.F.    ENTHALPY  HEAT CAPACITY ENTROPY
                                   KCAL/MOL   CAL/MOLE    CAL/K/MOL  CAL/K/MOL


 298.00  VIB.     0.6239D+03                  4166.9077    29.7479    26.7724
         ROT.     0.7103D+06                   888.2803     2.9808    29.7553
         INT.     0.4431D+09                  5055.1880    32.7287    56.5278
         TRA.     0.1436D+28                  1480.4672     4.9680    40.5022
         TOT.                       85.656    6535.6552    37.6967    97.0299

 200.00  VIB.     0.6462D+02                  1805.8094    18.5804    17.3128
         ROT.     0.3905D+06                   596.1613     2.9808    28.5667
         INT.     0.2524D+08                  2401.9707    21.5612    45.8795
         TRA.     0.7896D+27                   993.6021     4.9680    38.5210
         TOT.                       82.516    3395.5728    26.5292    84.4005

 210.00  VIB.     0.8113D+02                  1997.0213    19.6653    18.2455
         ROT.     0.4202D+06                   625.9693     2.9808    28.7121
         INT.     0.3409D+08                  2622.9906    22.6461    46.9576
         TRA.     0.8496D+27                  1043.2822     4.9680    38.7634
         TOT.                       82.787    3666.2729    27.6141    85.7210

 220.00  VIB.     0.1019D+03                  2199.1790    20.7692    19.1857
         ROT.     0.4506D+06                   655.7774     2.9808    28.8508
         INT.     0.4593D+08                  2854.9564    23.7500    48.0365
         TRA.     0.9110D+27                  1092.9623     4.9680    38.9945
         TOT.                       83.068    3947.9187    28.7181    87.0311

 230.00  VIB.     0.1282D+03                  2412.4625    21.8901    20.1336
         ROT.     0.4816D+06                   685.5855     2.9808    28.9833
         INT.     0.6173D+08                  3098.0479    24.8709    49.1169
         TRA.     0.9738D+27                  1142.6424     4.9680    39.2154
         TOT.                       83.361    4240.6904    29.8389    88.3323

 240.00  VIB.     0.1613D+03                  2637.0283    23.0253    21.0892
         ROT.     0.5134D+06                   715.3935     2.9808    29.1101
         INT.     0.8281D+08                  3352.4218    26.0061    50.1994
         TRA.     0.1038D+28                  1192.3226     4.9680    39.4268
         TOT.                       83.665    4544.7444    30.9741    89.6262

 250.00  VIB.     0.2032D+03                  2873.0063    24.1720    22.0524
         ROT.     0.5458D+06                   745.2016     2.9808    29.2318
         INT.     0.1109D+09                  3618.2079    27.1529    51.2842
         TRA.     0.1103D+28                  1242.0027     4.9680    39.6296
         TOT.                       83.981    4860.2106    32.1209    90.9138

 260.00  VIB.     0.2562D+03                  3120.4984    25.3276    23.0229
         ROT.     0.5789D+06                   775.0097     2.9808    29.3487
         INT.     0.1483D+09                  3895.5080    28.3084    52.3716
         TRA.     0.1170D+28                  1291.6828     4.9680    39.8245
         TOT.                       84.308    5187.1908    33.2764    92.1961

 270.00  VIB.     0.3234D+03                  3379.5773    26.4889    24.0005
         ROT.     0.6126D+06                   804.8177     2.9808    29.4612
         INT.     0.1981D+09                  4184.3950    29.4697    53.4618
         TRA.     0.1239D+28                  1341.3629     4.9680    40.0120
         TOT.                       84.646    5525.7579    34.4378    93.4737

 280.00  VIB.     0.4085D+03                  3650.2870    27.6533    24.9849
         ROT.     0.6469D+06                   834.6258     2.9808    29.5696
         INT.     0.2643D+09                  4484.9128    30.6341    54.5545
         TRA.     0.1308D+28                  1391.0430     4.9680    40.1926
         TOT.                       84.996    5875.9558    35.6021    94.7472

 290.00  VIB.     0.5166D+03                  3932.6434    28.8178    25.9756
         ROT.     0.6819D+06                   864.4339     2.9808    29.6742
         INT.     0.3523D+09                  4797.0773    31.7986    55.6499
         TRA.     0.1379D+28                  1440.7231     4.9680    40.3670
         TOT.                       85.358    6237.8004    36.7666    96.0168

 300.00  VIB.     0.6540D+03                  4226.6356    29.9800    26.9722
         ROT.     0.7175D+06                   894.2419     2.9808    29.7753
         INT.     0.4693D+09                  5120.8775    32.9608    56.7475
         TRA.     0.1451D+28                  1490.4032     4.9680    40.5354
         TOT.                       85.732    6611.2807    37.9288    97.2829

 310.00  VIB.     0.8288D+03                  4532.2275    31.1374    27.9741
         ROT.     0.7537D+06                   924.0500     2.9808    29.8730
         INT.     0.6246D+09                  5456.2775    34.1182    57.8471
         TRA.     0.1524D+28                  1540.0833     4.9680    40.6983
         TOT.                       86.117    6996.3608    39.0862    98.5454

 320.00  VIB.     0.1051D+04                  4849.3598    32.2877    28.9809
         ROT.     0.7904D+06                   953.8580     2.9808    29.9677
         INT.     0.8310D+09                  5803.2178    35.2685    58.9485
         TRA.     0.1598D+28                  1589.7634     4.9680    40.8560
         TOT.                       86.513    7392.9812    40.2366    99.8046

 330.00  VIB.     0.1335D+04                  5177.9521    33.4291    29.9919
         ROT.     0.8278D+06                   983.6661     2.9808    30.0594
         INT.     0.1105D+10                  6161.6183    36.4099    60.0513
         TRA.     0.1674D+28                  1639.4435     4.9680    41.0089
         TOT.                       86.921    7801.0618    41.3779   101.0602

 340.00  VIB.     0.1697D+04                  5517.9054    34.5596    31.0067
         ROT.     0.8657D+06                  1013.4742     2.9808    30.1484
         INT.     0.1469D+10                  6531.3796    37.5404    61.1551
         TRA.     0.1750D+28                  1689.1236     4.9680    41.1572
         TOT.                       87.341    8220.5032    42.5085   102.3123

 350.00  VIB.     0.2158D+04                  5869.1037    35.6778    32.0246
         ROT.     0.9041D+06                  1043.2822     2.9808    30.2348
         INT.     0.1951D+10                  6912.3859    38.6586    62.2594
         TRA.     0.1828D+28                  1738.8037     4.9680    41.3012
         TOT.                       87.772    8651.1896    43.6267   103.5606

 360.00  VIB.     0.2748D+04                  6231.4166    36.7824    33.0452
         ROT.     0.9432D+06                  1073.0903     2.9808    30.3188
         INT.     0.2592D+10                  7304.5069    39.7632    63.3640
         TRA.     0.1907D+28                  1788.4838     4.9680    41.4412
         TOT.                       88.213    9092.9907    44.7312   104.8052

 370.00  VIB.     0.3501D+04                  6604.7014    37.8720    34.0679
         ROT.     0.9827D+06                  1102.8984     2.9808    30.4004
         INT.     0.3441D+10                  7707.5998    40.8529    64.4684
         TRA.     0.1987D+28                  1838.1639     4.9680    41.5773
         TOT.                       88.666    9545.7637    45.8209   106.0457

 380.00  VIB.     0.4465D+04                  6988.8049    38.9460    35.0922
         ROT.     0.1023D+07                  1132.7064     2.9808    30.4799
         INT.     0.4567D+10                  8121.5113    41.9268    65.5721
         TRA.     0.2068D+28                  1887.8440     4.9680    41.7098
         TOT.                       89.130   10009.3554    46.8948   107.2819

 390.00  VIB.     0.5699D+04                  7383.5653    40.0033    36.1176
         ROT.     0.1063D+07                  1162.5145     2.9808    30.5573
         INT.     0.6060D+10                  8546.0798    42.9841    66.6749
         TRA.     0.2150D+28                  1937.5242     4.9680    41.8388
         TOT.                       89.604   10483.6040    47.9521   108.5137

 400.00  VIB.     0.7278D+04                  7788.8140    41.0435    37.1435
         ROT.     0.1105D+07                  1192.3226     2.9808    30.6328
         INT.     0.8040D+10                  8981.1365    44.0243    67.7763
         TRA.     0.2233D+28                  1987.2043     4.9680    41.9646
         TOT.                       90.089   10968.3408    48.9923   109.7409

   *: NOTE: HEATS OF FORMATION ARE RELATIVE TO THE
            ELEMENTS IN THEIR STANDARD STATE AT 298K
              (=  Standard Enthalpy of Formation).

            Hvib:  Zero-point energy is not included.
                   frequencies of less than zero cm-1 are not included.
            Hrot = (3/2)RT
            Htra = (3/2)RT + pV = (5/2)RT

            Heat capacity is Cp, not Cv

          For more information, see: HTTP://OpenMOPAC.net/Manual/thermochemistry.html


           FORCE CONSTANT IN CARTESIAN COORDINATES (Millidynes/A)

    ATOM   CHEMICAL       X               Y               Z
   NUMBER   SYMBOL  FORCE CONSTANT  FORCE CONSTANT  FORCE CONSTANT

      1       C        9.098034        9.184830        7.558453
      2       C       11.390917       13.850858        2.611217
      3       C       11.380200       13.250817        2.366280
      4       C       11.421474       13.754214        2.192742
      5       C       10.977672       14.029555        2.128703
      6       C       11.600061       13.817715        2.187454
      7       C       11.467998       13.800644        2.190792
      8       C       11.190349       13.971358        2.038605
      9       C        6.406654       11.387216        8.400070
     10       C        9.009994       17.343072        1.608234
     11       H        1.094308        1.623042        3.417398
     12       H        1.094064        1.622901        3.417002
     13       H        5.134730        0.770689        0.344887
     14       H        5.029299        0.823631        0.333908
     15       H        5.090025        0.795570        0.341568
     16       H        1.802502        4.114574        0.342343
     17       H        1.655627        4.264283        0.344243
     18       H        4.970788        0.797167        0.309785
     19       H        0.821746        1.402224        4.031053
     20       H        0.836711        1.416455        4.002362

 **********************
 *                    *
 * JOB ENDED NORMALLY *
 *                    *
 **********************



 TOTAL JOB TIME:             3.09 SECONDS

 == MOPAC DONE ==
