 *******************************************************************************
 **                                                                           **
 **                              MOPAC v23.1.2                                **
 **                                                                           **
 *******************************************************************************
 **          Digital Object Identifier (DOI): 10.5281/zenodo.6511958          **
 **    Visit the DOI location for information on how to cite this program.    **
 *******************************************************************************

                              PM3 CALCULATION RESULTS

 *******************************************************************************
 *  CALCULATION DONE: (MAX THREADS = 1)              Tue Jun  3 16:42:01 2025  *
 *  PM3        - The PM3 Hamiltonian to be used
 *  PRECISE    - TIGHTER CRITERIA TO BE USED
 *  NOSYM      - POINT-GROUP SYMMETRY SET TO C1
 *  THREADS=1  - MULTI-THREADING NOT USED
 *  T=         - A TIME OF 172800.0 SECONDS REQUESTED
 *  DUMP=N     - RESTART FILE WRITTEN EVERY 7200.0 SECONDS REQUESTED
 *******************************************************************************
pm3  precise nosym THREADS=1
 InChI=1S/C12H20/c1-4-6-7-10(3)12-9-8-11(12)5-2/h4,7,10-12H,5,8-9H2,1-3H3

   ATOM   CHEMICAL          X               Y               Z
  NUMBER   SYMBOL      (ANGSTROMS)     (ANGSTROMS)     (ANGSTROMS)

     1       C         -0.80010000  *  -0.25900000  *  -1.08010000  *
     2       C         -0.97250000  *   0.90470000  *  -0.08770000  *
     3       C          0.64220000  *  -0.81510000  *  -1.14350000  *
     4       C         -1.34130000  *   1.83260000  *  -1.24410000  *
     5       C         -1.15470000  *   0.68820000  *  -2.23060000  *
     6       C         -2.12050000  *   0.71610000  *   0.91980000  *
     7       C          0.79630000  *  -1.81200000  *  -2.29840000  *
     8       C         -1.74470000  *  -0.27480000  *   2.01790000  *
     9       C          2.68140000  *   0.95480000  *   2.13610000  *
    10       C          0.97680000  *  -1.50810000  *   0.14980000  *
    11       C          2.73310000  *  -0.49660000  *   1.79270000  *
    12       C          1.86000000  *  -1.00990000  *   0.97140000  *
    13       H         -0.02620000  *   1.22940000  *   0.40140000  *
    14       H         -1.56380000  *  -1.06170000  *  -0.96030000  *
    15       H          1.35360000  *   0.02580000  *  -1.31890000  *
    16       H         -3.04230000  *   0.36350000  *   0.40630000  *
    17       H         -2.34460000  *   1.69710000  *   1.39190000  *
    18       H         -2.39140000  *   2.19980000  *  -1.21920000  *
    19       H         -0.59340000  *   2.64250000  *  -1.39090000  *
    20       H         -2.10590000  *   0.40600000  *  -2.73200000  *
    21       H         -0.32140000  *   0.88550000  *  -2.94000000  *
    22       H         -2.55760000  *  -0.31690000  *   2.77340000  *
    23       H         -0.80670000  *   0.04130000  *   2.52190000  *
    24       H         -1.60980000  *  -1.29080000  *   1.59220000  *
    25       H          0.60180000  *  -1.31640000  *  -3.27230000  *
    26       H          1.83330000  *  -2.21080000  *  -2.32020000  *
    27       H          0.08810000  *  -2.66130000  *  -2.18300000  *
    28       H          1.70670000  *   1.19860000  *   2.60940000  *
    29       H          3.50010000  *   1.19920000  *   2.84560000  *
    30       H          2.80780000  *   1.56570000  *   1.21660000  *
    31       H          3.49530000  *  -1.12990000  *   2.22630000  *
    32       H          0.42040000  *  -2.38760000  *   0.44850000  *



          CARTESIAN COORDINATES 

    NO.       ATOM           X           Y           Z

     1         C         -0.8001     -0.2590     -1.0801
     2         C         -0.9725      0.9047     -0.0877
     3         C          0.6422     -0.8151     -1.1435
     4         C         -1.3413      1.8326     -1.2441
     5         C         -1.1547      0.6882     -2.2306
     6         C         -2.1205      0.7161      0.9198
     7         C          0.7963     -1.8120     -2.2984
     8         C         -1.7447     -0.2748      2.0179
     9         C          2.6814      0.9548      2.1361
    10         C          0.9768     -1.5081      0.1498
    11         C          2.7331     -0.4966      1.7927
    12         C          1.8600     -1.0099      0.9714
    13         H         -0.0262      1.2294      0.4014
    14         H         -1.5638     -1.0617     -0.9603
    15         H          1.3536      0.0258     -1.3189
    16         H         -3.0423      0.3635      0.4063
    17         H         -2.3446      1.6971      1.3919
    18         H         -2.3914      2.1998     -1.2192
    19         H         -0.5934      2.6425     -1.3909
    20         H         -2.1059      0.4060     -2.7320
    21         H         -0.3214      0.8855     -2.9400
    22         H         -2.5576     -0.3169      2.7734
    23         H         -0.8067      0.0413      2.5219
    24         H         -1.6098     -1.2908      1.5922
    25         H          0.6018     -1.3164     -3.2723
    26         H          1.8333     -2.2108     -2.3202
    27         H          0.0881     -2.6613     -2.1830
    28         H          1.7067      1.1986      2.6094
    29         H          3.5001      1.1992      2.8456
    30         H          2.8078      1.5657      1.2166
    31         H          3.4953     -1.1299      2.2263
    32         H          0.4204     -2.3876      0.4485

  H: (PM3): J. J. P. STEWART, J. COMP. CHEM. 10, 209 (1989).
  C: (PM3): J. J. P. STEWART, J. COMP. CHEM. 10, 209 (1989).

           Empirical Formula: C12 H20  =    32 atoms



      MOLECULAR POINT GROUP   :   C1  


      RHF CALCULATION, NO. OF DOUBLY OCCUPIED LEVELS = 34


          Geometry optimization using EF

          DIAGONAL MATRIX USED AS START HESSIAN

 CYCLE:     1 TIME:   0.016 TIME LEFT:  2.00D  GRAD.:    87.729 HEAT:  31.16079
 CYCLE:     2 TIME:   0.020 TIME LEFT:  2.00D  GRAD.:    98.452 HEAT:  29.87683
 CYCLE:     3 TIME:   0.008 TIME LEFT:  2.00D  GRAD.:    99.527 HEAT:  28.09693
 CYCLE:     4 TIME:   0.020 TIME LEFT:  2.00D  GRAD.:    90.073 HEAT:  26.62384
 CYCLE:     5 TIME:   0.012 TIME LEFT:  2.00D  GRAD.:    59.336 HEAT:  25.59570
 CYCLE:     6 TIME:   0.012 TIME LEFT:  2.00D  GRAD.:    39.763 HEAT:  24.62993
 CYCLE:     7 TIME:   0.012 TIME LEFT:  2.00D  GRAD.:    50.895 HEAT:  23.95786
 CYCLE:     8 TIME:   0.008 TIME LEFT:  2.00D  GRAD.:    55.529 HEAT:  23.19792
 CYCLE:     9 TIME:   0.012 TIME LEFT:  2.00D  GRAD.:    64.925 HEAT:  22.78848
 CYCLE:    10 TIME:   0.020 TIME LEFT:  2.00D  GRAD.:    45.991 HEAT:  21.87324
 CYCLE:    11 TIME:   0.008 TIME LEFT:  2.00D  GRAD.:    42.244 HEAT:  21.48464
 CYCLE:    12 TIME:   0.012 TIME LEFT:  2.00D  GRAD.:    46.061 HEAT:  21.19137
 CYCLE:    13 TIME:   0.012 TIME LEFT:  2.00D  GRAD.:    38.600 HEAT:  20.71570
 CYCLE:    14 TIME:   0.012 TIME LEFT:  2.00D  GRAD.:    39.568 HEAT:  20.41106
 CYCLE:    15 TIME:   0.012 TIME LEFT:  2.00D  GRAD.:    40.164 HEAT:  20.10343
 CYCLE:    16 TIME:   0.008 TIME LEFT:  2.00D  GRAD.:    33.230 HEAT:  19.70583
 CYCLE:    17 TIME:   0.012 TIME LEFT:  2.00D  GRAD.:    41.898 HEAT:  19.36278
 CYCLE:    18 TIME:   0.012 TIME LEFT:  2.00D  GRAD.:    25.088 HEAT:  18.79260
 CYCLE:    19 TIME:   0.012 TIME LEFT:  2.00D  GRAD.:    42.164 HEAT:  18.56152
 CYCLE:    20 TIME:   0.012 TIME LEFT:  2.00D  GRAD.:    22.094 HEAT:  18.01399
 CYCLE:    21 TIME:   0.031 TIME LEFT:  2.00D  GRAD.:    14.129 HEAT:  17.84937
 CYCLE:    22 TIME:   0.012 TIME LEFT:  2.00D  GRAD.:    18.346 HEAT:  17.78602
 CYCLE:    23 TIME:   0.012 TIME LEFT:  2.00D  GRAD.:    14.073 HEAT:  17.62741
 CYCLE:    24 TIME:   0.012 TIME LEFT:  2.00D  GRAD.:     9.731 HEAT:  17.47756
 CYCLE:    25 TIME:   0.012 TIME LEFT:  2.00D  GRAD.:    12.402 HEAT:  17.24965
 CYCLE:    26 TIME:   0.008 TIME LEFT:  2.00D  GRAD.:    14.991 HEAT:  16.96363
 CYCLE:    27 TIME:   0.016 TIME LEFT:  2.00D  GRAD.:    18.932 HEAT:  16.84280
 CYCLE:    28 TIME:   0.012 TIME LEFT:  2.00D  GRAD.:    21.593 HEAT:  16.72683
 CYCLE:    29 TIME:   0.012 TIME LEFT:  2.00D  GRAD.:    21.251 HEAT:  16.58435
 CYCLE:    30 TIME:   0.012 TIME LEFT:  2.00D  GRAD.:    15.958 HEAT:  16.37905
 CYCLE:    31 TIME:   0.012 TIME LEFT:  2.00D  GRAD.:    16.205 HEAT:  16.24120
 CYCLE:    32 TIME:   0.012 TIME LEFT:  2.00D  GRAD.:    14.474 HEAT:  16.07648
 CYCLE:    33 TIME:   0.012 TIME LEFT:  2.00D  GRAD.:    11.660 HEAT:  15.96519
 CYCLE:    34 TIME:   0.012 TIME LEFT:  2.00D  GRAD.:     9.907 HEAT:  15.89796
 CYCLE:    35 TIME:   0.012 TIME LEFT:  2.00D  GRAD.:     7.113 HEAT:  15.81916
 CYCLE:    36 TIME:   0.008 TIME LEFT:  2.00D  GRAD.:     9.230 HEAT:  15.75306
 CYCLE:    37 TIME:   0.012 TIME LEFT:  2.00D  GRAD.:    10.897 HEAT:  15.71340
 CYCLE:    38 TIME:   0.012 TIME LEFT:  2.00D  GRAD.:     8.251 HEAT:  15.65874
 CYCLE:    39 TIME:   0.008 TIME LEFT:  2.00D  GRAD.:     8.726 HEAT:  15.58713
 CYCLE:    40 TIME:   0.016 TIME LEFT:  2.00D  GRAD.:     8.447 HEAT:  15.50765
 CYCLE:    41 TIME:   0.012 TIME LEFT:  2.00D  GRAD.:     9.091 HEAT:  15.43265
 CYCLE:    42 TIME:   0.012 TIME LEFT:  2.00D  GRAD.:     8.161 HEAT:  15.38371
 CYCLE:    43 TIME:   0.012 TIME LEFT:  2.00D  GRAD.:     5.854 HEAT:  15.32600
 CYCLE:    44 TIME:   0.008 TIME LEFT:  2.00D  GRAD.:     5.461 HEAT:  15.27330
 CYCLE:    45 TIME:   0.012 TIME LEFT:  2.00D  GRAD.:     5.851 HEAT:  15.22708
 CYCLE:    46 TIME:   0.012 TIME LEFT:  2.00D  GRAD.:     5.265 HEAT:  15.17305
 CYCLE:    47 TIME:   0.012 TIME LEFT:  2.00D  GRAD.:     5.278 HEAT:  15.12289
 CYCLE:    48 TIME:   0.012 TIME LEFT:  2.00D  GRAD.:     4.888 HEAT:  15.08894
 CYCLE:    49 TIME:   0.012 TIME LEFT:  2.00D  GRAD.:     4.466 HEAT:  15.06457
 CYCLE:    50 TIME:   0.012 TIME LEFT:  2.00D  GRAD.:     3.446 HEAT:  15.04569
 CYCLE:    51 TIME:   0.008 TIME LEFT:  2.00D  GRAD.:     2.820 HEAT:  15.03376
 CYCLE:    52 TIME:   0.012 TIME LEFT:  2.00D  GRAD.:     2.547 HEAT:  15.02407
 CYCLE:    53 TIME:   0.012 TIME LEFT:  2.00D  GRAD.:     2.820 HEAT:  15.01608
 CYCLE:    54 TIME:   0.012 TIME LEFT:  2.00D  GRAD.:     2.340 HEAT:  15.00581
 CYCLE:    55 TIME:   0.012 TIME LEFT:  2.00D  GRAD.:     2.102 HEAT:  14.99570
 CYCLE:    56 TIME:   0.012 TIME LEFT:  2.00D  GRAD.:     2.382 HEAT:  14.98704
 CYCLE:    57 TIME:   0.012 TIME LEFT:  2.00D  GRAD.:     2.505 HEAT:  14.97606
 CYCLE:    58 TIME:   0.008 TIME LEFT:  2.00D  GRAD.:     2.808 HEAT:  14.96155
 CYCLE:    59 TIME:   0.012 TIME LEFT:  2.00D  GRAD.:     2.878 HEAT:  14.94197
 CYCLE:    60 TIME:   0.012 TIME LEFT:  2.00D  GRAD.:     3.294 HEAT:  14.91777
 CYCLE:    61 TIME:   0.012 TIME LEFT:  2.00D  GRAD.:     3.411 HEAT:  14.89536
 CYCLE:    62 TIME:   0.012 TIME LEFT:  2.00D  GRAD.:     3.060 HEAT:  14.87506
 CYCLE:    63 TIME:   0.008 TIME LEFT:  2.00D  GRAD.:     2.956 HEAT:  14.85807
 CYCLE:    64 TIME:   0.016 TIME LEFT:  2.00D  GRAD.:     3.055 HEAT:  14.84185
 CYCLE:    65 TIME:   0.008 TIME LEFT:  2.00D  GRAD.:     3.040 HEAT:  14.82679
 CYCLE:    66 TIME:   0.012 TIME LEFT:  2.00D  GRAD.:     2.712 HEAT:  14.80966
 CYCLE:    67 TIME:   0.012 TIME LEFT:  2.00D  GRAD.:     2.523 HEAT:  14.79477
 CYCLE:    68 TIME:   0.012 TIME LEFT:  2.00D  GRAD.:     2.648 HEAT:  14.77902
 CYCLE:    69 TIME:   0.012 TIME LEFT:  2.00D  GRAD.:     2.750 HEAT:  14.76011
 CYCLE:    70 TIME:   0.012 TIME LEFT:  2.00D  GRAD.:     4.109 HEAT:  14.74172
 CYCLE:    71 TIME:   0.012 TIME LEFT:  2.00D  GRAD.:     3.667 HEAT:  14.72416
 CYCLE:    72 TIME:   0.012 TIME LEFT:  2.00D  GRAD.:     2.629 HEAT:  14.70654
 CYCLE:    73 TIME:   0.012 TIME LEFT:  2.00D  GRAD.:     2.413 HEAT:  14.68830
 CYCLE:    74 TIME:   0.008 TIME LEFT:  2.00D  GRAD.:     2.494 HEAT:  14.67854
 CYCLE:    75 TIME:   0.012 TIME LEFT:  2.00D  GRAD.:     2.067 HEAT:  14.66573
 CYCLE:    76 TIME:   0.012 TIME LEFT:  2.00D  GRAD.:     1.941 HEAT:  14.65570
 CYCLE:    77 TIME:   0.012 TIME LEFT:  2.00D  GRAD.:     1.610 HEAT:  14.64851
 CYCLE:    78 TIME:   0.012 TIME LEFT:  2.00D  GRAD.:     2.084 HEAT:  14.64325
 CYCLE:    79 TIME:   0.012 TIME LEFT:  2.00D  GRAD.:     1.839 HEAT:  14.63641
 CYCLE:    80 TIME:   0.012 TIME LEFT:  2.00D  GRAD.:     1.749 HEAT:  14.62767
 CYCLE:    81 TIME:   0.008 TIME LEFT:  2.00D  GRAD.:     1.597 HEAT:  14.62259
 CYCLE:    82 TIME:   0.012 TIME LEFT:  2.00D  GRAD.:     1.606 HEAT:  14.61679
 CYCLE:    83 TIME:   0.012 TIME LEFT:  2.00D  GRAD.:     1.413 HEAT:  14.61293
 CYCLE:    84 TIME:   0.012 TIME LEFT:  2.00D  GRAD.:     1.255 HEAT:  14.60834
 CYCLE:    85 TIME:   0.012 TIME LEFT:  2.00D  GRAD.:     1.125 HEAT:  14.60520
 CYCLE:    86 TIME:   0.012 TIME LEFT:  2.00D  GRAD.:     1.031 HEAT:  14.60202
 CYCLE:    87 TIME:   0.008 TIME LEFT:  2.00D  GRAD.:     1.002 HEAT:  14.59933
 CYCLE:    88 TIME:   0.012 TIME LEFT:  2.00D  GRAD.:     1.035 HEAT:  14.59643
 CYCLE:    89 TIME:   0.012 TIME LEFT:  2.00D  GRAD.:     1.166 HEAT:  14.59320
 CYCLE:    90 TIME:   0.012 TIME LEFT:  2.00D  GRAD.:     1.468 HEAT:  14.58901
 CYCLE:    91 TIME:   0.008 TIME LEFT:  2.00D  GRAD.:     1.653 HEAT:  14.58409
 CYCLE:    92 TIME:   0.012 TIME LEFT:  2.00D  GRAD.:     1.797 HEAT:  14.57748
 CYCLE:    93 TIME:   0.012 TIME LEFT:  2.00D  GRAD.:     1.278 HEAT:  14.57340
 CYCLE:    94 TIME:   0.012 TIME LEFT:  2.00D  GRAD.:     2.097 HEAT:  14.56902
 CYCLE:    95 TIME:   0.012 TIME LEFT:  2.00D  GRAD.:     1.433 HEAT:  14.56560
 CYCLE:    96 TIME:   0.012 TIME LEFT:  2.00D  GRAD.:     0.817 HEAT:  14.56351
 CYCLE:    97 TIME:   0.008 TIME LEFT:  2.00D  GRAD.:     0.783 HEAT:  14.56052
 CYCLE:    98 TIME:   0.012 TIME LEFT:  2.00D  GRAD.:     0.968 HEAT:  14.55855
 CYCLE:    99 TIME:   0.012 TIME LEFT:  2.00D  GRAD.:     0.777 HEAT:  14.55744
 CYCLE:   100 TIME:   0.012 TIME LEFT:  2.00D  GRAD.:     0.485 HEAT:  14.55631
 CYCLE:   101 TIME:   0.012 TIME LEFT:  2.00D  GRAD.:     0.471 HEAT:  14.55581
 CYCLE:   102 TIME:   0.008 TIME LEFT:  2.00D  GRAD.:     0.432 HEAT:  14.55498
 CYCLE:   103 TIME:   0.012 TIME LEFT:  2.00D  GRAD.:     0.412 HEAT:  14.55457
 CYCLE:   104 TIME:   0.012 TIME LEFT:  2.00D  GRAD.:     0.620 HEAT:  14.55365
 CYCLE:   105 TIME:   0.016 TIME LEFT:  2.00D  GRAD.:     0.519 HEAT:  14.55301
 CYCLE:   106 TIME:   0.008 TIME LEFT:  2.00D  GRAD.:     0.482 HEAT:  14.55202
 CYCLE:   107 TIME:   0.012 TIME LEFT:  2.00D  GRAD.:     0.527 HEAT:  14.55141
 CYCLE:   108 TIME:   0.012 TIME LEFT:  2.00D  GRAD.:     0.768 HEAT:  14.55083
 CYCLE:   109 TIME:   0.012 TIME LEFT:  2.00D  GRAD.:     0.534 HEAT:  14.54994
 CYCLE:   110 TIME:   0.012 TIME LEFT:  2.00D  GRAD.:     0.377 HEAT:  14.54922
 CYCLE:   111 TIME:   0.012 TIME LEFT:  2.00D  GRAD.:     0.380 HEAT:  14.54865
 CYCLE:   112 TIME:   0.012 TIME LEFT:  2.00D  GRAD.:     0.481 HEAT:  14.54770
 CYCLE:   113 TIME:   0.012 TIME LEFT:  2.00D  GRAD.:     0.499 HEAT:  14.54720
 CYCLE:   114 TIME:   0.012 TIME LEFT:  2.00D  GRAD.:     0.762 HEAT:  14.54586
 CYCLE:   115 TIME:   0.012 TIME LEFT:  2.00D  GRAD.:     0.692 HEAT:  14.54491
 CYCLE:   116 TIME:   0.012 TIME LEFT:  2.00D  GRAD.:     1.389 HEAT:  14.53917
 CYCLE:   117 TIME:   0.012 TIME LEFT:  2.00D  GRAD.:     8.509 HEAT:  14.39359
 CYCLE:   118 TIME:   0.039 TIME LEFT:  2.00D  GRAD.:    12.320 HEAT:  14.32323
 CYCLE:   119 TIME:   0.020 TIME LEFT:  2.00D  GRAD.:     9.404 HEAT:  14.31757
 CYCLE:   120 TIME:   0.012 TIME LEFT:  2.00D  GRAD.:     6.116 HEAT:  14.25251
 CYCLE:   121 TIME:   0.012 TIME LEFT:  2.00D  GRAD.:     6.352 HEAT:  14.19659
 CYCLE:   122 TIME:   0.012 TIME LEFT:  2.00D  GRAD.:     6.835 HEAT:  14.11032
 CYCLE:   123 TIME:   0.012 TIME LEFT:  2.00D  GRAD.:     5.468 HEAT:  13.96104
 CYCLE:   124 TIME:   0.012 TIME LEFT:  2.00D  GRAD.:     4.681 HEAT:  13.87115
 CYCLE:   125 TIME:   0.012 TIME LEFT:  2.00D  GRAD.:     4.898 HEAT:  13.80763
 CYCLE:   126 TIME:   0.016 TIME LEFT:  2.00D  GRAD.:     3.102 HEAT:  13.77728
 CYCLE:   127 TIME:   0.016 TIME LEFT:  2.00D  GRAD.:     6.109 HEAT:  13.73817
 CYCLE:   128 TIME:   0.008 TIME LEFT:  2.00D  GRAD.:     4.410 HEAT:  13.70020
 CYCLE:   129 TIME:   0.012 TIME LEFT:  2.00D  GRAD.:     4.181 HEAT:  13.63500
 CYCLE:   130 TIME:   0.012 TIME LEFT:  2.00D  GRAD.:     5.475 HEAT:  13.59751
 CYCLE:   131 TIME:   0.012 TIME LEFT:  2.00D  GRAD.:     5.495 HEAT:  13.53644
 CYCLE:   132 TIME:   0.012 TIME LEFT:  2.00D  GRAD.:     7.644 HEAT:  13.51204
 CYCLE:   133 TIME:   0.008 TIME LEFT:  2.00D  GRAD.:     4.497 HEAT:  13.47593
 CYCLE:   134 TIME:   0.012 TIME LEFT:  2.00D  GRAD.:     2.349 HEAT:  13.45112
 CYCLE:   135 TIME:   0.012 TIME LEFT:  2.00D  GRAD.:     2.434 HEAT:  13.43707
 CYCLE:   136 TIME:   0.012 TIME LEFT:  2.00D  GRAD.:     1.689 HEAT:  13.43061
 CYCLE:   137 TIME:   0.012 TIME LEFT:  2.00D  GRAD.:     1.243 HEAT:  13.42540
 CYCLE:   138 TIME:   0.012 TIME LEFT:  2.00D  GRAD.:     1.038 HEAT:  13.42267
 CYCLE:   139 TIME:   0.008 TIME LEFT:  2.00D  GRAD.:     0.911 HEAT:  13.42100
 CYCLE:   140 TIME:   0.012 TIME LEFT:  2.00D  GRAD.:     0.981 HEAT:  13.41934
 CYCLE:   141 TIME:   0.012 TIME LEFT:  2.00D  GRAD.:     1.003 HEAT:  13.41797
 CYCLE:   142 TIME:   0.012 TIME LEFT:  2.00D  GRAD.:     1.270 HEAT:  13.41451
 CYCLE:   143 TIME:   0.012 TIME LEFT:  2.00D  GRAD.:     1.281 HEAT:  13.41132
 CYCLE:   144 TIME:   0.012 TIME LEFT:  2.00D  GRAD.:     1.436 HEAT:  13.40203
 CYCLE:   145 TIME:   0.012 TIME LEFT:  2.00D  GRAD.:     1.113 HEAT:  13.39930
 CYCLE:   146 TIME:   0.012 TIME LEFT:  2.00D  GRAD.:     0.908 HEAT:  13.39589
 CYCLE:   147 TIME:   0.012 TIME LEFT:  2.00D  GRAD.:     0.937 HEAT:  13.39500
 CYCLE:   148 TIME:   0.008 TIME LEFT:  2.00D  GRAD.:     0.654 HEAT:  13.39406
 CYCLE:   149 TIME:   0.016 TIME LEFT:  2.00D  GRAD.:     0.568 HEAT:  13.39365
 CYCLE:   150 TIME:   0.008 TIME LEFT:  2.00D  GRAD.:     0.690 HEAT:  13.39283
 CYCLE:   151 TIME:   0.012 TIME LEFT:  2.00D  GRAD.:     0.502 HEAT:  13.39223
 CYCLE:   152 TIME:   0.012 TIME LEFT:  2.00D  GRAD.:     0.405 HEAT:  13.39169
 CYCLE:   153 TIME:   0.012 TIME LEFT:  2.00D  GRAD.:     0.425 HEAT:  13.39108
 CYCLE:   154 TIME:   0.012 TIME LEFT:  2.00D  GRAD.:     0.404 HEAT:  13.39040
 CYCLE:   155 TIME:   0.008 TIME LEFT:  2.00D  GRAD.:     0.318 HEAT:  13.38993
 CYCLE:   156 TIME:   0.012 TIME LEFT:  2.00D  GRAD.:     0.264 HEAT:  13.38975
 CYCLE:   157 TIME:   0.012 TIME LEFT:  2.00D  GRAD.:     0.205 HEAT:  13.38965
 CYCLE:   158 TIME:   0.012 TIME LEFT:  2.00D  GRAD.:     0.209 HEAT:  13.38957
 CYCLE:   159 TIME:   0.012 TIME LEFT:  2.00D  GRAD.:     0.178 HEAT:  13.38953
 CYCLE:   160 TIME:   0.012 TIME LEFT:  2.00D  GRAD.:     0.185 HEAT:  13.38946
 CYCLE:   161 TIME:   0.008 TIME LEFT:  2.00D  GRAD.:     0.252 HEAT:  13.38934
 CYCLE:   162 TIME:   0.012 TIME LEFT:  2.00D  GRAD.:     0.354 HEAT:  13.38911
 CYCLE:   163 TIME:   0.012 TIME LEFT:  2.00D  GRAD.:     0.535 HEAT:  13.38872
 CYCLE:   164 TIME:   0.012 TIME LEFT:  2.00D  GRAD.:     0.478 HEAT:  13.38776
 CYCLE:   165 TIME:   0.012 TIME LEFT:  2.00D  GRAD.:     0.355 HEAT:  13.38674
 CYCLE:   166 TIME:   0.008 TIME LEFT:  2.00D  GRAD.:     0.281 HEAT:  13.38648
 CYCLE:   167 TIME:   0.012 TIME LEFT:  2.00D  GRAD.:     0.133 HEAT:  13.38634
 CYCLE:   168 TIME:   0.012 TIME LEFT:  2.00D  GRAD.:     0.097 HEAT:  13.38631
 CYCLE:   169 TIME:   0.012 TIME LEFT:  2.00D  GRAD.:     0.092 HEAT:  13.38628
 CYCLE:   170 TIME:   0.012 TIME LEFT:  2.00D  GRAD.:     0.134 HEAT:  13.38625
 CYCLE:   171 TIME:   0.008 TIME LEFT:  2.00D  GRAD.:     0.152 HEAT:  13.38622
 CYCLE:   172 TIME:   0.012 TIME LEFT:  2.00D  GRAD.:     0.204 HEAT:  13.38611
 CYCLE:   173 TIME:   0.012 TIME LEFT:  2.00D  GRAD.:     0.234 HEAT:  13.38597
 CYCLE:   174 TIME:   0.012 TIME LEFT:  2.00D  GRAD.:     0.326 HEAT:  13.38567
 CYCLE:   175 TIME:   0.012 TIME LEFT:  2.00D  GRAD.:     0.390 HEAT:  13.38532
 CYCLE:   176 TIME:   0.012 TIME LEFT:  2.00D  GRAD.:     0.371 HEAT:  13.38506
 CYCLE:   177 TIME:   0.008 TIME LEFT:  2.00D  GRAD.:     0.227 HEAT:  13.38478
 CYCLE:   178 TIME:   0.012 TIME LEFT:  2.00D  GRAD.:     0.178 HEAT:  13.38476
 CYCLE:   179 TIME:   0.012 TIME LEFT:  2.00D  GRAD.:     0.116 HEAT:  13.38466
 CYCLE:   180 TIME:   0.012 TIME LEFT:  2.00D  GRAD.:     0.417 HEAT:  13.38561
 CYCLE:   181 TIME:   0.012 TIME LEFT:  2.00D  GRAD.:     0.118 HEAT:  13.38462
 CYCLE:   182 TIME:   0.012 TIME LEFT:  2.00D  GRAD.:     0.103 HEAT:  13.38460
 CYCLE:   183 TIME:   0.012 TIME LEFT:  2.00D  GRAD.:     0.125 HEAT:  13.38454
 CYCLE:   184 TIME:   0.008 TIME LEFT:  2.00D  GRAD.:     0.162 HEAT:  13.38449
 CYCLE:   185 TIME:   0.012 TIME LEFT:  2.00D  GRAD.:     0.224 HEAT:  13.38439
 CYCLE:   186 TIME:   0.012 TIME LEFT:  2.00D  GRAD.:     0.352 HEAT:  13.38419
 CYCLE:   187 TIME:   0.012 TIME LEFT:  2.00D  GRAD.:     0.272 HEAT:  13.38399
 CYCLE:   188 TIME:   0.012 TIME LEFT:  2.00D  GRAD.:     0.174 HEAT:  13.38386
 CYCLE:   189 TIME:   0.008 TIME LEFT:  2.00D  GRAD.:     0.092 HEAT:  13.38379
 CYCLE:   190 TIME:   0.012 TIME LEFT:  2.00D  GRAD.:     0.059 HEAT:  13.38375
 CYCLE:   191 TIME:   0.012 TIME LEFT:  2.00D  GRAD.:     0.047 HEAT:  13.38374

     GRADIENT =  0.04655 IS LESS THAN CUTOFF =  0.05000



 -------------------------------------------------------------------------------
 pm3  precise nosym THREADS=1
 InChI=1S/C12H20/c1-4-6-7-10(3)12-9-8-11(12)5-2/h4,7,10-12H,5,8-9H2,1-3H3



     GEOMETRY OPTIMISED USING EIGENVECTOR FOLLOWING (EF).     
     SCF FIELD WAS ACHIEVED                                   


                              PM3 CALCULATION
                                                       MOPAC v23.1.2 MacOS
                                                       Tue Jun  3 16:42:04 2025




          FINAL HEAT OF FORMATION =         13.38373 KCAL/MOL =      55.99755 KJ/MOL


          COSMO AREA              =        225.10 SQUARE ANGSTROMS
          COSMO VOLUME            =        249.06 CUBIC ANGSTROMS

          GRADIENT NORM           =          0.04655          =       0.00823 PER ATOM
          IONIZATION POTENTIAL    =          9.760051 EV
          HOMO LUMO ENERGIES (EV) =         -9.760  1.079
          NO. OF FILLED LEVELS    =         34
          MOLECULAR WEIGHT        =        164.2900         POINT GROUP:  C1  

          MOLECULAR DIMENSIONS (Angstroms)

            Atom       Atom       Distance
            H    29    H    20     8.06045
            H    26    H    22     6.64077
            H    32    H    19     4.82300


          SCF CALCULATIONS        =        203

          WALL-CLOCK TIME         =      2.242 SECONDS
          COMPUTATION TIME        =      1.696 SECONDS




   ATOM   CHEMICAL          X               Y               Z
  NUMBER   SYMBOL      (ANGSTROMS)     (ANGSTROMS)     (ANGSTROMS)

     1       C         -0.79279468  *  -0.29786977  *  -1.11257596  *
     2       C         -0.92817247  *   0.94037948  *  -0.17553021  *
     3       C          0.62149346  *  -0.85227783  *  -1.26169504  *
     4       C         -1.43513396  *   1.78038534  *  -1.37177202  *
     5       C         -1.28197014  *   0.56528499  *  -2.30230712  *
     6       C         -1.92743652  *   0.80420189  *   0.95508158  *
     7       C          0.67497980  *  -1.91075994  *  -2.35391575  *
     8       C         -1.37672281  *  -0.01239956  *   2.10182653  *
     9       C          2.31402167  *   0.65891738  *   2.67840816  *
    10       C          1.06534030  *  -1.45799621  *   0.03697254  *
    11       C          2.76242867  *  -0.28446470  *   1.62635107  *
    12       C          1.92490212  *  -0.87691935  *   0.82331717  *
    13       H          0.05092590  *   1.28415623  *   0.22523137  *
    14       H         -1.49203489  *  -1.12039102  *  -0.84812167  *
    15       H          1.30855769  *  -0.01498079  *  -1.53920667  *
    16       H         -2.86779462  *   0.35017201  *   0.58267216  *
    17       H         -2.20587366  *   1.81666050  *   1.30957370  *
    18       H         -2.46515858  *   2.15505549  *  -1.26622620  *
    19       H         -0.80086789  *   2.64200019  *  -1.62736755  *
    20       H         -2.21661271  *   0.21518589  *  -2.76488034  *
    21       H         -0.54765814  *   0.69538839  *  -3.11295553  *
    22       H         -2.10776504  *  -0.10826840  *   2.91372089  *
    23       H         -0.46456101  *   0.44282240  *   2.52601940  *
    24       H         -1.10364608  *  -1.02616623  *   1.77457264  *
    25       H          0.37011542  *  -1.49640721  *  -3.32416252  *
    26       H          1.69041978  *  -2.31065211  *  -2.46821021  *
    27       H          0.01009886  *  -2.75709288  *  -2.13420546  *
    28       H          1.21611020  *   0.77097342  *   2.70389582  *
    29       H          2.63807412  *   0.31397612  *   3.66887341  *
    30       H          2.74785525  *   1.65362488  *   2.51256878  *
    31       H          3.83884026  *  -0.47430051  *   1.53905067  *
    32       H          0.62081271  *  -2.42079533  *   0.32042611  *

                             CARTESIAN COORDINATES

   1    C       -0.792794678    -0.297869769    -1.112575958
   2    C       -0.928172468     0.940379483    -0.175530211
   3    C        0.621493460    -0.852277831    -1.261695037
   4    C       -1.435133964     1.780385336    -1.371772022
   5    C       -1.281970138     0.565284991    -2.302307121
   6    C       -1.927436521     0.804201889     0.955081583
   7    C        0.674979804    -1.910759945    -2.353915748
   8    C       -1.376722808    -0.012399557     2.101826532
   9    C        2.314021674     0.658917381     2.678408155
  10    C        1.065340302    -1.457996207     0.036972540
  11    C        2.762428670    -0.284464698     1.626351066
  12    C        1.924902124    -0.876919351     0.823317170
  13    H        0.050925904     1.284156228     0.225231366
  14    H       -1.492034889    -1.120391016    -0.848121672
  15    H        1.308557689    -0.014980790    -1.539206670
  16    H       -2.867794617     0.350172007     0.582672161
  17    H       -2.205873659     1.816660496     1.309573700
  18    H       -2.465158583     2.155055491    -1.266226199
  19    H       -0.800867894     2.642000191    -1.627367554
  20    H       -2.216612708     0.215185890    -2.764880335
  21    H       -0.547658136     0.695388393    -3.112955530
  22    H       -2.107765038    -0.108268403     2.913720895
  23    H       -0.464561012     0.442822398     2.526019396
  24    H       -1.103646080    -1.026166234     1.774572640
  25    H        0.370115423    -1.496407207    -3.324162523
  26    H        1.690419781    -2.310652109    -2.468210210
  27    H        0.010098859    -2.757092881    -2.134205458
  28    H        1.216110198     0.770973422     2.703895815
  29    H        2.638074123     0.313976116     3.668873414
  30    H        2.747855253     1.653624883     2.512568778
  31    H        3.838840265    -0.474300514     1.539050673
  32    H        0.620812709    -2.420795326     0.320426109


           Empirical Formula: C12 H20  =    32 atoms



      MOLECULAR POINT GROUP   :   C1  


                  EIGENVALUES  
 -42.12595 -36.15146 -34.76199 -32.36304 -28.47189 -25.24610 -25.05863 -23.71154
 -21.48971 -20.46875 -19.10210 -17.59021 -17.07684 -16.44955 -15.94875 -15.37978
 -15.07195 -14.94839 -14.32336 -14.15178 -13.85546 -13.77403 -13.63001 -12.90748
 -12.80495 -12.73341 -12.37493 -12.03643 -11.73781 -11.47252 -11.30773 -11.00307
  -9.89243  -9.76005   1.07933   1.10984   2.99766   3.24448   3.37237   3.50971
   3.65174   3.69225   3.81785   3.87181   3.98005   4.02213   4.04828   4.13903
   4.18296   4.21821   4.30863   4.37977   4.40452   4.45279   4.51871   4.54270
   4.56185   4.73282   4.82747   4.95742   4.99852   5.04279   5.11269   5.18921
   5.32420   5.54966   5.68921   6.62806


              NET ATOMIC CHARGES AND DIPOLE CONTRIBUTIONS

  ATOM NO.   TYPE          CHARGE      No. of ELECS.   s-Pop       p-Pop       
    1          C          -0.090576        4.0906     1.19678     2.89379
    2          C          -0.096369        4.0964     1.19496     2.90141
    3          C          -0.025297        4.0253     1.16298     2.86232
    4          C          -0.110241        4.1102     1.17365     2.93660
    5          C          -0.109537        4.1095     1.17366     2.93587
    6          C          -0.085842        4.0858     1.15674     2.92910
    7          C          -0.111425        4.1114     1.14183     2.96959
    8          C          -0.126578        4.1266     1.14301     2.98356
    9          C          -0.079302        4.0793     1.12729     2.95202
   10          C          -0.066352        4.0664     1.16443     2.90192
   11          C          -0.069761        4.0698     1.15883     2.91093
   12          C          -0.202762        4.2028     1.21448     2.98828
   13          H           0.081569        0.9184     0.91843
   14          H           0.077280        0.9227     0.92272
   15          H           0.071550        0.9285     0.92845
   16          H           0.050219        0.9498     0.94978
   17          H           0.048316        0.9517     0.95168
   18          H           0.058006        0.9420     0.94199
   19          H           0.054937        0.9451     0.94506
   20          H           0.055002        0.9450     0.94500
   21          H           0.059719        0.9403     0.94028
   22          H           0.037539        0.9625     0.96246
   23          H           0.047444        0.9526     0.95256
   24          H           0.045160        0.9548     0.95484
   25          H           0.042055        0.9579     0.95794
   26          H           0.042096        0.9579     0.95790
   27          H           0.039903        0.9601     0.96010
   28          H           0.054965        0.9450     0.94504
   29          H           0.044836        0.9552     0.95516
   30          H           0.045100        0.9549     0.95490
   31          H           0.107084        0.8929     0.89292
   32          H           0.111261        0.8887     0.88874
 DIPOLE           X         Y         Z       TOTAL
 POINT-CHG.    -0.062     0.214     0.066     0.233
 HYBRID         0.022    -0.071     0.010     0.075
 SUM           -0.040     0.143     0.077     0.167


          ATOMIC ORBITAL ELECTRON POPULATIONS

     Atom    s        px        py        pz   
    1  C   1.19678   0.96372   0.96451   0.96556
    2  C   1.19496   0.99738   0.96228   0.94175
    3  C   1.16298   0.96017   0.97536   0.92678
    4  C   1.17365   1.01115   0.96062   0.96482
    5  C   1.17366   1.01118   0.96588   0.95882
    6  C   1.15674   0.97491   0.99857   0.95562
    7  C   1.14183   1.01145   0.98025   0.97789
    8  C   1.14301   1.00553   1.00280   0.97523
    9  C   1.12729   1.01293   0.97347   0.96561
   10  C   1.16443   0.96487   0.98505   0.95201
   11  C   1.15883   0.96518   0.98274   0.96301
   12  C   1.21448   0.99137   1.00272   0.99419
   13  H   0.91843
   14  H   0.92272
   15  H   0.92845
   16  H   0.94978
   17  H   0.95168
   18  H   0.94199
   19  H   0.94506
   20  H   0.94500
   21  H   0.94028
   22  H   0.96246
   23  H   0.95256
   24  H   0.95484
   25  H   0.95794
   26  H   0.95790
   27  H   0.96010
   28  H   0.94504
   29  H   0.95516
   30  H   0.95490
   31  H   0.89292
   32  H   0.88874
 *******************************************************************************
 **                                                                           **
 **                              MOPAC v23.1.2                                **
 **                                                                           **
 *******************************************************************************
 **          Digital Object Identifier (DOI): 10.5281/zenodo.6511958          **
 **    Visit the DOI location for information on how to cite this program.    **
 *******************************************************************************

                              PM3 CALCULATION RESULTS

 *******************************************************************************
 *  CALCULATION DONE: (MAX THREADS = 1)              Tue Jun  3 16:42:04 2025  *
 *  PM3        - The PM3 Hamiltonian to be used
 *  OLDGEO     - PREVIOUS GEOMETRY TO BE USED
 *  PRECISE    - TIGHTER CRITERIA TO BE USED
 *  NOSYM      - POINT-GROUP SYMMETRY SET TO C1
 *  THREADS=1  - MULTI-THREADING NOT USED
 *  T=         - A TIME OF 172800.0 SECONDS REQUESTED
 *  DUMP=N     - RESTART FILE WRITTEN EVERY 7200.0 SECONDS REQUESTED
 *  THERMO     - THERMODYNAMIC QUANTITIES TO BE CALCULATED
 *******************************************************************************
oldgeo thermo nosym precise THREADS=1  pm3
 InChI=1S/C12H20/c1-4-6-7-10(3)12-9-8-11(12)5-2/h4,7,10-12H,5,8-9H2,1-3H3

   ATOM   CHEMICAL          X               Y               Z
  NUMBER   SYMBOL      (ANGSTROMS)     (ANGSTROMS)     (ANGSTROMS)

     1       C         -0.79279468  *  -0.29786977  *  -1.11257596  *
     2       C         -0.92817247  *   0.94037948  *  -0.17553021  *
     3       C          0.62149346  *  -0.85227783  *  -1.26169504  *
     4       C         -1.43513396  *   1.78038534  *  -1.37177202  *
     5       C         -1.28197014  *   0.56528499  *  -2.30230712  *
     6       C         -1.92743652  *   0.80420189  *   0.95508158  *
     7       C          0.67497980  *  -1.91075994  *  -2.35391575  *
     8       C         -1.37672281  *  -0.01239956  *   2.10182653  *
     9       C          2.31402167  *   0.65891738  *   2.67840816  *
    10       C          1.06534030  *  -1.45799621  *   0.03697254  *
    11       C          2.76242867  *  -0.28446470  *   1.62635107  *
    12       C          1.92490212  *  -0.87691935  *   0.82331717  *
    13       H          0.05092590  *   1.28415623  *   0.22523137  *
    14       H         -1.49203489  *  -1.12039102  *  -0.84812167  *
    15       H          1.30855769  *  -0.01498079  *  -1.53920667  *
    16       H         -2.86779462  *   0.35017201  *   0.58267216  *
    17       H         -2.20587366  *   1.81666050  *   1.30957370  *
    18       H         -2.46515858  *   2.15505549  *  -1.26622620  *
    19       H         -0.80086789  *   2.64200019  *  -1.62736755  *
    20       H         -2.21661271  *   0.21518589  *  -2.76488034  *
    21       H         -0.54765814  *   0.69538839  *  -3.11295553  *
    22       H         -2.10776504  *  -0.10826840  *   2.91372089  *
    23       H         -0.46456101  *   0.44282240  *   2.52601940  *
    24       H         -1.10364608  *  -1.02616623  *   1.77457264  *
    25       H          0.37011542  *  -1.49640721  *  -3.32416252  *
    26       H          1.69041978  *  -2.31065211  *  -2.46821021  *
    27       H          0.01009886  *  -2.75709288  *  -2.13420546  *
    28       H          1.21611020  *   0.77097342  *   2.70389582  *
    29       H          2.63807412  *   0.31397612  *   3.66887341  *
    30       H          2.74785525  *   1.65362488  *   2.51256878  *
    31       H          3.83884026  *  -0.47430051  *   1.53905067  *
    32       H          0.62081271  *  -2.42079533  *   0.32042611  *



          CARTESIAN COORDINATES 

    NO.       ATOM           X           Y           Z

     1         C         -0.7928     -0.2979     -1.1126
     2         C         -0.9282      0.9404     -0.1755
     3         C          0.6215     -0.8523     -1.2617
     4         C         -1.4351      1.7804     -1.3718
     5         C         -1.2820      0.5653     -2.3023
     6         C         -1.9274      0.8042      0.9551
     7         C          0.6750     -1.9108     -2.3539
     8         C         -1.3767     -0.0124      2.1018
     9         C          2.3140      0.6589      2.6784
    10         C          1.0653     -1.4580      0.0370
    11         C          2.7624     -0.2845      1.6264
    12         C          1.9249     -0.8769      0.8233
    13         H          0.0509      1.2842      0.2252
    14         H         -1.4920     -1.1204     -0.8481
    15         H          1.3086     -0.0150     -1.5392
    16         H         -2.8678      0.3502      0.5827
    17         H         -2.2059      1.8167      1.3096
    18         H         -2.4652      2.1551     -1.2662
    19         H         -0.8009      2.6420     -1.6274
    20         H         -2.2166      0.2152     -2.7649
    21         H         -0.5477      0.6954     -3.1130
    22         H         -2.1078     -0.1083      2.9137
    23         H         -0.4646      0.4428      2.5260
    24         H         -1.1036     -1.0262      1.7746
    25         H          0.3701     -1.4964     -3.3242
    26         H          1.6904     -2.3107     -2.4682
    27         H          0.0101     -2.7571     -2.1342
    28         H          1.2161      0.7710      2.7039
    29         H          2.6381      0.3140      3.6689
    30         H          2.7479      1.6536      2.5126
    31         H          3.8388     -0.4743      1.5391
    32         H          0.6208     -2.4208      0.3204

  H: (PM3): J. J. P. STEWART, J. COMP. CHEM. 10, 209 (1989).
  C: (PM3): J. J. P. STEWART, J. COMP. CHEM. 10, 209 (1989).

           Empirical Formula: C12 H20  =    32 atoms



      MOLECULAR POINT GROUP   :   C1  


      RHF CALCULATION, NO. OF DOUBLY OCCUPIED LEVELS = 34



          HEAT OF FORMATION =      13.383735 KCALS/MOLE


          CARTESIAN COORDINATE DERIVATIVES

   NUMBER  ATOM         X            Y            Z

     1       C      0.000131     0.004268     0.003029
     2       C     -0.003180     0.002099     0.005939
     3       C     -0.001077     0.001395    -0.000126
     4       C      0.001223    -0.007258    -0.002289
     5       C      0.003298    -0.003330    -0.002603
     6       C      0.007338     0.006659     0.005631
     7       C      0.002863    -0.001019     0.002957
     8       C     -0.000273     0.003788    -0.005640
     9       C      0.000407     0.000608     0.002984
    10       C      0.000680    -0.000385    -0.007276
    11       C      0.001766     0.008192    -0.004741
    12       C     -0.008941    -0.001103     0.006909
    13       H      0.004342     0.003247     0.001688
    14       H     -0.000694     0.000560     0.002117
    15       H      0.004807     0.000431    -0.000347
    16       H      0.003758    -0.008205     0.004110
    17       H     -0.000933     0.009416     0.000480
    18       H      0.003690    -0.008723    -0.004030
    19       H     -0.004362    -0.007868     0.000140
    20       H     -0.003892     0.000293    -0.003387
    21       H     -0.003928     0.005280    -0.000170
    22       H      0.001403    -0.000827     0.001380
    23       H     -0.004945     0.002313     0.002347
    24       H     -0.000993    -0.019826    -0.004656
    25       H      0.002063     0.001016    -0.002149
    26       H     -0.002279    -0.002021    -0.005399
    27       H     -0.004028     0.007234     0.003946
    28       H     -0.000029     0.011038     0.000520
    29       H     -0.000826    -0.003665     0.003792
    30       H     -0.003952    -0.005789    -0.009710
    31       H      0.002456    -0.002690    -0.000998
    32       H      0.004106     0.004875     0.005553



          GRADIENT NORM =   0.04605

          MOLECULAR WEIGHT =  164.29



          ROTATIONAL CONSTANTS IN CM(-1)

          A =    0.03462422   B =    0.02374079   C =    0.01698964



           PRINCIPAL MOMENTS OF INERTIA IN UNITS OF 10**(-40)*GRAM-CM**2

          A =      808.4731   B =     1179.0996   C =     1647.6365


          ORIENTATION OF MOLECULE IN FORCE CALCULATION

    NO.       ATOM         X         Y         Z

     1          C      -0.7635   -1.0727    0.5703
     2          C       0.7953   -1.0727    0.5703
     3          C      -1.4164    0.3070    0.5703
     4          C       0.7875   -1.8043    1.9334
     5          C      -0.7505   -1.7862    1.9452
     6          C       1.4536   -1.8530   -0.5492
     7          C      -2.9185    0.1944    0.7875
     8          C       1.4464   -1.0876   -1.8528
     9          C       2.0058    2.6283   -1.3201
    10          C      -1.1554    0.9885   -0.7404
    11          C       0.5849    2.9084   -1.0028
    12          C      -0.2957    1.9580   -0.8668
    13          H       1.2243   -0.0475    0.6190
    14          H      -1.1972   -1.6927   -0.2439
    15          H      -0.9777    0.9124    1.4016
    16          H       0.9507   -2.8322   -0.6809
    17          H       2.4951   -2.0906   -0.2544
    18          H       1.2380   -2.8089    1.9182
    19          H       1.2632   -1.2476    2.7543
    20          H      -1.2255   -2.7784    1.9477
    21          H      -1.1983   -1.2101    2.7703
    22          H       1.9218   -1.6612   -2.6576
    23          H       1.9838   -0.1270   -1.7651
    24          H       0.4206   -0.8504   -2.1704
    25          H      -3.1461   -0.2875    1.7477
    26          H      -3.3930    1.1838    0.7921
    27          H      -3.4010   -0.3991   -0.0008
    28          H       2.2055    1.5496   -1.4429
    29          H       2.2990    3.1308   -2.2510
    30          H       2.6586    3.0002   -0.5197
    31          H       0.2882    3.9571   -0.8824
    32          H      -1.7112    0.6261   -1.6148


    FIRST DERIVATIVES WILL BE USED IN THE CALCULATION OF SECOND DERIVATIVES

          ESTIMATED TIME TO COMPLETE CALCULATION =        4.50 SECONDS

    FOR POINT-GROUP C1   THERE ARE   1 UNIQUE SYMMETRY FUNCTIONS.

 STEP:   1 TIME =     0.04 SECS, INTEGRAL =      0.04 TIME LEFT: 172799.95
 STEP:   2 TIME =     0.04 SECS, INTEGRAL =      0.07 TIME LEFT: 172799.92
 STEP:   3 TIME =     0.04 SECS, INTEGRAL =      0.11 TIME LEFT: 172799.88
 STEP:   4 TIME =     0.04 SECS, INTEGRAL =      0.14 TIME LEFT: 172799.85
 STEP:   5 TIME =     0.04 SECS, INTEGRAL =      0.18 TIME LEFT: 172799.81
 STEP:   6 TIME =     0.04 SECS, INTEGRAL =      0.21 TIME LEFT: 172799.77
 STEP:   7 TIME =     0.04 SECS, INTEGRAL =      0.25 TIME LEFT: 172799.73
 STEP:   8 TIME =     0.04 SECS, INTEGRAL =      0.29 TIME LEFT: 172799.70
 STEP:   9 TIME =     0.04 SECS, INTEGRAL =      0.33 TIME LEFT: 172799.66
 STEP:  10 TIME =     0.04 SECS, INTEGRAL =      0.37 TIME LEFT: 172799.62
 STEP:  11 TIME =     0.04 SECS, INTEGRAL =      0.41 TIME LEFT: 172799.58
 STEP:  12 TIME =     0.04 SECS, INTEGRAL =      0.45 TIME LEFT: 172799.54
 STEP:  13 TIME =     0.04 SECS, INTEGRAL =      0.48 TIME LEFT: 172799.51
 STEP:  14 TIME =     0.04 SECS, INTEGRAL =      0.52 TIME LEFT: 172799.47
 STEP:  15 TIME =     0.04 SECS, INTEGRAL =      0.55 TIME LEFT: 172799.44
 STEP:  16 TIME =     0.04 SECS, INTEGRAL =      0.59 TIME LEFT: 172799.40
 STEP:  17 TIME =     0.04 SECS, INTEGRAL =      0.62 TIME LEFT: 172799.36
 STEP:  18 TIME =     0.04 SECS, INTEGRAL =      0.66 TIME LEFT: 172799.33
 STEP:  19 TIME =     0.04 SECS, INTEGRAL =      0.70 TIME LEFT: 172799.29
 STEP:  20 TIME =     0.04 SECS, INTEGRAL =      0.73 TIME LEFT: 172799.25
 STEP:  21 TIME =     0.04 SECS, INTEGRAL =      0.77 TIME LEFT: 172799.21
 STEP:  22 TIME =     0.04 SECS, INTEGRAL =      0.81 TIME LEFT: 172799.18
 STEP:  23 TIME =     0.04 SECS, INTEGRAL =      0.85 TIME LEFT: 172799.14
 STEP:  24 TIME =     0.04 SECS, INTEGRAL =      0.88 TIME LEFT: 172799.11
 STEP:  25 TIME =     0.04 SECS, INTEGRAL =      0.92 TIME LEFT: 172799.07
 STEP:  26 TIME =     0.04 SECS, INTEGRAL =      0.96 TIME LEFT: 172799.03
 STEP:  27 TIME =     0.04 SECS, INTEGRAL =      1.00 TIME LEFT: 172798.99
 STEP:  28 TIME =     0.04 SECS, INTEGRAL =      1.03 TIME LEFT: 172798.96
 STEP:  29 TIME =     0.04 SECS, INTEGRAL =      1.07 TIME LEFT: 172798.92
 STEP:  30 TIME =     0.04 SECS, INTEGRAL =      1.10 TIME LEFT: 172798.89
 STEP:  31 TIME =     0.04 SECS, INTEGRAL =      1.14 TIME LEFT: 172798.85
 STEP:  32 TIME =     0.04 SECS, INTEGRAL =      1.18 TIME LEFT: 172798.81
 STEP:  33 TIME =     0.04 SECS, INTEGRAL =      1.22 TIME LEFT: 172798.77
 STEP:  34 TIME =     0.04 SECS, INTEGRAL =      1.26 TIME LEFT: 172798.73
 STEP:  35 TIME =     0.04 SECS, INTEGRAL =      1.30 TIME LEFT: 172798.69
 STEP:  36 TIME =     0.04 SECS, INTEGRAL =      1.34 TIME LEFT: 172798.64
 STEP:  37 TIME =     0.04 SECS, INTEGRAL =      1.38 TIME LEFT: 172798.61
 STEP:  38 TIME =     0.04 SECS, INTEGRAL =      1.42 TIME LEFT: 172798.57
 STEP:  39 TIME =     0.04 SECS, INTEGRAL =      1.46 TIME LEFT: 172798.53
 STEP:  40 TIME =     0.04 SECS, INTEGRAL =      1.49 TIME LEFT: 172798.50
 STEP:  41 TIME =     0.04 SECS, INTEGRAL =      1.53 TIME LEFT: 172798.46
 STEP:  42 TIME =     0.04 SECS, INTEGRAL =      1.57 TIME LEFT: 172798.42
 STEP:  43 TIME =     0.04 SECS, INTEGRAL =      1.61 TIME LEFT: 172798.38
 STEP:  44 TIME =     0.04 SECS, INTEGRAL =      1.65 TIME LEFT: 172798.34
 STEP:  45 TIME =     0.04 SECS, INTEGRAL =      1.69 TIME LEFT: 172798.30
 STEP:  46 TIME =     0.04 SECS, INTEGRAL =      1.73 TIME LEFT: 172798.26
 STEP:  47 TIME =     0.04 SECS, INTEGRAL =      1.76 TIME LEFT: 172798.23
 STEP:  48 TIME =     0.04 SECS, INTEGRAL =      1.80 TIME LEFT: 172798.18
 STEP:  49 TIME =     0.04 SECS, INTEGRAL =      1.84 TIME LEFT: 172798.15
 STEP:  50 TIME =     0.04 SECS, INTEGRAL =      1.88 TIME LEFT: 172798.11
 STEP:  51 TIME =     0.04 SECS, INTEGRAL =      1.92 TIME LEFT: 172798.07
 STEP:  52 TIME =     0.04 SECS, INTEGRAL =      1.95 TIME LEFT: 172798.04
 STEP:  53 TIME =     0.04 SECS, INTEGRAL =      1.99 TIME LEFT: 172798.00
 STEP:  54 TIME =     0.04 SECS, INTEGRAL =      2.03 TIME LEFT: 172797.96
 STEP:  55 TIME =     0.04 SECS, INTEGRAL =      2.07 TIME LEFT: 172797.92
 STEP:  56 TIME =     0.04 SECS, INTEGRAL =      2.11 TIME LEFT: 172797.88
 STEP:  57 TIME =     0.04 SECS, INTEGRAL =      2.14 TIME LEFT: 172797.84
 STEP:  58 TIME =     0.04 SECS, INTEGRAL =      2.18 TIME LEFT: 172797.81
 STEP:  59 TIME =     0.04 SECS, INTEGRAL =      2.21 TIME LEFT: 172797.77
 STEP:  60 TIME =     0.04 SECS, INTEGRAL =      2.26 TIME LEFT: 172797.73
 STEP:  61 TIME =     0.04 SECS, INTEGRAL =      2.30 TIME LEFT: 172797.69
 STEP:  62 TIME =     0.04 SECS, INTEGRAL =      2.34 TIME LEFT: 172797.65
 STEP:  63 TIME =     0.04 SECS, INTEGRAL =      2.37 TIME LEFT: 172797.62
 STEP:  64 TIME =     0.04 SECS, INTEGRAL =      2.41 TIME LEFT: 172797.58
 STEP:  65 TIME =     0.04 SECS, INTEGRAL =      2.45 TIME LEFT: 172797.54
 STEP:  66 TIME =     0.04 SECS, INTEGRAL =      2.48 TIME LEFT: 172797.50
 STEP:  67 TIME =     0.04 SECS, INTEGRAL =      2.52 TIME LEFT: 172797.46
 STEP:  68 TIME =     0.04 SECS, INTEGRAL =      2.56 TIME LEFT: 172797.43
 STEP:  69 TIME =     0.04 SECS, INTEGRAL =      2.60 TIME LEFT: 172797.39
 STEP:  70 TIME =     0.04 SECS, INTEGRAL =      2.63 TIME LEFT: 172797.36
 STEP:  71 TIME =     0.04 SECS, INTEGRAL =      2.67 TIME LEFT: 172797.32
 STEP:  72 TIME =     0.04 SECS, INTEGRAL =      2.71 TIME LEFT: 172797.28
 STEP:  73 TIME =     0.04 SECS, INTEGRAL =      2.75 TIME LEFT: 172797.24
 STEP:  74 TIME =     0.04 SECS, INTEGRAL =      2.79 TIME LEFT: 172797.20
 STEP:  75 TIME =     0.04 SECS, INTEGRAL =      2.82 TIME LEFT: 172797.16
 STEP:  76 TIME =     0.04 SECS, INTEGRAL =      2.86 TIME LEFT: 172797.13
 STEP:  77 TIME =     0.04 SECS, INTEGRAL =      2.89 TIME LEFT: 172797.09
 STEP:  78 TIME =     0.04 SECS, INTEGRAL =      2.94 TIME LEFT: 172797.05
 STEP:  79 TIME =     0.04 SECS, INTEGRAL =      2.98 TIME LEFT: 172797.01
 STEP:  80 TIME =     0.04 SECS, INTEGRAL =      3.01 TIME LEFT: 172796.98
 STEP:  81 TIME =     0.04 SECS, INTEGRAL =      3.05 TIME LEFT: 172796.94
 STEP:  82 TIME =     0.04 SECS, INTEGRAL =      3.09 TIME LEFT: 172796.90
 STEP:  83 TIME =     0.04 SECS, INTEGRAL =      3.12 TIME LEFT: 172796.87
 STEP:  84 TIME =     0.04 SECS, INTEGRAL =      3.16 TIME LEFT: 172796.83
 STEP:  85 TIME =     0.04 SECS, INTEGRAL =      3.20 TIME LEFT: 172796.79
 STEP:  86 TIME =     0.04 SECS, INTEGRAL =      3.24 TIME LEFT: 172796.75
 STEP:  87 TIME =     0.04 SECS, INTEGRAL =      3.28 TIME LEFT: 172796.71
 STEP:  88 TIME =     0.04 SECS, INTEGRAL =      3.32 TIME LEFT: 172796.67
 STEP:  89 TIME =     0.04 SECS, INTEGRAL =      3.35 TIME LEFT: 172796.64
 STEP:  90 TIME =     0.04 SECS, INTEGRAL =      3.39 TIME LEFT: 172796.60
 STEP:  91 TIME =     0.04 SECS, INTEGRAL =      3.43 TIME LEFT: 172796.56
 STEP:  92 TIME =     0.04 SECS, INTEGRAL =      3.47 TIME LEFT: 172796.52
 STEP:  93 TIME =     0.04 SECS, INTEGRAL =      3.51 TIME LEFT: 172796.48
 STEP:  94 TIME =     0.04 SECS, INTEGRAL =      3.55 TIME LEFT: 172796.43
 STEP:  95 TIME =     0.04 SECS, INTEGRAL =      3.60 TIME LEFT: 172796.39
 STEP:  96 TIME =     0.04 SECS, INTEGRAL =      3.64 TIME LEFT: 172796.35

(To convert to Hartree/Bohr^2, multiply by (10^(-21) x N x a0^2)/(4.184 x 627.51) =  0.0642)


           FORCE MATRIX IN MILLIDYNES/ANGSTROM


                  C  1       C  2       C  3       C  4       C  5       C  6
 ------------------------------------------------------------------------------
     C    1  14.268176
     C    2   3.139125  14.407599
     C    3   3.897921   0.508042  14.595098
     C    4   1.809044   3.495187   0.040955  14.461837
     C    5   3.433848   1.817720   0.526688   3.789664  14.421083
     C    6   0.524648   4.293098   0.034996   0.552415   0.041409  14.489040
     C    7   0.645796   0.049207   4.126840   0.005796   0.044458   0.007402
     C    8   0.026645   0.656421   0.001545   0.050837   0.004893   4.482251
     C    9   0.013244   0.001804   0.087239   0.000548   0.002399   0.002172
     C   10   0.685665   0.038060   4.480558   0.005014   0.048201   0.003794
     C   11   0.010578   0.001053   0.067805   0.000373   0.001131   0.001669
     C   12   0.032018   0.019682   0.893492   0.001320   0.004131   0.002473
     H   13   0.438027   4.369867   0.033498   0.426778   0.026548   0.429547
     H   14   4.391212   0.436623   0.435664   0.026573   0.428444   0.030305
     H   15   0.432583   0.022364   4.208195   0.001777   0.024181   0.001089
     H   16   0.025046   0.450968   0.001615   0.019087   0.001934   4.435536
     H   17   0.046416   0.432373   0.006326   0.022261   0.003575   4.447789
     H   18   0.029728   0.452842   0.001235   4.667178   0.445808   0.032447
     H   19   0.030362   0.443286   0.003611   4.705554   0.445898   0.033850
     H   20   0.442512   0.030559   0.033532   0.445648   4.704111   0.003801
     H   21   0.451596   0.029984   0.027218   0.445217   4.652851   0.001816
     H   22   0.002024   0.052322   0.000535   0.008800   0.000620   0.451410
     H   23   0.001988   0.024115   0.001162   0.001823   0.000486   0.463284
     H   24   0.006224   0.020320   0.004188   0.001947   0.000563   0.462552
     H   25   0.022309   0.001956   0.455038   0.000590   0.014256   0.000579
     H   26   0.051378   0.008368   0.456093   0.000737   0.002835   0.001525
     H   27   0.022078   0.001600   0.469404   0.000442   0.002580   0.000520
     H   28   0.000706   0.004340   0.001095   0.000598   0.000381   0.001510
     H   29   0.001248   0.000238   0.010339   0.000150   0.000139   0.000675
     H   30   0.002223   0.000605   0.011426   0.000307   0.000523   0.000811
     H   31   0.009837   0.000666   0.069534   0.000269   0.001758   0.000642
     H   32   0.010661   0.002681   0.447475   0.000647   0.002257   0.000958


                  C  7       C  8       C  9       C 10       C 11       C 12
 ------------------------------------------------------------------------------
     C    7  14.339407
     C    8   0.000213  14.297362
     C    9   0.009360   0.013580  14.548606
     C   10   0.721619   0.023121   0.071209  18.267427
     C   11   0.012319   0.002200   5.092251   0.743912  18.277054
     C   12   0.043472   0.013516   0.963411  11.543360  11.508562  24.936734
     H   13   0.002957   0.035086   0.003281   0.009527   0.004304   0.013588
     H   14   0.024493   0.006934   0.000324   0.024312   0.000480   0.002264
     H   15   0.416694   0.000350   0.001501   0.437684   0.004587   0.046464
     H   16   0.000660   0.438389   0.000416   0.000715   0.000544   0.000700
     H   17   0.001764   0.439798   0.000205   0.000962   0.000448   0.000868
     H   18   0.000415   0.002849   0.000100   0.000609   0.000109   0.000204
     H   19   0.000791   0.006206   0.000078   0.000658   0.000173   0.000417
     H   20   0.001814   0.000788   0.000395   0.006629   0.000088   0.000918
     H   21   0.014213   0.000499   0.000141   0.002354   0.000137   0.000903
     H   22   0.000328   4.768685   0.002395   0.001944   0.000850   0.000910
     H   23   0.000479   4.509832   0.067000   0.002825   0.003280   0.003296
     H   24   0.000448   4.679238   0.001107   0.010549   0.001304   0.005579
     H   25   4.721261   0.000067   0.001729   0.050656   0.002326   0.007598
     H   26   4.758707   0.000078   0.000452   0.022212   0.000262   0.003129
     H   27   4.713461   0.000129   0.000198   0.027444   0.000363   0.001746
     H   28   0.000700   0.066177   4.530246   0.005038   0.475390   0.039967
     H   29   0.001347   0.001541   4.726224   0.010889   0.438406   0.036510
     H   30   0.000833   0.001904   4.723091   0.009360   0.437597   0.032586
     H   31   0.008725   0.000350   0.439525   0.048604   4.758086   0.448775
     H   32   0.025980   0.006478   0.074507   4.718112   0.045312   0.446417


                  H 13       H 14       H 15       H 16       H 17       H 18
 ------------------------------------------------------------------------------
     H   13   4.869050
     H   14   0.028842   4.900354
     H   15   0.022473   0.040842   4.679982
     H   16   0.042760   0.027225   0.000521   5.053805
     H   17   0.023299   0.003085   0.000406   0.572095   5.057869
     H   18   0.031088   0.002634   0.000560   0.014231   0.014838   5.297667
     H   19   0.026471   0.001240   0.000936   0.001186   0.002000   0.556716
     H   20   0.001133   0.026698   0.001478   0.000976   0.000681   0.023171
     H   21   0.002671   0.031350   0.021714   0.000536   0.000599   0.032829
     H   22   0.002137   0.000505   0.000147   0.030270   0.028659   0.000681
     H   23   0.024083   0.000476   0.000234   0.047571   0.024533   0.000439
     H   24   0.002341   0.008068   0.000305   0.024109   0.049016   0.000426
     H   25   0.000516   0.001788   0.029749   0.000115   0.000164   0.000330
     H   26   0.000682   0.001817   0.029078   0.000142   0.000390   0.000119
     H   27   0.000541   0.017992   0.045273   0.000176   0.000124   0.000121
     H   28   0.007094   0.000180   0.000268   0.000733   0.000483   0.000144
     H   29   0.000447   0.000089   0.000104   0.000202   0.000191   0.000034
     H   30   0.000689   0.000149   0.000374   0.000306   0.000119   0.000060
     H   31   0.000632   0.000300   0.001201   0.000216   0.000185   0.000060
     H   32   0.000972   0.007180   0.036008   0.000348   0.000440   0.000211


                  H 19       H 20       H 21       H 22       H 23       H 24
 ------------------------------------------------------------------------------
     H   19   5.326271
     H   20   0.033465   5.325199
     H   21   0.023489   0.556980   5.284709
     H   22   0.001196   0.000124   0.000091   5.489587
     H   23   0.000382   0.000185   0.000106   0.554602   5.491818
     H   24   0.000424   0.000230   0.000275   0.559606   0.575228   5.402483
     H   25   0.000283   0.001023   0.023216   0.000099   0.000146   0.000148
     H   26   0.000122   0.000319   0.000681   0.000081   0.000114   0.000121
     H   27   0.000203   0.000416   0.000474   0.000060   0.000090   0.000117
     H   28   0.000198   0.000088   0.000100   0.001621   0.234524   0.001181
     H   29   0.000034   0.000045   0.000032   0.000400   0.000565   0.000375
     H   30   0.000093   0.000116   0.000050   0.000424   0.000919   0.000386
     H   31   0.000099   0.000326   0.000118   0.000274   0.000561   0.000502
     H   32   0.000287   0.000615   0.000702   0.000555   0.000794   0.008393


                  H 25       H 26       H 27       H 28       H 29       H 30
 ------------------------------------------------------------------------------
     H   25   5.458776
     H   26   0.567630   5.491378
     H   27   0.571463   0.572055   5.457910
     H   28   0.000173   0.000201   0.000121   5.487706
     H   29   0.000302   0.000150   0.000084   0.546800   5.429861
     H   30   0.000120   0.000158   0.000118   0.547196   0.571691   5.426766
     H   31   0.001601   0.000476   0.000242   0.041374   0.019931   0.018812
     H   32   0.002286   0.003238   0.020076   0.000815   0.009775   0.009003


                  H 31       H 32
 ------------------------------
     H   31   5.139630
     H   32   0.059913   5.106191


          HEAT OF FORMATION =      13.383735 KCALS/MOLE

          ZERO POINT ENERGY     180.749 KCAL/MOL


           NORMAL COORDINATE ANALYSIS (Total motion = 1 Angstrom)


   Root No.       1         2         3         4         5         6         7         8

                 1 A       2 A       3 A       4 A       5 A       6 A       7 A       8 A   

                  37.6      81.6     101.6     107.0     135.1     146.4     171.8     177.1
  
           1   -0.0006   -0.0028   -0.0076    0.0051   -0.0008    0.0033   -0.0130    0.0059
           2    0.0029   -0.0011    0.0018    0.0034    0.0025   -0.0001   -0.0136    0.0064
           3    0.0007    0.0121   -0.0066   -0.0141   -0.0032   -0.0011    0.0015    0.0004
           4   -0.0007   -0.0028   -0.0072    0.0056   -0.0005    0.0032   -0.0131    0.0060
           5    0.0177   -0.0102    0.0040    0.0044    0.0134   -0.0069    0.0026    0.0006
           6   -0.0135   -0.0063   -0.0160   -0.0027    0.0047   -0.0033   -0.0068    0.0048
           7   -0.0141    0.0034   -0.0082    0.0099   -0.0040    0.0057   -0.0021    0.0008
           8   -0.0034    0.0015    0.0018    0.0061    0.0010    0.0013   -0.0083    0.0044
           9   -0.0047   -0.0050    0.0055   -0.0038    0.0018   -0.0028    0.0067    0.0003
          10    0.0188    0.0089    0.0018   -0.0041   -0.0028    0.0023    0.0016   -0.0001
          11    0.0383   -0.0086    0.0217    0.0094    0.0015   -0.0025    0.0217   -0.0079
          12   -0.0024   -0.0055   -0.0064   -0.0000   -0.0018   -0.0010    0.0030    0.0003
          13    0.0186    0.0094    0.0018   -0.0044   -0.0032    0.0025    0.0006    0.0003
          14    0.0174    0.0195    0.0011   -0.0085   -0.0118    0.0056   -0.0172    0.0042
          15    0.0081    0.0227   -0.0070   -0.0204   -0.0112    0.0021   -0.0009   -0.0003
          16   -0.0049   -0.0178   -0.0108    0.0157    0.0081    0.0007   -0.0087    0.0037
          17    0.0053   -0.0092   -0.0144   -0.0029    0.0274   -0.0130    0.0017    0.0007
          18   -0.0076   -0.0157   -0.0059    0.0083    0.0002   -0.0006   -0.0030    0.0033
          19   -0.0148    0.0036   -0.0064    0.0138   -0.0013    0.0045   -0.0034    0.0010
          20   -0.0199    0.0122    0.0017    0.0200    0.0042    0.0023    0.0158   -0.0087
          21   -0.0186   -0.0003    0.0176    0.0270    0.0180   -0.0098    0.0044   -0.0022
          22   -0.0224    0.0092    0.0574    0.0003   -0.0092   -0.0059   -0.0022   -0.0003
          23   -0.0148    0.0145   -0.0043   -0.0259    0.0308   -0.0208    0.0020    0.0007
          24   -0.0193   -0.0022   -0.0001   -0.0050    0.0025   -0.0051   -0.0034    0.0036
          25    0.0121   -0.0011   -0.0049   -0.0079    0.0125   -0.0092    0.0083   -0.0033
          26   -0.0245    0.0049   -0.0149   -0.0096   -0.0205   -0.0005    0.0223   -0.0161
          27    0.0281    0.0359   -0.0058    0.0299    0.0118    0.0120   -0.0009    0.0049
          28   -0.0066    0.0059   -0.0164   -0.0089   -0.0096    0.0081    0.0150   -0.0023
          29    0.0023   -0.0191    0.0088   -0.0012   -0.0092    0.0041   -0.0157    0.0065
          30   -0.0001   -0.0155    0.0077   -0.0117   -0.0052   -0.0004    0.0062    0.0009
          31    0.0130   -0.0127    0.0003   -0.0129    0.0074   -0.0073    0.0015   -0.0036
          32   -0.0124   -0.0016   -0.0061    0.0032   -0.0248    0.0182   -0.0051    0.0052
          33    0.0217   -0.0099    0.0092   -0.0027   -0.0090    0.0061   -0.0086   -0.0140
          34    0.0028   -0.0067   -0.0076   -0.0178    0.0023   -0.0083    0.0164   -0.0095
          35   -0.0047   -0.0084    0.0010    0.0059   -0.0207    0.0193   -0.0173    0.0121
          36    0.0094   -0.0187    0.0074   -0.0161   -0.0144    0.0068    0.0037   -0.0034
          37   -0.0097    0.0023   -0.0075    0.0056   -0.0067    0.0071   -0.0245    0.0106
          38    0.0226   -0.0120    0.0050    0.0045    0.0157   -0.0082    0.0085   -0.0018
          39   -0.0344   -0.0085   -0.0332   -0.0055    0.0143   -0.0067   -0.0206    0.0104
          40   -0.0023   -0.0148   -0.0134    0.0094    0.0066    0.0003   -0.0175    0.0073
          41   -0.0086   -0.0128    0.0048    0.0125    0.0077   -0.0016   -0.0108    0.0076
          42    0.0104    0.0274   -0.0055   -0.0231   -0.0111    0.0017    0.0023   -0.0013
          43   -0.0281    0.0080   -0.0015    0.0299    0.0040    0.0034    0.0041   -0.0035
          44   -0.0003    0.0109   -0.0028    0.0055    0.0042   -0.0005   -0.0154    0.0037
          45    0.0006   -0.0142    0.0055   -0.0137   -0.0046   -0.0004    0.0088    0.0029
          46    0.0013   -0.0424   -0.0477    0.0317    0.0217    0.0044   -0.0066    0.0021
          47   -0.0005    0.0061    0.0074   -0.0135    0.0205   -0.0159    0.0011    0.0012
          48    0.0122   -0.0353   -0.0268    0.0260   -0.0005    0.0075   -0.0051    0.0047
          49   -0.0004   -0.0254   -0.0282    0.0203    0.0128    0.0026   -0.0097    0.0042
          50    0.0178   -0.0412   -0.0601    0.0196    0.0417   -0.0065    0.0036   -0.0007
          51   -0.0135   -0.0146    0.0195    0.0104   -0.0050   -0.0020    0.0022    0.0001
          52    0.0327   -0.0109    0.0162    0.0088    0.0061   -0.0031    0.0292   -0.0085
          53    0.0444   -0.0174    0.0280    0.0151    0.0057   -0.0050    0.0340   -0.0117
          54    0.0103   -0.0143    0.0085    0.0112   -0.0077    0.0012    0.0208   -0.0066
          55    0.0166    0.0354   -0.0069   -0.0226   -0.0131    0.0072   -0.0165    0.0045
          56    0.0578   -0.0180    0.0404    0.0194   -0.0014   -0.0026    0.0485   -0.0179
          57   -0.0143   -0.0146   -0.0140    0.0040    0.0062   -0.0037   -0.0044    0.0044
          58    0.0326   -0.0097    0.0162    0.0081    0.0056   -0.0029    0.0282   -0.0085
          59    0.0107    0.0288   -0.0059   -0.0146   -0.0161    0.0083   -0.0306    0.0084
          60    0.0213    0.0482   -0.0090   -0.0370   -0.0255    0.0078   -0.0080   -0.0013
          61    0.0156    0.0358   -0.0071   -0.0224   -0.0136    0.0075   -0.0187    0.0063
          62    0.0195    0.0420   -0.0071   -0.0226   -0.0249    0.0118   -0.0338    0.0068
          63    0.0051    0.0214   -0.0062   -0.0204   -0.0077    0.0005   -0.0001    0.0012
          64   -0.0277    0.0053    0.0529    0.0235   -0.0532    0.0498    0.0493   -0.0403
          65   -0.0247    0.0199   -0.0195   -0.0254    0.0182    0.0021    0.0234   -0.0160
          66   -0.0154   -0.0083    0.0080    0.0082   -0.0144    0.0116    0.0117   -0.0080
          67   -0.0260    0.0267    0.0975   -0.0301    0.0255   -0.0632   -0.0481    0.0359
          68   -0.0111    0.0029   -0.0289   -0.0075    0.0117    0.0110    0.0268   -0.0188
          69   -0.0388    0.0197    0.0204   -0.0180   -0.0104    0.0067    0.0132   -0.0088
          70   -0.0267    0.0166    0.0761   -0.0048   -0.0118   -0.0100   -0.0025    0.0003
          71   -0.0248    0.0403    0.0434   -0.0637    0.0655   -0.0812   -0.0446    0.0376
          72   -0.0126   -0.0069   -0.0246   -0.0163    0.0360   -0.0360   -0.0362    0.0286
          73   -0.0177    0.0039    0.0010    0.0278    0.0081   -0.0005   -0.0121    0.0035
          74   -0.0268    0.0231   -0.0031    0.0324    0.0163   -0.0050   -0.0323   -0.1719
          75   -0.0228    0.0052    0.0170    0.0366    0.0264   -0.0147   -0.0218   -0.0833
          76   -0.0252    0.0091   -0.0055    0.0223   -0.0006    0.0063    0.0213    0.0171
          77   -0.0249    0.0149    0.0021    0.0241    0.0046    0.0032    0.0274   -0.0020
          78   -0.0182   -0.0092    0.0270    0.0258    0.0107   -0.0041    0.0613    0.1749
          79   -0.0018   -0.0017   -0.0136   -0.0062   -0.0095    0.0068   -0.0207   -0.0178
          80   -0.0212    0.0068    0.0064    0.0157   -0.0053    0.0096    0.0720    0.1356
          81   -0.0256    0.0070    0.0185    0.0426    0.0304   -0.0168   -0.0272   -0.0995
          82    0.0002    0.0071   -0.0055   -0.0229    0.0384    0.0067    0.0282   -0.0169
          83   -0.0250    0.0056   -0.0180   -0.0090   -0.0256   -0.0158    0.0258   -0.0189
          84    0.0136    0.0411    0.0204   -0.0018    0.1054    0.1654   -0.0005    0.0076
          85    0.0253    0.0288   -0.0211    0.0317   -0.0032   -0.0476    0.0039    0.0190
          86   -0.0141    0.0074   -0.0404    0.0187   -0.0962   -0.1357    0.0285   -0.0202
          87    0.0379    0.0468   -0.0247    0.0578   -0.0343   -0.0734    0.0011    0.0098
          88    0.0103   -0.0301    0.0086   -0.0278    0.0068    0.0077   -0.0033   -0.0100
          89   -0.0442    0.0062    0.0077   -0.0502    0.0667    0.1335    0.0345   -0.0268
          90    0.0388    0.0589   -0.0273    0.0651   -0.0242   -0.0647    0.0029    0.0154
          91    0.0230   -0.0251    0.0104   -0.0083    0.0049   -0.0010   -0.0206    0.0057
          92   -0.0103   -0.0025   -0.0045    0.0051   -0.0242    0.0213   -0.0094    0.0099
          93    0.0283   -0.0329    0.0205   -0.0094   -0.0178   -0.0081   -0.0243   -0.0329
          94   -0.0071    0.0229   -0.0281   -0.0077   -0.0170    0.0243    0.0266    0.0045
          95    0.0124   -0.0450    0.0204   -0.0156   -0.0117   -0.0071   -0.0240   -0.0008
          96   -0.0039   -0.0154    0.0105   -0.0062    0.0007   -0.0061    0.0019   -0.0008


   Root No.       9        10        11        12        13        14        15        16

                 9 A      10 A      11 A      12 A      13 A      14 A      15 A      16 A   

                 194.0     213.7     243.7     299.9     347.7     366.3     402.3     431.2
  
           1   -0.0020    0.0028   -0.0124   -0.0131    0.0022    0.0008    0.0212    0.0003
           2    0.0033   -0.0141   -0.0124   -0.0221    0.0122    0.0147    0.0151    0.0022
           3   -0.0014   -0.0069    0.0062   -0.0163   -0.0036    0.0056   -0.0171   -0.0165
           4   -0.0015    0.0029   -0.0097   -0.0144    0.0063   -0.0040    0.0261    0.0026
           5   -0.0003   -0.0088    0.0024   -0.0165    0.0016    0.0234   -0.0083    0.0209
           6   -0.0015    0.0005   -0.0051   -0.0149   -0.0072    0.0080   -0.0030   -0.0023
           7   -0.0053    0.0139   -0.0059    0.0032   -0.0127    0.0080    0.0017   -0.0205
           8    0.0013   -0.0104   -0.0082   -0.0145    0.0070    0.0096    0.0015   -0.0091
           9   -0.0089   -0.0197    0.0053   -0.0077    0.0092    0.0038    0.0189   -0.0226
          10   -0.0044    0.0013    0.0042   -0.0176    0.0034   -0.0153   -0.0125    0.0137
          11   -0.0124    0.0163   -0.0103    0.0143   -0.0042   -0.0004    0.0094   -0.0037
          12   -0.0074    0.0128   -0.0114    0.0013   -0.0117   -0.0005    0.0079   -0.0229
          13   -0.0033    0.0005    0.0045   -0.0169    0.0041   -0.0154   -0.0123    0.0142
          14    0.0216   -0.0002   -0.0025    0.0238    0.0058    0.0048    0.0294    0.0068
          15    0.0086    0.0008    0.0112    0.0079   -0.0090   -0.0037   -0.0192   -0.0152
          16    0.0132   -0.0019    0.0246    0.0195    0.0125   -0.0195    0.0106   -0.0076
          17    0.0088   -0.0118    0.0215   -0.0013   -0.0167    0.0232   -0.0123   -0.0096
          18    0.0010    0.0007    0.0020   -0.0048    0.0077   -0.0012   -0.0143    0.0194
          19   -0.0022    0.0149   -0.0117    0.0091   -0.0160    0.0133   -0.0037   -0.0161
          20    0.0015    0.0191    0.0352   -0.0216    0.0075   -0.0191    0.0099    0.0010
          21    0.0126   -0.0057   -0.0142    0.0236   -0.0001    0.0108   -0.0073    0.0182
          22    0.0085   -0.0141    0.0145   -0.0001   -0.0011    0.0067   -0.0031   -0.0094
          23   -0.0022    0.0058   -0.0036    0.0036   -0.0336   -0.0143    0.0146    0.0024
          24   -0.0050    0.0102   -0.0121   -0.0033   -0.0015   -0.0245   -0.0007    0.0333
          25    0.0041   -0.0131   -0.0130    0.0065    0.0045   -0.0098   -0.0135   -0.0007
          26    0.0088    0.0043   -0.0202    0.0053    0.0395    0.0012   -0.0128   -0.0065
          27   -0.0055   -0.0069   -0.0054    0.0018    0.0093   -0.0028   -0.0018   -0.0049
          28   -0.0183    0.0038    0.0114    0.0106   -0.0059    0.0318    0.0026    0.0141
          29   -0.0008   -0.0116   -0.0114    0.0041   -0.0003   -0.0286   -0.0180   -0.0102
          30   -0.0127   -0.0229    0.0084    0.0053    0.0084   -0.0095    0.0189   -0.0152
          31    0.0063   -0.0032   -0.0067    0.0034   -0.0057   -0.0043   -0.0113    0.0020
          32   -0.0174    0.0025    0.0024    0.0105   -0.0025    0.0061   -0.0159    0.0051
          33    0.0238    0.0389    0.0040   -0.0132   -0.0028    0.0173    0.0013    0.0003
          34    0.0035   -0.0049   -0.0062    0.0070    0.0150    0.0091    0.0025    0.0063
          35   -0.0194   -0.0016    0.0046    0.0099   -0.0206   -0.0075   -0.0215    0.0040
          36   -0.0098   -0.0043    0.0189    0.0133    0.0011    0.0049    0.0269    0.0260
          37   -0.0034    0.0004   -0.0275   -0.0298    0.0122    0.0013    0.0462   -0.0003
          38    0.0000   -0.0067    0.0098   -0.0083   -0.0010    0.0200   -0.0169    0.0215
          39    0.0096   -0.0119    0.0028   -0.0231   -0.0125    0.0182   -0.0011   -0.0040
          40   -0.0020    0.0032   -0.0157   -0.0202    0.0021    0.0064    0.0291    0.0138
          41   -0.0058   -0.0202   -0.0188   -0.0332    0.0173    0.0203    0.0266   -0.0069
          42    0.0061   -0.0020    0.0139   -0.0024   -0.0075   -0.0030   -0.0303   -0.0169
          43    0.0025    0.0285   -0.0038    0.0155   -0.0190    0.0022   -0.0048   -0.0179
          44    0.0072   -0.0099   -0.0158   -0.0261    0.0071    0.0240   -0.0023   -0.0056
          45   -0.0167   -0.0269    0.0102   -0.0047    0.0121   -0.0037    0.0249   -0.0249
          46    0.0314   -0.0067    0.0619    0.0549    0.0194   -0.0371   -0.0023   -0.0288
          47   -0.0009   -0.0087    0.0014   -0.0186   -0.0230    0.0299   -0.0042   -0.0000
          48    0.0041   -0.0025    0.0103   -0.0071    0.0279    0.0103   -0.0235    0.0247
          49    0.0163   -0.0011    0.0311    0.0259    0.0151   -0.0238    0.0111   -0.0127
          50    0.0293   -0.0178    0.0646    0.0370   -0.0034    0.0071   -0.0295   -0.0309
          51    0.0076   -0.0084    0.0154    0.0033    0.0095    0.0016   -0.0316    0.0195
          52   -0.0298    0.0143   -0.0040   -0.0256   -0.0049   -0.0221   -0.0263    0.0024
          53   -0.0238    0.0221   -0.0140    0.0107   -0.0082   -0.0032    0.0035   -0.0094
          54   -0.0241    0.0365   -0.0304    0.0230   -0.0192   -0.0185    0.0347   -0.0584
          55    0.0192   -0.0126    0.0218   -0.0106    0.0103   -0.0160   -0.0241    0.0307
          56   -0.0343    0.0395   -0.0246    0.0309   -0.0145   -0.0188    0.0186   -0.0366
          57   -0.0065    0.0054   -0.0122   -0.0138   -0.0089    0.0119    0.0087   -0.0112
          58   -0.0283    0.0127   -0.0014   -0.0271   -0.0028   -0.0227   -0.0299    0.0057
          59    0.0339   -0.0060    0.0005    0.0292    0.0091    0.0082    0.0380    0.0113
          60    0.0312    0.0062    0.0286    0.0495   -0.0120   -0.0154   -0.0149   -0.0023
          61    0.0216   -0.0129    0.0199   -0.0063    0.0104   -0.0156   -0.0192    0.0301
          62    0.0463    0.0021    0.0087    0.0590    0.0052   -0.0001    0.0465    0.0181
          63    0.0053   -0.0082    0.0119   -0.0099   -0.0051   -0.0001   -0.0337   -0.0143
          64    0.0623   -0.0787   -0.0089   -0.0340   -0.0970   -0.0081    0.0182    0.0062
          65    0.0158   -0.0070   -0.0288   -0.0016   -0.0803   -0.0606    0.0487    0.0256
          66    0.0137   -0.0184   -0.0082   -0.0194   -0.0241   -0.0009   -0.0124    0.0266
          67   -0.0441    0.0382    0.0332    0.0192    0.0686    0.0357   -0.0287   -0.0253
          68    0.0264   -0.0219   -0.0124   -0.0057   -0.0635   -0.0270    0.0251    0.0086
          69    0.0013    0.0020   -0.0409   -0.0139   -0.0414   -0.0551    0.0228    0.0532
          70    0.0052   -0.0156    0.0132   -0.0050   -0.0039    0.0164   -0.0082   -0.0121
          71   -0.0601    0.0652    0.0071    0.0244    0.0409    0.0068   -0.0071   -0.0097
          72   -0.0365    0.0576    0.0005    0.0271    0.0605   -0.0397   -0.0009    0.0319
          73    0.0118    0.0134   -0.0396    0.0344   -0.0237    0.0330   -0.0324    0.0160
          74   -0.0298    0.0096    0.0501   -0.0157    0.0082   -0.0302    0.0116    0.0094
          75    0.0004   -0.0108   -0.0137    0.0332   -0.0017    0.0105   -0.0138    0.0307
          76    0.0031    0.0385    0.0196    0.0008   -0.0139   -0.0114    0.0084   -0.0080
          77    0.0038    0.0306    0.0507   -0.0259    0.0087   -0.0316    0.0161    0.0049
          78    0.0548    0.0152   -0.0292    0.0276   -0.0036    0.0197   -0.0177    0.0314
          79   -0.0191   -0.0073   -0.0189   -0.0037   -0.0121    0.0224    0.0075   -0.0495
          80    0.0307    0.0433    0.0448   -0.0325    0.0088   -0.0282    0.0173    0.0004
          81    0.0011   -0.0101   -0.0168    0.0400   -0.0034    0.0120   -0.0200    0.0404
          82    0.0206   -0.0167   -0.0312    0.0043    0.0314   -0.0204   -0.0095   -0.0102
          83    0.0137    0.0033   -0.0222    0.0032    0.0371   -0.0017   -0.0092   -0.0063
          84   -0.0163   -0.0111   -0.0141    0.0117    0.0299   -0.0089   -0.0116   -0.0123
          85   -0.0259   -0.0511   -0.0103    0.0192   -0.0090   -0.0294   -0.0157   -0.0006
          86    0.0199    0.0008   -0.0194   -0.0024    0.0298   -0.0013   -0.0031   -0.0037
          87   -0.0092   -0.0210   -0.0041    0.0017   -0.0001   -0.0105    0.0029   -0.0034
          88    0.0153    0.0177   -0.0010   -0.0019   -0.0117    0.0109   -0.0135    0.0079
          89    0.0162    0.0090   -0.0376    0.0093    0.0797   -0.0023   -0.0205   -0.0191
          90   -0.0181   -0.0347   -0.0071    0.0068    0.0034   -0.0187    0.0018   -0.0061
          91    0.0023    0.0050    0.0028    0.0010   -0.0408   -0.0113   -0.0243    0.0021
          92   -0.0235   -0.0017    0.0063    0.0130   -0.0112    0.0040   -0.0167    0.0091
          93    0.0704    0.0939   -0.0099   -0.0416   -0.0112    0.0133   -0.0264   -0.0356
          94   -0.0441   -0.0048    0.0330    0.0230   -0.0124    0.0743    0.0195    0.0630
          95    0.0210   -0.0014   -0.0233    0.0072    0.0045   -0.0709   -0.0350   -0.0216
          96   -0.0047   -0.0212   -0.0007   -0.0040    0.0104   -0.0186    0.0152   -0.0411


   Root No.      17        18        19        20        21        22        23        24

                17 A      18 A      19 A      20 A      21 A      22 A      23 A      24 A   

                 472.2     503.9     580.4     602.7     749.1     810.0     826.8     842.1
  
           1   -0.0163   -0.0014   -0.0064   -0.0034    0.0084    0.0077   -0.0098   -0.0142
           2    0.0147   -0.0186    0.0149    0.0117    0.0029    0.0121   -0.0022   -0.0049
           3    0.0061   -0.0192    0.0146    0.0112    0.0294    0.0039   -0.0019   -0.0116
           4   -0.0190   -0.0105   -0.0107   -0.0088    0.0197   -0.0060    0.0014   -0.0065
           5   -0.0053    0.0273   -0.0093   -0.0018    0.0287   -0.0039   -0.0026   -0.0109
           6   -0.0233   -0.0017   -0.0036   -0.0054   -0.0111   -0.0022    0.0016    0.0046
           7    0.0090    0.0291    0.0069    0.0140    0.0007    0.0004   -0.0005    0.0004
           8    0.0272   -0.0148    0.0215    0.0153   -0.0170   -0.0079    0.0102    0.0060
           9    0.0241    0.0105   -0.0217   -0.0078   -0.0052   -0.0025    0.0024    0.0008
          10   -0.0002   -0.0013    0.0015   -0.0020   -0.0248    0.0029    0.0013    0.0085
          11    0.0061    0.0031   -0.0017    0.0008    0.0174   -0.0012   -0.0073    0.0079
          12   -0.0249   -0.0186   -0.0003   -0.0051   -0.0205    0.0009   -0.0046    0.0202
          13    0.0001   -0.0014    0.0014   -0.0022   -0.0241    0.0015    0.0018    0.0094
          14   -0.0007    0.0091   -0.0089   -0.0043   -0.0079    0.0093   -0.0080    0.0203
          15   -0.0031   -0.0065    0.0088    0.0052    0.0246   -0.0049   -0.0054   -0.0051
          16    0.0148   -0.0185    0.0028    0.0005    0.0224   -0.0178    0.0144    0.0102
          17   -0.0158    0.0102   -0.0014   -0.0021   -0.0138   -0.0031    0.0082    0.0041
          18    0.0066    0.0174   -0.0017    0.0008   -0.0082   -0.0010    0.0041    0.0020
          19    0.0077    0.0328    0.0193    0.0269    0.0012   -0.0021   -0.0024   -0.0001
          20   -0.0092   -0.0003    0.0007    0.0014   -0.0028   -0.0024    0.0032    0.0013
          21   -0.0042   -0.0159   -0.0067   -0.0105   -0.0004   -0.0003    0.0004    0.0005
          22   -0.0034   -0.0043    0.0012    0.0007    0.0029   -0.0034    0.0036    0.0032
          23    0.0064   -0.0047    0.0032   -0.0035   -0.0017   -0.0010    0.0009    0.0022
          24    0.0244    0.0139    0.0011    0.0001   -0.0022    0.0011    0.0012   -0.0022
          25   -0.0053   -0.0057   -0.0278    0.0222    0.0014   -0.0005   -0.0014   -0.0016
          26   -0.0072   -0.0000   -0.0115    0.0120    0.0001    0.0008   -0.0004   -0.0008
          27   -0.0018    0.0038    0.0042   -0.0045   -0.0019   -0.0079   -0.0053   -0.0021
          28    0.0130   -0.0102   -0.0128   -0.0269    0.0052    0.0170    0.0076    0.0027
          29   -0.0105    0.0052    0.0151   -0.0092   -0.0052   -0.0166   -0.0080   -0.0017
          30    0.0045    0.0193   -0.0232   -0.0226   -0.0007    0.0003   -0.0049    0.0006
          31   -0.0003   -0.0074   -0.0184    0.0083   -0.0004   -0.0039   -0.0026   -0.0012
          32    0.0002   -0.0075    0.0132   -0.0453    0.0024   -0.0025   -0.0019   -0.0020
          33    0.0120   -0.0070   -0.0074   -0.0029   -0.0062   -0.0191   -0.0117   -0.0046
          34   -0.0028    0.0017    0.0501   -0.0490   -0.0024   -0.0072   -0.0025   -0.0006
          35   -0.0018   -0.0118   -0.0377    0.0207    0.0038    0.0058    0.0024    0.0002
          36   -0.0229    0.0022    0.0406    0.0605    0.0016    0.0117    0.0102    0.0034
          37   -0.0224   -0.0278   -0.0067   -0.0050    0.0286    0.0110   -0.0082   -0.0342
          38   -0.0019    0.0345   -0.0098   -0.0028    0.0249   -0.0102    0.0005    0.0003
          39   -0.0390   -0.0038   -0.0070   -0.0097   -0.0327   -0.0061    0.0161    0.0027
          40   -0.0443    0.0029   -0.0224   -0.0171    0.0226    0.0113   -0.0220   -0.0423
          41    0.0314   -0.0188    0.0138    0.0138   -0.0238    0.0142    0.0094   -0.0029
          42    0.0081   -0.0204    0.0233    0.0161    0.0418   -0.0009   -0.0036    0.0019
          43    0.0006    0.0465    0.0130    0.0270   -0.0069   -0.0135    0.0005    0.0087
[...]
 REDUCED MASS        0.4477         C  6 -- C  8          +1.1% ( 10.8%)      0.0%
 EFFECTIVE MASS      1.5342
 FORCE CONSTANT      2.2968

 VIBRATION         75   75A           ATOM PAIR      ENERGY CONTRIBUTION    RADIAL
 FREQUENCY          3026.73         C  5 -- H 21         +33.4% ( 60.4%)     97.6%
 TRANSITION DIPOLE   0.0167         C  5 -- H 20         +23.5% ( 50.7%)     95.5%
 TRAVEL (Ang.)       0.2858         C  4 -- H 18         +22.0% ( 49.0%)     97.3%
 REDUCED MASS        0.2728         C  4 -- H 19         +17.3% ( 43.4%)     95.9%
 EFFECTIVE MASS      1.5527
 FORCE CONSTANT      1.4723

 VIBRATION         76   76A           ATOM PAIR      ENERGY CONTRIBUTION    RADIAL
 FREQUENCY          3028.99         C 10 -- H 32         +96.5% ( 99.6%)    100.0%
 TRANSITION DIPOLE   0.2811         C 10 -- C 12          +1.6% ( 12.7%)     41.4%
 TRAVEL (Ang.)       0.1558         C  3 -- C 10          +1.3% ( 11.7%)     14.6%
 REDUCED MASS        0.9172         C  8 -- H 24          +0.2% (  4.2%)     98.6%
 EFFECTIVE MASS      1.5171
 FORCE CONSTANT      4.9578

 VIBRATION         77   77A           ATOM PAIR      ENERGY CONTRIBUTION    RADIAL
 FREQUENCY          3030.01         C  6 -- H 17         +50.6% ( 70.1%)     98.0%
 TRANSITION DIPOLE   0.0163         C  6 -- H 16         +46.6% ( 67.3%)     97.5%
 TRAVEL (Ang.)       0.2174         C  6 -- C  8          +0.6% (  7.8%)     25.8%
 REDUCED MASS        0.4709         C  2 -- C  6          +0.6% (  7.6%)     29.1%
 EFFECTIVE MASS      1.2770
 FORCE CONSTANT      2.5473

 VIBRATION         78   78A           ATOM PAIR      ENERGY CONTRIBUTION    RADIAL
 FREQUENCY          3036.46         C 11 -- H 31         +55.0% ( 76.1%)    100.0%
 TRANSITION DIPOLE   0.1450         C  9 -- H 28         +17.3% ( 42.7%)     99.3%
 TRAVEL (Ang.)       0.2460         C  8 -- H 23         +15.5% ( 40.4%)     99.0%
 REDUCED MASS        0.3669         C  8 -- H 24          +4.3% ( 21.4%)     89.8%
 EFFECTIVE MASS      1.5143
 FORCE CONSTANT      1.9930

 VIBRATION         79   79A           ATOM PAIR      ENERGY CONTRIBUTION    RADIAL
 FREQUENCY          3041.55         C  4 -- H 18         +33.0% ( 59.7%)     97.7%
 TRANSITION DIPOLE   0.0918         C  4 -- H 19         +24.3% ( 51.1%)     96.0%
 TRAVEL (Ang.)       0.2845         C  5 -- H 21         +23.8% ( 50.7%)     98.0%
 REDUCED MASS        0.2738         C  5 -- H 20         +15.3% ( 40.6%)     95.5%
 EFFECTIVE MASS      1.5303
 FORCE CONSTANT      1.4925

 VIBRATION         80   80A           ATOM PAIR      ENERGY CONTRIBUTION    RADIAL
 FREQUENCY          3043.73         C 11 -- H 31         +38.9% ( 64.2%)    100.0%
 TRANSITION DIPOLE   0.3013         C  8 -- H 23         +26.2% ( 52.7%)     98.8%
 TRAVEL (Ang.)       0.2856         C  9 -- H 28         +19.0% ( 44.8%)     99.6%
 REDUCED MASS        0.2716         C  8 -- H 24          +9.5% ( 31.7%)     91.9%
 EFFECTIVE MASS      1.4999
 FORCE CONSTANT      1.4827

 VIBRATION         81   81A           ATOM PAIR      ENERGY CONTRIBUTION    RADIAL
 FREQUENCY          3072.86         C  9 -- H 30         +50.9% ( 73.6%)     97.3%
 TRANSITION DIPOLE   0.0289         C  9 -- H 29         +46.7% ( 70.5%)     96.7%
 TRAVEL (Ang.)       0.2082         C  9 -- C 11          +1.0% ( 10.2%)      0.0%
 REDUCED MASS        0.5064         C  9 -- H 28          +1.0% ( 10.2%)      1.5%
 EFFECTIVE MASS      1.5050
 FORCE CONSTANT      2.8170

 VIBRATION         82   82A           ATOM PAIR      ENERGY CONTRIBUTION    RADIAL
 FREQUENCY          3075.41         C  8 -- H 24         +58.0% ( 78.4%)     98.3%
 TRANSITION DIPOLE   0.0895         C  8 -- H 22         +29.8% ( 56.2%)     95.0%
 TRAVEL (Ang.)       0.2201         C  9 -- H 28          +6.0% ( 25.1%)     98.5%
 REDUCED MASS        0.4526         C  9 -- H 29          +2.8% ( 17.3%)     93.1%
 EFFECTIVE MASS      1.4934
 FORCE CONSTANT      2.5221

 VIBRATION         83   83A           ATOM PAIR      ENERGY CONTRIBUTION    RADIAL
 FREQUENCY          3077.03         C  7 -- H 27         +54.3% ( 76.0%)     97.8%
 TRANSITION DIPOLE   0.0128         C  7 -- H 25         +43.0% ( 67.7%)     96.1%
 TRAVEL (Ang.)       0.2076         C  7 -- H 26          +1.5% ( 12.4%)     12.1%
 REDUCED MASS        0.5084         C  3 -- C  7          +1.0% ( 10.4%)      0.0%
 EFFECTIVE MASS      1.5041
 FORCE CONSTANT      2.8362

 VIBRATION         84   84A           ATOM PAIR      ENERGY CONTRIBUTION    RADIAL
 FREQUENCY          3084.54         C  7 -- H 26         +59.9% ( 79.8%)     98.6%
 TRANSITION DIPOLE   0.0234         C  7 -- H 25         +24.9% ( 51.5%)     90.0%
 TRAVEL (Ang.)       0.2156         C  7 -- H 27         +14.1% ( 38.7%)     80.5%
 REDUCED MASS        0.4703         C  3 -- C  7          +1.0% ( 10.4%)      0.1%
 EFFECTIVE MASS      1.5067
 FORCE CONSTANT      2.6364

 VIBRATION         85   85A           ATOM PAIR      ENERGY CONTRIBUTION    RADIAL
 FREQUENCY          3101.57         C  5 -- H 20         +50.8% ( 70.7%)     98.3%
 TRANSITION DIPOLE   0.0706         C  5 -- H 21         +33.0% ( 57.0%)     95.5%
 TRAVEL (Ang.)       0.2401         C  4 -- H 19          +7.7% ( 27.5%)     98.2%
 REDUCED MASS        0.3773         C  4 -- H 18          +5.0% ( 22.2%)     95.5%
 EFFECTIVE MASS      1.2858
 FORCE CONSTANT      2.1383

 VIBRATION         86   86A           ATOM PAIR      ENERGY CONTRIBUTION    RADIAL
 FREQUENCY          3101.63         C  8 -- H 22         +28.4% ( 54.4%)     97.7%
 TRANSITION DIPOLE   0.0879         C  8 -- H 23         +19.6% ( 45.1%)     95.7%
 TRAVEL (Ang.)       0.3251         C  9 -- H 28         +18.8% ( 44.3%)     96.7%
 REDUCED MASS        0.2056         C  9 -- H 29         +15.2% ( 39.7%)     92.6%
 EFFECTIVE MASS      1.4492         C  9 -- H 30         +13.1% ( 36.9%)     91.0%
 FORCE CONSTANT      1.1655

 VIBRATION         87   87A           ATOM PAIR      ENERGY CONTRIBUTION    RADIAL
 FREQUENCY          3103.89         C  4 -- H 19         +48.6% ( 69.1%)     98.0%
 TRANSITION DIPOLE   0.0719         C  4 -- H 18         +36.4% ( 59.8%)     96.1%
 TRAVEL (Ang.)       0.2391         C  5 -- H 20          +7.5% ( 27.1%)     98.1%
 REDUCED MASS        0.3798         C  5 -- H 21          +5.4% ( 23.0%)     96.0%
 EFFECTIVE MASS      1.2881
 FORCE CONSTANT      2.1561

 VIBRATION         88   88A           ATOM PAIR      ENERGY CONTRIBUTION    RADIAL
 FREQUENCY          3158.21         C  8 -- H 22         +25.1% ( 48.6%)     99.0%
 TRANSITION DIPOLE   0.0852         C  9 -- H 29         +22.1% ( 45.5%)     97.9%
 TRAVEL (Ang.)       0.3370         C  9 -- H 30         +21.8% ( 45.2%)     97.9%
 REDUCED MASS        0.1880         C  8 -- H 24         +13.7% ( 35.9%)     95.7%
 EFFECTIVE MASS      1.1539         C  9 -- H 28         +10.8% ( 31.9%)     92.9%
 FORCE CONSTANT      1.1048

 VIBRATION         89   89A           ATOM PAIR      ENERGY CONTRIBUTION    RADIAL
 FREQUENCY          3177.98         C  7 -- H 26         +38.5% ( 59.7%)     97.8%
 TRANSITION DIPOLE   0.0370         C  7 -- H 25         +30.8% ( 53.4%)     96.7%
 TRAVEL (Ang.)       0.2534         C  7 -- H 27         +30.4% ( 53.1%)     96.5%
 REDUCED MASS        0.3303         C  3 -- C  7          +0.3% (  5.0%)     98.8%
 EFFECTIVE MASS      1.1354
 FORCE CONSTANT      1.9656

 VIBRATION         90   90A           ATOM PAIR      ENERGY CONTRIBUTION    RADIAL
 FREQUENCY          3193.36         C  8 -- H 23         +31.4% ( 53.7%)     99.1%
 TRANSITION DIPOLE   0.0575         C  9 -- H 28         +27.4% ( 50.2%)     99.6%
 TRAVEL (Ang.)       0.3167         C  8 -- H 22         +14.7% ( 36.8%)     96.0%
 REDUCED MASS        0.2106         C  8 -- H 24          +9.4% ( 29.4%)     92.5%
 EFFECTIVE MASS      1.1388
 FORCE CONSTANT      1.2651

      SYMMETRY NUMBER FOR POINT-GROUP C1  =  1


          SYSTEM IS A GROUND STATE



 InChI=1S/C12H20/c1-4-6-7-10(3)12-9-8-11(12)5-2/h4,7,10-12H,5,8-9H2,1-3H3


          MOLECULE IS NOT LINEAR

          THERE ARE 90 GENUINE VIBRATIONS IN THIS SYSTEM
          THIS THERMODYNAMICS CALCULATION IS LIMITED TO
          MOLECULES WHICH HAVE NO INTERNAL ROTATIONS




                    CALCULATED THERMODYNAMIC PROPERTIES
                                          *
   TEMP. (K)   PARTITION FUNCTION   H.O.F.    ENTHALPY  HEAT CAPACITY ENTROPY
                                   KCAL/MOL   CAL/MOLE    CAL/K/MOL  CAL/K/MOL


 298.00  VIB.     0.2591D+05                  6869.4549    46.0373    43.2469
         ROT.     0.1414D+07                   888.2803     2.9808    31.1231
         INT.     0.3664D+11                  7757.7352    49.0181    74.3701
         TRA.     0.2036D+28                  1480.4672     4.9680    41.1956
         TOT.                       13.384    9238.2024    53.9861   115.5657

 200.00  VIB.     0.5596D+03                  3141.8860    30.5862    28.2831
         ROT.     0.7773D+06                   596.1613     2.9808    29.9345
         INT.     0.4350D+09                  3738.0473    33.5670    58.2175
         TRA.     0.1119D+28                   993.6021     4.9680    39.2145
         TOT.                        8.877    4731.6494    38.5350    97.4320

 210.00  VIB.     0.8305D+03                  3454.7842    31.9998    29.8094
         ROT.     0.8363D+06                   625.9693     2.9808    30.0799
         INT.     0.6946D+09                  4080.7535    34.9806    59.8893
         TRA.     0.1204D+28                  1043.2822     4.9680    39.4569
         TOT.                        9.270    5124.0357    39.9486    99.3462

 220.00  VIB.     0.1231D+04                  3782.0132    33.4527    31.3314
         ROT.     0.8968D+06                   655.7774     2.9808    30.2186
         INT.     0.1104D+10                  4437.7906    36.4335    61.5500
         TRA.     0.1291D+28                  1092.9623     4.9680    39.6880
         TOT.                        9.676    5530.7529    41.4015   101.2380

 230.00  VIB.     0.1824D+04                  4123.9746    34.9464    32.8513
         ROT.     0.9586D+06                   685.5855     2.9808    30.3511
         INT.     0.1748D+10                  4809.5601    37.9272    63.2023
         TRA.     0.1380D+28                  1142.6424     4.9680    39.9088
         TOT.                       10.098    5952.2026    42.8952   103.1112

 240.00  VIB.     0.2698D+04                  4481.0758    36.4805    34.3709
         ROT.     0.1022D+07                   715.3935     2.9808    30.4779
         INT.     0.2757D+10                  5196.4693    39.4613    64.8488
         TRA.     0.1471D+28                  1192.3226     4.9680    40.1203
         TOT.                       10.534    6388.7919    44.4293   104.9691

 250.00  VIB.     0.3990D+04                  4853.7144    38.0535    35.8918
         ROT.     0.1086D+07                   745.2016     2.9808    30.5996
         INT.     0.4334D+10                  5598.9160    41.0343    66.4914
         TRA.     0.1564D+28                  1242.0027     4.9680    40.3231
         TOT.                       10.986    6840.9186    46.0023   106.8145

 260.00  VIB.     0.5896D+04                  5242.2661    39.6626    37.4155
         ROT.     0.1152D+07                   775.0097     2.9808    30.7165
         INT.     0.6793D+10                  6017.2757    42.6434    68.1321
         TRA.     0.1659D+28                  1291.6828     4.9680    40.5179
         TOT.                       11.454    7308.9585    47.6114   108.6500

 270.00  VIB.     0.8708D+04                  5647.0748    41.3043    38.9431
         ROT.     0.1219D+07                   804.8177     2.9808    30.8290
         INT.     0.1062D+11                  6451.8926    44.2851    69.7721
         TRA.     0.1756D+28                  1341.3629     4.9680    40.7054
         TOT.                       11.939    7793.2554    49.2531   110.4776

 280.00  VIB.     0.1286D+05                  6068.4458    42.9743    40.4754
         ROT.     0.1288D+07                   834.6258     2.9808    30.9374
         INT.     0.1656D+11                  6903.0716    45.9551    71.4128
         TRA.     0.1854D+28                  1391.0430     4.9680    40.8861
         TOT.                       12.440    8294.1145    50.9231   112.2989

 290.00  VIB.     0.1898D+05                  6506.6403    44.6682    42.0129
         ROT.     0.1357D+07                   864.4339     2.9808    31.0420
         INT.     0.2576D+11                  7371.0741    47.6490    73.0549
         TRA.     0.1954D+28                  1440.7231     4.9680    41.0604
         TOT.                       12.957    8811.7972    52.6170   114.1153

 300.00  VIB.     0.2801D+05                  6961.8733    46.3812    43.5560
         ROT.     0.1428D+07                   894.2419     2.9808    31.1431
         INT.     0.4000D+11                  7856.1152    49.3620    74.6991
         TRA.     0.2056D+28                  1490.4032     4.9680    41.2289
         TOT.                       13.492    9346.5184    54.3300   115.9280

 310.00  VIB.     0.4134D+05                  7434.3122    48.1086    45.1050
         ROT.     0.1500D+07                   924.0500     2.9808    31.2408
         INT.     0.6202D+11                  8358.3621    51.0894    76.3458
         TRA.     0.2160D+28                  1540.0833     4.9680    41.3918
         TOT.                       14.044    9898.4454    56.0574   117.7376

 320.00  VIB.     0.6102D+05                  7924.0769    49.8456    46.6598
         ROT.     0.1573D+07                   953.8580     2.9808    31.3355
         INT.     0.9600D+11                  8877.9350    52.8264    77.9952
         TRA.     0.2265D+28                  1589.7634     4.9680    41.5495
         TOT.                       14.613   10467.6984    57.7944   119.5447

 330.00  VIB.     0.9009D+05                  8431.2416    51.5878    48.2203
         ROT.     0.1648D+07                   983.6661     2.9808    31.4272
         INT.     0.1484D+12                  9414.9077    54.5686    79.6474
         TRA.     0.2372D+28                  1639.4435     4.9680    41.7024
         TOT.                       15.200   11054.3512    59.5366   121.3498

 340.00  VIB.     0.1330D+06                  8955.8363    53.3309    49.7862
         ROT.     0.1723D+07                  1013.4742     2.9808    31.5162
         INT.     0.2292D+12                  9969.3105    56.3118    81.3024
         TRA.     0.2481D+28                  1689.1236     4.9680    41.8507
         TOT.                       15.804   11658.4341    61.2798   123.1530

 350.00  VIB.     0.1965D+06                  9497.8504    55.0710    51.3572
         ROT.     0.1800D+07                  1043.2822     2.9808    31.6026
         INT.     0.3535D+12                 10541.1326    58.0519    82.9598
         TRA.     0.2591D+28                  1738.8037     4.9680    41.9947
         TOT.                       16.425   12279.9363    63.0199   124.9545

 360.00  VIB.     0.2903D+06                 10057.2350    56.8045    52.9330
         ROT.     0.1877D+07                  1073.0903     2.9808    31.6865
         INT.     0.5449D+12                 11130.3253    59.7853    84.6195
         TRA.     0.2703D+28                  1788.4838     4.9680    42.1347
         TOT.                       17.064   12918.8091    64.7533   126.7542

 370.00  VIB.     0.4290D+06                 10633.9070    58.5280    54.5129
         ROT.     0.1956D+07                  1102.8984     2.9808    31.7682
         INT.     0.8391D+12                 11736.8054    61.5088    86.2811
         TRA.     0.2817D+28                  1838.1639     4.9680    42.2708
         TOT.                       17.721   13574.9693    66.4768   128.5519

 380.00  VIB.     0.6343D+06                 11227.7523    60.2387    56.0965
         ROT.     0.2036D+07                  1132.7064     2.9808    31.8477
         INT.     0.1291D+13                 12360.4587    63.2195    87.9442
         TRA.     0.2932D+28                  1887.8440     4.9680    42.4033
         TOT.                       18.394   14248.3027    68.1875   130.3474

 390.00  VIB.     0.9383D+06                 11838.6292    61.9339    57.6831
         ROT.     0.2117D+07                  1162.5145     2.9808    31.9251
         INT.     0.1986D+13                 13001.1437    64.9147    89.6083
         TRA.     0.3048D+28                  1937.5242     4.9680    42.5323
         TOT.                       19.084   14938.6678    69.8828   132.1406

 400.00  VIB.     0.1388D+07                 12466.3721    63.6115    59.2724
         ROT.     0.2199D+07                  1192.3226     2.9808    32.0006
         INT.     0.3053D+13                 13658.6947    66.5924    91.2730
         TRA.     0.3166D+28                  1987.2043     4.9680    42.6581
         TOT.                       19.791   15645.8990    71.5604   133.9310

   *: NOTE: HEATS OF FORMATION ARE RELATIVE TO THE
            ELEMENTS IN THEIR STANDARD STATE AT 298K
              (=  Standard Enthalpy of Formation).

            Hvib:  Zero-point energy is not included.
                   frequencies of less than zero cm-1 are not included.
            Hrot = (3/2)RT
            Htra = (3/2)RT + pV = (5/2)RT

            Heat capacity is Cp, not Cv

          For more information, see: HTTP://OpenMOPAC.net/Manual/thermochemistry.html


           FORCE CONSTANT IN CARTESIAN COORDINATES (Millidynes/A)

    ATOM   CHEMICAL       X               Y               Z
   NUMBER   SYMBOL  FORCE CONSTANT  FORCE CONSTANT  FORCE CONSTANT

      1       C        7.819593        8.277079        8.263824
      2       C        7.681351        8.625724        8.256808
      3       C        8.268675        8.178603        8.803260
      4       C        8.135069        8.393553        8.069147
      5       C        8.131916        8.438348        7.952492
      6       C        8.281756        8.376906        8.434456
      7       C        8.099066        8.385430        8.347086
      8       C        8.163406        8.173783        8.418675
      9       C        8.916673        8.249847        7.999503
     10       C        8.624798        9.994638        8.324429
     11       C       11.854486       12.441191        2.629240
     12       C       12.235718       14.110542        2.080156
     13       H        1.349379        4.122763        0.743415
     14       H        1.371551        1.989721        2.885549
     15       H        1.317925        1.864874        2.853020
     16       H        1.662004        3.932699        0.798941
     17       H        4.503158        0.843929        1.023093
     18       H        1.417128        4.475829        0.726057
     19       H        1.511283        1.922847        3.193457
     20       H        1.506799        4.414226        0.705165
     21       H        1.408915        1.991976        3.211726
     22       H        1.564777        2.063570        3.151749
     23       H        1.783708        4.281754        0.790423
     24       H        4.775705        0.868495        1.051162
     25       H        0.897122        1.574784        4.293525
     26       H        1.524502        4.599337        0.665205
     27       H        1.562812        2.056595        3.155549
     28       H        0.867790        5.232676        0.722810
     29       H        0.939560        1.668246        4.051202
     30       H        2.214250        1.207555        3.229232
     31       H        1.017230        4.686985        0.394285
     32       H        1.601433        0.978365        3.488965

 **********************
 *                    *
 * JOB ENDED NORMALLY *
 *                    *
 **********************



 TOTAL JOB TIME:             8.30 SECONDS

 == MOPAC DONE ==
