 *******************************************************************************
 **                                                                           **
 **                              MOPAC v23.1.2                                **
 **                                                                           **
 *******************************************************************************
 **          Digital Object Identifier (DOI): 10.5281/zenodo.6511958          **
 **    Visit the DOI location for information on how to cite this program.    **
 *******************************************************************************

                              PM3 CALCULATION RESULTS

 *******************************************************************************
 *  CALCULATION DONE: (MAX THREADS = 1)              Tue Jun  3 16:41:31 2025  *
 *  PM3        - The PM3 Hamiltonian to be used
 *  PRECISE    - TIGHTER CRITERIA TO BE USED
 *  BFGS       - USE THE BFGS GEOMETRY OPTIMIZER
 *  NOSYM      - POINT-GROUP SYMMETRY SET TO C1
 *  THREADS=1  - MULTI-THREADING NOT USED
 *  T=         - A TIME OF 172800.0 SECONDS REQUESTED
 *  DUMP=N     - RESTART FILE WRITTEN EVERY 7200.0 SECONDS REQUESTED
 *  GNORM      - EXIT WHEN GRADIENT NORM DROPS BELOW 0.000
 *******************************************************************************
pm3  precise nosym gnorm=0.0 bfgs THREADS=1
 InChI=1S/C12H22/c1-4-6-7-10(3)12-8-11(5-2)9-12/h4,6,10-12H,5,7-9H2,1-3H3

   ATOM   CHEMICAL          X               Y               Z
  NUMBER   SYMBOL      (ANGSTROMS)     (ANGSTROMS)     (ANGSTROMS)

     1       C         -0.92430000  *  -0.89650000  *  -0.98720000  *
     2       C         -2.62920000  *   0.27740000  *  -0.34280000  *
     3       C          0.44810000  *  -1.00670000  *  -0.27570000  *
     4       C         -2.13470000  *  -1.14380000  *  -0.07990000  *
     5       C         -1.40460000  *   0.54030000  *  -1.21920000  *
     6       C         -2.69620000  *   1.14380000  *   0.92750000  *
     7       C          1.57610000  *  -0.50570000  *  -1.20950000  *
     8       C          0.71290000  *  -2.46430000  *   0.14260000  *
     9       C         -3.12730000  *   2.57170000  *   0.60410000  *
    10       C          4.45780000  *   0.62290000  *   1.11700000  *
    11       C          2.90200000  *  -0.40600000  *  -0.50220000  *
    12       C          3.13180000  *   0.53060000  *   0.42850000  *
    13       H         -3.57870000  *   0.28400000  *  -0.92420000  *
    14       H         -0.97500000  *  -1.50430000  *  -1.91910000  *
    15       H          0.42780000  *  -0.37830000  *   0.64310000  *
    16       H         -3.43810000  *   0.69990000  *   1.62600000  *
    17       H         -1.71000000  *   1.16480000  *   1.44200000  *
    18       H         -2.82160000  *  -1.91150000  *  -0.49810000  *
    19       H         -1.87600000  *  -1.32820000  *   0.98630000  *
    20       H         -1.68050000  *   0.72440000  *  -2.28030000  *
    21       H         -0.72440000  *   1.31760000  *  -0.80600000  *
    22       H          1.67970000  *  -1.20010000  *  -2.07180000  *
    23       H          1.32960000  *   0.49370000  *  -1.62690000  *
    24       H         -4.12630000  *   2.57180000  *   0.11820000  *
    25       H         -3.18890000  *   3.16220000  *   1.54230000  *
    26       H         -2.39180000  *   3.05710000  *  -0.07150000  *
    27       H         -0.07480000  *  -2.82760000  *   0.83420000  *
    28       H          0.73640000  *  -3.12860000  *  -0.74780000  *
    29       H          1.68350000  *  -2.54620000  *   0.67550000  *
    30       H          5.25950000  *   0.81070000  *   0.37180000  *
    31       H          4.44330000  *   1.45880000  *   1.84730000  *
    32       H          4.66990000  *  -0.32320000  *   1.65830000  *
    33       H          2.35170000  *   1.23890000  *   0.69430000  *
    34       H          3.69210000  *  -1.09940000  *  -0.77810000  *



          CARTESIAN COORDINATES 

    NO.       ATOM           X           Y           Z

     1         C         -0.9243     -0.8965     -0.9872
     2         C         -2.6292      0.2774     -0.3428
     3         C          0.4481     -1.0067     -0.2757
     4         C         -2.1347     -1.1438     -0.0799
     5         C         -1.4046      0.5403     -1.2192
     6         C         -2.6962      1.1438      0.9275
     7         C          1.5761     -0.5057     -1.2095
     8         C          0.7129     -2.4643      0.1426
     9         C         -3.1273      2.5717      0.6041
    10         C          4.4578      0.6229      1.1170
    11         C          2.9020     -0.4060     -0.5022
    12         C          3.1318      0.5306      0.4285
    13         H         -3.5787      0.2840     -0.9242
    14         H         -0.9750     -1.5043     -1.9191
    15         H          0.4278     -0.3783      0.6431
    16         H         -3.4381      0.6999      1.6260
    17         H         -1.7100      1.1648      1.4420
    18         H         -2.8216     -1.9115     -0.4981
    19         H         -1.8760     -1.3282      0.9863
    20         H         -1.6805      0.7244     -2.2803
    21         H         -0.7244      1.3176     -0.8060
    22         H          1.6797     -1.2001     -2.0718
    23         H          1.3296      0.4937     -1.6269
    24         H         -4.1263      2.5718      0.1182
    25         H         -3.1889      3.1622      1.5423
    26         H         -2.3918      3.0571     -0.0715
    27         H         -0.0748     -2.8276      0.8342
    28         H          0.7364     -3.1286     -0.7478
    29         H          1.6835     -2.5462      0.6755
    30         H          5.2595      0.8107      0.3718
    31         H          4.4433      1.4588      1.8473
    32         H          4.6699     -0.3232      1.6583
    33         H          2.3517      1.2389      0.6943
    34         H          3.6921     -1.0994     -0.7781

  H: (PM3): J. J. P. STEWART, J. COMP. CHEM. 10, 209 (1989).
  C: (PM3): J. J. P. STEWART, J. COMP. CHEM. 10, 209 (1989).

           Empirical Formula: C12 H22  =    34 atoms



      MOLECULAR POINT GROUP   :   C1  


      RHF CALCULATION, NO. OF DOUBLY OCCUPIED LEVELS = 35


          Geometry optimization using BFGS

  GNORM HAS BEEN SET TOO LOW, RESET TO 0.01
 CYCLE:     1 TIME:   0.020 TIME LEFT:  2.00D  GRAD.:    66.549 HEAT: -19.24293
 CYCLE:     2 TIME:   0.012 TIME LEFT:  2.00D  GRAD.:    39.111 HEAT: -20.28128
 CYCLE:     3 TIME:   0.016 TIME LEFT:  2.00D  GRAD.:    30.711 HEAT: -20.60855
 CYCLE:     4 TIME:   0.012 TIME LEFT:  2.00D  GRAD.:    22.033 HEAT: -20.97232
 CYCLE:     5 TIME:   0.016 TIME LEFT:  2.00D  GRAD.:    19.612 HEAT: -21.14577
 CYCLE:     6 TIME:   0.008 TIME LEFT:  2.00D  GRAD.:    24.808 HEAT: -21.23292
 CYCLE:     7 TIME:   0.016 TIME LEFT:  2.00D  GRAD.:    16.005 HEAT: -21.34430
 CYCLE:     8 TIME:   0.008 TIME LEFT:  2.00D  GRAD.:    16.381 HEAT: -21.39165
 CYCLE:     9 TIME:   0.008 TIME LEFT:  2.00D  GRAD.:    14.668 HEAT: -21.41899
 CYCLE:    10 TIME:   0.016 TIME LEFT:  2.00D  GRAD.:    11.958 HEAT: -21.46856
 CYCLE:    11 TIME:   0.012 TIME LEFT:  2.00D  GRAD.:     8.354 HEAT: -21.50667
 CYCLE:    12 TIME:   0.012 TIME LEFT:  2.00D  GRAD.:     5.487 HEAT: -21.53096
 CYCLE:    13 TIME:   0.012 TIME LEFT:  2.00D  GRAD.:     5.640 HEAT: -21.54521
 CYCLE:    14 TIME:   0.012 TIME LEFT:  2.00D  GRAD.:     6.262 HEAT: -21.57237
 CYCLE:    15 TIME:   0.008 TIME LEFT:  2.00D  GRAD.:     3.906 HEAT: -21.59058
 CYCLE:    16 TIME:   0.008 TIME LEFT:  2.00D  GRAD.:     4.513 HEAT: -21.59204
 CYCLE:    17 TIME:   0.012 TIME LEFT:  2.00D  GRAD.:     3.210 HEAT: -21.60308
 CYCLE:    18 TIME:   0.008 TIME LEFT:  2.00D  GRAD.:     2.238 HEAT: -21.60987
 CYCLE:    19 TIME:   0.016 TIME LEFT:  2.00D  GRAD.:     2.471 HEAT: -21.62060
 CYCLE:    20 TIME:   0.008 TIME LEFT:  2.00D  GRAD.:     1.964 HEAT: -21.62396
 CYCLE:    21 TIME:   0.008 TIME LEFT:  2.00D  GRAD.:     1.568 HEAT: -21.62650
 CYCLE:    22 TIME:   0.012 TIME LEFT:  2.00D  GRAD.:     1.417 HEAT: -21.62974
 CYCLE:    23 TIME:   0.008 TIME LEFT:  2.00D  GRAD.:     1.550 HEAT: -21.63286
 CYCLE:    24 TIME:   0.012 TIME LEFT:  2.00D  GRAD.:     1.395 HEAT: -21.63512
 CYCLE:    25 TIME:   0.008 TIME LEFT:  2.00D  GRAD.:     1.387 HEAT: -21.63776
 CYCLE:    26 TIME:   0.012 TIME LEFT:  2.00D  GRAD.:     1.381 HEAT: -21.64030
 CYCLE:    27 TIME:   0.008 TIME LEFT:  2.00D  GRAD.:     1.353 HEAT: -21.64300
 CYCLE:    28 TIME:   0.012 TIME LEFT:  2.00D  GRAD.:     1.281 HEAT: -21.64568
 CYCLE:    29 TIME:   0.008 TIME LEFT:  2.00D  GRAD.:     1.321 HEAT: -21.64831
 CYCLE:    30 TIME:   0.008 TIME LEFT:  2.00D  GRAD.:     1.399 HEAT: -21.65055
 CYCLE:    31 TIME:   0.012 TIME LEFT:  2.00D  GRAD.:     1.308 HEAT: -21.65276
 CYCLE:    32 TIME:   0.012 TIME LEFT:  2.00D  GRAD.:     1.670 HEAT: -21.65633
 CYCLE:    33 TIME:   0.016 TIME LEFT:  2.00D  GRAD.:     2.771 HEAT: -21.66281
 CYCLE:    34 TIME:   0.016 TIME LEFT:  2.00D  GRAD.:     2.023 HEAT: -21.66897
 CYCLE:    35 TIME:   0.016 TIME LEFT:  2.00D  GRAD.:     2.495 HEAT: -21.67726
 CYCLE:    36 TIME:   0.012 TIME LEFT:  2.00D  GRAD.:     1.954 HEAT: -21.68521
 CYCLE:    37 TIME:   0.012 TIME LEFT:  2.00D  GRAD.:     1.829 HEAT: -21.69102
 CYCLE:    38 TIME:   0.016 TIME LEFT:  2.00D  GRAD.:     1.858 HEAT: -21.69628
 CYCLE:    39 TIME:   0.008 TIME LEFT:  2.00D  GRAD.:     1.750 HEAT: -21.70031
 CYCLE:    40 TIME:   0.008 TIME LEFT:  2.00D  GRAD.:     1.771 HEAT: -21.70487
 CYCLE:    41 TIME:   0.016 TIME LEFT:  2.00D  GRAD.:     2.677 HEAT: -21.71177
 CYCLE:    42 TIME:   0.012 TIME LEFT:  2.00D  GRAD.:     2.555 HEAT: -21.71987
 CYCLE:    43 TIME:   0.016 TIME LEFT:  2.00D  GRAD.:     2.897 HEAT: -21.72856
 CYCLE:    44 TIME:   0.016 TIME LEFT:  2.00D  GRAD.:     3.356 HEAT: -21.73800
 CYCLE:    45 TIME:   0.016 TIME LEFT:  2.00D  GRAD.:     5.279 HEAT: -21.75623
 CYCLE:    46 TIME:   0.016 TIME LEFT:  2.00D  GRAD.:     3.061 HEAT: -21.77144
 CYCLE:    47 TIME:   0.008 TIME LEFT:  2.00D  GRAD.:     2.554 HEAT: -21.78456
 CYCLE:    48 TIME:   0.012 TIME LEFT:  2.00D  GRAD.:     2.384 HEAT: -21.79924
 CYCLE:    49 TIME:   0.008 TIME LEFT:  2.00D  GRAD.:     3.462 HEAT: -21.81287
 CYCLE:    50 TIME:   0.016 TIME LEFT:  2.00D  GRAD.:     4.624 HEAT: -21.83480
 CYCLE:    51 TIME:   0.016 TIME LEFT:  2.00D  GRAD.:     5.033 HEAT: -21.88077
 CYCLE:    52 TIME:   0.012 TIME LEFT:  2.00D  GRAD.:     4.384 HEAT: -21.92348
 CYCLE:    53 TIME:   0.016 TIME LEFT:  2.00D  GRAD.:     8.331 HEAT: -21.94826
 CYCLE:    54 TIME:   0.012 TIME LEFT:  2.00D  GRAD.:     6.027 HEAT: -22.00508
 CYCLE:    55 TIME:   0.016 TIME LEFT:  2.00D  GRAD.:    10.401 HEAT: -22.07819
 CYCLE:    56 TIME:   0.012 TIME LEFT:  2.00D  GRAD.:     9.082 HEAT: -22.11012
 CYCLE:    57 TIME:   0.012 TIME LEFT:  2.00D  GRAD.:     8.764 HEAT: -22.20082
 CYCLE:    58 TIME:   0.012 TIME LEFT:  2.00D  GRAD.:     5.852 HEAT: -22.27381
 CYCLE:    59 TIME:   0.020 TIME LEFT:  2.00D  GRAD.:    10.710 HEAT: -22.34074
 CYCLE:    60 TIME:   0.008 TIME LEFT:  2.00D  GRAD.:     5.981 HEAT: -22.38893
 CYCLE:    61 TIME:   0.012 TIME LEFT:  2.00D  GRAD.:     6.380 HEAT: -22.41607
 CYCLE:    62 TIME:   0.008 TIME LEFT:  2.00D  GRAD.:     3.898 HEAT: -22.44810
 CYCLE:    63 TIME:   0.008 TIME LEFT:  2.00D  GRAD.:     3.555 HEAT: -22.47262
 CYCLE:    64 TIME:   0.012 TIME LEFT:  2.00D  GRAD.:     4.236 HEAT: -22.49451
 CYCLE:    65 TIME:   0.012 TIME LEFT:  2.00D  GRAD.:     3.516 HEAT: -22.51247
 CYCLE:    66 TIME:   0.008 TIME LEFT:  2.00D  GRAD.:     2.812 HEAT: -22.53150
 CYCLE:    67 TIME:   0.012 TIME LEFT:  2.00D  GRAD.:     3.036 HEAT: -22.54764
 CYCLE:    68 TIME:   0.008 TIME LEFT:  2.00D  GRAD.:     3.655 HEAT: -22.56610
 CYCLE:    69 TIME:   0.012 TIME LEFT:  2.00D  GRAD.:     3.185 HEAT: -22.58227
 CYCLE:    70 TIME:   0.008 TIME LEFT:  2.00D  GRAD.:     3.047 HEAT: -22.60057
 CYCLE:    71 TIME:   0.012 TIME LEFT:  2.00D  GRAD.:     2.493 HEAT: -22.60886
 CYCLE:    72 TIME:   0.008 TIME LEFT:  2.00D  GRAD.:     2.149 HEAT: -22.61809
 CYCLE:    73 TIME:   0.012 TIME LEFT:  2.00D  GRAD.:     1.986 HEAT: -22.62526
 CYCLE:    74 TIME:   0.008 TIME LEFT:  2.00D  GRAD.:     2.116 HEAT: -22.63417
 CYCLE:    75 TIME:   0.012 TIME LEFT:  2.00D  GRAD.:     2.358 HEAT: -22.64169
 CYCLE:    76 TIME:   0.008 TIME LEFT:  2.00D  GRAD.:     2.222 HEAT: -22.64914
 CYCLE:    77 TIME:   0.012 TIME LEFT:  2.00D  GRAD.:     2.106 HEAT: -22.65727
 CYCLE:    78 TIME:   0.008 TIME LEFT:  2.00D  GRAD.:     2.047 HEAT: -22.66440
 CYCLE:    79 TIME:   0.008 TIME LEFT:  2.00D  GRAD.:     2.190 HEAT: -22.67168
 CYCLE:    80 TIME:   0.012 TIME LEFT:  2.00D  GRAD.:     2.334 HEAT: -22.67832
 CYCLE:    81 TIME:   0.008 TIME LEFT:  2.00D  GRAD.:     2.366 HEAT: -22.68695
 CYCLE:    82 TIME:   0.012 TIME LEFT:  2.00D  GRAD.:     2.402 HEAT: -22.69697
 CYCLE:    83 TIME:   0.008 TIME LEFT:  2.00D  GRAD.:     2.074 HEAT: -22.70660
 CYCLE:    84 TIME:   0.012 TIME LEFT:  2.00D  GRAD.:     1.807 HEAT: -22.71410
 CYCLE:    85 TIME:   0.008 TIME LEFT:  2.00D  GRAD.:     1.623 HEAT: -22.71834
 CYCLE:    86 TIME:   0.012 TIME LEFT:  2.00D  GRAD.:     1.402 HEAT: -22.72178
 CYCLE:    87 TIME:   0.008 TIME LEFT:  2.00D  GRAD.:     1.458 HEAT: -22.72517
 CYCLE:    88 TIME:   0.008 TIME LEFT:  2.00D  GRAD.:     1.523 HEAT: -22.72900
 CYCLE:    89 TIME:   0.012 TIME LEFT:  2.00D  GRAD.:     1.613 HEAT: -22.73238
 CYCLE:    90 TIME:   0.012 TIME LEFT:  2.00D  GRAD.:     1.581 HEAT: -22.73634
 CYCLE:    91 TIME:   0.008 TIME LEFT:  2.00D  GRAD.:     1.588 HEAT: -22.74056
 CYCLE:    92 TIME:   0.008 TIME LEFT:  2.00D  GRAD.:     1.599 HEAT: -22.74436
 CYCLE:    93 TIME:   0.012 TIME LEFT:  2.00D  GRAD.:     1.635 HEAT: -22.74782
 CYCLE:    94 TIME:   0.008 TIME LEFT:  2.00D  GRAD.:     1.687 HEAT: -22.75085
 CYCLE:    95 TIME:   0.012 TIME LEFT:  2.00D  GRAD.:     1.846 HEAT: -22.75528
 CYCLE:    96 TIME:   0.012 TIME LEFT:  2.00D  GRAD.:     2.413 HEAT: -22.76304
 CYCLE:    97 TIME:   0.020 TIME LEFT:  2.00D  GRAD.:     2.765 HEAT: -22.77597
 CYCLE:    98 TIME:   0.008 TIME LEFT:  2.00D  GRAD.:     1.858 HEAT: -22.78095
 CYCLE:    99 TIME:   0.008 TIME LEFT:  2.00D  GRAD.:     1.731 HEAT: -22.78747
 CYCLE:   100 TIME:   0.016 TIME LEFT:  2.00D  GRAD.:     2.163 HEAT: -22.79371
 CYCLE:   101 TIME:   0.012 TIME LEFT:  2.00D  GRAD.:     1.456 HEAT: -22.79826
 CYCLE:   102 TIME:   0.012 TIME LEFT:  2.00D  GRAD.:     1.177 HEAT: -22.80034
 CYCLE:   103 TIME:   0.012 TIME LEFT:  2.00D  GRAD.:     1.003 HEAT: -22.80215
 CYCLE:   104 TIME:   0.008 TIME LEFT:  2.00D  GRAD.:     0.922 HEAT: -22.80403
 CYCLE:   105 TIME:   0.016 TIME LEFT:  2.00D  GRAD.:     0.985 HEAT: -22.80634
 CYCLE:   106 TIME:   0.016 TIME LEFT:  2.00D  GRAD.:     0.978 HEAT: -22.80837
 CYCLE:   107 TIME:   0.016 TIME LEFT:  2.00D  GRAD.:     0.668 HEAT: -22.80993
 CYCLE:   108 TIME:   0.008 TIME LEFT:  2.00D  GRAD.:     0.576 HEAT: -22.81075
 CYCLE:   109 TIME:   0.012 TIME LEFT:  2.00D  GRAD.:     0.590 HEAT: -22.81135
 CYCLE:   110 TIME:   0.008 TIME LEFT:  2.00D  GRAD.:     0.693 HEAT: -22.81190
 CYCLE:   111 TIME:   0.012 TIME LEFT:  2.00D  GRAD.:     0.719 HEAT: -22.81251
 CYCLE:   112 TIME:   0.008 TIME LEFT:  2.00D  GRAD.:     0.691 HEAT: -22.81336
 CYCLE:   113 TIME:   0.012 TIME LEFT:  2.00D  GRAD.:     0.668 HEAT: -22.81419
 CYCLE:   114 TIME:   0.012 TIME LEFT:  2.00D  GRAD.:     1.007 HEAT: -22.81566
 CYCLE:   115 TIME:   0.020 TIME LEFT:  2.00D  GRAD.:     1.193 HEAT: -22.81863
 CYCLE:   116 TIME:   0.016 TIME LEFT:  2.00D  GRAD.:     1.483 HEAT: -22.82151
 CYCLE:   117 TIME:   0.016 TIME LEFT:  2.00D  GRAD.:     1.815 HEAT: -22.82688
 CYCLE:   118 TIME:   0.016 TIME LEFT:  2.00D  GRAD.:     2.119 HEAT: -22.83142
 CYCLE:   119 TIME:   0.012 TIME LEFT:  2.00D  GRAD.:     1.700 HEAT: -22.83587
 CYCLE:   120 TIME:   0.012 TIME LEFT:  2.00D  GRAD.:     1.727 HEAT: -22.84169
 CYCLE:   121 TIME:   0.012 TIME LEFT:  2.00D  GRAD.:     1.776 HEAT: -22.84626
 CYCLE:   122 TIME:   0.008 TIME LEFT:  2.00D  GRAD.:     1.920 HEAT: -22.85093
 CYCLE:   123 TIME:   0.012 TIME LEFT:  2.00D  GRAD.:     1.638 HEAT: -22.85490
 CYCLE:   124 TIME:   0.008 TIME LEFT:  2.00D  GRAD.:     2.505 HEAT: -22.85663
 CYCLE:   125 TIME:   0.012 TIME LEFT:  2.00D  GRAD.:     1.807 HEAT: -22.86112
 CYCLE:   126 TIME:   0.012 TIME LEFT:  2.00D  GRAD.:     1.423 HEAT: -22.86620
 CYCLE:   127 TIME:   0.016 TIME LEFT:  2.00D  GRAD.:     2.608 HEAT: -22.87348
 CYCLE:   128 TIME:   0.012 TIME LEFT:  2.00D  GRAD.:     1.953 HEAT: -22.87822
 CYCLE:   129 TIME:   0.012 TIME LEFT:  2.00D  GRAD.:     1.988 HEAT: -22.88482
 CYCLE:   130 TIME:   0.012 TIME LEFT:  2.00D  GRAD.:     1.735 HEAT: -22.88979
 CYCLE:   131 TIME:   0.008 TIME LEFT:  2.00D  GRAD.:     2.282 HEAT: -22.89298
 CYCLE:   132 TIME:   0.012 TIME LEFT:  2.00D  GRAD.:     2.031 HEAT: -22.89956
 CYCLE:   133 TIME:   0.008 TIME LEFT:  2.00D  GRAD.:     1.769 HEAT: -22.90533
 CYCLE:   134 TIME:   0.012 TIME LEFT:  2.00D  GRAD.:     1.645 HEAT: -22.91001
 CYCLE:   135 TIME:   0.008 TIME LEFT:  2.00D  GRAD.:     1.691 HEAT: -22.91477
 CYCLE:   136 TIME:   0.012 TIME LEFT:  2.00D  GRAD.:     1.907 HEAT: -22.91810
 CYCLE:   137 TIME:   0.008 TIME LEFT:  2.00D  GRAD.:     1.682 HEAT: -22.91978
 CYCLE:   138 TIME:   0.012 TIME LEFT:  2.00D  GRAD.:     1.512 HEAT: -22.92253
 CYCLE:   139 TIME:   0.008 TIME LEFT:  2.00D  GRAD.:     1.046 HEAT: -22.92408
 CYCLE:   140 TIME:   0.012 TIME LEFT:  2.00D  GRAD.:     0.962 HEAT: -22.92625
 CYCLE:   141 TIME:   0.008 TIME LEFT:  2.00D  GRAD.:     1.037 HEAT: -22.92852
 CYCLE:   142 TIME:   0.016 TIME LEFT:  2.00D  GRAD.:     1.099 HEAT: -22.93119
 CYCLE:   143 TIME:   0.012 TIME LEFT:  2.00D  GRAD.:     1.064 HEAT: -22.93296
 CYCLE:   144 TIME:   0.012 TIME LEFT:  2.00D  GRAD.:     0.913 HEAT: -22.93454
 CYCLE:   145 TIME:   0.012 TIME LEFT:  2.00D  GRAD.:     1.683 HEAT: -22.93698
 CYCLE:   146 TIME:   0.012 TIME LEFT:  2.00D  GRAD.:     1.159 HEAT: -22.93837
 CYCLE:   147 TIME:   0.008 TIME LEFT:  2.00D  GRAD.:     0.924 HEAT: -22.93996
 CYCLE:   148 TIME:   0.012 TIME LEFT:  2.00D  GRAD.:     0.793 HEAT: -22.94079
 CYCLE:   149 TIME:   0.008 TIME LEFT:  2.00D  GRAD.:     0.944 HEAT: -22.94145
 CYCLE:   150 TIME:   0.012 TIME LEFT:  2.00D  GRAD.:     0.791 HEAT: -22.94219
 CYCLE:   151 TIME:   0.012 TIME LEFT:  2.00D  GRAD.:     0.588 HEAT: -22.94288
 CYCLE:   152 TIME:   0.012 TIME LEFT:  2.00D  GRAD.:     0.471 HEAT: -22.94327
 CYCLE:   153 TIME:   0.008 TIME LEFT:  2.00D  GRAD.:     0.416 HEAT: -22.94356
 CYCLE:   154 TIME:   0.012 TIME LEFT:  2.00D  GRAD.:     0.418 HEAT: -22.94390
 CYCLE:   155 TIME:   0.008 TIME LEFT:  2.00D  GRAD.:     0.473 HEAT: -22.94427
 CYCLE:   156 TIME:   0.012 TIME LEFT:  2.00D  GRAD.:     0.511 HEAT: -22.94453
 CYCLE:   157 TIME:   0.016 TIME LEFT:  2.00D  GRAD.:     0.882 HEAT: -22.94518
 CYCLE:   158 TIME:   0.012 TIME LEFT:  2.00D  GRAD.:     0.660 HEAT: -22.94616
 CYCLE:   159 TIME:   0.012 TIME LEFT:  2.00D  GRAD.:     0.704 HEAT: -22.94692
 CYCLE:   160 TIME:   0.012 TIME LEFT:  2.00D  GRAD.:     0.756 HEAT: -22.94746
 CYCLE:   161 TIME:   0.008 TIME LEFT:  2.00D  GRAD.:     0.696 HEAT: -22.94812
 CYCLE:   162 TIME:   0.012 TIME LEFT:  2.00D  GRAD.:     0.686 HEAT: -22.94872
 CYCLE:   163 TIME:   0.008 TIME LEFT:  2.00D  GRAD.:     0.539 HEAT: -22.94924
 CYCLE:   164 TIME:   0.012 TIME LEFT:  2.00D  GRAD.:     0.555 HEAT: -22.94975
 CYCLE:   165 TIME:   0.008 TIME LEFT:  2.00D  GRAD.:     0.655 HEAT: -22.95001
 CYCLE:   166 TIME:   0.012 TIME LEFT:  2.00D  GRAD.:     0.447 HEAT: -22.95045
 CYCLE:   167 TIME:   0.012 TIME LEFT:  2.00D  GRAD.:     0.503 HEAT: -22.95090
 CYCLE:   168 TIME:   0.016 TIME LEFT:  2.00D  GRAD.:     0.441 HEAT: -22.95134
 CYCLE:   169 TIME:   0.008 TIME LEFT:  2.00D  GRAD.:     0.484 HEAT: -22.95148
 CYCLE:   170 TIME:   0.012 TIME LEFT:  2.00D  GRAD.:     0.452 HEAT: -22.95179
 CYCLE:   171 TIME:   0.012 TIME LEFT:  2.00D  GRAD.:     0.476 HEAT: -22.95214
 CYCLE:   172 TIME:   0.012 TIME LEFT:  2.00D  GRAD.:     0.513 HEAT: -22.95266
 CYCLE:   173 TIME:   0.016 TIME LEFT:  2.00D  GRAD.:     0.612 HEAT: -22.95321
 CYCLE:   174 TIME:   0.012 TIME LEFT:  2.00D  GRAD.:     0.636 HEAT: -22.95387
 CYCLE:   175 TIME:   0.012 TIME LEFT:  2.00D  GRAD.:     0.601 HEAT: -22.95459
 CYCLE:   176 TIME:   0.012 TIME LEFT:  2.00D  GRAD.:     0.425 HEAT: -22.95500
 CYCLE:   177 TIME:   0.008 TIME LEFT:  2.00D  GRAD.:     0.462 HEAT: -22.95510
 CYCLE:   178 TIME:   0.012 TIME LEFT:  2.00D  GRAD.:     0.257 HEAT: -22.95525
 CYCLE:   179 TIME:   0.008 TIME LEFT:  2.00D  GRAD.:     0.185 HEAT: -22.95532
 CYCLE:   180 TIME:   0.012 TIME LEFT:  2.00D  GRAD.:     0.154 HEAT: -22.95534
 CYCLE:   181 TIME:   0.012 TIME LEFT:  2.00D  GRAD.:     0.121 HEAT: -22.95536
 CYCLE:   182 TIME:   0.012 TIME LEFT:  2.00D  GRAD.:     0.177 HEAT: -22.95542
 CYCLE:   183 TIME:   0.012 TIME LEFT:  2.00D  GRAD.:     0.167 HEAT: -22.95546
 CYCLE:   184 TIME:   0.012 TIME LEFT:  2.00D  GRAD.:     0.162 HEAT: -22.95551
 CYCLE:   185 TIME:   0.008 TIME LEFT:  2.00D  GRAD.:     0.202 HEAT: -22.95559
 CYCLE:   186 TIME:   0.012 TIME LEFT:  2.00D  GRAD.:     0.288 HEAT: -22.95573
 CYCLE:   187 TIME:   0.016 TIME LEFT:  2.00D  GRAD.:     0.535 HEAT: -22.95611
 CYCLE:   188 TIME:   0.016 TIME LEFT:  2.00D  GRAD.:     0.716 HEAT: -22.95696
 CYCLE:   189 TIME:   0.012 TIME LEFT:  2.00D  GRAD.:     0.548 HEAT: -22.95751
 CYCLE:   190 TIME:   0.016 TIME LEFT:  2.00D  GRAD.:     0.623 HEAT: -22.95823
 CYCLE:   191 TIME:   0.012 TIME LEFT:  2.00D  GRAD.:     0.462 HEAT: -22.95849
 CYCLE:   192 TIME:   0.008 TIME LEFT:  2.00D  GRAD.:     0.217 HEAT: -22.95879
 CYCLE:   193 TIME:   0.012 TIME LEFT:  2.00D  GRAD.:     0.170 HEAT: -22.95888
 CYCLE:   194 TIME:   0.008 TIME LEFT:  2.00D  GRAD.:     0.240 HEAT: -22.95896
 CYCLE:   195 TIME:   0.012 TIME LEFT:  2.00D  GRAD.:     0.336 HEAT: -22.95905
 CYCLE:   196 TIME:   0.012 TIME LEFT:  2.00D  GRAD.:     0.425 HEAT: -22.95920
 CYCLE:   197 TIME:   0.012 TIME LEFT:  2.00D  GRAD.:     0.501 HEAT: -22.95946
 CYCLE:   198 TIME:   0.012 TIME LEFT:  2.00D  GRAD.:     0.546 HEAT: -22.95987
 CYCLE:   199 TIME:   0.008 TIME LEFT:  2.00D  GRAD.:     0.310 HEAT: -22.95998
 CYCLE:   200 TIME:   0.016 TIME LEFT:  2.00D  GRAD.:     0.243 HEAT: -22.96011
 CYCLE:   201 TIME:   0.012 TIME LEFT:  2.00D  GRAD.:     0.412 HEAT: -22.96029
 CYCLE:   202 TIME:   0.012 TIME LEFT:  2.00D  GRAD.:     0.547 HEAT: -22.96033
 CYCLE:   203 TIME:   0.012 TIME LEFT:  2.00D  GRAD.:     0.594 HEAT: -22.96062
 CYCLE:   204 TIME:   0.012 TIME LEFT:  2.00D  GRAD.:     0.676 HEAT: -22.96120
 CYCLE:   205 TIME:   0.020 TIME LEFT:  2.00D  GRAD.:    22.200 HEAT: -22.96302
 CYCLE:   206 TIME:   0.016 TIME LEFT:  2.00D  GRAD.:     0.802 HEAT: -22.96310
 CYCLE:   207 TIME:   0.016 TIME LEFT:  2.00D  GRAD.:     0.901 HEAT: -22.96558
 CYCLE:   208 TIME:   0.020 TIME LEFT:  2.00D  GRAD.:     2.127 HEAT: -22.96950
 CYCLE:   209 TIME:   0.008 TIME LEFT:  2.00D  GRAD.:     2.178 HEAT: -22.97025
 CYCLE:   210 TIME:   0.016 TIME LEFT:  2.00D  GRAD.:     2.480 HEAT: -22.97064
 CYCLE:   211 TIME:   0.012 TIME LEFT:  2.00D  GRAD.:     2.716 HEAT: -22.97243
 CYCLE:   212 TIME:   0.062 TIME LEFT:  2.00D  GRAD.:    10.961 HEAT: -23.01328
 CYCLE:   213 TIME:   0.020 TIME LEFT:  2.00D  GRAD.:     7.890 HEAT: -23.01335
 CYCLE:   214 TIME:   0.008 TIME LEFT:  2.00D  GRAD.:     5.647 HEAT: -23.06833
 CYCLE:   215 TIME:   0.012 TIME LEFT:  2.00D  GRAD.:     2.345 HEAT: -23.08139
 CYCLE:   216 TIME:   0.008 TIME LEFT:  2.00D  GRAD.:     1.914 HEAT: -23.08687
 CYCLE:   217 TIME:   0.008 TIME LEFT:  2.00D  GRAD.:     1.293 HEAT: -23.08869
 CYCLE:   218 TIME:   0.012 TIME LEFT:  2.00D  GRAD.:     0.962 HEAT: -23.08910
 CYCLE:   219 TIME:   0.008 TIME LEFT:  2.00D  GRAD.:     0.798 HEAT: -23.08925
 CYCLE:   220 TIME:   0.012 TIME LEFT:  2.00D  GRAD.:     0.812 HEAT: -23.08927
 CYCLE:   221 TIME:   0.012 TIME LEFT:  2.00D  GRAD.:     0.837 HEAT: -23.08927
 CYCLE:   222 TIME:   0.012 TIME LEFT:  2.00D  GRAD.:     0.847 HEAT: -23.08929
 CYCLE:   223 TIME:   0.016 TIME LEFT:  2.00D  GRAD.:     0.778 HEAT: -23.08943
 CYCLE:   224 TIME:   0.016 TIME LEFT:  2.00D  GRAD.:     0.925 HEAT: -23.09032
 CYCLE:   225 TIME:   0.016 TIME LEFT:  2.00D  GRAD.:     1.609 HEAT: -23.09196
 CYCLE:   226 TIME:   0.016 TIME LEFT:  2.00D  GRAD.:     1.239 HEAT: -23.09475
 CYCLE:   227 TIME:   0.020 TIME LEFT:  2.00D  GRAD.:     1.357 HEAT: -23.09792
 CYCLE:   228 TIME:   0.016 TIME LEFT:  2.00D  GRAD.:     3.672 HEAT: -23.10230
 CYCLE:   229 TIME:   0.012 TIME LEFT:  2.00D  GRAD.:     2.434 HEAT: -23.10734
 CYCLE:   230 TIME:   0.008 TIME LEFT:  2.00D  GRAD.:     1.451 HEAT: -23.11314
 CYCLE:   231 TIME:   0.012 TIME LEFT:  2.00D  GRAD.:     1.723 HEAT: -23.11613
 CYCLE:   232 TIME:   0.012 TIME LEFT:  2.00D  GRAD.:     1.320 HEAT: -23.11894
 CYCLE:   233 TIME:   0.012 TIME LEFT:  2.00D  GRAD.:     1.340 HEAT: -23.12026
 CYCLE:   234 TIME:   0.008 TIME LEFT:  2.00D  GRAD.:     0.938 HEAT: -23.12101
 CYCLE:   235 TIME:   0.020 TIME LEFT:  2.00D  GRAD.:     1.467 HEAT: -23.12210
 CYCLE:   236 TIME:   0.016 TIME LEFT:  2.00D  GRAD.:     1.450 HEAT: -23.12376
 CYCLE:   237 TIME:   0.016 TIME LEFT:  2.00D  GRAD.:     2.140 HEAT: -23.12814
 CYCLE:   238 TIME:   0.020 TIME LEFT:  2.00D  GRAD.:     2.722 HEAT: -23.13730
 CYCLE:   239 TIME:   0.016 TIME LEFT:  2.00D  GRAD.:     2.697 HEAT: -23.15358
 CYCLE:   240 TIME:   0.016 TIME LEFT:  2.00D  GRAD.:     2.750 HEAT: -23.16410
 CYCLE:   241 TIME:   0.008 TIME LEFT:  2.00D  GRAD.:     2.207 HEAT: -23.16740
 CYCLE:   242 TIME:   0.012 TIME LEFT:  2.00D  GRAD.:     2.332 HEAT: -23.17302
 CYCLE:   243 TIME:   0.012 TIME LEFT:  2.00D  GRAD.:     2.119 HEAT: -23.18151
 CYCLE:   244 TIME:   0.016 TIME LEFT:  2.00D  GRAD.:     2.354 HEAT: -23.18891
 CYCLE:   245 TIME:   0.012 TIME LEFT:  2.00D  GRAD.:     1.853 HEAT: -23.19335
 CYCLE:   246 TIME:   0.008 TIME LEFT:  2.00D  GRAD.:     1.722 HEAT: -23.19632
 CYCLE:   247 TIME:   0.012 TIME LEFT:  2.00D  GRAD.:     1.646 HEAT: -23.19869
 CYCLE:   248 TIME:   0.012 TIME LEFT:  2.00D  GRAD.:     1.741 HEAT: -23.20082
 CYCLE:   249 TIME:   0.012 TIME LEFT:  2.00D  GRAD.:     1.586 HEAT: -23.20382
 CYCLE:   250 TIME:   0.012 TIME LEFT:  2.00D  GRAD.:     2.302 HEAT: -23.20703
 CYCLE:   251 TIME:   0.012 TIME LEFT:  2.00D  GRAD.:     2.557 HEAT: -23.21425
 CYCLE:   252 TIME:   0.012 TIME LEFT:  2.00D  GRAD.:     2.566 HEAT: -23.22149
 CYCLE:   253 TIME:   0.008 TIME LEFT:  2.00D  GRAD.:     2.077 HEAT: -23.23220
 CYCLE:   254 TIME:   0.012 TIME LEFT:  2.00D  GRAD.:     2.191 HEAT: -23.23827
 CYCLE:   255 TIME:   0.012 TIME LEFT:  2.00D  GRAD.:     1.066 HEAT: -23.24190
 CYCLE:   256 TIME:   0.012 TIME LEFT:  2.00D  GRAD.:     1.326 HEAT: -23.24367
 CYCLE:   257 TIME:   0.012 TIME LEFT:  2.00D  GRAD.:     0.578 HEAT: -23.24469
 CYCLE:   258 TIME:   0.012 TIME LEFT:  2.00D  GRAD.:     0.364 HEAT: -23.24548
 CYCLE:   259 TIME:   0.012 TIME LEFT:  2.00D  GRAD.:     0.420 HEAT: -23.24574
 CYCLE:   260 TIME:   0.012 TIME LEFT:  2.00D  GRAD.:     0.363 HEAT: -23.24610
 CYCLE:   261 TIME:   0.008 TIME LEFT:  2.00D  GRAD.:     0.304 HEAT: -23.24625
 CYCLE:   262 TIME:   0.012 TIME LEFT:  2.00D  GRAD.:     0.333 HEAT: -23.24637
 CYCLE:   263 TIME:   0.008 TIME LEFT:  2.00D  GRAD.:     0.304 HEAT: -23.24649
 CYCLE:   264 TIME:   0.012 TIME LEFT:  2.00D  GRAD.:     0.463 HEAT: -23.24660
 CYCLE:   265 TIME:   0.008 TIME LEFT:  2.00D  GRAD.:     0.453 HEAT: -23.24663
 CYCLE:   266 TIME:   0.012 TIME LEFT:  2.00D  GRAD.:     0.396 HEAT: -23.24669
 CYCLE:   267 TIME:   0.012 TIME LEFT:  2.00D  GRAD.:     0.308 HEAT: -23.24682
 CYCLE:   268 TIME:   0.016 TIME LEFT:  2.00D  GRAD.:     0.431 HEAT: -23.24718
 CYCLE:   269 TIME:   0.016 TIME LEFT:  2.00D  GRAD.:     1.034 HEAT: -23.24976
 CYCLE:   270 TIME:   0.020 TIME LEFT:  2.00D  GRAD.:     1.475 HEAT: -23.25373
 CYCLE:   271 TIME:   0.016 TIME LEFT:  2.00D  GRAD.:     0.660 HEAT: -23.25600
 CYCLE:   272 TIME:   0.012 TIME LEFT:  2.00D  GRAD.:     0.652 HEAT: -23.25607
 CYCLE:   273 TIME:   0.008 TIME LEFT:  2.00D  GRAD.:     0.327 HEAT: -23.25627
 CYCLE:   274 TIME:   0.012 TIME LEFT:  2.00D  GRAD.:     0.116 HEAT: -23.25637
 CYCLE:   275 TIME:   0.008 TIME LEFT:  2.00D  GRAD.:     0.118 HEAT: -23.25637
 CYCLE:   276 TIME:   0.020 TIME LEFT:  2.00D  GRAD.:     0.117 HEAT: -23.25637
 CYCLE:   277 TIME:   0.020 TIME LEFT:  2.00D  GRAD.:     0.118 HEAT: -23.25637
 CYCLE:   278 TIME:   0.008 TIME LEFT:  2.00D  GRAD.:     0.066 HEAT: -23.25638
 CYCLE:   279 TIME:   0.012 TIME LEFT:  2.00D  GRAD.:     0.045 HEAT: -23.25638
 CYCLE:   280 TIME:   0.016 TIME LEFT:  2.00D  GRAD.:     0.045 HEAT: -23.25638
 CYCLE:   281 TIME:   0.016 TIME LEFT:  2.00D  GRAD.:     0.043 HEAT: -23.25638
 CYCLE:   282 TIME:   0.012 TIME LEFT:  2.00D  GRAD.:     0.043 HEAT: -23.25638
 CYCLE:   283 TIME:   0.012 TIME LEFT:  2.00D  GRAD.:     0.114 HEAT: -23.25639
 CYCLE:   284 TIME:   0.016 TIME LEFT:  2.00D  GRAD.:     0.195 HEAT: -23.25643
 CYCLE:   285 TIME:   0.016 TIME LEFT:  2.00D  GRAD.:     0.187 HEAT: -23.25647
 CYCLE:   286 TIME:   0.016 TIME LEFT:  2.00D  GRAD.:     0.148 HEAT: -23.25655
 CYCLE:   287 TIME:   0.012 TIME LEFT:  2.00D  GRAD.:     0.133 HEAT: -23.25662
 CYCLE:   288 TIME:   0.012 TIME LEFT:  2.00D  GRAD.:     0.078 HEAT: -23.25663
 CYCLE:   289 TIME:   0.008 TIME LEFT:  2.00D  GRAD.:     0.107 HEAT: -23.25664
 CYCLE:   290 TIME:   0.008 TIME LEFT:  2.00D  GRAD.:     0.046 HEAT: -23.25664
 CYCLE:   291 TIME:   0.012 TIME LEFT:  2.00D  GRAD.:     0.032 HEAT: -23.25664
 CYCLE:   292 TIME:   0.012 TIME LEFT:  2.00D  GRAD.:     0.039 HEAT: -23.25664
 CYCLE:   293 TIME:   0.012 TIME LEFT:  2.00D  GRAD.:     0.030 HEAT: -23.25665
 CYCLE:   294 TIME:   0.008 TIME LEFT:  2.00D  GRAD.:     0.033 HEAT: -23.25665
 CYCLE:   295 TIME:   0.008 TIME LEFT:  2.00D  GRAD.:     0.029 HEAT: -23.25666
 CYCLE:   296 TIME:   0.012 TIME LEFT:  2.00D  GRAD.:     0.024 HEAT: -23.25667
 CYCLE:   297 TIME:   0.008 TIME LEFT:  2.00D  GRAD.:     0.028 HEAT: -23.25667
 CYCLE:   298 TIME:   0.012 TIME LEFT:  2.00D  GRAD.:     0.030 HEAT: -23.25667
 CYCLE:   299 TIME:   0.012 TIME LEFT:  2.00D  GRAD.:     0.034 HEAT: -23.25667
 CYCLE:   300 TIME:   0.008 TIME LEFT:  2.00D  GRAD.:     0.034 HEAT: -23.25667
 CYCLE:   301 TIME:   0.008 TIME LEFT:  2.00D  GRAD.:     0.034 HEAT: -23.25667
 CYCLE:   302 TIME:   0.012 TIME LEFT:  2.00D  GRAD.:     0.032 HEAT: -23.25667
 CYCLE:   303 TIME:   0.008 TIME LEFT:  2.00D  GRAD.:     0.031 HEAT: -23.25667
 CYCLE:   304 TIME:   0.008 TIME LEFT:  2.00D  GRAD.:     0.029 HEAT: -23.25667
 CYCLE:   305 TIME:   0.008 TIME LEFT:  2.00D  GRAD.:     0.028 HEAT: -23.25667
 CYCLE:   306 TIME:   0.008 TIME LEFT:  2.00D  GRAD.:     0.027 HEAT: -23.25667
 CYCLE:   307 TIME:   0.012 TIME LEFT:  2.00D  GRAD.:     0.025 HEAT: -23.25668
 CYCLE:   308 TIME:   0.008 TIME LEFT:  2.00D  GRAD.:     0.024 HEAT: -23.25668
 CYCLE:   309 TIME:   0.008 TIME LEFT:  2.00D  GRAD.:     0.024 HEAT: -23.25669
 CYCLE:   310 TIME:   0.012 TIME LEFT:  2.00D  GRAD.:     0.026 HEAT: -23.25670
 CYCLE:   311 TIME:   0.008 TIME LEFT:  2.00D  GRAD.:     0.025 HEAT: -23.25671
 CYCLE:   312 TIME:   0.008 TIME LEFT:  2.00D  GRAD.:     0.025 HEAT: -23.25671
 CYCLE:   313 TIME:   0.008 TIME LEFT:  2.00D  GRAD.:     0.019 HEAT: -23.25673
 CYCLE:   314 TIME:   0.008 TIME LEFT:  2.00D  GRAD.:     0.020 HEAT: -23.25674
 CYCLE:   315 TIME:   0.008 TIME LEFT:  2.00D  GRAD.:     0.020 HEAT: -23.25675
 CYCLE:   316 TIME:   0.016 TIME LEFT:  2.00D  GRAD.:     0.054 HEAT: -23.25677
 CYCLE:   317 TIME:   0.008 TIME LEFT:  2.00D  GRAD.:     0.042 HEAT: -23.25678
 CYCLE:   318 TIME:   0.012 TIME LEFT:  2.00D  GRAD.:     0.033 HEAT: -23.25678
 CYCLE:   319 TIME:   0.008 TIME LEFT:  2.00D  GRAD.:     0.048 HEAT: -23.25679
 CYCLE:   320 TIME:   0.012 TIME LEFT:  2.00D  GRAD.:     0.028 HEAT: -23.25679
 CYCLE:   321 TIME:   0.008 TIME LEFT:  2.00D  GRAD.:     0.027 HEAT: -23.25679
 CYCLE:   322 TIME:   0.008 TIME LEFT:  2.00D  GRAD.:     0.017 HEAT: -23.25679
 CYCLE:   323 TIME:   0.012 TIME LEFT:  2.00D  GRAD.:     0.017 HEAT: -23.25679
 CYCLE:   324 TIME:   0.016 TIME LEFT:  2.00D  GRAD.:     0.017 HEAT: -23.25679
 CYCLE:   325 TIME:   0.012 TIME LEFT:  2.00D  GRAD.:     0.018 HEAT: -23.25679
 CYCLE:   326 TIME:   0.016 TIME LEFT:  2.00D  GRAD.:     0.018 HEAT: -23.25679
 CYCLE:   327 TIME:   0.012 TIME LEFT:  2.00D  GRAD.:     0.019 HEAT: -23.25679
 CYCLE:   328 TIME:   0.016 TIME LEFT:  2.00D  GRAD.:     0.019 HEAT: -23.25679
 CYCLE:   329 TIME:   0.012 TIME LEFT:  2.00D  GRAD.:     0.019 HEAT: -23.25679
 CYCLE:   330 TIME:   0.016 TIME LEFT:  2.00D  GRAD.:     0.019 HEAT: -23.25679
 CYCLE:   331 TIME:   0.008 TIME LEFT:  2.00D  GRAD.:     0.019 HEAT: -23.25679
 CYCLE:   332 TIME:   0.012 TIME LEFT:  2.00D  GRAD.:     0.018 HEAT: -23.25679
 CYCLE:   333 TIME:   0.012 TIME LEFT:  2.00D  GRAD.:     0.017 HEAT: -23.25679
 CYCLE:   334 TIME:   0.008 TIME LEFT:  2.00D  GRAD.:     0.016 HEAT: -23.25679
 CYCLE:   335 TIME:   0.012 TIME LEFT:  2.00D  GRAD.:     0.016 HEAT: -23.25679
 CYCLE:   336 TIME:   0.008 TIME LEFT:  2.00D  GRAD.:     0.016 HEAT: -23.25679
 CYCLE:   337 TIME:   0.016 TIME LEFT:  2.00D  GRAD.:     0.022 HEAT: -23.25679
 CYCLE:   338 TIME:   0.012 TIME LEFT:  2.00D  GRAD.:     0.020 HEAT: -23.25679
 CYCLE:   339 TIME:   0.008 TIME LEFT:  2.00D  GRAD.:     0.016 HEAT: -23.25679
 CYCLE:   340 TIME:   0.016 TIME LEFT:  2.00D  GRAD.:     0.030 HEAT: -23.25679
 CYCLE:   341 TIME:   0.012 TIME LEFT:  2.00D  GRAD.:     0.029 HEAT: -23.25679
 CYCLE:   342 TIME:   0.008 TIME LEFT:  2.00D  GRAD.:     0.026 HEAT: -23.25679
 CYCLE:   343 TIME:   0.008 TIME LEFT:  2.00D  GRAD.:     0.021 HEAT: -23.25679
 CYCLE:   344 TIME:   0.012 TIME LEFT:  2.00D  GRAD.:     0.018 HEAT: -23.25679
 CYCLE:   345 TIME:   0.008 TIME LEFT:  2.00D  GRAD.:     0.023 HEAT: -23.25680
 CYCLE:   346 TIME:   0.008 TIME LEFT:  2.00D  GRAD.:     0.030 HEAT: -23.25680
 CYCLE:   347 TIME:   0.016 TIME LEFT:  2.00D  GRAD.:     0.030 HEAT: -23.25680
 CYCLE:   348 TIME:   0.008 TIME LEFT:  2.00D  GRAD.:     0.030 HEAT: -23.25680
 CYCLE:   349 TIME:   0.008 TIME LEFT:  2.00D  GRAD.:     0.032 HEAT: -23.25680
 CYCLE:   350 TIME:   0.012 TIME LEFT:  2.00D  GRAD.:     0.031 HEAT: -23.25680
 CYCLE:   351 TIME:   0.012 TIME LEFT:  2.00D  GRAD.:     0.029 HEAT: -23.25680
 CYCLE:   352 TIME:   0.012 TIME LEFT:  2.00D  GRAD.:     0.027 HEAT: -23.25680
 CYCLE:   353 TIME:   0.008 TIME LEFT:  2.00D  GRAD.:     0.023 HEAT: -23.25680
 CYCLE:   354 TIME:   0.012 TIME LEFT:  2.00D  GRAD.:     0.026 HEAT: -23.25680
 CYCLE:   355 TIME:   0.012 TIME LEFT:  2.00D  GRAD.:     0.025 HEAT: -23.25680
 CYCLE:   356 TIME:   0.012 TIME LEFT:  2.00D  GRAD.:     0.024 HEAT: -23.25680
 CYCLE:   357 TIME:   0.012 TIME LEFT:  2.00D  GRAD.:     0.025 HEAT: -23.25680
 CYCLE:   358 TIME:   0.012 TIME LEFT:  2.00D  GRAD.:     0.022 HEAT: -23.25680
 CYCLE:   359 TIME:   0.012 TIME LEFT:  2.00D  GRAD.:     0.021 HEAT: -23.25680
 CYCLE:   360 TIME:   0.012 TIME LEFT:  2.00D  GRAD.:     0.036 HEAT: -23.25680
 CYCLE:   361 TIME:   0.008 TIME LEFT:  2.00D  GRAD.:     0.025 HEAT: -23.25680
 CYCLE:   362 TIME:   0.008 TIME LEFT:  2.00D  GRAD.:     0.028 HEAT: -23.25680
 CYCLE:   363 TIME:   0.012 TIME LEFT:  2.00D  GRAD.:     0.021 HEAT: -23.25680
 CYCLE:   364 TIME:   0.012 TIME LEFT:  2.00D  GRAD.:     0.024 HEAT: -23.25680
 CYCLE:   365 TIME:   0.008 TIME LEFT:  2.00D  GRAD.:     0.024 HEAT: -23.25680
 CYCLE:   366 TIME:   0.008 TIME LEFT:  2.00D  GRAD.:     0.023 HEAT: -23.25680
 CYCLE:   367 TIME:   0.008 TIME LEFT:  2.00D  GRAD.:     0.023 HEAT: -23.25680
 CYCLE:   368 TIME:   0.012 TIME LEFT:  2.00D  GRAD.:     0.024 HEAT: -23.25680
 CYCLE:   369 TIME:   0.008 TIME LEFT:  2.00D  GRAD.:     0.022 HEAT: -23.25680
 CYCLE:   370 TIME:   0.008 TIME LEFT:  2.00D  GRAD.:     0.021 HEAT: -23.25680
 CYCLE:   371 TIME:   0.008 TIME LEFT:  2.00D  GRAD.:     0.022 HEAT: -23.25680
 CYCLE:   372 TIME:   0.008 TIME LEFT:  2.00D  GRAD.:     0.022 HEAT: -23.25680
 CYCLE:   373 TIME:   0.016 TIME LEFT:  2.00D  GRAD.:     0.054 HEAT: -23.25680
 CYCLE:   374 TIME:   0.008 TIME LEFT:  2.00D  GRAD.:     0.021 HEAT: -23.25680
 CYCLE:   375 TIME:   0.012 TIME LEFT:  2.00D  GRAD.:     0.020 HEAT: -23.25680
 CYCLE:   376 TIME:   0.008 TIME LEFT:  2.00D  GRAD.:     0.019 HEAT: -23.25680
 CYCLE:   377 TIME:   0.008 TIME LEFT:  2.00D  GRAD.:     0.018 HEAT: -23.25680
 CYCLE:   378 TIME:   0.012 TIME LEFT:  2.00D  GRAD.:     0.017 HEAT: -23.25680
 CYCLE:   379 TIME:   0.008 TIME LEFT:  2.00D  GRAD.:     0.016 HEAT: -23.25681
 CYCLE:   380 TIME:   0.008 TIME LEFT:  2.00D  GRAD.:     0.015 HEAT: -23.25681
 CYCLE:   381 TIME:   0.008 TIME LEFT:  2.00D  GRAD.:     0.014 HEAT: -23.25681
 CYCLE:   382 TIME:   0.008 TIME LEFT:  2.00D  GRAD.:     0.015 HEAT: -23.25681
 CYCLE:   383 TIME:   0.016 TIME LEFT:  2.00D  GRAD.:     0.017 HEAT: -23.25681
 CYCLE:   384 TIME:   0.008 TIME LEFT:  2.00D  GRAD.:     0.015 HEAT: -23.25681
 CYCLE:   385 TIME:   0.008 TIME LEFT:  2.00D  GRAD.:     0.015 HEAT: -23.25681
 CYCLE:   386 TIME:   0.008 TIME LEFT:  2.00D  GRAD.:     0.015 HEAT: -23.25681
 CYCLE:   387 TIME:   0.012 TIME LEFT:  2.00D  GRAD.:     0.015 HEAT: -23.25681
 CYCLE:   388 TIME:   0.012 TIME LEFT:  2.00D  GRAD.:     0.015 HEAT: -23.25681
 CYCLE:   389 TIME:   0.008 TIME LEFT:  2.00D  GRAD.:     0.014 HEAT: -23.25681

                    NO POINT LOWER IN ENERGY THAN THE STARTING POINT 
                    COULD BE FOUND IN THE LINE MINIMIZATION
 CYCLE:   390 TIME:   0.020 TIME LEFT:  2.00D  GRAD.:     0.014 HEAT: -23.25681
 CYCLE:   391 TIME:   0.020 TIME LEFT:  2.00D  GRAD.:     0.027 HEAT: -23.25681
 CYCLE:   392 TIME:   0.012 TIME LEFT:  2.00D  GRAD.:     0.027 HEAT: -23.25681
 CYCLE:   393 TIME:   0.012 TIME LEFT:  2.00D  GRAD.:     0.040 HEAT: -23.25681
 CYCLE:   394 TIME:   0.008 TIME LEFT:  2.00D  GRAD.:     0.053 HEAT: -23.25681
 CYCLE:   395 TIME:   0.012 TIME LEFT:  2.00D  GRAD.:     0.058 HEAT: -23.25681
 CYCLE:   396 TIME:   0.008 TIME LEFT:  2.00D  GRAD.:     0.062 HEAT: -23.25681
 CYCLE:   397 TIME:   0.016 TIME LEFT:  2.00D  GRAD.:     0.061 HEAT: -23.25681
 CYCLE:   398 TIME:   0.012 TIME LEFT:  2.00D  GRAD.:     0.063 HEAT: -23.25682
 CYCLE:   399 TIME:   0.008 TIME LEFT:  2.00D  GRAD.:     0.080 HEAT: -23.25682
 CYCLE:   400 TIME:   0.012 TIME LEFT:  2.00D  GRAD.:     0.063 HEAT: -23.25682
 CYCLE:   401 TIME:   0.012 TIME LEFT:  2.00D  GRAD.:     0.074 HEAT: -23.25682
 CYCLE:   402 TIME:   0.012 TIME LEFT:  2.00D  GRAD.:     0.088 HEAT: -23.25682
 CYCLE:   403 TIME:   0.012 TIME LEFT:  2.00D  GRAD.:     0.089 HEAT: -23.25682
 CYCLE:   404 TIME:   0.012 TIME LEFT:  2.00D  GRAD.:     0.098 HEAT: -23.25682
 CYCLE:   405 TIME:   0.008 TIME LEFT:  2.00D  GRAD.:     0.100 HEAT: -23.25683
 CYCLE:   406 TIME:   0.012 TIME LEFT:  2.00D  GRAD.:     0.066 HEAT: -23.25683
 CYCLE:   407 TIME:   0.008 TIME LEFT:  2.00D  GRAD.:     0.048 HEAT: -23.25683
 CYCLE:   408 TIME:   0.016 TIME LEFT:  2.00D  GRAD.:     0.042 HEAT: -23.25683
 CYCLE:   409 TIME:   0.008 TIME LEFT:  2.00D  GRAD.:     0.034 HEAT: -23.25683
 CYCLE:   410 TIME:   0.012 TIME LEFT:  2.00D  GRAD.:     0.065 HEAT: -23.25683
 CYCLE:   411 TIME:   0.008 TIME LEFT:  2.00D  GRAD.:     0.052 HEAT: -23.25683
 CYCLE:   412 TIME:   0.012 TIME LEFT:  2.00D  GRAD.:     0.035 HEAT: -23.25683
 CYCLE:   413 TIME:   0.012 TIME LEFT:  2.00D  GRAD.:     0.026 HEAT: -23.25683
 CYCLE:   414 TIME:   0.008 TIME LEFT:  2.00D  GRAD.:     0.025 HEAT: -23.25683
 CYCLE:   415 TIME:   0.008 TIME LEFT:  2.00D  GRAD.:     0.027 HEAT: -23.25683
 CYCLE:   416 TIME:   0.012 TIME LEFT:  2.00D  GRAD.:     0.021 HEAT: -23.25683
 CYCLE:   417 TIME:   0.012 TIME LEFT:  2.00D  GRAD.:     0.030 HEAT: -23.25683
 CYCLE:   418 TIME:   0.012 TIME LEFT:  2.00D  GRAD.:     0.035 HEAT: -23.25683
 CYCLE:   419 TIME:   0.012 TIME LEFT:  2.00D  GRAD.:     0.036 HEAT: -23.25684
 CYCLE:   420 TIME:   0.012 TIME LEFT:  2.00D  GRAD.:     0.039 HEAT: -23.25684
 CYCLE:   421 TIME:   0.012 TIME LEFT:  2.00D  GRAD.:     0.039 HEAT: -23.25684
 CYCLE:   422 TIME:   0.008 TIME LEFT:  2.00D  GRAD.:     0.023 HEAT: -23.25684
 CYCLE:   423 TIME:   0.012 TIME LEFT:  2.00D  GRAD.:     0.018 HEAT: -23.25684
 CYCLE:   424 TIME:   0.012 TIME LEFT:  2.00D  GRAD.:     0.028 HEAT: -23.25684
 CYCLE:   425 TIME:   0.008 TIME LEFT:  2.00D  GRAD.:     0.034 HEAT: -23.25684
 CYCLE:   426 TIME:   0.008 TIME LEFT:  2.00D  GRAD.:     0.039 HEAT: -23.25684
 CYCLE:   427 TIME:   0.008 TIME LEFT:  2.00D  GRAD.:     0.029 HEAT: -23.25684
 CYCLE:   428 TIME:   0.016 TIME LEFT:  2.00D  GRAD.:     0.018 HEAT: -23.25684
 CYCLE:   429 TIME:   0.008 TIME LEFT:  2.00D  GRAD.:     0.013 HEAT: -23.25684
 CYCLE:   430 TIME:   0.012 TIME LEFT:  2.00D  GRAD.:     0.014 HEAT: -23.25684
 CYCLE:   431 TIME:   0.012 TIME LEFT:  2.00D  GRAD.:     0.015 HEAT: -23.25684
 CYCLE:   432 TIME:   0.012 TIME LEFT:  2.00D  GRAD.:     0.015 HEAT: -23.25684
 CYCLE:   433 TIME:   0.008 TIME LEFT:  2.00D  GRAD.:     0.013 HEAT: -23.25684
 TEST ON GRADIENT SATISFIED
PETERS TEST SATISFIED

 -------------------------------------------------------------------------------
 pm3  precise nosym gnorm=0.0 bfgs THREADS=1
 InChI=1S/C12H22/c1-4-6-7-10(3)12-8-11(5-2)9-12/h4,6,10-12H,5,7-9H2,1-3H3



     PETERS TEST WAS SATISFIED IN BFGS OPTIMIZATION           
     SCF FIELD WAS ACHIEVED                                   


                              PM3 CALCULATION
                                                       MOPAC v23.1.2 MacOS
                                                       Tue Jun  3 16:41:36 2025




          FINAL HEAT OF FORMATION =        -23.25684 KCAL/MOL =     -97.30661 KJ/MOL


          COSMO AREA              =        243.85 SQUARE ANGSTROMS
          COSMO VOLUME            =        255.97 CUBIC ANGSTROMS

          GRADIENT NORM           =          0.00833          =       0.00143 PER ATOM
          IONIZATION POTENTIAL    =          9.659964 EV
          HOMO LUMO ENERGIES (EV) =         -9.660  1.132
          NO. OF FILLED LEVELS    =         35
          MOLECULAR WEIGHT        =        166.3058         POINT GROUP:  C1  

          MOLECULAR DIMENSIONS (Angstroms)

            Atom       Atom       Distance
            H    30    H    24    10.35359
            H    28    H    25     5.66825
            H    27    H    20     4.17513


          SCF CALCULATIONS        =        693

          WALL-CLOCK TIME         =      4.969 SECONDS
          COMPUTATION TIME        =      3.937 SECONDS




   ATOM   CHEMICAL          X               Y               Z
  NUMBER   SYMBOL      (ANGSTROMS)     (ANGSTROMS)     (ANGSTROMS)

     1       C         -0.90647931  *  -0.80093463  *  -1.00542601  *
     2       C         -2.75503554  *   0.23851444  *  -0.43034004  *
     3       C          0.35811435  *  -0.98642945  *  -0.17658537  *
     4       C         -2.22462498  *  -1.20878495  *  -0.30142318  *
     5       C         -1.42705266  *   0.65460853  *  -1.10664765  *
     6       C         -3.05100543  *   0.91558345  *   0.89176551  *
     7       C          1.55634513  *  -0.34978698  *  -0.88996356  *
     8       C          0.62078878  *  -2.46297686  *   0.07887224  *
     9       C         -3.51299183  *   2.34295307  *   0.70315436  *
    10       C          4.88195867  *   0.54773773  *   0.85244510  *
    11       C          2.77859914  *  -0.39566011  *  -0.04307646  *
    12       C          3.65650918  *   0.60540762  *   0.02565546  *
    13       H         -3.63297330  *   0.32557501  *  -1.10463951  *
    14       H         -0.77642134  *  -1.28543217  *  -1.99675933  *
    15       H          0.21829704  *  -0.47177740  *   0.80678781  *
    16       H         -3.82433286  *   0.33283712  *   1.43034967  *
    17       H         -2.15151307  *   0.88947756  *   1.54029535  *
    18       H         -2.81535598  *  -1.96553507  *  -0.83779564  *
    19       H         -2.10557405  *  -1.56218173  *   0.73583573  *
    20       H         -1.53191060  *   1.03278135  *  -2.13398659  *
    21       H         -0.84109061  *   1.39948201  *  -0.54313727  *
    22       H          1.76293735  *  -0.88767608  *  -1.83813736  *
    23       H          1.30956204  *   0.69180975  *  -1.18043632  *
    24       H         -4.43096050  *   2.39715829  *   0.10292222  *
    25       H         -3.72139468  *   2.82471127  *   1.66682429  *
    26       H         -2.75180370  *   2.94666317  *   0.19053504  *
    27       H         -0.15976733  *  -2.91155386  *   0.70620902  *
    28       H          0.66550991  *  -3.03694389  *  -0.85617203  *
    29       H          1.58747012  *  -2.59373805  *   0.59372937  *
    30       H          5.77575504  *   0.66369819  *   0.22466006  *
    31       H          4.88807060  *   1.36219533  *   1.58931592  *
    32       H          4.98355660  *  -0.39742650  *   1.40230439  *
    33       H          3.50209335  *   1.53133405  *  -0.54241627  *
    34       H          2.91337945  *  -1.33085219  *   0.52656495  *

                             CARTESIAN COORDINATES

   1    C       -0.906479309    -0.800934634    -1.005426010
   2    C       -2.755035539     0.238514439    -0.430340041
   3    C        0.358114353    -0.986429454    -0.176585371
   4    C       -2.224624976    -1.208784948    -0.301423184
   5    C       -1.427052660     0.654608535    -1.106647651
   6    C       -3.051005430     0.915583454     0.891765509
   7    C        1.556345126    -0.349786979    -0.889963559
   8    C        0.620788776    -2.462976864     0.078872239
   9    C       -3.512991831     2.342953066     0.703154360
  10    C        4.881958672     0.547737734     0.852445097
  11    C        2.778599143    -0.395660105    -0.043076457
  12    C        3.656509180     0.605407615     0.025655456
  13    H       -3.632973298     0.325575005    -1.104639508
  14    H       -0.776421345    -1.285432174    -1.996759328
  15    H        0.218297044    -0.471777405     0.806787805
  16    H       -3.824332864     0.332837123     1.430349670
  17    H       -2.151513075     0.889477556     1.540295345
  18    H       -2.815355977    -1.965535074    -0.837795638
  19    H       -2.105574054    -1.562181734     0.735835730
  20    H       -1.531910598     1.032781346    -2.133986585
  21    H       -0.841090609     1.399482014    -0.543137274
  22    H        1.762937349    -0.887676085    -1.838137359
  23    H        1.309562037     0.691809746    -1.180436320
  24    H       -4.430960498     2.397158288     0.102922217
  25    H       -3.721394683     2.824711268     1.666824292
  26    H       -2.751803697     2.946663166     0.190535037
  27    H       -0.159767334    -2.911553856     0.706209019
  28    H        0.665509913    -3.036943892    -0.856172026
  29    H        1.587470118    -2.593738046     0.593729374
  30    H        5.775755043     0.663698194     0.224660059
  31    H        4.888070604     1.362195330     1.589315923
  32    H        4.983556605    -0.397426495     1.402304385
  33    H        3.502093350     1.531334046    -0.542416271
  34    H        2.913379450    -1.330852191     0.526564952


           Empirical Formula: C12 H22  =    34 atoms



      MOLECULAR POINT GROUP   :   C1  


                  EIGENVALUES  
 -42.26344 -37.74443 -34.46381 -31.85398 -28.51136 -26.15950 -24.57307 -23.62822
 -21.60895 -19.63341 -19.41386 -18.83214 -17.06858 -16.37301 -15.91864 -15.61836
 -15.08452 -14.81503 -14.49270 -14.16146 -13.97858 -13.79981 -13.21612 -13.07996
 -12.86802 -12.71871 -12.58926 -12.38597 -12.09655 -11.87116 -11.72982 -11.34561
 -11.19979 -11.11818  -9.65996   1.13212   3.18420   3.29563   3.42186   3.51477
   3.66693   3.73810   3.80658   3.87841   3.91686   3.96204   3.99908   4.03032
   4.06397   4.13080   4.26219   4.33511   4.38836   4.43408   4.44615   4.51709
   4.53846   4.54925   4.57563   4.64702   4.71278   4.83829   4.98242   5.04909
   5.06515   5.13853   5.52517   5.65475   5.75213   6.01537


              NET ATOMIC CHARGES AND DIPOLE CONTRIBUTIONS

  ATOM NO.   TYPE          CHARGE      No. of ELECS.   s-Pop       p-Pop       
    1          C          -0.091702        4.0917     1.19298     2.89873
    2          C          -0.093306        4.0933     1.19011     2.90320
    3          C          -0.067335        4.0673     1.17596     2.89138
    4          C          -0.111347        4.1113     1.17796     2.93338
    5          C          -0.112786        4.1128     1.17810     2.93469
    6          C          -0.089731        4.0897     1.15747     2.93226
    7          C          -0.068339        4.0683     1.15249     2.91585
    8          C          -0.120467        4.1205     1.14405     2.97642
    9          C          -0.109491        4.1095     1.13797     2.97152
   10          C          -0.072537        4.0725     1.12490     2.94764
   11          C          -0.161148        4.1611     1.19946     2.96169
   12          C          -0.149418        4.1494     1.19249     2.95693
   13          H           0.071516        0.9285     0.92848
   14          H           0.072044        0.9280     0.92796
   15          H           0.069150        0.9308     0.93085
   16          H           0.049248        0.9508     0.95075
   17          H           0.052274        0.9477     0.94773
   18          H           0.055349        0.9447     0.94465
   19          H           0.063952        0.9360     0.93605
   20          H           0.055076        0.9449     0.94492
   21          H           0.066203        0.9338     0.93380
   22          H           0.057887        0.9421     0.94211
   23          H           0.057691        0.9423     0.94231
   24          H           0.037693        0.9623     0.96231
   25          H           0.036975        0.9630     0.96302
   26          H           0.039129        0.9609     0.96087
   27          H           0.042374        0.9576     0.95763
   28          H           0.041379        0.9586     0.95862
   29          H           0.045423        0.9546     0.95458
   30          H           0.043069        0.9569     0.95693
   31          H           0.043199        0.9568     0.95680
   32          H           0.040110        0.9599     0.95989
   33          H           0.098160        0.9018     0.90184
   34          H           0.109705        0.8903     0.89030
 DIPOLE           X         Y         Z       TOTAL
 POINT-CHG.     0.015     0.015     0.136     0.138
 HYBRID         0.026    -0.007    -0.044     0.052
 SUM            0.041     0.008     0.092     0.101


          ATOMIC ORBITAL ELECTRON POPULATIONS

     Atom    s        px        py        pz   
    1  C   1.19298   0.93983   0.96781   0.99109
    2  C   1.19011   0.97232   0.95850   0.97237
    3  C   1.17596   0.93979   0.96204   0.98955
    4  C   1.17796   0.96566   0.95811   1.00961
    5  C   1.17810   0.96876   0.96002   1.00592
    6  C   1.15747   1.01058   0.95960   0.96208
    7  C   1.15249   0.93268   1.00945   0.97372
    8  C   1.14405   1.01010   0.95499   1.01134
    9  C   1.13797   1.00397   0.96019   1.00736
   10  C   1.12490   0.95748   1.00822   0.98195
   11  C   1.19946   0.96797   0.98947   1.00425
   12  C   1.19249   0.97055   0.98494   1.00144
   13  H   0.92848
   14  H   0.92796
   15  H   0.93085
   16  H   0.95075
   17  H   0.94773
   18  H   0.94465
   19  H   0.93605
   20  H   0.94492
   21  H   0.93380
   22  H   0.94211
   23  H   0.94231
   24  H   0.96231
   25  H   0.96302
   26  H   0.96087
   27  H   0.95763
   28  H   0.95862
   29  H   0.95458
   30  H   0.95693
   31  H   0.95680
   32  H   0.95989
   33  H   0.90184
   34  H   0.89030
 *******************************************************************************
 **                                                                           **
 **                              MOPAC v23.1.2                                **
 **                                                                           **
 *******************************************************************************
 **          Digital Object Identifier (DOI): 10.5281/zenodo.6511958          **
 **    Visit the DOI location for information on how to cite this program.    **
 *******************************************************************************

                              PM3 CALCULATION RESULTS

 *******************************************************************************
 *  CALCULATION DONE: (MAX THREADS = 1)              Tue Jun  3 16:41:36 2025  *
 *  PM3        - The PM3 Hamiltonian to be used
 *  OLDGEO     - PREVIOUS GEOMETRY TO BE USED
 *  PRECISE    - TIGHTER CRITERIA TO BE USED
 *  NOSYM      - POINT-GROUP SYMMETRY SET TO C1
 *  THREADS=1  - MULTI-THREADING NOT USED
 *  T=         - A TIME OF 172800.0 SECONDS REQUESTED
 *  DUMP=N     - RESTART FILE WRITTEN EVERY 7200.0 SECONDS REQUESTED
 *  THERMO     - THERMODYNAMIC QUANTITIES TO BE CALCULATED
 *******************************************************************************
oldgeo thermo nosym precise THREADS=1  pm3
 InChI=1S/C12H22/c1-4-6-7-10(3)12-8-11(5-2)9-12/h4,6,10-12H,5,7-9H2,1-3H3

   ATOM   CHEMICAL          X               Y               Z
  NUMBER   SYMBOL      (ANGSTROMS)     (ANGSTROMS)     (ANGSTROMS)

     1       C         -0.90647931  *  -0.80093463  *  -1.00542601  *
     2       C         -2.75503554  *   0.23851444  *  -0.43034004  *
     3       C          0.35811435  *  -0.98642945  *  -0.17658537  *
     4       C         -2.22462498  *  -1.20878495  *  -0.30142318  *
     5       C         -1.42705266  *   0.65460853  *  -1.10664765  *
     6       C         -3.05100543  *   0.91558345  *   0.89176551  *
     7       C          1.55634513  *  -0.34978698  *  -0.88996356  *
     8       C          0.62078878  *  -2.46297686  *   0.07887224  *
     9       C         -3.51299183  *   2.34295307  *   0.70315436  *
    10       C          4.88195867  *   0.54773773  *   0.85244510  *
    11       C          2.77859914  *  -0.39566011  *  -0.04307646  *
    12       C          3.65650918  *   0.60540762  *   0.02565546  *
    13       H         -3.63297330  *   0.32557501  *  -1.10463951  *
    14       H         -0.77642134  *  -1.28543217  *  -1.99675933  *
    15       H          0.21829704  *  -0.47177740  *   0.80678781  *
    16       H         -3.82433286  *   0.33283712  *   1.43034967  *
    17       H         -2.15151307  *   0.88947756  *   1.54029535  *
    18       H         -2.81535598  *  -1.96553507  *  -0.83779564  *
    19       H         -2.10557405  *  -1.56218173  *   0.73583573  *
    20       H         -1.53191060  *   1.03278135  *  -2.13398659  *
    21       H         -0.84109061  *   1.39948201  *  -0.54313727  *
    22       H          1.76293735  *  -0.88767608  *  -1.83813736  *
    23       H          1.30956204  *   0.69180975  *  -1.18043632  *
    24       H         -4.43096050  *   2.39715829  *   0.10292222  *
    25       H         -3.72139468  *   2.82471127  *   1.66682429  *
    26       H         -2.75180370  *   2.94666317  *   0.19053504  *
    27       H         -0.15976733  *  -2.91155386  *   0.70620902  *
    28       H          0.66550991  *  -3.03694389  *  -0.85617203  *
    29       H          1.58747012  *  -2.59373805  *   0.59372937  *
    30       H          5.77575504  *   0.66369819  *   0.22466006  *
    31       H          4.88807060  *   1.36219533  *   1.58931592  *
    32       H          4.98355660  *  -0.39742650  *   1.40230439  *
    33       H          3.50209335  *   1.53133405  *  -0.54241627  *
    34       H          2.91337945  *  -1.33085219  *   0.52656495  *



          CARTESIAN COORDINATES 

    NO.       ATOM           X           Y           Z

     1         C         -0.9065     -0.8009     -1.0054
     2         C         -2.7550      0.2385     -0.4303
     3         C          0.3581     -0.9864     -0.1766
     4         C         -2.2246     -1.2088     -0.3014
     5         C         -1.4271      0.6546     -1.1066
     6         C         -3.0510      0.9156      0.8918
     7         C          1.5563     -0.3498     -0.8900
     8         C          0.6208     -2.4630      0.0789
     9         C         -3.5130      2.3430      0.7032
    10         C          4.8820      0.5477      0.8524
    11         C          2.7786     -0.3957     -0.0431
    12         C          3.6565      0.6054      0.0257
    13         H         -3.6330      0.3256     -1.1046
    14         H         -0.7764     -1.2854     -1.9968
    15         H          0.2183     -0.4718      0.8068
    16         H         -3.8243      0.3328      1.4303
    17         H         -2.1515      0.8895      1.5403
    18         H         -2.8154     -1.9655     -0.8378
    19         H         -2.1056     -1.5622      0.7358
    20         H         -1.5319      1.0328     -2.1340
    21         H         -0.8411      1.3995     -0.5431
    22         H          1.7629     -0.8877     -1.8381
    23         H          1.3096      0.6918     -1.1804
    24         H         -4.4310      2.3972      0.1029
    25         H         -3.7214      2.8247      1.6668
    26         H         -2.7518      2.9467      0.1905
    27         H         -0.1598     -2.9116      0.7062
    28         H          0.6655     -3.0369     -0.8562
    29         H          1.5875     -2.5937      0.5937
    30         H          5.7758      0.6637      0.2247
    31         H          4.8881      1.3622      1.5893
    32         H          4.9836     -0.3974      1.4023
    33         H          3.5021      1.5313     -0.5424
    34         H          2.9134     -1.3309      0.5266

  H: (PM3): J. J. P. STEWART, J. COMP. CHEM. 10, 209 (1989).
  C: (PM3): J. J. P. STEWART, J. COMP. CHEM. 10, 209 (1989).

           Empirical Formula: C12 H22  =    34 atoms



      MOLECULAR POINT GROUP   :   C1  


      RHF CALCULATION, NO. OF DOUBLY OCCUPIED LEVELS = 35



          HEAT OF FORMATION =     -23.256837 KCALS/MOLE


          CARTESIAN COORDINATE DERIVATIVES

   NUMBER  ATOM         X            Y            Z

     1       C      0.001682    -0.000024     0.000266
     2       C     -0.000754    -0.000788     0.000523
     3       C      0.000297     0.000983    -0.002154
     4       C     -0.000760    -0.000998     0.000282
     5       C      0.000610    -0.001013    -0.001087
     6       C     -0.000387     0.000192     0.000296
     7       C     -0.002531    -0.000078    -0.000756
     8       C      0.000168     0.000488     0.001574
     9       C     -0.001041    -0.000711     0.000637
    10       C     -0.001638    -0.002199     0.000497
    11       C      0.000530     0.000790     0.001543
    12       C      0.001626    -0.000091     0.001105
    13       H      0.000111     0.000027     0.000206
    14       H     -0.000067     0.000128    -0.000322
    15       H      0.000152     0.000081    -0.000134
    16       H      0.000353    -0.000382    -0.000020
    17       H      0.000350    -0.000674    -0.000038
    18       H     -0.000197    -0.000297     0.000121
    19       H      0.000304     0.000087    -0.000870
    20       H     -0.000226     0.000977    -0.000588
    21       H     -0.000110    -0.000241    -0.000117
    22       H      0.002200     0.001334    -0.000353
    23       H      0.000826    -0.000473     0.000966
    24       H     -0.000066    -0.000154     0.000428
    25       H      0.001082     0.001162    -0.000209
    26       H      0.000065     0.000108     0.000112
    27       H     -0.000296     0.000465    -0.000709
    28       H     -0.000236    -0.001055     0.000335
    29       H     -0.001085     0.001804     0.000357
    30       H     -0.000526     0.000554    -0.000416
    31       H      0.000202     0.000644    -0.000095
    32       H     -0.000740    -0.000656    -0.001749
    33       H      0.000167     0.000212    -0.000010
    34       H     -0.000067    -0.000204     0.000379



          GRADIENT NORM =   0.00826

          MOLECULAR WEIGHT =  166.31



          ROTATIONAL CONSTANTS IN CM(-1)

          A =    0.04834678   B =    0.01282604   C =    0.01118648



           PRINCIPAL MOMENTS OF INERTIA IN UNITS OF 10**(-40)*GRAM-CM**2

          A =      578.9993   B =     2182.4945   C =     2502.3730


          ORIENTATION OF MOLECULE IN FORCE CALCULATION

    NO.       ATOM         X         Y         Z

     1          C       0.1699   -1.3235   -0.6243
     2          C       2.3672   -1.3235   -0.6243
     3          C      -0.7648   -0.1206   -0.6243
     4          C       1.2701   -1.3063   -1.7145
     5          C       1.2699   -1.3102    0.4664
     6          C       3.2825   -0.1168   -0.6399
     7          C      -1.6584   -0.1449    0.6211
     8          C      -1.6174   -0.1032   -1.8841
     9          C       4.2970   -0.1643    0.4803
    10          C      -3.5755    2.9238    1.9660
    11          C      -2.4867    1.0870    0.7183
    12          C      -2.7337    1.7110    1.8703
    13          H       2.9705   -2.2557   -0.6236
    14          H      -0.4282   -2.2598   -0.6264
    15          H      -0.1464    0.8112   -0.5970
    16          H       3.7984   -0.0680   -1.6193
    17          H       2.6832    0.8140   -0.5711
    18          H       1.2687   -2.1813   -2.3807
    19          H       1.2742   -0.4087   -2.3543
    20          H       1.2681   -2.1880    1.1289
    21          H       1.2767   -0.4154    1.1107
    22          H      -2.3348   -1.0237    0.5855
    23          H      -1.0341   -0.2800    1.5278
    24          H       4.9378   -1.0533    0.4110
    25          H       4.9524    0.7156    0.4616
    26          H       3.8081   -0.1903    1.4636
    27          H      -1.0088    0.0506   -2.7841
    28          H      -2.1713   -1.0423   -2.0147
    29          H      -2.3578    0.7127   -1.8311
    30          H      -4.4369    2.7437    2.6233
    31          H      -3.0025    3.7576    2.3936
    32          H      -3.9642    3.2532    0.9932
    33          H      -2.3145    1.3402    2.8141
    34          H      -2.8934    1.4494   -0.2412


    FIRST DERIVATIVES WILL BE USED IN THE CALCULATION OF SECOND DERIVATIVES

          ESTIMATED TIME TO COMPLETE CALCULATION =        6.38 SECONDS

    FOR POINT-GROUP C1   THERE ARE   1 UNIQUE SYMMETRY FUNCTIONS.

 STEP:   1 TIME =     0.04 SECS, INTEGRAL =      0.04 TIME LEFT: 172799.95
 STEP:   2 TIME =     0.04 SECS, INTEGRAL =      0.08 TIME LEFT: 172799.91
 STEP:   3 TIME =     0.04 SECS, INTEGRAL =      0.12 TIME LEFT: 172799.87
 STEP:   4 TIME =     0.04 SECS, INTEGRAL =      0.16 TIME LEFT: 172799.83
 STEP:   5 TIME =     0.04 SECS, INTEGRAL =      0.20 TIME LEFT: 172799.79
 STEP:   6 TIME =     0.04 SECS, INTEGRAL =      0.23 TIME LEFT: 172799.75
 STEP:   7 TIME =     0.04 SECS, INTEGRAL =      0.27 TIME LEFT: 172799.71
 STEP:   8 TIME =     0.04 SECS, INTEGRAL =      0.31 TIME LEFT: 172799.67
 STEP:   9 TIME =     0.04 SECS, INTEGRAL =      0.35 TIME LEFT: 172799.63
 STEP:  10 TIME =     0.04 SECS, INTEGRAL =      0.39 TIME LEFT: 172799.59
 STEP:  11 TIME =     0.04 SECS, INTEGRAL =      0.43 TIME LEFT: 172799.55
 STEP:  12 TIME =     0.04 SECS, INTEGRAL =      0.47 TIME LEFT: 172799.51
 STEP:  13 TIME =     0.04 SECS, INTEGRAL =      0.52 TIME LEFT: 172799.47
 STEP:  14 TIME =     0.04 SECS, INTEGRAL =      0.56 TIME LEFT: 172799.43
 STEP:  15 TIME =     0.04 SECS, INTEGRAL =      0.60 TIME LEFT: 172799.39
 STEP:  16 TIME =     0.04 SECS, INTEGRAL =      0.64 TIME LEFT: 172799.35
 STEP:  17 TIME =     0.04 SECS, INTEGRAL =      0.68 TIME LEFT: 172799.31
 STEP:  18 TIME =     0.04 SECS, INTEGRAL =      0.71 TIME LEFT: 172799.27
 STEP:  19 TIME =     0.04 SECS, INTEGRAL =      0.76 TIME LEFT: 172799.23
 STEP:  20 TIME =     0.04 SECS, INTEGRAL =      0.80 TIME LEFT: 172799.19
 STEP:  21 TIME =     0.04 SECS, INTEGRAL =      0.84 TIME LEFT: 172799.15
 STEP:  22 TIME =     0.04 SECS, INTEGRAL =      0.88 TIME LEFT: 172799.11
 STEP:  23 TIME =     0.04 SECS, INTEGRAL =      0.92 TIME LEFT: 172799.07
 STEP:  24 TIME =     0.04 SECS, INTEGRAL =      0.96 TIME LEFT: 172799.03
 STEP:  25 TIME =     0.04 SECS, INTEGRAL =      1.00 TIME LEFT: 172798.99
 STEP:  26 TIME =     0.04 SECS, INTEGRAL =      1.04 TIME LEFT: 172798.95
 STEP:  27 TIME =     0.04 SECS, INTEGRAL =      1.08 TIME LEFT: 172798.91
 STEP:  28 TIME =     0.04 SECS, INTEGRAL =      1.12 TIME LEFT: 172798.87
 STEP:  29 TIME =     0.04 SECS, INTEGRAL =      1.16 TIME LEFT: 172798.83
 STEP:  30 TIME =     0.04 SECS, INTEGRAL =      1.20 TIME LEFT: 172798.79
 STEP:  31 TIME =     0.04 SECS, INTEGRAL =      1.24 TIME LEFT: 172798.74
 STEP:  32 TIME =     0.04 SECS, INTEGRAL =      1.29 TIME LEFT: 172798.70
 STEP:  33 TIME =     0.04 SECS, INTEGRAL =      1.32 TIME LEFT: 172798.66
 STEP:  34 TIME =     0.04 SECS, INTEGRAL =      1.36 TIME LEFT: 172798.62
 STEP:  35 TIME =     0.04 SECS, INTEGRAL =      1.40 TIME LEFT: 172798.58
 STEP:  36 TIME =     0.04 SECS, INTEGRAL =      1.44 TIME LEFT: 172798.54
 STEP:  37 TIME =     0.04 SECS, INTEGRAL =      1.48 TIME LEFT: 172798.50
 STEP:  38 TIME =     0.04 SECS, INTEGRAL =      1.52 TIME LEFT: 172798.46
 STEP:  39 TIME =     0.05 SECS, INTEGRAL =      1.57 TIME LEFT: 172798.42
 STEP:  40 TIME =     0.04 SECS, INTEGRAL =      1.61 TIME LEFT: 172798.38
 STEP:  41 TIME =     0.04 SECS, INTEGRAL =      1.65 TIME LEFT: 172798.34
 STEP:  42 TIME =     0.04 SECS, INTEGRAL =      1.69 TIME LEFT: 172798.29
 STEP:  43 TIME =     0.04 SECS, INTEGRAL =      1.73 TIME LEFT: 172798.25
 STEP:  44 TIME =     0.04 SECS, INTEGRAL =      1.78 TIME LEFT: 172798.21
 STEP:  45 TIME =     0.04 SECS, INTEGRAL =      1.82 TIME LEFT: 172798.16
 STEP:  46 TIME =     0.04 SECS, INTEGRAL =      1.86 TIME LEFT: 172798.12
 STEP:  47 TIME =     0.04 SECS, INTEGRAL =      1.90 TIME LEFT: 172798.08
 STEP:  48 TIME =     0.04 SECS, INTEGRAL =      1.94 TIME LEFT: 172798.05
 STEP:  49 TIME =     0.04 SECS, INTEGRAL =      1.98 TIME LEFT: 172798.00
 STEP:  50 TIME =     0.04 SECS, INTEGRAL =      2.02 TIME LEFT: 172797.96
 STEP:  51 TIME =     0.05 SECS, INTEGRAL =      2.07 TIME LEFT: 172797.92
 STEP:  52 TIME =     0.04 SECS, INTEGRAL =      2.11 TIME LEFT: 172797.88
 STEP:  53 TIME =     0.04 SECS, INTEGRAL =      2.15 TIME LEFT: 172797.83
 STEP:  54 TIME =     0.04 SECS, INTEGRAL =      2.19 TIME LEFT: 172797.79
 STEP:  55 TIME =     0.05 SECS, INTEGRAL =      2.24 TIME LEFT: 172797.75
 STEP:  56 TIME =     0.04 SECS, INTEGRAL =      2.28 TIME LEFT: 172797.71
 STEP:  57 TIME =     0.04 SECS, INTEGRAL =      2.32 TIME LEFT: 172797.67
 STEP:  58 TIME =     0.05 SECS, INTEGRAL =      2.36 TIME LEFT: 172797.62
 STEP:  59 TIME =     0.04 SECS, INTEGRAL =      2.40 TIME LEFT: 172797.58
 STEP:  60 TIME =     0.04 SECS, INTEGRAL =      2.44 TIME LEFT: 172797.54
 STEP:  61 TIME =     0.05 SECS, INTEGRAL =      2.49 TIME LEFT: 172797.50
 STEP:  62 TIME =     0.04 SECS, INTEGRAL =      2.53 TIME LEFT: 172797.46
 STEP:  63 TIME =     0.04 SECS, INTEGRAL =      2.57 TIME LEFT: 172797.42
 STEP:  64 TIME =     0.04 SECS, INTEGRAL =      2.61 TIME LEFT: 172797.38
 STEP:  65 TIME =     0.04 SECS, INTEGRAL =      2.65 TIME LEFT: 172797.33
 STEP:  66 TIME =     0.04 SECS, INTEGRAL =      2.70 TIME LEFT: 172797.29
 STEP:  67 TIME =     0.04 SECS, INTEGRAL =      2.74 TIME LEFT: 172797.25
 STEP:  68 TIME =     0.05 SECS, INTEGRAL =      2.79 TIME LEFT: 172797.20
 STEP:  69 TIME =     0.04 SECS, INTEGRAL =      2.83 TIME LEFT: 172797.16
 STEP:  70 TIME =     0.04 SECS, INTEGRAL =      2.87 TIME LEFT: 172797.12
 STEP:  71 TIME =     0.04 SECS, INTEGRAL =      2.91 TIME LEFT: 172797.08
 STEP:  72 TIME =     0.04 SECS, INTEGRAL =      2.95 TIME LEFT: 172797.04
 STEP:  73 TIME =     0.04 SECS, INTEGRAL =      2.99 TIME LEFT: 172797.00
 STEP:  74 TIME =     0.04 SECS, INTEGRAL =      3.03 TIME LEFT: 172796.96
 STEP:  75 TIME =     0.04 SECS, INTEGRAL =      3.07 TIME LEFT: 172796.91
 STEP:  76 TIME =     0.04 SECS, INTEGRAL =      3.11 TIME LEFT: 172796.88
 STEP:  77 TIME =     0.04 SECS, INTEGRAL =      3.15 TIME LEFT: 172796.83
 STEP:  78 TIME =     0.04 SECS, INTEGRAL =      3.19 TIME LEFT: 172796.80
 STEP:  79 TIME =     0.04 SECS, INTEGRAL =      3.23 TIME LEFT: 172796.76
 STEP:  80 TIME =     0.04 SECS, INTEGRAL =      3.27 TIME LEFT: 172796.71
 STEP:  81 TIME =     0.04 SECS, INTEGRAL =      3.31 TIME LEFT: 172796.67
 STEP:  82 TIME =     0.04 SECS, INTEGRAL =      3.35 TIME LEFT: 172796.63
 STEP:  83 TIME =     0.04 SECS, INTEGRAL =      3.39 TIME LEFT: 172796.59
 STEP:  84 TIME =     0.04 SECS, INTEGRAL =      3.43 TIME LEFT: 172796.55
 STEP:  85 TIME =     0.04 SECS, INTEGRAL =      3.47 TIME LEFT: 172796.51
 STEP:  86 TIME =     0.04 SECS, INTEGRAL =      3.51 TIME LEFT: 172796.47
 STEP:  87 TIME =     0.04 SECS, INTEGRAL =      3.55 TIME LEFT: 172796.43
 STEP:  88 TIME =     0.04 SECS, INTEGRAL =      3.59 TIME LEFT: 172796.39
 STEP:  89 TIME =     0.04 SECS, INTEGRAL =      3.63 TIME LEFT: 172796.35
 STEP:  90 TIME =     0.04 SECS, INTEGRAL =      3.67 TIME LEFT: 172796.31
 STEP:  91 TIME =     0.04 SECS, INTEGRAL =      3.71 TIME LEFT: 172796.27
 STEP:  92 TIME =     0.04 SECS, INTEGRAL =      3.75 TIME LEFT: 172796.23
 STEP:  93 TIME =     0.04 SECS, INTEGRAL =      3.79 TIME LEFT: 172796.20
 STEP:  94 TIME =     0.04 SECS, INTEGRAL =      3.83 TIME LEFT: 172796.16
 STEP:  95 TIME =     0.04 SECS, INTEGRAL =      3.87 TIME LEFT: 172796.12
 STEP:  96 TIME =     0.04 SECS, INTEGRAL =      3.91 TIME LEFT: 172796.08
 STEP:  97 TIME =     0.04 SECS, INTEGRAL =      3.95 TIME LEFT: 172796.04
 STEP:  98 TIME =     0.04 SECS, INTEGRAL =      3.99 TIME LEFT: 172795.99
 STEP:  99 TIME =     0.04 SECS, INTEGRAL =      4.03 TIME LEFT: 172795.95
 STEP: 100 TIME =     0.04 SECS, INTEGRAL =      4.07 TIME LEFT: 172795.91
 STEP: 101 TIME =     0.04 SECS, INTEGRAL =      4.12 TIME LEFT: 172795.87
 STEP: 102 TIME =     0.04 SECS, INTEGRAL =      4.16 TIME LEFT: 172795.83

(To convert to Hartree/Bohr^2, multiply by (10^(-21) x N x a0^2)/(4.184 x 627.51) =  0.0642)


           FORCE MATRIX IN MILLIDYNES/ANGSTROM


                  C  1       C  2       C  3       C  4       C  5       C  6
 ------------------------------------------------------------------------------
     C    1  14.464790
     C    2   1.796627  14.564022
     C    3   4.013940   0.039707  14.351002
     C    4   3.441019   3.503094   0.521286  14.330642
     C    5   3.435601   3.483935   0.520356   1.834836  14.312006
     C    6   0.040097   4.307686   0.005267   0.551058   0.542287  14.489903
     C    7   0.639770   0.004862   3.768885   0.049288   0.049141   0.001048
     C    8   0.647510   0.005333   4.148431   0.046735   0.050156   0.001165
     C    9   0.005057   0.659150   0.001123   0.050940   0.032291   4.471138
     C   10   0.003562   0.000095   0.017331   0.000821   0.000227   0.000112
     C   11   0.053761   0.000626   0.675847   0.009423   0.002996   0.000380
     C   12   0.008467   0.000197   0.045807   0.001493   0.000987   0.000147
     H   13   0.028169   4.424768   0.001705   0.427742   0.429268   0.431406
     H   14   4.405082   0.027842   0.435940   0.428962   0.428271   0.002101
     H   15   0.432576   0.002478   4.186194   0.021516   0.023780   0.004036
     H   16   0.003438   0.433986   0.000753   0.019263   0.047623   4.456854
     H   17   0.002540   0.450668   0.004098   0.021268   0.023905   4.422810
     H   18   0.441663   0.441959   0.033545   4.716293   0.031876   0.033699
     H   19   0.452616   0.452911   0.025803   4.627774   0.027864   0.032263
     H   20   0.441289   0.441019   0.033681   0.031912   4.714238   0.033977
     H   21   0.451909   0.453314   0.024902   0.027849   4.618667   0.027073
     H   22   0.021939   0.000375   0.456655   0.001214   0.002534   0.000209
     H   23   0.040004   0.000933   0.439225   0.002052   0.019864   0.000572
     H   24   0.000326   0.023740   0.000284   0.001632   0.002101   0.464139
     H   25   0.000644   0.052607   0.000276   0.008773   0.002217   0.451242
     H   26   0.000516   0.020035   0.000384   0.001876   0.007146   0.464077
     H   27   0.018258   0.000430   0.456445   0.014445   0.001779   0.000452
     H   28   0.027192   0.000354   0.468733   0.003107   0.001894   0.000287
     H   29   0.051328   0.000666   0.456944   0.003355   0.008767   0.000274
     H   30   0.000213   0.000040   0.001974   0.000080   0.000058   0.000038
     H   31   0.000825   0.000032   0.002983   0.000223   0.000055   0.000059
     H   32   0.000179   0.000024   0.000592   0.000071   0.000067   0.000034
     H   33   0.001735   0.000148   0.006889   0.000414   0.000260   0.000139
     H   34   0.002601   0.000200   0.041716   0.000749   0.000751   0.000211


                  C  7       C  8       C  9       C 10       C 11       C 12
 ------------------------------------------------------------------------------
     C    7  14.601932
     C    8   0.654575  14.313726
     C    9   0.000703   0.000704  14.375000
     C   10   0.146029   0.000703   0.000116  14.719407
     C   11   4.950801   0.092265   0.000339   0.850248  18.205648
     C   12   0.821248   0.007514   0.000157   5.270742  10.692772  18.192299
     H   13   0.000522   0.000517   0.031204   0.000047   0.000206   0.000059
     H   14   0.026836   0.024398   0.000575   0.000201   0.001566   0.000614
     H   15   0.425559   0.419695   0.000521   0.000862   0.025359   0.002276
     H   16   0.000261   0.000426   0.440099   0.000040   0.000091   0.000056
     H   17   0.000416   0.000455   0.437329   0.000064   0.000266   0.000116
     H   18   0.006077   0.001867   0.006338   0.000202   0.001353   0.000309
     H   19   0.003201   0.014813   0.003025   0.000106   0.001101   0.000194
     H   20   0.002078   0.006650   0.001723   0.000102   0.000541   0.000151
     H   21   0.016015   0.003033   0.008858   0.000237   0.001195   0.000348
     H   22   4.392201   0.025255   0.000127   0.020161   0.408440   0.028116
     H   23   4.414664   0.049766   0.000161   0.005181   0.455052   0.046118
     H   24   0.000134   0.000195   4.724755   0.000031   0.000094   0.000047
     H   25   0.000194   0.000216   4.752826   0.000046   0.000121   0.000073
     H   26   0.000142   0.000230   4.713310   0.000038   0.000114   0.000094
     H   27   0.051269   4.746740   0.000251   0.000240   0.006067   0.000976
     H   28   0.018203   4.725756   0.000209   0.000241   0.004124   0.000719
     H   29   0.036398   4.560932   0.000199   0.000571   0.097426   0.002525
     H   30   0.020136   0.000257   0.000034   4.703831   0.034833   0.439400
     H   31   0.019260   0.000256   0.000059   4.705418   0.036138   0.439262
     H   32   0.002370   0.000193   0.000024   4.723430   0.041199   0.480474
     H   33   0.084104   0.001035   0.000135   0.424668   0.472695   4.775622
     H   34   0.433537   0.086177   0.000115   0.084129   4.578676   0.465370


                  H 13       H 14       H 15       H 16       H 17       H 18
 ------------------------------------------------------------------------------
     H   13   4.925471
     H   14   0.002538   4.905957
     H   15   0.000533   0.041794   4.663293
     H   16   0.024889   0.000658   0.000311   5.065920
     H   17   0.043813   0.000537   0.010201   0.569056   5.035275
     H   18   0.026478   0.027005   0.001451   0.001945   0.001297   5.334504
     H   19   0.031102   0.031343   0.018597   0.011836   0.017293   0.552695
     H   20   0.026799   0.027031   0.001505   0.005919   0.001735   0.003516
     H   21   0.030902   0.031341   0.021310   0.003528   0.023977   0.001021
     H   22   0.000106   0.017065   0.043810   0.000075   0.000156   0.000316
     H   23   0.000434   0.002233   0.024369   0.000198   0.000238   0.000407
     H   24   0.021754   0.000116   0.000179   0.024476   0.048235   0.000346
     H   25   0.001996   0.000133   0.000133   0.028925   0.030199   0.001258
     H   26   0.001935   0.000301   0.000159   0.048986   0.024338   0.000413
     H   27   0.000334   0.001451   0.032426   0.000135   0.000162   0.000819
     H   28   0.000147   0.020690   0.045330   0.000073   0.000152   0.000467
     H   29   0.000133   0.001684   0.026428   0.000119   0.000130   0.000296
     H   30   0.000022   0.000060   0.000193   0.000014   0.000031   0.000043
     H   31   0.000021   0.000076   0.000240   0.000018   0.000032   0.000067
     H   32   0.000012   0.000047   0.000154   0.000008   0.000018   0.000018
     H   33   0.000060   0.000199   0.000551   0.000049   0.000098   0.000121
     H   34   0.000138   0.000728   0.005029   0.000064   0.000137   0.000147


                  H 19       H 20       H 21       H 22       H 23       H 24
 ------------------------------------------------------------------------------
     H   19   5.263680
     H   20   0.000987   5.333162
     H   21   0.002798   0.552623   5.254920
     H   22   0.000462   0.000363   0.000490   4.994471
     H   23   0.000485   0.001628   0.022702   0.560187   5.028681
     H   24   0.000460   0.000355   0.000473   0.000045   0.000053   5.467470
     H   25   0.000723   0.000326   0.000618   0.000027   0.000053   0.573212
     H   26   0.000419   0.000855   0.013147   0.000031   0.000142   0.576736
     H   27   0.022477   0.000384   0.000404   0.002385   0.008549   0.000050
     H   28   0.000575   0.000402   0.000496   0.014800   0.001822   0.000045
     H   29   0.000741   0.001373   0.000690   0.002742   0.002574   0.000046
     H   30   0.000024   0.000021   0.000078   0.003311   0.001115   0.000008
     H   31   0.000037   0.000034   0.000085   0.002384   0.000411   0.000015
     H   32   0.000030   0.000033   0.000060   0.000447   0.000437   0.000010
     H   33   0.000099   0.000159   0.000299   0.010609   0.029422   0.000042
     H   34   0.000415   0.000301   0.000500   0.013751   0.037581   0.000047


                  H 25       H 26       H 27       H 28       H 29       H 30
 ------------------------------------------------------------------------------
     H   25   5.489351
     H   26   0.572354   5.452745
     H   27   0.000085   0.000062   5.470368
     H   28   0.000053   0.000040   0.569472   5.459867
     H   29   0.000064   0.000072   0.547241   0.561535   5.317916
     H   30   0.000013   0.000016   0.000073   0.000074   0.000179   5.423980
     H   31   0.000022   0.000022   0.000078   0.000100   0.000210   0.576654
     H   32   0.000008   0.000011   0.000063   0.000061   0.000281   0.566062
     H   33   0.000052   0.000072   0.000350   0.000202   0.000692   0.023318
     H   34   0.000036   0.000060   0.002519   0.001420   0.084089   0.009713


                  H 31       H 32       H 33       H 34
 ------------------------------------------------------
     H   31   5.425210
     H   32   0.566186   5.449952
     H   33   0.023921   0.041972   5.154686
     H   34   0.009505   0.029070   0.106283   5.000161


          HEAT OF FORMATION =     -23.256837 KCALS/MOLE

          ZERO POINT ENERGY     194.804 KCAL/MOL


           NORMAL COORDINATE ANALYSIS (Total motion = 1 Angstrom)


   Root No.       1         2         3         4         5         6         7         8

                 1 A       2 A       3 A       4 A       5 A       6 A       7 A       8 A   

                  29.2      55.2      71.3      85.2      87.6     119.5     141.8     182.9
  
           1   -0.0039    0.0013    0.0027    0.0012   -0.0013   -0.0026   -0.0036   -0.0034
           2   -0.0125    0.0101   -0.0015    0.0076   -0.0042   -0.0009    0.0024   -0.0043
           3   -0.0106   -0.0050   -0.0143    0.0004   -0.0028   -0.0041   -0.0021   -0.0071
[...]
 REDUCED MASS        0.8540         C  7 -- C 11          +1.4% ( 11.9%)     14.5%
 EFFECTIVE MASS      1.5149
 FORCE CONSTANT      4.4812

 VIBRATION         81   81A           ATOM PAIR      ENERGY CONTRIBUTION    RADIAL
 FREQUENCY          3015.69         C  7 -- H 23         +52.9% ( 71.7%)     98.2%
 TRANSITION DIPOLE   0.0633         C  7 -- H 22         +43.9% ( 65.3%)     97.1%
 TRAVEL (Ang.)       0.2180         C  5 -- H 21          +1.0% (  9.7%)     98.9%
 REDUCED MASS        0.4705         C  3 -- C  7          +0.6% (  7.7%)     29.5%
 EFFECTIVE MASS      1.2764
 FORCE CONSTANT      2.5209

 VIBRATION         82   82A           ATOM PAIR      ENERGY CONTRIBUTION    RADIAL
 FREQUENCY          3027.51         C  5 -- H 21         +37.6% ( 62.7%)     98.4%
 TRANSITION DIPOLE   0.0490         C  5 -- H 20         +17.8% ( 43.1%)     93.9%
 TRAVEL (Ang.)       0.3082         C  6 -- H 16         +16.5% ( 41.6%)     98.3%
 REDUCED MASS        0.2345         C  6 -- H 17         +12.8% ( 36.7%)     96.9%
 EFFECTIVE MASS      1.4430
 FORCE CONSTANT      1.2665

 VIBRATION         83   83A           ATOM PAIR      ENERGY CONTRIBUTION    RADIAL
 FREQUENCY          3028.79         C  6 -- H 16         +36.0% ( 60.3%)     98.4%
 TRANSITION DIPOLE   0.0301         C  6 -- H 17         +26.9% ( 52.1%)     96.7%
 TRAVEL (Ang.)       0.2986         C  5 -- H 21         +14.5% ( 38.2%)     98.2%
 REDUCED MASS        0.2497         C  4 -- H 19          +8.6% ( 29.4%)     98.4%
 EFFECTIVE MASS      1.3651
 FORCE CONSTANT      1.3497

 VIBRATION         84   84A           ATOM PAIR      ENERGY CONTRIBUTION    RADIAL
 FREQUENCY          3031.37         C  4 -- H 19         +48.5% ( 72.4%)     98.3%
 TRANSITION DIPOLE   0.1037         C  4 -- H 18         +24.6% ( 51.5%)     94.3%
 TRAVEL (Ang.)       0.2515         C  5 -- H 21         +14.2% ( 39.2%)     98.4%
 REDUCED MASS        0.3518         C  5 -- H 20          +6.7% ( 27.0%)     93.8%
 EFFECTIVE MASS      1.5332
 FORCE CONSTANT      1.9047

 VIBRATION         85   85A           ATOM PAIR      ENERGY CONTRIBUTION    RADIAL
 FREQUENCY          3039.55         C 12 -- H 33         +94.5% ( 98.7%)    100.0%
 TRANSITION DIPOLE   0.2348         C 10 -- H 32          +1.5% ( 12.6%)     98.1%
 TRAVEL (Ang.)       0.1585         C 11 -- C 12          +1.5% ( 12.3%)     38.8%
 REDUCED MASS        0.8827         C 10 -- C 12          +1.4% ( 12.0%)     11.2%
 EFFECTIVE MASS      1.5155
 FORCE CONSTANT      4.8048

 VIBRATION         86   86A           ATOM PAIR      ENERGY CONTRIBUTION    RADIAL
 FREQUENCY          3046.17         C  8 -- H 29         +78.0% ( 90.8%)     99.4%
 TRANSITION DIPOLE   0.0688         C  8 -- H 28         +11.9% ( 35.5%)     81.4%
 TRAVEL (Ang.)       0.1848         C  8 -- H 27          +6.0% ( 25.2%)     65.3%
 REDUCED MASS        0.6482         C 11 -- H 34          +2.8% ( 17.3%)    100.0%
 EFFECTIVE MASS      1.4919
 FORCE CONSTANT      3.5440

 VIBRATION         87   87A           ATOM PAIR      ENERGY CONTRIBUTION    RADIAL
 FREQUENCY          3069.71         C 10 -- H 30         +50.2% ( 73.1%)     97.2%
 TRANSITION DIPOLE   0.0155         C 10 -- H 31         +47.9% ( 71.4%)     96.9%
 TRAVEL (Ang.)       0.2077         C 10 -- C 12          +1.0% ( 10.2%)      0.0%
 REDUCED MASS        0.5094         C 10 -- H 32          +0.9% ( 10.0%)      0.5%
 EFFECTIVE MASS      1.5010
 FORCE CONSTANT      2.8280

 VIBRATION         88   88A           ATOM PAIR      ENERGY CONTRIBUTION    RADIAL
 FREQUENCY          3075.53         C 10 -- H 32         +62.5% ( 81.5%)     98.9%
 TRANSITION DIPOLE   0.0565         C 10 -- H 31         +18.2% ( 44.0%)     85.9%
 TRAVEL (Ang.)       0.2144         C 10 -- H 30         +16.1% ( 41.4%)     83.9%
 REDUCED MASS        0.4768         C 12 -- H 33          +2.2% ( 15.2%)    100.0%
 EFFECTIVE MASS      1.5080
 FORCE CONSTANT      2.6571

 VIBRATION         89   89A           ATOM PAIR      ENERGY CONTRIBUTION    RADIAL
 FREQUENCY          3076.72         C  9 -- H 26         +57.7% ( 78.3%)     98.1%
 TRANSITION DIPOLE   0.0077         C  9 -- H 24         +39.0% ( 64.4%)     95.4%
 TRAVEL (Ang.)       0.2068         C  9 -- H 25          +1.9% ( 14.4%)     22.7%
 REDUCED MASS        0.5126         C  6 -- C  9          +1.0% ( 10.2%)      0.0%
 EFFECTIVE MASS      1.5010
 FORCE CONSTANT      2.8590

 VIBRATION         90   90A           ATOM PAIR      ENERGY CONTRIBUTION    RADIAL
 FREQUENCY          3080.56         C  8 -- H 27         +50.2% ( 73.1%)     97.4%
 TRANSITION DIPOLE   0.0161         C  8 -- H 28         +46.9% ( 70.7%)     96.6%
 TRAVEL (Ang.)       0.2087         C  8 -- H 29          +1.5% ( 12.6%)     12.1%
 REDUCED MASS        0.5025         C  3 -- C  8          +1.0% ( 10.4%)      0.0%
 EFFECTIVE MASS      1.5078
 FORCE CONSTANT      2.8096

 VIBRATION         91   91A           ATOM PAIR      ENERGY CONTRIBUTION    RADIAL
 FREQUENCY          3084.25         C  9 -- H 25         +60.0% ( 79.9%)     98.6%
 TRANSITION DIPOLE   0.0026         C  9 -- H 24         +27.5% ( 54.1%)     91.4%
 TRAVEL (Ang.)       0.2141         C  9 -- H 26         +11.0% ( 34.2%)     75.6%
 REDUCED MASS        0.4768         C  6 -- C  9          +1.0% ( 10.3%)      0.0%
 EFFECTIVE MASS      1.5037
 FORCE CONSTANT      2.6722

 VIBRATION         92   92A           ATOM PAIR      ENERGY CONTRIBUTION    RADIAL
 FREQUENCY          3098.15         C  5 -- H 20         +45.0% ( 66.6%)     98.9%
 TRANSITION DIPOLE   0.1059         C  4 -- H 18         +22.0% ( 46.5%)     98.9%
 TRAVEL (Ang.)       0.2693         C  5 -- H 21         +20.3% ( 44.7%)     93.4%
 REDUCED MASS        0.3001         C  4 -- H 19         +10.6% ( 32.4%)     94.1%
 EFFECTIVE MASS      1.2714
 FORCE CONSTANT      1.6969

 VIBRATION         93   93A           ATOM PAIR      ENERGY CONTRIBUTION    RADIAL
 FREQUENCY          3101.14         C  4 -- H 18         +43.9% ( 65.8%)     98.7%
 TRANSITION DIPOLE   0.0248         C  5 -- H 20         +22.4% ( 47.1%)     98.8%
 TRAVEL (Ang.)       0.2705         C  4 -- H 19         +21.1% ( 45.6%)     93.5%
 REDUCED MASS        0.2972         C  5 -- H 21         +10.1% ( 31.6%)     92.9%
 EFFECTIVE MASS      1.3108
 FORCE CONSTANT      1.6838

 VIBRATION         94   94A           ATOM PAIR      ENERGY CONTRIBUTION    RADIAL
 FREQUENCY          3162.67         C  8 -- H 27         +43.8% ( 64.0%)     98.1%
 TRANSITION DIPOLE   0.0229         C  8 -- H 28         +40.9% ( 61.8%)     97.7%
 TRAVEL (Ang.)       0.2403         C  8 -- H 29         +14.9% ( 37.3%)     90.0%
 REDUCED MASS        0.3691         C  3 -- C  8          +0.3% (  5.3%)     85.3%
 EFFECTIVE MASS      1.1507
 FORCE CONSTANT      2.1754

 VIBRATION         95   95A           ATOM PAIR      ENERGY CONTRIBUTION    RADIAL
 FREQUENCY          3169.41         C 10 -- H 32         +34.6% ( 56.6%)     97.3%
 TRANSITION DIPOLE   0.0613         C 10 -- H 31         +32.7% ( 55.0%)     97.1%
 TRAVEL (Ang.)       0.2550         C 10 -- H 30         +32.4% ( 54.8%)     97.0%
 REDUCED MASS        0.3272         C 10 -- C 12          +0.3% (  5.4%)    100.0%
 EFFECTIVE MASS      1.1393
 FORCE CONSTANT      1.9367

 VIBRATION         96   96A           ATOM PAIR      ENERGY CONTRIBUTION    RADIAL
 FREQUENCY          3179.59         C  9 -- H 25         +37.4% ( 58.8%)     97.7%
 TRANSITION DIPOLE   0.0102         C  9 -- H 24         +32.5% ( 54.8%)     97.0%
 TRAVEL (Ang.)       0.2537         C  9 -- H 26         +29.8% ( 52.6%)     96.5%
 REDUCED MASS        0.3294         C  6 -- C  9          +0.3% (  5.1%)     99.3%
 EFFECTIVE MASS      1.1368
 FORCE CONSTANT      1.9619

      SYMMETRY NUMBER FOR POINT-GROUP C1  =  1


          SYSTEM IS A GROUND STATE



 InChI=1S/C12H22/c1-4-6-7-10(3)12-8-11(5-2)9-12/h4,6,10-12H,5,7-9H2,1-3H3


          MOLECULE IS NOT LINEAR

          THERE ARE 96 GENUINE VIBRATIONS IN THIS SYSTEM
          THIS THERMODYNAMICS CALCULATION IS LIMITED TO
          MOLECULES WHICH HAVE NO INTERNAL ROTATIONS




                    CALCULATED THERMODYNAMIC PROPERTIES
                                          *
   TEMP. (K)   PARTITION FUNCTION   H.O.F.    ENTHALPY  HEAT CAPACITY ENTROPY
                                   KCAL/MOL   CAL/MOLE    CAL/K/MOL  CAL/K/MOL


 298.00  VIB.     0.1452D+06                  7248.1416    47.5847    47.9423
         ROT.     0.2006D+07                   888.2803     2.9808    31.8184
         INT.     0.2913D+12                  8136.4219    50.5655    79.7608
         TRA.     0.2073D+28                  1480.4672     4.9680    41.2320
         TOT.                      -23.257    9616.8890    55.5336   120.9928

 200.00  VIB.     0.2435D+04                  3397.8587    31.6679    32.4852
         ROT.     0.1103D+07                   596.1613     2.9808    30.6298
         INT.     0.2686D+10                  3994.0200    34.6487    63.1150
         TRA.     0.1140D+28                   993.6021     4.9680    39.2509
         TOT.                      -27.886    4987.6221    39.6167   102.3658

 210.00  VIB.     0.3729D+04                  3721.6327    33.0945    34.0646
         ROT.     0.1187D+07                   625.9693     2.9808    30.7752
         INT.     0.4425D+10                  4347.6020    36.0753    64.8398
         TRA.     0.1227D+28                  1043.2822     4.9680    39.4932
         TOT.                      -27.483    5390.8843    41.0433   104.3331

 220.00  VIB.     0.5695D+04                  4059.9041    34.5678    35.6380
         ROT.     0.1272D+07                   655.7774     2.9808    30.9139
         INT.     0.7246D+10                  4715.6815    37.5487    66.5519
         TRA.     0.1315D+28                  1092.9623     4.9680    39.7244
         TOT.                      -27.065    5808.6438    42.5167   106.2762

 230.00  VIB.     0.8675D+04                  4413.1522    36.0899    37.2080
         ROT.     0.1360D+07                   685.5855     2.9808    31.0464
         INT.     0.1180D+11                  5098.7376    39.0707    68.2544
         TRA.     0.1406D+28                  1142.6424     4.9680    39.9452
         TOT.                      -26.632    6241.3801    44.0388   108.1996

 240.00  VIB.     0.1319D+05                  4781.8654    37.6607    38.7770
         ROT.     0.1450D+07                   715.3935     2.9808    31.1732
         INT.     0.1912D+11                  5497.2589    40.6415    69.9502
         TRA.     0.1499D+28                  1192.3226     4.9680    40.1566
         TOT.                      -26.184    6689.5815    45.6095   110.1069

 250.00  VIB.     0.2001D+05                  5166.5240    39.2786    40.3470
         ROT.     0.1541D+07                   745.2016     2.9808    31.2949
         INT.     0.3084D+11                  5911.7256    42.2594    71.6419
         TRA.     0.1593D+28                  1242.0027     4.9680    40.3594
         TOT.                      -25.720    7153.7283    47.2275   112.0014

 260.00  VIB.     0.3030D+05                  5567.5856    40.9408    41.9198
         ROT.     0.1635D+07                   775.0097     2.9808    31.4118
         INT.     0.4954D+11                  6342.5953    43.9216    73.3316
         TRA.     0.1690D+28                  1291.6828     4.9680    40.5543
         TOT.                      -25.239    7634.2781    48.8896   113.8859

 270.00  VIB.     0.4584D+05                  5985.4741    42.6433    43.4967
         ROT.     0.1730D+07                   804.8177     2.9808    31.5243
         INT.     0.7930D+11                  6790.2918    45.6241    75.0210
         TRA.     0.1788D+28                  1341.3629     4.9680    40.7418
         TOT.                      -24.742    8131.6547    50.5921   115.7628

 280.00  VIB.     0.6925D+05                  6420.5709    44.3816    45.0789
         ROT.     0.1827D+07                   834.6258     2.9808    31.6327
         INT.     0.1265D+12                  7255.1967    47.3624    76.7116
         TRA.     0.1888D+28                  1391.0430     4.9680    40.9225
         TOT.                      -24.227    8646.2397    52.3305   117.6341

 290.00  VIB.     0.1045D+06                  6873.2095    46.1508    46.6671
         ROT.     0.1926D+07                   864.4339     2.9808    31.7373
         INT.     0.2013D+12                  7737.6433    49.1316    78.4044
         TRA.     0.1990D+28                  1440.7231     4.9680    41.0968
         TOT.                      -23.695    9178.3664    54.0996   119.5012

 300.00  VIB.     0.1576D+06                  7343.6716    47.9455    48.2618
         ROT.     0.2026D+07                   894.2419     2.9808    31.8384
         INT.     0.3194D+12                  8237.9135    50.9263    80.1002
         TRA.     0.2094D+28                  1490.4032     4.9680    41.2652
         TOT.                      -23.145    9728.3167    55.8943   121.3654

 310.00  VIB.     0.2376D+06                  7832.1860    49.7603    49.8635
         ROT.     0.2128D+07                   924.0500     2.9808    31.9361
         INT.     0.5057D+12                  8756.2359    52.7411    81.7996
         TRA.     0.2200D+28                  1540.0833     4.9680    41.4281
         TOT.                      -22.577   10296.3192    57.7091   123.2277

 320.00  VIB.     0.3580D+06                  8338.9279    51.5901    51.4722
         ROT.     0.2232D+07                   953.8580     2.9808    32.0307
         INT.     0.7992D+12                  9292.7859    54.5709    83.5029
         TRA.     0.2307D+28                  1589.7634     4.9680    41.5859
         TOT.                      -21.991   10882.5493    59.5389   125.0888

 330.00  VIB.     0.5393D+06                  8864.0208    53.4297    53.0878
         ROT.     0.2338D+07                   983.6661     2.9808    32.1225
         INT.     0.1261D+13                  9847.6869    56.4105    85.2103
         TRA.     0.2416D+28                  1639.4435     4.9680    41.7387
         TOT.                      -21.387   11487.1304    61.3785   126.9490

 340.00  VIB.     0.8123D+06                  9407.5383    55.2742    54.7103
         ROT.     0.2445D+07                  1013.4742     2.9808    32.2115
         INT.     0.1986D+13                 10421.0125    58.2551    86.9217
         TRA.     0.2527D+28                  1689.1236     4.9680    41.8870
         TOT.                      -20.764   12110.1361    63.2231   128.8088

 350.00  VIB.     0.1223D+07                  9969.5072    57.1192    56.3391
         ROT.     0.2553D+07                  1043.2822     2.9808    32.2979
         INT.     0.3124D+13                 11012.7894    60.1001    88.6370
         TRA.     0.2639D+28                  1738.8037     4.9680    42.0310
         TOT.                      -20.122   12751.5932    65.0681   130.6681

 360.00  VIB.     0.1843D+07                 10549.9108    58.9605    57.9741
         ROT.     0.2664D+07                  1073.0903     2.9808    32.3818
         INT.     0.4908D+13                 11623.0011    61.9413    90.3559
         TRA.     0.2753D+28                  1788.4838     4.9680    42.1710
         TOT.                      -19.462   13411.4849    66.9093   132.5269

 370.00  VIB.     0.2776D+07                 11148.6926    60.7943    59.6146
         ROT.     0.2775D+07                  1102.8984     2.9808    32.4635
         INT.     0.7703D+13                 12251.5910    63.7751    92.0781
         TRA.     0.2869D+28                  1838.1639     4.9680    42.3071
         TOT.                      -18.784   14089.7549    68.7431   134.3852

 380.00  VIB.     0.4182D+07                 11765.7604    62.6172    61.2601
         ROT.     0.2889D+07                  1132.7064     2.9808    32.5430
         INT.     0.1208D+14                 12898.4669    65.5980    93.8031
         TRA.     0.2986D+28                  1887.8440     4.9680    42.4396
         TOT.                      -18.087   14786.3109    70.5660   136.2427

 390.00  VIB.     0.6303D+07                 12400.9898    64.4261    62.9100
         ROT.     0.3003D+07                  1162.5145     2.9808    32.6204
         INT.     0.1893D+14                 13563.5043    67.4070    95.5304
         TRA.     0.3104D+28                  1937.5242     4.9680    42.5687
         TOT.                      -17.373   15501.0284    72.3750   138.0991

 400.00  VIB.     0.9501D+07                 13054.2282    66.2186    64.5638
         ROT.     0.3120D+07                  1192.3226     2.9808    32.6959
         INT.     0.2964D+14                 14246.5508    69.1994    97.2596
         TRA.     0.3224D+28                  1987.2043     4.9680    42.6944
         TOT.                      -16.640   16233.7550    74.1674   139.9541

   *: NOTE: HEATS OF FORMATION ARE RELATIVE TO THE
            ELEMENTS IN THEIR STANDARD STATE AT 298K
              (=  Standard Enthalpy of Formation).

            Hvib:  Zero-point energy is not included.
                   frequencies of less than zero cm-1 are not included.
            Hrot = (3/2)RT
            Htra = (3/2)RT + pV = (5/2)RT

            Heat capacity is Cp, not Cv

          For more information, see: HTTP://OpenMOPAC.net/Manual/thermochemistry.html


           FORCE CONSTANT IN CARTESIAN COORDINATES (Millidynes/A)

    ATOM   CHEMICAL       X               Y               Z
   NUMBER   SYMBOL  FORCE CONSTANT  FORCE CONSTANT  FORCE CONSTANT

      1       C        9.805078        8.475218        6.421947
      2       C        9.852165        8.637721        6.356798
      3       C        8.394527        8.357071        8.099658
      4       C        5.997690        8.637010        9.735860
      5       C        5.984042        8.634535        9.719088
      6       C        8.400994        8.269430        8.424600
      7       C        8.296993        8.647555        8.287985
      8       C        8.196389        8.247475        8.340185
      9       C        8.347352        8.342167        8.205825
     10       C        8.335693        8.740189        8.377108
     11       C        4.983503        8.478936       13.606003
     12       C        5.076651        8.638642       13.458941
     13       H        1.988689        3.602187        0.666462
     14       H        1.960484        3.613156        0.668540
     15       H        1.890627        3.385128        0.733549
     16       H        1.679516        0.693980        4.002884
     17       H        1.982923        3.652048        0.740565
     18       H        0.665951        3.639853        2.329859
     19       H        0.697116        3.712557        2.193981
     20       H        0.664651        3.657112        2.311186
     21       H        0.699228        3.689679        2.209779
     22       H        2.307745        3.240561        0.707603
     23       H        2.114432        0.746425        3.519494
     24       H        2.239500        3.801060        0.737736
     25       H        2.311903        3.771943        0.707945
     26       H        1.716894        0.671030        4.366758
     27       H        2.233717        0.754197        3.779410
     28       H        1.840389        4.165826        0.762855
     29       H        2.678258        3.198872        0.842297
     30       H        3.492101        0.821018        2.348258
     31       H        2.030721        3.267656        1.364894
     32       H        1.234108        1.092957        4.438304
     33       H        1.133966        1.135108        3.947540
     34       H        1.121314        1.149527        3.896488

 **********************
 *                    *
 * JOB ENDED NORMALLY *
 *                    *
 **********************



 TOTAL JOB TIME:            14.33 SECONDS

 == MOPAC DONE ==
