 *******************************************************************************
 **                                                                           **
 **                              MOPAC v23.1.2                                **
 **                                                                           **
 *******************************************************************************
 **          Digital Object Identifier (DOI): 10.5281/zenodo.6511958          **
 **    Visit the DOI location for information on how to cite this program.    **
 *******************************************************************************

                              PM3 CALCULATION RESULTS

 *******************************************************************************
 *  CALCULATION DONE: (MAX THREADS = 1)              Tue Jun  3 16:28:09 2025  *
 *  PM3        - The PM3 Hamiltonian to be used
 *  PRECISE    - TIGHTER CRITERIA TO BE USED
 *  NOSYM      - POINT-GROUP SYMMETRY SET TO C1
 *  THREADS=1  - MULTI-THREADING NOT USED
 *  T=         - A TIME OF 172800.0 SECONDS REQUESTED
 *  DUMP=N     - RESTART FILE WRITTEN EVERY 7200.0 SECONDS REQUESTED
 *******************************************************************************
pm3  precise nosym THREADS=1
 InChI=1S/C7H10/c1-7-5-3-2-4-6-7/h2-5,7H,6H2,1H3

   ATOM   CHEMICAL          X               Y               Z
  NUMBER   SYMBOL      (ANGSTROMS)     (ANGSTROMS)     (ANGSTROMS)

     1       C          0.59020000  *   0.03190000  *   0.55140000  *
     2       C          0.12610000  *  -1.16260000  *  -0.31160000  *
     3       C          2.10530000  *   0.22470000  *   0.44750000  *
     4       C         -0.14140000  *   1.29600000  *   0.15570000  *
     5       C         -1.37540000  *  -1.19530000  *  -0.43020000  *
     6       C         -1.40980000  *   1.24150000  *  -0.26590000  *
     7       C         -2.07850000  *  -0.05840000  *  -0.46460000  *
     8       H          0.33920000  *  -0.18660000  *   1.61310000  *
     9       H          0.48190000  *  -2.11510000  *   0.13670000  *
    10       H          0.55120000  *  -1.07890000  *  -1.33580000  *
    11       H          2.43380000  *   1.04320000  *   1.12320000  *
    12       H          2.62980000  *  -0.70660000  *   0.75020000  *
    13       H          2.39690000  *   0.47990000  *  -0.59420000  *
    14       H          0.32970000  *   2.26210000  *   0.29300000  *
    15       H         -1.87940000  *  -2.14350000  *  -0.56890000  *
    16       H         -1.95260000  *   2.15650000  *  -0.46530000  *
    17       H         -3.14710000  *  -0.08870000  *  -0.63430000  *



          CARTESIAN COORDINATES 

    NO.       ATOM           X           Y           Z

     1         C          0.5902      0.0319      0.5514
     2         C          0.1261     -1.1626     -0.3116
     3         C          2.1053      0.2247      0.4475
     4         C         -0.1414      1.2960      0.1557
     5         C         -1.3754     -1.1953     -0.4302
     6         C         -1.4098      1.2415     -0.2659
     7         C         -2.0785     -0.0584     -0.4646
     8         H          0.3392     -0.1866      1.6131
     9         H          0.4819     -2.1151      0.1367
    10         H          0.5512     -1.0789     -1.3358
    11         H          2.4338      1.0432      1.1232
    12         H          2.6298     -0.7066      0.7502
    13         H          2.3969      0.4799     -0.5942
    14         H          0.3297      2.2621      0.2930
    15         H         -1.8794     -2.1435     -0.5689
    16         H         -1.9526      2.1565     -0.4653
    17         H         -3.1471     -0.0887     -0.6343

  H: (PM3): J. J. P. STEWART, J. COMP. CHEM. 10, 209 (1989).
  C: (PM3): J. J. P. STEWART, J. COMP. CHEM. 10, 209 (1989).

           Empirical Formula: C7 H10  =    17 atoms



      MOLECULAR POINT GROUP   :   C1  


      RHF CALCULATION, NO. OF DOUBLY OCCUPIED LEVELS = 19


          Geometry optimization using EF

          DIAGONAL MATRIX USED AS START HESSIAN

 CYCLE:     1 TIME:   0.008 TIME LEFT:  2.00D  GRAD.:    61.364 HEAT:  17.24783
 CYCLE:     2 TIME:   0.008 TIME LEFT:  2.00D  GRAD.:    29.113 HEAT:  16.11014
 CYCLE:     3 TIME:   0.008 TIME LEFT:  2.00D  GRAD.:    23.539 HEAT:  15.77119
 CYCLE:     4 TIME:   0.008 TIME LEFT:  2.00D  GRAD.:    26.136 HEAT:  15.66048
 CYCLE:     5 TIME:   0.004 TIME LEFT:  2.00D  GRAD.:    15.084 HEAT:  15.46125
 CYCLE:     6 TIME:   0.008 TIME LEFT:  2.00D  GRAD.:    24.161 HEAT:  15.42780
 CYCLE:     7 TIME:   0.004 TIME LEFT:  2.00D  GRAD.:    21.354 HEAT:  15.31286
 CYCLE:     8 TIME:   0.008 TIME LEFT:  2.00D  GRAD.:    12.172 HEAT:  15.21120
 CYCLE:     9 TIME:   0.004 TIME LEFT:  2.00D  GRAD.:    17.635 HEAT:  15.21030
 CYCLE:    10 TIME:   0.008 TIME LEFT:  2.00D  GRAD.:    16.364 HEAT:  15.19230
 CYCLE:    11 TIME:   0.004 TIME LEFT:  2.00D  GRAD.:     7.057 HEAT:  15.13882
 CYCLE:    12 TIME:   0.008 TIME LEFT:  2.00D  GRAD.:     3.163 HEAT:  15.12552
 CYCLE:    13 TIME:   0.008 TIME LEFT:  2.00D  GRAD.:     4.018 HEAT:  15.11915
 CYCLE:    14 TIME:   0.004 TIME LEFT:  2.00D  GRAD.:     6.871 HEAT:  15.11441
 CYCLE:    15 TIME:   0.008 TIME LEFT:  2.00D  GRAD.:     8.004 HEAT:  15.09738
 CYCLE:    16 TIME:   0.004 TIME LEFT:  2.00D  GRAD.:     5.999 HEAT:  15.07804
 CYCLE:    17 TIME:   0.008 TIME LEFT:  2.00D  GRAD.:     6.703 HEAT:  15.07235
 CYCLE:    18 TIME:   0.004 TIME LEFT:  2.00D  GRAD.:     4.340 HEAT:  15.05905
 CYCLE:    19 TIME:   0.008 TIME LEFT:  2.00D  GRAD.:     2.961 HEAT:  15.04892
 CYCLE:    20 TIME:   0.004 TIME LEFT:  2.00D  GRAD.:     2.990 HEAT:  15.03861
 CYCLE:    21 TIME:   0.004 TIME LEFT:  2.00D  GRAD.:     2.838 HEAT:  15.02663
 CYCLE:    22 TIME:   0.008 TIME LEFT:  2.00D  GRAD.:     3.012 HEAT:  15.01615
 CYCLE:    23 TIME:   0.004 TIME LEFT:  2.00D  GRAD.:     3.239 HEAT:  15.00663
 CYCLE:    24 TIME:   0.008 TIME LEFT:  2.00D  GRAD.:     3.104 HEAT:  14.99187
 CYCLE:    25 TIME:   0.004 TIME LEFT:  2.00D  GRAD.:     3.634 HEAT:  14.97100
 CYCLE:    26 TIME:   0.008 TIME LEFT:  2.00D  GRAD.:     2.711 HEAT:  14.95818
 CYCLE:    27 TIME:   0.004 TIME LEFT:  2.00D  GRAD.:     2.194 HEAT:  14.94680
 CYCLE:    28 TIME:   0.004 TIME LEFT:  2.00D  GRAD.:     2.512 HEAT:  14.93227
 CYCLE:    29 TIME:   0.008 TIME LEFT:  2.00D  GRAD.:     2.062 HEAT:  14.92574
 CYCLE:    30 TIME:   0.004 TIME LEFT:  2.00D  GRAD.:     1.338 HEAT:  14.91885
 CYCLE:    31 TIME:   0.008 TIME LEFT:  2.00D  GRAD.:     1.243 HEAT:  14.91502
 CYCLE:    32 TIME:   0.004 TIME LEFT:  2.00D  GRAD.:     1.202 HEAT:  14.91179
 CYCLE:    33 TIME:   0.008 TIME LEFT:  2.00D  GRAD.:     0.871 HEAT:  14.90918
 CYCLE:    34 TIME:   0.004 TIME LEFT:  2.00D  GRAD.:     0.739 HEAT:  14.90781
 CYCLE:    35 TIME:   0.004 TIME LEFT:  2.00D  GRAD.:     0.743 HEAT:  14.90669
 CYCLE:    36 TIME:   0.008 TIME LEFT:  2.00D  GRAD.:     0.756 HEAT:  14.90563
 CYCLE:    37 TIME:   0.004 TIME LEFT:  2.00D  GRAD.:     0.562 HEAT:  14.90466
 CYCLE:    38 TIME:   0.004 TIME LEFT:  2.00D  GRAD.:     0.456 HEAT:  14.90407
 CYCLE:    39 TIME:   0.004 TIME LEFT:  2.00D  GRAD.:     0.462 HEAT:  14.90367
 CYCLE:    40 TIME:   0.008 TIME LEFT:  2.00D  GRAD.:     0.443 HEAT:  14.90323
 CYCLE:    41 TIME:   0.004 TIME LEFT:  2.00D  GRAD.:     0.315 HEAT:  14.90291
 CYCLE:    42 TIME:   0.004 TIME LEFT:  2.00D  GRAD.:     0.172 HEAT:  14.90276
 CYCLE:    43 TIME:   0.004 TIME LEFT:  2.00D  GRAD.:     0.132 HEAT:  14.90271
 CYCLE:    44 TIME:   0.008 TIME LEFT:  2.00D  GRAD.:     0.165 HEAT:  14.90265
 CYCLE:    45 TIME:   0.004 TIME LEFT:  2.00D  GRAD.:     0.111 HEAT:  14.90261
 CYCLE:    46 TIME:   0.004 TIME LEFT:  2.00D  GRAD.:     0.109 HEAT:  14.90258
 CYCLE:    47 TIME:   0.008 TIME LEFT:  2.00D  GRAD.:     0.100 HEAT:  14.90255
 CYCLE:    48 TIME:   0.004 TIME LEFT:  2.00D  GRAD.:     0.083 HEAT:  14.90252
 CYCLE:    49 TIME:   0.004 TIME LEFT:  2.00D  GRAD.:     0.093 HEAT:  14.90248
 CYCLE:    50 TIME:   0.004 TIME LEFT:  2.00D  GRAD.:     0.129 HEAT:  14.90245
 CYCLE:    51 TIME:   0.004 TIME LEFT:  2.00D  GRAD.:     0.120 HEAT:  14.90242
 CYCLE:    52 TIME:   0.004 TIME LEFT:  2.00D  GRAD.:     0.171 HEAT:  14.90230
 CYCLE:    53 TIME:   0.008 TIME LEFT:  2.00D  GRAD.:     0.097 HEAT:  14.90226
 CYCLE:    54 TIME:   0.008 TIME LEFT:  2.00D  GRAD.:     0.071 HEAT:  14.90224
 CYCLE:    55 TIME:   0.004 TIME LEFT:  2.00D  GRAD.:     0.044 HEAT:  14.90223

     GRADIENT =  0.04373 IS LESS THAN CUTOFF =  0.05000



 -------------------------------------------------------------------------------
 pm3  precise nosym THREADS=1
 InChI=1S/C7H10/c1-7-5-3-2-4-6-7/h2-5,7H,6H2,1H3



     GEOMETRY OPTIMISED USING EIGENVECTOR FOLLOWING (EF).     
     SCF FIELD WAS ACHIEVED                                   


                              PM3 CALCULATION
                                                       MOPAC v23.1.2 MacOS
                                                       Tue Jun  3 16:28:10 2025




          FINAL HEAT OF FORMATION =         14.90223 KCAL/MOL =      62.35093 KJ/MOL


          COSMO AREA              =        142.45 SQUARE ANGSTROMS
          COSMO VOLUME            =        136.56 CUBIC ANGSTROMS

          GRADIENT NORM           =          0.04373          =       0.01061 PER ATOM
          IONIZATION POTENTIAL    =          8.950908 EV
          HOMO LUMO ENERGIES (EV) =         -8.951  0.299
          NO. OF FILLED LEVELS    =         19
          MOLECULAR WEIGHT        =         94.1560         POINT GROUP:  C1  

          MOLECULAR DIMENSIONS (Angstroms)

            Atom       Atom       Distance
            H    17    H    12     5.97224
            H    15    H    14     4.63926
            H    13    H     8     2.79755


          SCF CALCULATIONS        =         64

          WALL-CLOCK TIME         =      0.320 SECONDS
          COMPUTATION TIME        =      0.176 SECONDS




   ATOM   CHEMICAL          X               Y               Z
  NUMBER   SYMBOL      (ANGSTROMS)     (ANGSTROMS)     (ANGSTROMS)

     1       C          0.59228020  *   0.03463722  *   0.57274372  *
     2       C          0.10906410  *  -1.18390362  *  -0.21917324  *
     3       C          2.08478492  *   0.23812850  *   0.36494702  *
     4       C         -0.16671915  *   1.27776346  *   0.23690212  *
     5       C         -1.35261772  *  -1.17377128  *  -0.49167213  *
     6       C         -1.41325660  *   1.23543326  *  -0.24959481  *
     7       C         -2.06014088  *  -0.03713055  *  -0.51410225  *
     8       H          0.40568857  *  -0.15109276  *   1.66078526  *
     9       H          0.38545696  *  -2.10779729  *   0.32572644  *
    10       H          0.63178831  *  -1.24588491  *  -1.19697655  *
    11       H          2.46774831  *   1.05934385  *   0.98481786  *
    12       H          2.64710096  *  -0.66664766  *   0.62978452  *
    13       H          2.32056017  *   0.47874505  *  -0.68028467  *
    14       H          0.33496731  *   2.23007820  *   0.44109522  *
    15       H         -1.81980818  *  -2.13985976  *  -0.70927459  *
    16       H         -1.97890508  *   2.14807054  *  -0.46182754  *
    17       H         -3.13143658  *  -0.02876463  *  -0.73742183  *

                             CARTESIAN COORDINATES

   1    C        0.592280198     0.034637223     0.572743718
   2    C        0.109064099    -1.183903618    -0.219173244
   3    C        2.084784925     0.238128495     0.364947017
   4    C       -0.166719152     1.277763461     0.236902123
   5    C       -1.352617715    -1.173771282    -0.491672133
   6    C       -1.413256598     1.235433258    -0.249594810
   7    C       -2.060140883    -0.037130554    -0.514102253
   8    H        0.405688566    -0.151092755     1.660785263
   9    H        0.385456963    -2.107797291     0.325726438
  10    H        0.631788308    -1.245884911    -1.196976549
  11    H        2.467748308     1.059343848     0.984817862
  12    H        2.647100957    -0.666647656     0.629784517
  13    H        2.320560173     0.478745049    -0.680284670
  14    H        0.334967306     2.230078199     0.441095224
  15    H       -1.819808177    -2.139859765    -0.709274589
  16    H       -1.978905081     2.148070543    -0.461827535
  17    H       -3.131436579    -0.028764634    -0.737421826


           Empirical Formula: C7 H10  =    17 atoms



      MOLECULAR POINT GROUP   :   C1  


                  EIGENVALUES  
 -40.31675 -32.57644 -30.01813 -25.63404 -21.64909 -20.72790 -17.65328 -16.81827
 -16.03006 -15.08299 -14.56239 -13.96696 -13.31290 -13.19988 -12.55930 -12.07499
 -11.61595 -11.35122  -8.95091   0.29867   2.09582   3.34601   3.39274   3.52181
   3.73880   3.77137   3.90590   4.04624   4.24623   4.33312   4.42673   4.72388
   4.88953   4.92102   5.10261   5.46708   6.01509   6.21699


              NET ATOMIC CHARGES AND DIPOLE CONTRIBUTIONS

  ATOM NO.   TYPE          CHARGE      No. of ELECS.   s-Pop       p-Pop       
    1          C          -0.040206        4.0402     1.16175     2.87845
    2          C          -0.060610        4.0606     1.14936     2.91125
    3          C          -0.107148        4.1071     1.14158     2.96557
    4          C          -0.134595        4.1346     1.19958     2.93502
    5          C          -0.134195        4.1342     1.19626     2.93793
    6          C          -0.113822        4.1138     1.17893     2.93489
    7          C          -0.115284        4.1153     1.17897     2.93631
    8          H           0.066914        0.9331     0.93309
    9          H           0.054395        0.9456     0.94561
   10          H           0.059536        0.9405     0.94046
   11          H           0.039683        0.9603     0.96032
   12          H           0.038916        0.9611     0.96108
   13          H           0.042645        0.9574     0.95736
   14          H           0.101884        0.8981     0.89812
   15          H           0.098487        0.9015     0.90151
   16          H           0.101607        0.8984     0.89839
   17          H           0.101793        0.8982     0.89821
 DIPOLE           X         Y         Z       TOTAL
 POINT-CHG.     0.332    -0.176     0.087     0.386
 HYBRID         0.011     0.001    -0.022     0.025
 SUM            0.344    -0.175     0.065     0.391


          ATOMIC ORBITAL ELECTRON POPULATIONS

     Atom    s        px        py        pz   
    1  C   1.16175   0.94554   0.93772   0.99518
    2  C   1.14936   0.94312   0.97014   0.99799
    3  C   1.14158   0.94603   1.00773   1.01181
    4  C   1.19958   0.96213   0.97765   0.99524
    5  C   1.19626   0.96216   0.97622   0.99955
    6  C   1.17893   0.95943   0.96630   1.00916
    7  C   1.17897   0.98251   0.93865   1.01515
    8  H   0.93309
    9  H   0.94561
   10  H   0.94046
   11  H   0.96032
   12  H   0.96108
   13  H   0.95736
   14  H   0.89812
   15  H   0.90151
   16  H   0.89839
   17  H   0.89821
 *******************************************************************************
 **                                                                           **
 **                              MOPAC v23.1.2                                **
 **                                                                           **
 *******************************************************************************
 **          Digital Object Identifier (DOI): 10.5281/zenodo.6511958          **
 **    Visit the DOI location for information on how to cite this program.    **
 *******************************************************************************

                              PM3 CALCULATION RESULTS

 *******************************************************************************
 *  CALCULATION DONE: (MAX THREADS = 1)              Tue Jun  3 16:28:10 2025  *
 *  PM3        - The PM3 Hamiltonian to be used
 *  OLDGEO     - PREVIOUS GEOMETRY TO BE USED
 *  PRECISE    - TIGHTER CRITERIA TO BE USED
 *  NOSYM      - POINT-GROUP SYMMETRY SET TO C1
 *  THREADS=1  - MULTI-THREADING NOT USED
 *  T=         - A TIME OF 172800.0 SECONDS REQUESTED
 *  DUMP=N     - RESTART FILE WRITTEN EVERY 7200.0 SECONDS REQUESTED
 *  THERMO     - THERMODYNAMIC QUANTITIES TO BE CALCULATED
 *******************************************************************************
oldgeo thermo nosym precise THREADS=1  pm3
 InChI=1S/C7H10/c1-7-5-3-2-4-6-7/h2-5,7H,6H2,1H3

   ATOM   CHEMICAL          X               Y               Z
  NUMBER   SYMBOL      (ANGSTROMS)     (ANGSTROMS)     (ANGSTROMS)

     1       C          0.59228020  *   0.03463722  *   0.57274372  *
     2       C          0.10906410  *  -1.18390362  *  -0.21917324  *
     3       C          2.08478492  *   0.23812850  *   0.36494702  *
     4       C         -0.16671915  *   1.27776346  *   0.23690212  *
     5       C         -1.35261772  *  -1.17377128  *  -0.49167213  *
     6       C         -1.41325660  *   1.23543326  *  -0.24959481  *
     7       C         -2.06014088  *  -0.03713055  *  -0.51410225  *
     8       H          0.40568857  *  -0.15109276  *   1.66078526  *
     9       H          0.38545696  *  -2.10779729  *   0.32572644  *
    10       H          0.63178831  *  -1.24588491  *  -1.19697655  *
    11       H          2.46774831  *   1.05934385  *   0.98481786  *
    12       H          2.64710096  *  -0.66664766  *   0.62978452  *
    13       H          2.32056017  *   0.47874505  *  -0.68028467  *
    14       H          0.33496731  *   2.23007820  *   0.44109522  *
    15       H         -1.81980818  *  -2.13985976  *  -0.70927459  *
    16       H         -1.97890508  *   2.14807054  *  -0.46182754  *
    17       H         -3.13143658  *  -0.02876463  *  -0.73742183  *



          CARTESIAN COORDINATES 

    NO.       ATOM           X           Y           Z

     1         C          0.5923      0.0346      0.5727
     2         C          0.1091     -1.1839     -0.2192
     3         C          2.0848      0.2381      0.3649
     4         C         -0.1667      1.2778      0.2369
     5         C         -1.3526     -1.1738     -0.4917
     6         C         -1.4133      1.2354     -0.2496
     7         C         -2.0601     -0.0371     -0.5141
     8         H          0.4057     -0.1511      1.6608
     9         H          0.3855     -2.1078      0.3257
    10         H          0.6318     -1.2459     -1.1970
    11         H          2.4677      1.0593      0.9848
    12         H          2.6471     -0.6666      0.6298
    13         H          2.3206      0.4787     -0.6803
    14         H          0.3350      2.2301      0.4411
    15         H         -1.8198     -2.1399     -0.7093
    16         H         -1.9789      2.1481     -0.4618
    17         H         -3.1314     -0.0288     -0.7374

  H: (PM3): J. J. P. STEWART, J. COMP. CHEM. 10, 209 (1989).
  C: (PM3): J. J. P. STEWART, J. COMP. CHEM. 10, 209 (1989).

           Empirical Formula: C7 H10  =    17 atoms



      MOLECULAR POINT GROUP   :   C1  


      RHF CALCULATION, NO. OF DOUBLY OCCUPIED LEVELS = 19



          HEAT OF FORMATION =      14.902231 KCALS/MOLE


          CARTESIAN COORDINATE DERIVATIVES

   NUMBER  ATOM         X            Y            Z

     1       C     -0.002045     0.002607     0.001182
     2       C      0.006009     0.004065    -0.000712
     3       C     -0.004817     0.006359    -0.007802
     4       C      0.004463     0.001670     0.001892
     5       C      0.002402     0.007998     0.009662
     6       C     -0.003774     0.007069     0.004017
     7       C     -0.009144    -0.000918    -0.002770
     8       H     -0.000262     0.001905    -0.000131
     9       H     -0.002834    -0.006606    -0.006700
    10       H     -0.002432    -0.010691    -0.002482
    11       H     -0.002213    -0.000325    -0.004630
    12       H      0.001633    -0.015938     0.002551
    13       H      0.002760    -0.013472     0.000958
    14       H      0.004570     0.015204     0.009799
    15       H     -0.004684     0.002056    -0.005007
    16       H      0.005858    -0.009821    -0.001694
    17       H      0.004510     0.008836     0.001867



          GRADIENT NORM =   0.04351

          MOLECULAR WEIGHT =   94.16



          ROTATIONAL CONSTANTS IN CM(-1)

          A =    0.16254232   B =    0.08270474   C =    0.05789101



           PRINCIPAL MOMENTS OF INERTIA IN UNITS OF 10**(-40)*GRAM-CM**2

          A =      172.2182   B =      338.4661   C =      483.5423


          ORIENTATION OF MOLECULE IN FORCE CALCULATION

    NO.       ATOM         X         Y         Z

     1          C      -0.5740    0.5871    0.6462
     2          C       0.9575    0.5871    0.6462
     3          C      -1.0994    2.0141    0.6462
     4          C      -1.1500   -0.1926   -0.4915
     5          C       1.5515   -0.6819    0.1486
     6          C      -0.4715   -1.1818   -1.0860
     7          C       0.8819   -1.5031   -0.6702
     8          H      -0.9300    0.0760    1.5763
     9          H       1.3236    0.7999    1.6697
    10          H       1.3475    1.4110    0.0119
    11          H      -2.1942    2.0384    0.7249
    12          H      -0.6939    2.5839    1.4922
    13          H      -0.8248    2.5483   -0.2731
    14          H      -2.1716    0.0620   -0.7945
    15          H       2.5801   -0.8979    0.4556
    16          H      -0.9094   -1.7736   -1.8959
    17          H       1.3288   -2.4254   -1.0540


    FIRST DERIVATIVES WILL BE USED IN THE CALCULATION OF SECOND DERIVATIVES

          ESTIMATED TIME TO COMPLETE CALCULATION =        1.59 SECONDS

    FOR POINT-GROUP C1   THERE ARE   1 UNIQUE SYMMETRY FUNCTIONS.

 STEP:   1 TIME =     0.01 SECS, INTEGRAL =      0.01 TIME LEFT: 172799.98
 STEP:   2 TIME =     0.01 SECS, INTEGRAL =      0.02 TIME LEFT: 172799.97
 STEP:   3 TIME =     0.01 SECS, INTEGRAL =      0.04 TIME LEFT: 172799.96
 STEP:   4 TIME =     0.01 SECS, INTEGRAL =      0.05 TIME LEFT: 172799.95
 STEP:   5 TIME =     0.01 SECS, INTEGRAL =      0.06 TIME LEFT: 172799.93
 STEP:   6 TIME =     0.01 SECS, INTEGRAL =      0.07 TIME LEFT: 172799.92
 STEP:   7 TIME =     0.02 SECS, INTEGRAL =      0.09 TIME LEFT: 172799.91
 STEP:   8 TIME =     0.01 SECS, INTEGRAL =      0.10 TIME LEFT: 172799.89
 STEP:   9 TIME =     0.01 SECS, INTEGRAL =      0.11 TIME LEFT: 172799.88
 STEP:  10 TIME =     0.02 SECS, INTEGRAL =      0.12 TIME LEFT: 172799.87
 STEP:  11 TIME =     0.01 SECS, INTEGRAL =      0.14 TIME LEFT: 172799.86
 STEP:  12 TIME =     0.02 SECS, INTEGRAL =      0.15 TIME LEFT: 172799.84
 STEP:  13 TIME =     0.01 SECS, INTEGRAL =      0.16 TIME LEFT: 172799.83
 STEP:  14 TIME =     0.01 SECS, INTEGRAL =      0.18 TIME LEFT: 172799.82
 STEP:  15 TIME =     0.02 SECS, INTEGRAL =      0.19 TIME LEFT: 172799.80
 STEP:  16 TIME =     0.02 SECS, INTEGRAL =      0.21 TIME LEFT: 172799.79
 STEP:  17 TIME =     0.02 SECS, INTEGRAL =      0.22 TIME LEFT: 172799.77
 STEP:  18 TIME =     0.01 SECS, INTEGRAL =      0.23 TIME LEFT: 172799.76
 STEP:  19 TIME =     0.01 SECS, INTEGRAL =      0.25 TIME LEFT: 172799.75
 STEP:  20 TIME =     0.01 SECS, INTEGRAL =      0.26 TIME LEFT: 172799.73
 STEP:  21 TIME =     0.02 SECS, INTEGRAL =      0.27 TIME LEFT: 172799.72
 STEP:  22 TIME =     0.02 SECS, INTEGRAL =      0.29 TIME LEFT: 172799.70
 STEP:  23 TIME =     0.01 SECS, INTEGRAL =      0.30 TIME LEFT: 172799.69
 STEP:  24 TIME =     0.01 SECS, INTEGRAL =      0.31 TIME LEFT: 172799.68
 STEP:  25 TIME =     0.01 SECS, INTEGRAL =      0.32 TIME LEFT: 172799.67
 STEP:  26 TIME =     0.01 SECS, INTEGRAL =      0.34 TIME LEFT: 172799.66
 STEP:  27 TIME =     0.01 SECS, INTEGRAL =      0.35 TIME LEFT: 172799.64
 STEP:  28 TIME =     0.01 SECS, INTEGRAL =      0.36 TIME LEFT: 172799.63
 STEP:  29 TIME =     0.01 SECS, INTEGRAL =      0.37 TIME LEFT: 172799.62
 STEP:  30 TIME =     0.02 SECS, INTEGRAL =      0.39 TIME LEFT: 172799.61
 STEP:  31 TIME =     0.02 SECS, INTEGRAL =      0.40 TIME LEFT: 172799.59
 STEP:  32 TIME =     0.02 SECS, INTEGRAL =      0.42 TIME LEFT: 172799.57
 STEP:  33 TIME =     0.01 SECS, INTEGRAL =      0.43 TIME LEFT: 172799.56
 STEP:  34 TIME =     0.02 SECS, INTEGRAL =      0.45 TIME LEFT: 172799.55
 STEP:  35 TIME =     0.01 SECS, INTEGRAL =      0.46 TIME LEFT: 172799.54
 STEP:  36 TIME =     0.02 SECS, INTEGRAL =      0.47 TIME LEFT: 172799.52
 STEP:  37 TIME =     0.01 SECS, INTEGRAL =      0.48 TIME LEFT: 172799.51
 STEP:  38 TIME =     0.01 SECS, INTEGRAL =      0.50 TIME LEFT: 172799.50
 STEP:  39 TIME =     0.01 SECS, INTEGRAL =      0.51 TIME LEFT: 172799.48
 STEP:  40 TIME =     0.01 SECS, INTEGRAL =      0.52 TIME LEFT: 172799.47
 STEP:  41 TIME =     0.02 SECS, INTEGRAL =      0.54 TIME LEFT: 172799.46
 STEP:  42 TIME =     0.02 SECS, INTEGRAL =      0.55 TIME LEFT: 172799.44
 STEP:  43 TIME =     0.01 SECS, INTEGRAL =      0.56 TIME LEFT: 172799.43
 STEP:  44 TIME =     0.02 SECS, INTEGRAL =      0.58 TIME LEFT: 172799.41
 STEP:  45 TIME =     0.01 SECS, INTEGRAL =      0.59 TIME LEFT: 172799.40
 STEP:  46 TIME =     0.01 SECS, INTEGRAL =      0.60 TIME LEFT: 172799.39
 STEP:  47 TIME =     0.02 SECS, INTEGRAL =      0.62 TIME LEFT: 172799.38
 STEP:  48 TIME =     0.02 SECS, INTEGRAL =      0.63 TIME LEFT: 172799.36
 STEP:  49 TIME =     0.01 SECS, INTEGRAL =      0.64 TIME LEFT: 172799.35
 STEP:  50 TIME =     0.01 SECS, INTEGRAL =      0.66 TIME LEFT: 172799.34
 STEP:  51 TIME =     0.01 SECS, INTEGRAL =      0.67 TIME LEFT: 172799.32

(To convert to Hartree/Bohr^2, multiply by (10^(-21) x N x a0^2)/(4.184 x 627.51) =  0.0642)


           FORCE MATRIX IN MILLIDYNES/ANGSTROM


                  C  1       C  2       C  3       C  4       C  5       C  6
 ------------------------------------------------------------------------------
     C    1  14.651367
     C    2   3.839703  14.643811
     C    3   4.169538   0.653242  14.378287
     C    4   4.694868   0.637457   0.704801  18.061405
     C    5   0.638652   4.966563   0.051408   0.152108  18.008479
     C    6   0.835345   0.118677   0.051446  10.310696   1.140106  18.390618
     C    7   0.119165   0.864851   0.010437   1.133825  10.293013   5.620317
     H    8   4.146354   0.424687   0.425019   0.379605   0.012280   0.034902
     H    9   0.435309   4.467400   0.017304   0.047905   0.436816   0.010157
     H   10   0.451114   4.361827   0.056045   0.011867   0.404828   0.019686
     H   11   0.454330   0.048868   4.739075   0.030915   0.009099   0.003243
     H   12   0.452817   0.028937   4.741113   0.052153   0.002096   0.009227
     H   13   0.466078   0.024435   4.728869   0.016426   0.002044   0.003152
     H   14   0.434209   0.040951   0.040859   4.829040   0.014010   0.443255
     H   15   0.043542   0.426954   0.008627   0.015764   4.850530   0.126571
     H   16   0.122001   0.006486   0.013603   0.445104   0.047283   4.864522
     H   17   0.005239   0.122195   0.000754   0.047360   0.446164   0.434513


                  C  7       H  8       H  9       H 10       H 11       H 12
 ------------------------------------------------------------------------------
     C    7  18.379184
     H    8   0.017634   4.595585
     H    9   0.047539   0.035201   5.059474
     H   10   0.034818   0.043745   0.572758   4.969284
     H   11   0.000603   0.031096   0.000897   0.002878   5.477719
     H   12   0.001898   0.026792   0.008268   0.005697   0.569167   5.476804
     H   13   0.001603   0.046506   0.001193   0.027190   0.573825   0.571694
     H   14   0.126813   0.015192   0.007376   0.004712   0.025609   0.002265
     H   15   0.445360   0.004155   0.035521   0.016793   0.001780   0.000577
     H   16   0.434622   0.016299   0.001006   0.000797   0.000493   0.002269
     H   17   4.869014   0.000807   0.013089   0.017236   0.000246   0.000208


                  H 13       H 14       H 15       H 16       H 17
 ------------------------------------------------------------------
     H   13   5.467793
     H   14   0.004024   5.210751
     H   15   0.000450   0.009379   5.225234
     H   16   0.000553   0.066830   0.007861   5.231860
     H   17   0.000272   0.007726   0.065649   0.030602   5.237295


          HEAT OF FORMATION =      14.902231 KCALS/MOLE

          ZERO POINT ENERGY      93.250 KCAL/MOL


           NORMAL COORDINATE ANALYSIS (Total motion = 1 Angstrom)


   Root No.       1         2         3         4         5         6         7         8

                 1 A       2 A       3 A       4 A       5 A       6 A       7 A       8 A   

                  92.6     181.6     256.9     351.9     415.8     481.6     526.3     578.5
  
           1   -0.0085   -0.0011    0.0053   -0.0307   -0.0133    0.0387   -0.0087   -0.0148
           2   -0.0004   -0.0042   -0.0051   -0.0104   -0.0387   -0.0246   -0.0234   -0.0055
           3    0.0133    0.0054    0.0227   -0.0154    0.0278   -0.0337    0.0339   -0.0420
           4   -0.0078   -0.0014    0.0054   -0.0333   -0.0106    0.0363   -0.0127    0.0065
           5   -0.0228   -0.0025    0.0056    0.0059    0.0082    0.0341   -0.0057   -0.0532
           6    0.0481    0.0038   -0.0219   -0.0163   -0.0019    0.0207   -0.0027   -0.0247
           7    0.0178   -0.0031   -0.0025    0.0529    0.0318    0.0228    0.0081   -0.0116
           8    0.0106   -0.0047   -0.0070    0.0203   -0.0254   -0.0462   -0.0218   -0.0081
           9   -0.0459   -0.0064   -0.0203    0.0263   -0.0154   -0.0092   -0.0128   -0.0058
          10   -0.0126    0.0016   -0.0099   -0.0205   -0.0142   -0.0243    0.0132   -0.0811
          11   -0.0202    0.0027   -0.0176   -0.0293   -0.0021   -0.0044    0.0381    0.0239
          12    0.0299   -0.0011    0.0378   -0.0089    0.0020   -0.0196   -0.0172   -0.0105
          13    0.0049   -0.0038   -0.0109   -0.0077    0.0117   -0.0113    0.0004    0.0906
          14    0.0094   -0.0078   -0.0243    0.0106    0.0344    0.0187   -0.0032   -0.0282
          15   -0.0156    0.0141    0.0327    0.0175   -0.0270    0.0320    0.0104    0.0137
          16   -0.0068    0.0074    0.0109    0.0083    0.0053   -0.0382   -0.0128    0.0030
          17   -0.0018    0.0140    0.0350   -0.0175    0.0265   -0.0134   -0.0079    0.0536
          18    0.0069   -0.0131   -0.0251   -0.0015   -0.0194   -0.0122    0.0327    0.0456
          19    0.0108    0.0011    0.0037    0.0193   -0.0215   -0.0281    0.0075    0.0143
          20    0.0237    0.0025    0.0131    0.0142   -0.0091    0.0525    0.0152    0.0284
          21   -0.0342   -0.0003   -0.0169   -0.0074    0.0450    0.0088   -0.0147    0.0266
          22   -0.0371    0.0024    0.0289   -0.0415   -0.0077    0.0576   -0.0173   -0.0113
          23    0.0368   -0.0016    0.0193   -0.0104   -0.0322   -0.0625   -0.0364   -0.0113
          24    0.0226    0.0077    0.0441   -0.0194    0.0308   -0.0457    0.0210   -0.0426
          25   -0.0303    0.0007    0.0399   -0.0356    0.0028   -0.0044    0.0304   -0.0417
          26   -0.0914    0.0085    0.0852    0.0569   -0.0041    0.0316    0.0818   -0.0366
          27    0.0707    0.0008   -0.0517   -0.0263   -0.0040    0.0369   -0.0383   -0.0117
          28    0.0182   -0.0066   -0.0218   -0.0478   -0.0481    0.0632   -0.0619    0.0186
          29    0.0137   -0.0074   -0.0401   -0.0141    0.0355    0.0387   -0.0460   -0.0587
          30    0.1111   -0.0055   -0.0989   -0.0535    0.0096    0.0440   -0.0890   -0.0228
          31    0.0175    0.0164   -0.0065    0.0580    0.0317    0.0228    0.0067   -0.0116
          32    0.0349   -0.0010   -0.0115    0.0983    0.0243   -0.0641   -0.0021   -0.0195
          33   -0.0587    0.2596   -0.0730    0.0529   -0.0428   -0.0033   -0.0413    0.0090
          34    0.0198    0.2038   -0.0461    0.1171    0.0380    0.0184   -0.0022   -0.0067
          35    0.0353    0.0830    0.0086   -0.0351   -0.0143   -0.0537    0.0129   -0.0325
          36   -0.0636   -0.1646   -0.0103    0.0348   -0.0260   -0.0021   -0.0325    0.0079
          37    0.0378   -0.2295    0.0378    0.0719    0.0757    0.0124    0.0363   -0.0270
          38   -0.0300   -0.0996   -0.0197    0.0299   -0.0675   -0.0310   -0.0714    0.0219
          39   -0.0636   -0.1289   -0.0160    0.0374   -0.0282   -0.0036   -0.0348    0.0078
          40   -0.0275    0.0029   -0.0315   -0.0314    0.0030   -0.0402    0.0537   -0.0972
          41   -0.0461    0.0077   -0.0515   -0.0622    0.0326   -0.0048    0.1133   -0.0228
          42    0.0575   -0.0006    0.0813    0.0028   -0.0261    0.0348   -0.0913    0.0063
          43    0.0163   -0.0116   -0.0389   -0.0140    0.0307   -0.0301    0.0112    0.1027
          44    0.0212   -0.0191   -0.0666    0.0224    0.0645   -0.0411    0.0181   -0.0098
          45   -0.0445    0.0316    0.0952    0.0459   -0.0697    0.0533   -0.0121   -0.0165
          46   -0.0181    0.0155    0.0192    0.0185    0.0582   -0.0392   -0.0364    0.0377
          47   -0.0079    0.0284    0.0701   -0.0430    0.0897   -0.0703   -0.0312    0.0204
          48    0.0173   -0.0280   -0.0551    0.0113   -0.0939    0.0307    0.0626    0.0503
          49    0.0296   -0.0020   -0.0063    0.0451   -0.0552   -0.0112    0.0402   -0.0467
          50    0.0510    0.0003    0.0104    0.0318   -0.0556    0.0587    0.0649    0.0188
          51   -0.0782    0.0013   -0.0217   -0.0196    0.1181    0.0118   -0.0960   -0.0225


   Root No.       9        10        11        12        13        14        15        16

                 9 A      10 A      11 A      12 A      13 A      14 A      15 A      16 A   

                 745.9     795.6     819.9     917.2     937.2     963.0     965.8     987.3
  
           1   -0.0081    0.0015   -0.0123   -0.0148   -0.0119    0.0163    0.0039    0.0030
           2   -0.0068   -0.0005   -0.0027   -0.0049   -0.0019    0.0053   -0.0009    0.0035
           3    0.0113   -0.0098    0.0188    0.0194   -0.0051    0.0081    0.0003   -0.0093
           4   -0.0110   -0.0010    0.0186    0.0222    0.0412   -0.0087   -0.0074   -0.0079
           5    0.0021    0.0182   -0.0117    0.0182    0.0252   -0.0121   -0.0070   -0.0025
           6   -0.0128   -0.0255    0.0076   -0.0198    0.0544    0.0033    0.0043   -0.0083
           7    0.0029    0.0050   -0.0145   -0.0173   -0.0128    0.0293    0.0078   -0.0102
           8   -0.0106   -0.0120    0.0284    0.0135    0.0005    0.0162    0.0039    0.0001
           9   -0.0000   -0.0026    0.0061    0.0192   -0.0000    0.0242    0.0020    0.0113
          10    0.0086   -0.0220   -0.0035   -0.0097   -0.0377   -0.0350    0.0177    0.0177
          11    0.0226   -0.0069   -0.0277   -0.0008    0.0026   -0.0046    0.0207    0.0093
          12   -0.0065    0.0186   -0.0014   -0.0185   -0.0192   -0.0203   -0.0181    0.0025
          13    0.0035   -0.0145    0.0453    0.0062   -0.0164   -0.0170    0.0158   -0.0003
          14    0.0079    0.0022    0.0018   -0.0113   -0.0001    0.0064    0.0138   -0.0094
          15   -0.0192   -0.0045   -0.0078    0.0063   -0.0202    0.0010   -0.0220    0.0175
          16    0.0105    0.0015   -0.0257    0.0035    0.0127    0.0032   -0.0151   -0.0148
          17    0.0165   -0.0018   -0.0361   -0.0013    0.0054   -0.0031   -0.0223   -0.0189
          18    0.0073    0.0382   -0.0188   -0.0125    0.0298    0.0002    0.0183    0.0151
          19    0.0153    0.0166   -0.0069   -0.0066    0.0192    0.0129   -0.0097    0.0097
          20    0.0014   -0.0108    0.0410   -0.0095   -0.0283   -0.0009   -0.0052    0.0183
          21   -0.0200   -0.0141   -0.0063    0.0158   -0.0272   -0.0093    0.0174   -0.0227
          22   -0.0171    0.0499   -0.0260    0.0446   -0.0390    0.0596   -0.0563    0.0254
          23   -0.0301    0.0021    0.0403   -0.0526   -0.0399    0.0064   -0.0291   -0.0858
          24   -0.0049    0.0108    0.0346    0.0127   -0.0393    0.0245   -0.0382   -0.0498
          25   -0.0181   -0.0559    0.0504    0.0148    0.1188    0.0114    0.0154   -0.0776
          26   -0.0612   -0.0860    0.0124   -0.0669    0.1399   -0.0106    0.0038    0.0140
          27    0.0037    0.0187   -0.0104    0.0020    0.0017   -0.0035   -0.0073    0.0135
          28   -0.0204    0.0570   -0.0265    0.0545   -0.0007    0.0038   -0.0672    0.0568
          29    0.0482    0.0715   -0.0123    0.0589   -0.0301   -0.0300    0.0106   -0.0300
          30    0.0434    0.0832   -0.0204    0.0566   -0.0476   -0.0131   -0.0106   -0.0031
          31    0.0027    0.0058   -0.0145   -0.0171   -0.0099    0.0173    0.0049   -0.0095
          32    0.0072   -0.0067    0.0521    0.1152    0.0756   -0.1700   -0.0476    0.0658
          33   -0.0146    0.0023    0.0002   -0.0368    0.0000   -0.0377   -0.0071   -0.0232
          34    0.0045    0.0132   -0.0133   -0.0033    0.0278   -0.1217   -0.0270    0.0049
          35    0.0049   -0.0270    0.0394    0.0817   -0.0223    0.1951    0.0360    0.0369
          36   -0.0119    0.0040   -0.0014   -0.0349   -0.0034   -0.0291   -0.0044   -0.0222
          37    0.0213    0.0084   -0.0050    0.0647    0.0228   -0.0336   -0.0170    0.0468
          38   -0.0416   -0.0040    0.0182   -0.1090   -0.0173   -0.0498    0.0017   -0.0826
          39   -0.0136    0.0031    0.0029   -0.0312   -0.0007   -0.0339   -0.0068   -0.0222
          40   -0.0268    0.0492    0.0600   -0.0279   -0.0472   -0.0292   -0.0540   -0.0067
          41   -0.0462    0.1118    0.0924   -0.0501   -0.0528   -0.0150   -0.0980   -0.0150
          42    0.0544   -0.1220   -0.1141    0.0024   -0.0359   -0.0482    0.1234    0.0638
          43   -0.0677   -0.0598   -0.0089    0.0092   -0.0262   -0.0068   -0.0456    0.0366
          44   -0.0818   -0.0434   -0.1161   -0.0291   -0.0611    0.0505   -0.0763    0.0626
          45    0.1554    0.1150    0.0923   -0.0141   -0.0310   -0.0014    0.1197   -0.0549
          46   -0.0718    0.0564    0.0256    0.0159    0.0514    0.0631    0.0548    0.0063
          47   -0.0940    0.1141   -0.0154   -0.0520    0.0429   -0.0375    0.1054    0.0924
          48    0.1329   -0.0757   -0.0631    0.0167   -0.0191   -0.0083   -0.1128   -0.0772
          49   -0.0654    0.0281   -0.0540    0.0414   -0.0278    0.0252    0.0377   -0.0500
          50   -0.0997    0.0069   -0.0272    0.0582   -0.0758   -0.0252    0.0592   -0.0616
          51    0.1297   -0.0432    0.1014   -0.0928    0.0273    0.0632   -0.0819    0.1007


   Root No.      17        18        19        20        21        22        23        24

                17 A      18 A      19 A      20 A      21 A      22 A      23 A      24 A   

                1033.7    1054.6    1072.6    1082.5    1108.9    1140.6    1149.9    1161.1
  
           1    0.0069   -0.0117    0.0112   -0.0111    0.0142   -0.0209    0.0122   -0.0029
           2   -0.0032   -0.0097   -0.0172    0.0095   -0.0160   -0.0235    0.0020   -0.0073
           3   -0.0179    0.0105    0.0086    0.0101    0.0049    0.0312   -0.0043    0.0219
           4   -0.0082    0.0054   -0.0004   -0.0060   -0.0207    0.0146   -0.0048    0.0122
           5    0.0109    0.0337    0.0058    0.0171   -0.0085    0.0076    0.0054    0.0061
           6    0.0160   -0.0108    0.0075    0.0082    0.0092   -0.0132   -0.0041   -0.0059
           7    0.0042    0.0182   -0.0071    0.0058   -0.0068    0.0075   -0.0033    0.0005
           8    0.0122    0.0068    0.0153   -0.0194    0.0232    0.0187   -0.0081    0.0059
           9    0.0107   -0.0051   -0.0116    0.0062   -0.0159   -0.0189    0.0058   -0.0088
          10   -0.0005    0.0060   -0.0223    0.0014    0.0072   -0.0013   -0.0064   -0.0016
          11   -0.0174   -0.0015    0.0100    0.0094    0.0006    0.0089    0.0052   -0.0010
          12    0.0252   -0.0043   -0.0154   -0.0221   -0.0037   -0.0025    0.0052   -0.0027
          13    0.0231    0.0097    0.0144    0.0225   -0.0062   -0.0020   -0.0045   -0.0008
          14   -0.0008   -0.0307   -0.0099   -0.0070    0.0010    0.0004   -0.0084    0.0031
          15   -0.0143    0.0254    0.0110   -0.0072   -0.0070   -0.0046   -0.0048   -0.0006
          16    0.0013    0.0004   -0.0247   -0.0073    0.0146   -0.0030    0.0022   -0.0045
          17    0.0125   -0.0057   -0.0088   -0.0099    0.0017   -0.0004    0.0005   -0.0037
          18   -0.0156    0.0083   -0.0179   -0.0044    0.0131   -0.0004   -0.0009   -0.0035
          19   -0.0023    0.0007    0.0288    0.0009   -0.0135    0.0021    0.0021    0.0001
          20   -0.0225    0.0050   -0.0267   -0.0123    0.0104   -0.0016   -0.0032   -0.0038
          21    0.0072   -0.0151   -0.0073   -0.0053   -0.0007   -0.0011   -0.0045   -0.0028
          22   -0.0267   -0.0948    0.0926    0.0759    0.2339   -0.0273   -0.0996   -0.0968
          23   -0.1179   -0.0094   -0.0081    0.2045   -0.1177   -0.0885    0.0613   -0.0415
          24   -0.0940   -0.0216    0.0440    0.1536    0.0331   -0.0057   -0.0138   -0.0327
          25   -0.1239    0.0031    0.0217   -0.1698   -0.0425   -0.1107   -0.0745    0.0187
          26    0.1286   -0.0089    0.0112    0.1313    0.0277    0.0382    0.0388   -0.0216
          27    0.0334   -0.0005    0.0013    0.0459    0.0107    0.0251    0.0130   -0.0015
          28   -0.0145   -0.1149   -0.0881    0.0808   -0.0574    0.1510   -0.0294    0.1281
          29    0.0012    0.1574    0.0709   -0.0159    0.0044   -0.0507    0.0289   -0.0553
          30   -0.0023    0.0744    0.0362    0.0181    0.0038   -0.0007    0.0101   -0.0127
          31    0.0010    0.0147   -0.0051    0.0058   -0.0028    0.0072   -0.0043    0.0007
          32   -0.0167   -0.0898    0.0378   -0.0208    0.0358   -0.0539    0.0223   -0.0132
          33   -0.0210    0.0042    0.0117    0.0048    0.0125    0.0248   -0.0045    0.0144
          34   -0.0381   -0.0323    0.0054    0.0108    0.0126   -0.0187   -0.0035   -0.0046
          35    0.0817    0.0223   -0.0198   -0.0182   -0.0210   -0.0128    0.0057   -0.0145
          36   -0.0183    0.0082    0.0080    0.0047    0.0062    0.0158   -0.0032    0.0080
          37    0.0037   -0.0472   -0.0181    0.0173   -0.0182   -0.0594    0.0138   -0.0246
          38   -0.0371    0.0563    0.0666   -0.0323    0.0822    0.1129   -0.0339    0.0475
          39   -0.0199    0.0051    0.0150    0.0032    0.0150    0.0189   -0.0047    0.0096
          40    0.0363    0.0007   -0.0392   -0.0224    0.0045   -0.0129   -0.0095   -0.0049
          41    0.0756   -0.0491    0.1026   -0.0669   -0.0256   -0.0177    0.1736    0.0272
          42   -0.0229   -0.0251    0.1089   -0.0058   -0.0074    0.0119    0.1519    0.0320
          43    0.0003    0.0478    0.0275    0.0143   -0.0157   -0.0039   -0.0044    0.0026
          44   -0.0188   -0.0308    0.1110   -0.0079   -0.0547   -0.0832   -0.0883    0.1849
          45    0.0477   -0.1042    0.0607    0.0187   -0.0228   -0.0572   -0.0663    0.1201
          46   -0.0966   -0.0031   -0.0711   -0.0112    0.1245   -0.0179    0.2020    0.0954
          47    0.0060    0.0228    0.0249    0.0066   -0.0659    0.0086   -0.1308   -0.0683
          48    0.0422   -0.0116   -0.0186   -0.0167    0.0032    0.0017   -0.0125   -0.0121
          49   -0.0336   -0.1174    0.0776   -0.0755   -0.1060    0.1280    0.0386   -0.1503
          50   -0.0027   -0.0450   -0.0207   -0.0304   -0.0129    0.0259    0.0015   -0.0384
          51   -0.0798   -0.0361    0.0310   -0.0551   -0.0528    0.0792    0.0220   -0.0958


   Root No.      25        26        27        28        29        30        31        32

                25 A      26 A      27 A      28 A      29 A      30 A      31 A      32 A   

                1229.0    1254.1    1346.0    1385.2    1391.2    1407.2    1411.1    1418.3
  
           1   -0.0122   -0.0399    0.0592   -0.0156    0.0318   -0.0063   -0.0057   -0.0160
           2   -0.0208    0.0615    0.0182    0.0136    0.0114    0.0052    0.0078    0.0535
           3   -0.0105    0.0098    0.0350    0.0103    0.0227    0.0044    0.0021    0.0238
           4   -0.0097   -0.0260   -0.0179    0.0460   -0.0230    0.0117    0.0091    0.0271
           5    0.0068    0.0223    0.0137   -0.0170   -0.0362   -0.0081    0.0007   -0.0332
           6    0.0007    0.0126   -0.0015   -0.0052   -0.0179   -0.0029    0.0008   -0.0117
           7    0.0032    0.0151   -0.0112   -0.0034   -0.0132   -0.0276   -0.0186    0.0215
           8    0.0066   -0.0166   -0.0040    0.0287    0.0171   -0.0039   -0.0131   -0.0533
           9    0.0034   -0.0078   -0.0058   -0.0026   -0.0063    0.0224   -0.0276   -0.0030
          10    0.0000   -0.0026   -0.0253   -0.0047   -0.0137   -0.0018   -0.0006   -0.0101
          11   -0.0122    0.0030    0.0020   -0.0095   -0.0067   -0.0031   -0.0043   -0.0103
          12   -0.0167    0.0078   -0.0092   -0.0124   -0.0133   -0.0038   -0.0044   -0.0136
          13   -0.0070    0.0249    0.0020   -0.0163   -0.0074   -0.0050   -0.0012   -0.0139
          14    0.0212   -0.0087    0.0175    0.0082    0.0113    0.0030   -0.0038    0.0116
          15    0.0081    0.0019    0.0112   -0.0006    0.0027   -0.0001   -0.0024    0.0005
          16    0.0191   -0.0168   -0.0149    0.0178    0.0086    0.0056    0.0077    0.0163
          17   -0.0080   -0.0083   -0.0066   -0.0070   -0.0066   -0.0026   -0.0013   -0.0120
          18    0.0047   -0.0189   -0.0148    0.0032   -0.0018    0.0006    0.0029   -0.0031
          19    0.0159    0.0129    0.0303   -0.0035    0.0076   -0.0003   -0.0068    0.0030
          20    0.0041   -0.0105   -0.0111    0.0071    0.0053    0.0023    0.0031    0.0076
          21    0.0107    0.0008    0.0075    0.0026    0.0074    0.0013   -0.0012    0.0067
          22    0.0213    0.0974   -0.0750    0.0166   -0.0501   -0.0001    0.0010    0.0221
          23    0.0380   -0.1154   -0.0185   -0.0182   -0.0147   -0.0096   -0.0078   -0.0597
          24    0.0346   -0.0342   -0.0367    0.0045   -0.0232   -0.0007   -0.0045   -0.0247
          25    0.0645    0.1001   -0.0927   -0.1166    0.0732   -0.0210   -0.0243   -0.0536
          26   -0.0643   -0.0379   -0.1220   -0.0315    0.1735    0.0112   -0.0167    0.0574
          27   -0.0132   -0.0196    0.0432    0.0484   -0.0772    0.0049    0.0134    0.0009
          28    0.0742    0.0491   -0.0456   -0.1092    0.0910   -0.0160   -0.0340   -0.0490
          29   -0.0591   -0.0296   -0.0658    0.0051    0.0815    0.0095    0.0009    0.0414
          30   -0.0295   -0.0072   -0.1051   -0.0600    0.1725    0.0026   -0.0218    0.0334
          31    0.0009    0.0169   -0.0071   -0.0011   -0.0056   -0.0272    0.0157    0.0115
          32   -0.0063   -0.1218    0.0457   -0.1058   -0.0479   -0.1614   -0.0695    0.1447
          33    0.0019    0.0083    0.0054    0.0107    0.0379   -0.2058    0.2912   -0.0212
          34   -0.0298    0.0336    0.0345    0.0248    0.0327    0.2997   -0.0608   -0.0684
          35    0.0418   -0.0828   -0.0364   -0.1239   -0.0741    0.0680    0.1246    0.0715
          36   -0.0041    0.0234   -0.0035    0.0737    0.0298   -0.1881   -0.0699   -0.0318
          37   -0.0118    0.0250    0.0146    0.0233    0.0576    0.0739    0.2981   -0.0976
          38    0.0118   -0.0498    0.0149   -0.1196   -0.0561    0.1293    0.0542    0.1061
          39    0.0020   -0.0198    0.0121   -0.0678   -0.0189    0.1072    0.1163    0.0399
          40   -0.0091   -0.0012   -0.0224   -0.0076   -0.0138   -0.0032   -0.0011   -0.0120
          41    0.1221    0.0410   -0.0569    0.0467    0.0024    0.0243    0.0126    0.0415
          42    0.1207    0.0279   -0.0711    0.0405   -0.0065    0.0206    0.0119    0.0307
          43   -0.0121    0.0235    0.0000   -0.0159   -0.0104   -0.0051   -0.0006   -0.0153
          44   -0.1015   -0.0569   -0.0847    0.0303   -0.0321    0.0061    0.0152    0.0043
          45   -0.0646   -0.0199   -0.0543    0.0093   -0.0241    0.0010    0.0085   -0.0045
          46   -0.1006    0.0348   -0.0279   -0.0305   -0.0369   -0.0092   -0.0077   -0.0362
          47    0.0702   -0.0432    0.0001    0.0245    0.0230    0.0068    0.0095    0.0227
          48    0.0138   -0.0244   -0.0167    0.0070    0.0005    0.0018    0.0040   -0.0011
          49   -0.1092    0.0064   -0.0426   -0.0246   -0.0276   -0.0086    0.0040   -0.0330
          50   -0.0245   -0.0127   -0.0294    0.0037   -0.0023    0.0009    0.0062    0.0009
          51   -0.0663   -0.0078   -0.0399   -0.0102   -0.0133   -0.0036    0.0057   -0.0155


   Root No.      33        34        35        36        37        38        39        40

                33 A      34 A      35 A      36 A      37 A      38 A      39 A      40 A   

                1449.7    1843.5    1859.3    2850.9    2937.3    3022.6    3051.9    3056.7
  
           1   -0.0345    0.0009   -0.0025    0.0211   -0.0013   -0.0008   -0.0002    0.0003
           2   -0.0201    0.0103   -0.0182    0.0303   -0.0016    0.0000   -0.0001   -0.0001
           3   -0.0296    0.0115   -0.0172   -0.0547    0.0030   -0.0003   -0.0001   -0.0001
           4    0.0386   -0.0026   -0.0044    0.0006   -0.0047   -0.0218    0.0002   -0.0015
           5   -0.0424    0.0174    0.0189   -0.0019   -0.0247   -0.0270    0.0002   -0.0014
           6   -0.0138    0.0090    0.0109    0.0048    0.0519   -0.0207    0.0001   -0.0017
           7   -0.0003    0.0013   -0.0002   -0.0011    0.0000    0.0000   -0.0005    0.0001
           8    0.0032    0.0013   -0.0004    0.0003    0.0001   -0.0000   -0.0002    0.0001
           9    0.0004    0.0015   -0.0012    0.0016    0.0002    0.0004    0.0007   -0.0002
          10    0.0158    0.0549   -0.0553   -0.0003   -0.0001   -0.0005   -0.0339    0.0111
          11    0.0357   -0.0987    0.1127   -0.0009   -0.0001    0.0002    0.0090   -0.0032
          12    0.0420   -0.0675    0.0795   -0.0010   -0.0000   -0.0001   -0.0095    0.0029
          13   -0.0212   -0.0629   -0.0446   -0.0000   -0.0007    0.0049   -0.0057   -0.0314
          14    0.0537   -0.1092   -0.0901   -0.0000   -0.0004   -0.0013    0.0012    0.0063
          15    0.0251   -0.0957   -0.0767   -0.0002   -0.0005    0.0013   -0.0017   -0.0096
          16   -0.0622   -0.1082    0.0759   -0.0004   -0.0001   -0.0000    0.0108   -0.0007
          17    0.0070    0.0940   -0.1037    0.0006    0.0001    0.0001    0.0128    0.0004
          18   -0.0262    0.0341   -0.0581    0.0000   -0.0000    0.0001    0.0182   -0.0000
          19    0.0651    0.1203    0.0571    0.0002    0.0002    0.0001    0.0037    0.0116
          20   -0.0221    0.0716    0.0723   -0.0001   -0.0001    0.0001   -0.0076   -0.0224
          21    0.0154    0.0990    0.0729    0.0002    0.0003    0.0001   -0.0032   -0.0090
          22    0.0275    0.0067   -0.0055   -0.2563    0.0176   -0.0024   -0.0006   -0.0002
          23    0.0132   -0.0016    0.0077   -0.3707    0.0186   -0.0023    0.0004   -0.0005
          24    0.0128    0.0017    0.0007    0.6681   -0.0340    0.0031   -0.0011    0.0009
          25   -0.0066   -0.0210    0.0009   -0.0074   -0.1249    0.1540   -0.0003    0.0092
          26    0.0432    0.0291    0.0168   -0.0073   -0.0786    0.0712    0.0003    0.0072
          27   -0.0132    0.0112    0.0074   -0.0336   -0.3281    0.4756   -0.0003    0.0335
          28   -0.0291   -0.0051   -0.0011    0.0107    0.1842    0.1146   -0.0005    0.0047
          29    0.0315    0.0050    0.0016    0.0313    0.3811    0.2526   -0.0006    0.0130
          30    0.0338    0.0005   -0.0040   -0.0243   -0.2950   -0.2300    0.0006   -0.0118
          31    0.0015    0.0018   -0.0004    0.0099   -0.0028   -0.0027    0.0054   -0.0012
          32   -0.0232   -0.0008   -0.0025    0.0041   -0.0001    0.0000   -0.0007    0.0002
          33    0.0256    0.0000   -0.0000   -0.0010    0.0003    0.0004   -0.0005    0.0001
          34   -0.0200    0.0019   -0.0026   -0.0048   -0.0004   -0.0017   -0.0022    0.0009
          35    0.0311    0.0015    0.0007   -0.0016   -0.0012   -0.0009   -0.0029    0.0013
          36   -0.0079    0.0029   -0.0027   -0.0077   -0.0009   -0.0018   -0.0038    0.0017
          37    0.0271   -0.0002    0.0006    0.0059   -0.0006    0.0009    0.0016   -0.0005
          38   -0.0050   -0.0002   -0.0002    0.0037    0.0016    0.0026    0.0033   -0.0009
          39    0.0052    0.0007   -0.0012   -0.0145   -0.0014   -0.0042   -0.0058    0.0016
          40    0.0180    0.0699   -0.0730    0.0030   -0.0013    0.0090    0.3980   -0.1300
          41   -0.0667   -0.0052   -0.0116    0.0007   -0.0000   -0.0020   -0.0957    0.0317
          42   -0.0538    0.0349   -0.0536   -0.0012   -0.0002    0.0029    0.1215   -0.0392
          43   -0.0235   -0.0814   -0.0605    0.0002    0.0078   -0.0547    0.0666    0.3706
          44   -0.0694    0.0423    0.0479    0.0002   -0.0014    0.0090   -0.0149   -0.0813
          45   -0.0536   -0.0148    0.0005    0.0001    0.0045   -0.0173    0.0195    0.1088
          46    0.0595    0.0178   -0.0860    0.0011   -0.0003   -0.0008   -0.1215    0.0052
          47   -0.0771    0.0291   -0.0158    0.0019   -0.0004   -0.0010   -0.1603    0.0026
          48   -0.0362    0.0411   -0.0643    0.0008   -0.0004   -0.0014   -0.2208    0.0056
          49   -0.0683   -0.0352   -0.0827    0.0001   -0.0005   -0.0005   -0.0420   -0.1335
          50   -0.0552    0.0585    0.0576   -0.0002   -0.0001    0.0020    0.0888    0.2704
          51   -0.0715    0.0190   -0.0019   -0.0000    0.0006    0.0012    0.0375    0.1112


   Root No.      41        42        43        44        45

                41 A      42 A      43 A      44 A      45 A   

                3070.3    3080.3    3080.7    3083.8    3179.4
  
           1   -0.0001   -0.0003    0.0002   -0.0003   -0.0003
           2    0.0000   -0.0000    0.0005   -0.0001    0.0006
           3    0.0002    0.0005   -0.0005   -0.0003    0.0001
           4   -0.0006    0.0007    0.0003    0.0001   -0.0000
           5   -0.0008    0.0008    0.0005   -0.0005   -0.0002
           6   -0.0008    0.0008    0.0005    0.0001    0.0000
           7   -0.0005   -0.0084    0.0153   -0.0420   -0.0087
           8   -0.0002   -0.0033    0.0059   -0.0152    0.0229
           9    0.0011    0.0147   -0.0240   -0.0295    0.0007
          10   -0.0176   -0.0073   -0.0059   -0.0007    0.0002
          11    0.0064    0.0028    0.0023    0.0006   -0.0001
          12   -0.0033   -0.0012   -0.0010    0.0001    0.0000
          13   -0.0173    0.0124    0.0076    0.0005    0.0000
          14    0.0019   -0.0009   -0.0005   -0.0000   -0.0000
          15   -0.0063    0.0048    0.0030    0.0002    0.0000
          16   -0.0079   -0.0051   -0.0034   -0.0002   -0.0000
          17   -0.0153   -0.0085   -0.0059   -0.0006    0.0000
          18   -0.0191   -0.0110   -0.0075   -0.0006    0.0000
          19   -0.0044    0.0065    0.0041    0.0002    0.0000
          20    0.0137   -0.0163   -0.0103   -0.0006   -0.0000
          21    0.0066   -0.0075   -0.0047   -0.0003   -0.0000
          22   -0.0000    0.0010   -0.0014   -0.0012    0.0002
          23    0.0009    0.0037   -0.0052   -0.0011    0.0017
          24   -0.0011   -0.0042    0.0058    0.0003   -0.0012
          25    0.0043   -0.0038   -0.0019    0.0007    0.0002
          26    0.0034   -0.0027   -0.0016   -0.0004    0.0003
          27    0.0153   -0.0132   -0.0070    0.0009    0.0013
          28    0.0023   -0.0018   -0.0014    0.0018    0.0002
          29    0.0061   -0.0059   -0.0015    0.0028    0.0021
          30   -0.0057    0.0053    0.0017   -0.0028   -0.0015
          31    0.0059    0.0906   -0.1638    0.3815    0.3231
          32   -0.0004   -0.0016    0.0027   -0.0070    0.0108
          33   -0.0001    0.0005    0.0002   -0.0449   -0.0239
          34   -0.0031   -0.0297    0.0454    0.1590   -0.1286
          35   -0.0039   -0.0351    0.0523    0.2285   -0.1535
          36   -0.0052   -0.0445    0.0645    0.3530   -0.2547
          37    0.0028    0.0387   -0.0646   -0.0400   -0.0874
          38    0.0054    0.0752   -0.1266   -0.0405   -0.1391
          39   -0.0095   -0.1320    0.2229    0.0444    0.2709
          40    0.1916    0.0740    0.0617    0.0064   -0.0027
          41   -0.0478   -0.0186   -0.0155   -0.0004    0.0012
          42    0.0567    0.0220    0.0180    0.0027   -0.0005
          43    0.1937   -0.1311   -0.0804   -0.0053   -0.0000
          44   -0.0407    0.0273    0.0168    0.0011   -0.0000
          45    0.0579   -0.0394   -0.0242   -0.0016   -0.0000
          46    0.1123    0.0652    0.0445    0.0037   -0.0000
          47    0.1542    0.0862    0.0591    0.0049   -0.0001
          48    0.2099    0.1188    0.0813    0.0068   -0.0001
          49    0.0682   -0.0850   -0.0535   -0.0031   -0.0000
          50   -0.1455    0.1744    0.1096    0.0063    0.0000
          51   -0.0616    0.0722    0.0453    0.0026    0.0000


           MASS-WEIGHTED COORDINATE ANALYSIS (NORMAL COORDINATES)


   Root No.       1         2         3         4         5         6         7         8

                 1 A       2 A       3 A       4 A       5 A       6 A       7 A       8 A   

                  92.6     181.6     256.9     351.9     415.8     481.6     526.3     578.5
  
           1   -0.0696   -0.0081    0.0459   -0.2514   -0.1027    0.2682   -0.0756   -0.0825
           2   -0.0034   -0.0299   -0.0438   -0.0847   -0.2994   -0.1705   -0.2023   -0.0305
           3    0.1083    0.0380    0.1948   -0.1257    0.2147   -0.2337    0.2933   -0.2334
           4   -0.0636   -0.0099    0.0467   -0.2721   -0.0822    0.2518   -0.1099    0.0361
           5   -0.1859   -0.0174    0.0477    0.0479    0.0635    0.2369   -0.0496   -0.2960
           6    0.3922    0.0271   -0.1882   -0.1332   -0.0146    0.1439   -0.0235   -0.1374
           7    0.1455   -0.0219   -0.0213    0.4324    0.2457    0.1580    0.0699   -0.0643
           8    0.0864   -0.0333   -0.0602    0.1662   -0.1961   -0.3206   -0.1889   -0.0453
           9   -0.3746   -0.0457   -0.1740    0.2153   -0.1189   -0.0641   -0.1111   -0.0324
          10   -0.1027    0.0115   -0.0850   -0.1679   -0.1099   -0.1686    0.1143   -0.4510
          11   -0.1648    0.0194   -0.1510   -0.2399   -0.0161   -0.0305    0.3297    0.1332
          12    0.2438   -0.0081    0.3247   -0.0726    0.0157   -0.1362   -0.1488   -0.0587
          13    0.0397   -0.0272   -0.0935   -0.0632    0.0909   -0.0785    0.0031    0.5043
          14    0.0769   -0.0553   -0.2089    0.0869    0.2662    0.1294   -0.0277   -0.1569
          15   -0.1274    0.0999    0.2804    0.1432   -0.2087    0.2221    0.0902    0.0765
          16   -0.0556    0.0525    0.0936    0.0680    0.0410   -0.2648   -0.1110    0.0167
          17   -0.0148    0.0993    0.3008   -0.1435    0.2050   -0.0931   -0.0680    0.2981
          18    0.0566   -0.0931   -0.2158   -0.0122   -0.1501   -0.0846    0.2827    0.2539
          19    0.0884    0.0078    0.0319    0.1579   -0.1666   -0.1950    0.0652    0.0795
          20    0.1934    0.0176    0.1125    0.1159   -0.0703    0.3639    0.1313    0.1581
          21   -0.2787   -0.0021   -0.1454   -0.0602    0.3477    0.0613   -0.1276    0.1478
          22   -0.0876    0.0050    0.0719   -0.0982   -0.0172    0.1158   -0.0434   -0.0182
          23    0.0869   -0.0032    0.0479   -0.0246   -0.0722   -0.1257   -0.0913   -0.0182
          24    0.0534    0.0159    0.1095   -0.0461    0.0689   -0.0919    0.0526   -0.0686
          25   -0.0716    0.0013    0.0992   -0.0844    0.0062   -0.0089    0.0762   -0.0673
          26   -0.2160    0.0174    0.2118    0.1347   -0.0091    0.0635    0.2050   -0.0589
          27    0.1670    0.0016   -0.1285   -0.0622   -0.0089    0.0741   -0.0960   -0.0189
          28    0.0431   -0.0136   -0.0543   -0.1133   -0.1078    0.1270   -0.1552    0.0300
          29    0.0325   -0.0151   -0.0997   -0.0334    0.0795    0.0778   -0.1153   -0.0946
          30    0.2625   -0.0113   -0.2459   -0.1268    0.0216    0.0884   -0.2230   -0.0368
          31    0.0413    0.0337   -0.0162    0.1374    0.0711    0.0458    0.0167   -0.0187
          32    0.0826   -0.0021   -0.0287    0.2330    0.0545   -0.1289   -0.0052   -0.0315
          33   -0.1387    0.5341   -0.1816    0.1254   -0.0959   -0.0067   -0.1035    0.0145
          34    0.0467    0.4192   -0.1146    0.2774    0.0852    0.0371   -0.0056   -0.0107
          35    0.0835    0.1707    0.0214   -0.0833   -0.0321   -0.1079    0.0322   -0.0523
          36   -0.1502   -0.3386   -0.0256    0.0825   -0.0582   -0.0042   -0.0816    0.0127
          37    0.0893   -0.4722    0.0940    0.1702    0.1697    0.0250    0.0909   -0.0435
          38   -0.0708   -0.2049   -0.0491    0.0708   -0.1513   -0.0622   -0.1788    0.0353
          39   -0.1504   -0.2652   -0.0398    0.0887   -0.0632   -0.0072   -0.0872    0.0125
          40   -0.0651    0.0059   -0.0783   -0.0745    0.0068   -0.0808    0.1347   -0.1567
          41   -0.1088    0.0158   -0.1280   -0.1473    0.0729   -0.0096    0.2839   -0.0368
          42    0.1358   -0.0013    0.2021    0.0067   -0.0585    0.0699   -0.2287    0.0102
          43    0.0384   -0.0238   -0.0967   -0.0331    0.0688   -0.0605    0.0280    0.1656
          44    0.0501   -0.0392   -0.1656    0.0531    0.1446   -0.0825    0.0455   -0.0158
          45   -0.1051    0.0650    0.2367    0.1088   -0.1562    0.1071   -0.0302   -0.0266
          46   -0.0428    0.0318    0.0478    0.0438    0.1305   -0.0788   -0.0913    0.0608
          47   -0.0186    0.0585    0.1742   -0.1018    0.2009   -0.1413   -0.0782    0.0329
          48    0.0409   -0.0576   -0.1371    0.0268   -0.2103    0.0618    0.1568    0.0811
          49    0.0699   -0.0042   -0.0157    0.1069   -0.1236   -0.0224    0.1006   -0.0752
          50    0.1205    0.0007    0.0258    0.0753   -0.1245    0.1180    0.1627    0.0304
          51   -0.1849    0.0027   -0.0539   -0.0465    0.2646    0.0238   -0.2404   -0.0363


   Root No.       9        10        11        12        13        14        15        16

                 9 A      10 A      11 A      12 A      13 A      14 A      15 A      16 A   

                 745.9     795.6     819.9     917.2     937.2     963.0     965.8     987.3
  
           1   -0.0723    0.0135   -0.0985   -0.1432   -0.0910    0.1384    0.0347    0.0300
           2   -0.0609   -0.0047   -0.0213   -0.0480   -0.0147    0.0453   -0.0083    0.0355
           3    0.1006   -0.0861    0.1499    0.1882   -0.0390    0.0690    0.0027   -0.0938
           4   -0.0983   -0.0085    0.1485    0.2157    0.3135   -0.0739   -0.0667   -0.0793
           5    0.0187    0.1591   -0.0933    0.1763    0.1923   -0.1022   -0.0632   -0.0252
           6   -0.1145   -0.2231    0.0608   -0.1917    0.4145    0.0281    0.0386   -0.0834
           7    0.0260    0.0438   -0.1154   -0.1679   -0.0977    0.2482    0.0700   -0.1028
           8   -0.0944   -0.1051    0.2266    0.1313    0.0039    0.1374    0.0349    0.0014
           9   -0.0000   -0.0227    0.0486    0.1864   -0.0004    0.2055    0.0177    0.1143
          10    0.0767   -0.1928   -0.0281   -0.0940   -0.2874   -0.2969    0.1590    0.1784
          11    0.2013   -0.0602   -0.2213   -0.0082    0.0197   -0.0392    0.1863    0.0934
          12   -0.0578    0.1628   -0.0112   -0.1790   -0.1465   -0.1723   -0.1623    0.0252
          13    0.0313   -0.1268    0.3617    0.0597   -0.1250   -0.1444    0.1420   -0.0028
          14    0.0705    0.0194    0.0143   -0.1097   -0.0007    0.0541    0.1236   -0.0953
          15   -0.1708   -0.0395   -0.0626    0.0612   -0.1539    0.0089   -0.1978    0.1767
          16    0.0936    0.0135   -0.2052    0.0336    0.0967    0.0270   -0.1357   -0.1495
          17    0.1473   -0.0157   -0.2883   -0.0128    0.0412   -0.0263   -0.2004   -0.1912
          18    0.0654    0.3345   -0.1503   -0.1208    0.2266    0.0020    0.1641    0.1529
          19    0.1368    0.1455   -0.0547   -0.0638    0.1459    0.1094   -0.0871    0.0980
          20    0.0124   -0.0948    0.3272   -0.0917   -0.2155   -0.0078   -0.0471    0.1845
          21   -0.1780   -0.1230   -0.0499    0.1530   -0.2069   -0.0789    0.1564   -0.2286
          22   -0.0442    0.1263   -0.0601    0.1252   -0.0860    0.1463   -0.1464    0.0744
          23   -0.0776    0.0053    0.0931   -0.1478   -0.0881    0.0157   -0.0756   -0.2508
          24   -0.0127    0.0275    0.0800    0.0356   -0.0866    0.0602   -0.0994   -0.1456
          25   -0.0468   -0.1415    0.1166    0.0415    0.2621    0.0279    0.0402   -0.2268
          26   -0.1581   -0.2179    0.0286   -0.1880    0.3088   -0.0260    0.0100    0.0409
          27    0.0096    0.0474   -0.0240    0.0057    0.0037   -0.0086   -0.0189    0.0395
          28   -0.0527    0.1443   -0.0614    0.1530   -0.0015    0.0093   -0.1749    0.1661
          29    0.1244    0.1812   -0.0285    0.1654   -0.0665   -0.0737    0.0276   -0.0878
          30    0.1121    0.2109   -0.0473    0.1589   -0.1050   -0.0322   -0.0276   -0.0090
          31    0.0068    0.0147   -0.0336   -0.0479   -0.0219    0.0426    0.0129   -0.0279
          32    0.0186   -0.0171    0.1206    0.3235    0.1667   -0.4175   -0.1238    0.1924
          33   -0.0376    0.0057    0.0005   -0.1033    0.0000   -0.0927   -0.0185   -0.0679
          34    0.0115    0.0335   -0.0307   -0.0093    0.0613   -0.2989   -0.0703    0.0144
          35    0.0125   -0.0685    0.0912    0.2296   -0.0491    0.4792    0.0936    0.1079
          36   -0.0308    0.0100   -0.0033   -0.0981   -0.0075   -0.0715   -0.0114   -0.0649
          37    0.0549    0.0213   -0.0117    0.1817    0.0504   -0.0824   -0.0443    0.1368
          38   -0.1074   -0.0102    0.0421   -0.3063   -0.0382   -0.1223    0.0044   -0.2414
          39   -0.0351    0.0077    0.0067   -0.0878   -0.0015   -0.0832   -0.0177   -0.0649
          40   -0.0692    0.1247    0.1388   -0.0783   -0.1041   -0.0717   -0.1404   -0.0195
          41   -0.1192    0.2832    0.2136   -0.1407   -0.1165   -0.0369   -0.2549   -0.0440
          42    0.1405   -0.3091   -0.2639    0.0067   -0.0792   -0.1184    0.3211    0.1866
          43   -0.1749   -0.1514   -0.0205    0.0257   -0.0578   -0.0168   -0.1186    0.1070
          44   -0.2113   -0.1099   -0.2686   -0.0817   -0.1349    0.1240   -0.1986    0.1829
          45    0.4013    0.2912    0.2134   -0.0397   -0.0684   -0.0035    0.3114   -0.1605
          46   -0.1855    0.1428    0.0591    0.0446    0.1135    0.1551    0.1425    0.0183
          47   -0.2426    0.2890   -0.0355   -0.1461    0.0946   -0.0921    0.2743    0.2700
          48    0.3432   -0.1917   -0.1460    0.0469   -0.0421   -0.0203   -0.2934   -0.2257
          49   -0.1689    0.0712   -0.1250    0.1162   -0.0613    0.0618    0.0981   -0.1462
          50   -0.2574    0.0176   -0.0628    0.1635   -0.1673   -0.0620    0.1539   -0.1801
          51    0.3350   -0.1095    0.2344   -0.2608    0.0603    0.1552   -0.2130    0.2945


   Root No.      17        18        19        20        21        22        23        24

                17 A      18 A      19 A      20 A      21 A      22 A      23 A      24 A   

                1033.7    1054.6    1072.6    1082.5    1108.9    1140.6    1149.9    1161.1
  
           1    0.0638   -0.1034    0.1015   -0.0909    0.1244   -0.1907    0.1062   -0.0264
           2   -0.0297   -0.0859   -0.1564    0.0783   -0.1401   -0.2141    0.0171   -0.0662
           3   -0.1641    0.0928    0.0781    0.0829    0.0424    0.2844   -0.0378    0.1981
           4   -0.0758    0.0482   -0.0040   -0.0490   -0.1809    0.1330   -0.0415    0.1106
           5    0.1005    0.2977    0.0525    0.1402   -0.0739    0.0697    0.0466    0.0554
           6    0.1471   -0.0951    0.0683    0.0670    0.0803   -0.1209   -0.0361   -0.0531
           7    0.0388    0.1611   -0.0649    0.0475   -0.0593    0.0686   -0.0287    0.0049
           8    0.1119    0.0598    0.1389   -0.1594    0.2029    0.1708   -0.0705    0.0537
           9    0.0984   -0.0448   -0.1052    0.0511   -0.1385   -0.1723    0.0503   -0.0801
          10   -0.0044    0.0535   -0.2027    0.0116    0.0632   -0.0118   -0.0558   -0.0143
          11   -0.1599   -0.0129    0.0909    0.0772    0.0052    0.0812    0.0452   -0.0091
          12    0.2311   -0.0380   -0.1397   -0.1813   -0.0322   -0.0225    0.0448   -0.0243
          13    0.2121    0.0860    0.1306    0.1846   -0.0540   -0.0183   -0.0387   -0.0073
          14   -0.0074   -0.2714   -0.0899   -0.0577    0.0083    0.0033   -0.0728    0.0282
          15   -0.1310    0.2247    0.1001   -0.0589   -0.0613   -0.0422   -0.0414   -0.0056
          16    0.0117    0.0034   -0.2245   -0.0602    0.1274   -0.0271    0.0193   -0.0409
          17    0.1146   -0.0508   -0.0800   -0.0816    0.0149   -0.0032    0.0047   -0.0331
          18   -0.1435    0.0731   -0.1622   -0.0357    0.1146   -0.0041   -0.0074   -0.0315
          19   -0.0208    0.0060    0.2615    0.0074   -0.1181    0.0191    0.0178    0.0006
          20   -0.2071    0.0442   -0.2428   -0.1006    0.0910   -0.0150   -0.0280   -0.0342
          21    0.0659   -0.1333   -0.0663   -0.0433   -0.0064   -0.0096   -0.0396   -0.0257
          22   -0.0711   -0.2428    0.2437    0.1806    0.5916   -0.0723   -0.2509   -0.2541
          23   -0.3139   -0.0240   -0.0214    0.4868   -0.2978   -0.2338    0.1544   -0.1088
          24   -0.2504   -0.0552    0.1157    0.3655    0.0838   -0.0150   -0.0347   -0.0859
          25   -0.3300    0.0080    0.0572   -0.4040   -0.1076   -0.2927   -0.1877    0.0491
          26    0.3424   -0.0228    0.0294    0.3126    0.0700    0.1009    0.0978   -0.0566
          27    0.0889   -0.0014    0.0033    0.1092    0.0271    0.0663    0.0328   -0.0039
          28   -0.0386   -0.2942   -0.2317    0.1923   -0.1451    0.3990   -0.0740    0.3360
          29    0.0033    0.4031    0.1865   -0.0379    0.0111   -0.1340    0.0727   -0.1451
          30   -0.0062    0.1906    0.0951    0.0431    0.0097   -0.0018    0.0255   -0.0334
          31    0.0026    0.0376   -0.0134    0.0138   -0.0072    0.0190   -0.0109    0.0018
          32   -0.0445   -0.2301    0.0995   -0.0494    0.0905   -0.1424    0.0561   -0.0345
          33   -0.0559    0.0107    0.0306    0.0114    0.0317    0.0654   -0.0114    0.0378
          34   -0.1016   -0.0827    0.0143    0.0257    0.0319   -0.0495   -0.0088   -0.0121
          35    0.2176    0.0572   -0.0522   -0.0432   -0.0530   -0.0338    0.0144   -0.0380
          36   -0.0487    0.0209    0.0209    0.0112    0.0156    0.0418   -0.0081    0.0210
          37    0.0098   -0.1208   -0.0477    0.0413   -0.0461   -0.1570    0.0349   -0.0645
          38   -0.0989    0.1441    0.1751   -0.0768    0.2079    0.2984   -0.0854    0.1247
          39   -0.0529    0.0132    0.0395    0.0077    0.0378    0.0499   -0.0119    0.0252
          40    0.0966    0.0017   -0.1030   -0.0534    0.0113   -0.0340   -0.0240   -0.0129
          41    0.2012   -0.1256    0.2699   -0.1592   -0.0648   -0.0468    0.4374    0.0715
          42   -0.0608   -0.0643    0.2865   -0.0139   -0.0188    0.0315    0.3827    0.0838
          43    0.0008    0.1225    0.0723    0.0341   -0.0397   -0.0102   -0.0111    0.0067
          44   -0.0500   -0.0788    0.2920   -0.0187   -0.1383   -0.2198   -0.2224    0.4851
          45    0.1270   -0.2669    0.1596    0.0444   -0.0577   -0.1512   -0.1670    0.3150
          46   -0.2573   -0.0079   -0.1871   -0.0267    0.3150   -0.0473    0.5090    0.2503
          47    0.0159    0.0585    0.0655    0.0157   -0.1668    0.0227   -0.3296   -0.1793
          48    0.1125   -0.0297   -0.0490   -0.0397    0.0082    0.0044   -0.0315   -0.0319
          49   -0.0896   -0.3007    0.2042   -0.1797   -0.2681    0.3383    0.0973   -0.3942
          50   -0.0071   -0.1153   -0.0543   -0.0724   -0.0327    0.0685    0.0038   -0.1007
          51   -0.2126   -0.0926    0.0815   -0.1310   -0.1335    0.2094    0.0555   -0.2513


   Root No.      25        26        27        28        29        30        31        32

                25 A      26 A      27 A      28 A      29 A      30 A      31 A      32 A   

                1229.0    1254.1    1346.0    1385.2    1391.2    1407.2    1411.1    1418.3
  
           1   -0.1154   -0.3194    0.4804   -0.1386    0.2635   -0.0433   -0.0397   -0.1240
           2   -0.1971    0.4930    0.1475    0.1208    0.0942    0.0357    0.0550    0.4142
           3   -0.0998    0.0782    0.2843    0.0921    0.1880    0.0300    0.0145    0.1840
           4   -0.0921   -0.2079   -0.1454    0.4096   -0.1901    0.0798    0.0636    0.2098
           5    0.0640    0.1783    0.1115   -0.1510   -0.2997   -0.0554    0.0047   -0.2571
           6    0.0065    0.1006   -0.0125   -0.0463   -0.1478   -0.0201    0.0054   -0.0904
           7    0.0304    0.1206   -0.0909   -0.0304   -0.1092   -0.1889   -0.1301    0.1663
           8    0.0626   -0.1328   -0.0325    0.2556    0.1414   -0.0266   -0.0920   -0.4128
           9    0.0323   -0.0622   -0.0468   -0.0234   -0.0523    0.1534   -0.1935   -0.0235
          10    0.0001   -0.0206   -0.2055   -0.0419   -0.1133   -0.0124   -0.0041   -0.0784
          11   -0.1157    0.0241    0.0160   -0.0842   -0.0556   -0.0209   -0.0301   -0.0801
          12   -0.1578    0.0627   -0.0747   -0.1104   -0.1101   -0.0261   -0.0309   -0.1055
          13   -0.0660    0.1995    0.0165   -0.1454   -0.0615   -0.0339   -0.0081   -0.1074
          14    0.2003   -0.0697    0.1424    0.0733    0.0937    0.0204   -0.0266    0.0896
          15    0.0769    0.0154    0.0906   -0.0056    0.0220   -0.0009   -0.0167    0.0039
          16    0.1807   -0.1345   -0.1211    0.1580    0.0715    0.0383    0.0542    0.1262
          17   -0.0753   -0.0666   -0.0539   -0.0620   -0.0547   -0.0179   -0.0090   -0.0929
          18    0.0448   -0.1515   -0.1199    0.0289   -0.0147    0.0039    0.0206   -0.0240
          19    0.1508    0.1031    0.2459   -0.0315    0.0628   -0.0019   -0.0477    0.0229
          20    0.0388   -0.0840   -0.0904    0.0629    0.0437    0.0160    0.0220    0.0592
          21    0.1008    0.0061    0.0605    0.0229    0.0610    0.0089   -0.0082    0.0517
          22    0.0582    0.2260   -0.1763    0.0427   -0.1202   -0.0002    0.0020    0.0495
          23    0.1041   -0.2679   -0.0436   -0.0468   -0.0353   -0.0191   -0.0157   -0.1339
          24    0.0949   -0.0794   -0.0862    0.0116   -0.0556   -0.0013   -0.0092   -0.0554
          25    0.1767    0.2323   -0.2181   -0.3005    0.1755   -0.0416   -0.0494   -0.1203
          26   -0.1760   -0.0880   -0.2868   -0.0812    0.4161    0.0221   -0.0338    0.1287
          27   -0.0361   -0.0455    0.1017    0.1246   -0.1850    0.0097    0.0271    0.0019
          28    0.2034    0.1140   -0.1073   -0.2815    0.2181   -0.0317   -0.0691   -0.1099
          29   -0.1618   -0.0686   -0.1548    0.0131    0.1953    0.0189    0.0019    0.0928
          30   -0.0809   -0.0168   -0.2471   -0.1545    0.4135    0.0052   -0.0443    0.0748
          31    0.0026    0.0392   -0.0167   -0.0029   -0.0134   -0.0539    0.0318    0.0257
          32   -0.0173   -0.2826    0.1074   -0.2725   -0.1149   -0.3196   -0.1411    0.3245
          33    0.0051    0.0193    0.0127    0.0275    0.0910   -0.4074    0.5913   -0.0476
          34   -0.0815    0.0780    0.0811    0.0640    0.0783    0.5934   -0.1234   -0.1534
          35    0.1146   -0.1922   -0.0856   -0.3193   -0.1777    0.1346    0.2530    0.1603
          36   -0.0113    0.0542   -0.0083    0.1900    0.0715   -0.3725   -0.1418   -0.0714
          37   -0.0323    0.0581    0.0343    0.0600    0.1380    0.1463    0.6053   -0.2189
          38    0.0324   -0.1157    0.0350   -0.3081   -0.1346    0.2561    0.1100    0.2379
          39    0.0055   -0.0460    0.0286   -0.1746   -0.0454    0.2122    0.2361    0.0895
          40   -0.0248   -0.0029   -0.0526   -0.0197   -0.0331   -0.0064   -0.0022   -0.0269
          41    0.3344    0.0952   -0.1338    0.1203    0.0057    0.0481    0.0257    0.0931
          42    0.3307    0.0648   -0.1672    0.1045   -0.0156    0.0407    0.0242    0.0688
          43   -0.0330    0.0545    0.0000   -0.0409   -0.0249   -0.0101   -0.0011   -0.0343
          44   -0.2779   -0.1321   -0.1991    0.0781   -0.0770    0.0120    0.0308    0.0097
          45   -0.1769   -0.0462   -0.1276    0.0240   -0.0577    0.0020    0.0172   -0.0102
          46   -0.2756    0.0807   -0.0656   -0.0787   -0.0884   -0.0182   -0.0156   -0.0812
          47    0.1923   -0.1004    0.0002    0.0632    0.0552    0.0135    0.0193    0.0510
          48    0.0378   -0.0567   -0.0394    0.0181    0.0012    0.0037    0.0082   -0.0025
          49   -0.2992    0.0148   -0.1003   -0.0634   -0.0662   -0.0170    0.0081   -0.0740
          50   -0.0671   -0.0295   -0.0692    0.0096   -0.0054    0.0017    0.0126    0.0020
          51   -0.1815   -0.0180   -0.0937   -0.0262   -0.0320   -0.0072    0.0115   -0.0348


   Root No.      33        34        35        36        37        38        39        40

                33 A      34 A      35 A      36 A      37 A      38 A      39 A      40 A   

                1449.7    1843.5    1859.3    2850.9    2937.3    3022.6    3051.9    3056.7
  
           1   -0.2104    0.0030   -0.0090    0.0866   -0.0068   -0.0041   -0.0011    0.0016
           2   -0.1228    0.0333   -0.0659    0.1247   -0.0085    0.0001   -0.0007   -0.0009
           3   -0.1805    0.0371   -0.0625   -0.2248    0.0158   -0.0014   -0.0008   -0.0008
           4    0.2354   -0.0083   -0.0159    0.0024   -0.0245   -0.1180    0.0015   -0.0092
           5   -0.2587    0.0561    0.0684   -0.0077   -0.1290   -0.1458    0.0014   -0.0089
           6   -0.0841    0.0290    0.0394    0.0196    0.2711   -0.1118    0.0009   -0.0109
           7   -0.0020    0.0041   -0.0007   -0.0046    0.0000    0.0000   -0.0030    0.0005
           8    0.0196    0.0042   -0.0016    0.0012    0.0005   -0.0001   -0.0013    0.0003
           9    0.0025    0.0047   -0.0042    0.0067    0.0012    0.0023    0.0041   -0.0015
          10    0.0961    0.1772   -0.2008   -0.0013   -0.0004   -0.0024   -0.2097    0.0697
          11    0.2176   -0.3185    0.4089   -0.0038   -0.0007    0.0013    0.0558   -0.0199
          12    0.2559   -0.2176    0.2883   -0.0040   -0.0001   -0.0004   -0.0587    0.0184
          13   -0.1293   -0.2029   -0.1617   -0.0002   -0.0035    0.0265   -0.0353   -0.1965
          14    0.3273   -0.3521   -0.3269   -0.0001   -0.0023   -0.0070    0.0073    0.0396
          15    0.1532   -0.3086   -0.2784   -0.0007   -0.0027    0.0068   -0.0105   -0.0598
          16   -0.3794   -0.3490    0.2753   -0.0017   -0.0004   -0.0003    0.0669   -0.0043
          17    0.0426    0.3033   -0.3762    0.0025    0.0004    0.0006    0.0792    0.0022
          18   -0.1596    0.1099   -0.2107    0.0001   -0.0002    0.0004    0.1125   -0.0003
          19    0.3968    0.3879    0.2074    0.0007    0.0011    0.0004    0.0229    0.0724
          20   -0.1349    0.2310    0.2623   -0.0003   -0.0004    0.0007   -0.0472   -0.1405
          21    0.0937    0.3192    0.2644    0.0007    0.0016    0.0005   -0.0199   -0.0567
          22    0.0486    0.0062   -0.0058   -0.3052    0.0266   -0.0037   -0.0011   -0.0003
          23    0.0234   -0.0015    0.0081   -0.4414    0.0282   -0.0037    0.0008   -0.0010
          24    0.0227    0.0016    0.0008    0.7956   -0.0514    0.0049   -0.0019    0.0016
          25   -0.0116   -0.0197    0.0009   -0.0088   -0.1888    0.2410   -0.0005    0.0168
          26    0.0762    0.0272    0.0177   -0.0086   -0.1188    0.1115    0.0006    0.0131
          27   -0.0233    0.0104    0.0078   -0.0400   -0.4961    0.7445   -0.0006    0.0608
[...]
 TRAVEL (Ang.)       0.1827         C  1 -- C  2         +14.9% ( 53.1%)     81.4%
 REDUCED MASS        1.5004         C  1 -- C  3         +12.8% ( 49.3%)      0.2%
 EFFECTIVE MASS      6.9069
 FORCE CONSTANT      1.6015

 VIBRATION         28   28A           ATOM PAIR      ENERGY CONTRIBUTION    RADIAL
 FREQUENCY          1385.24         C  2 -- H  9         +14.9% ( 47.6%)      0.7%
 TRANSITION DIPOLE   0.0735         C  2 -- H 10         +14.3% ( 46.7%)      0.7%
 TRAVEL (Ang.)       0.2818         C  1 -- C  2         +11.7% ( 42.3%)     76.4%
 REDUCED MASS        0.6129         C  2 -- C  5         +11.2% ( 41.4%)     50.6%
 EFFECTIVE MASS      4.7668         C  3 -- H 12         +10.2% ( 39.4%)      2.6%
 FORCE CONSTANT      0.6929

 VIBRATION         29   29A           ATOM PAIR      ENERGY CONTRIBUTION    RADIAL
 FREQUENCY          1391.19         C  2 -- H 10         +19.5% ( 53.1%)      5.0%
 TRANSITION DIPOLE   0.0936         C  2 -- H  9         +17.7% ( 50.6%)      7.7%
 TRAVEL (Ang.)       0.2908         C  1 -- C  2         +13.9% ( 44.9%)     43.4%
 REDUCED MASS        0.5734         C  1 -- C  4          +8.5% ( 35.1%)     80.0%
 EFFECTIVE MASS      4.6648
 FORCE CONSTANT      0.6538

 VIBRATION         30   30A           ATOM PAIR      ENERGY CONTRIBUTION    RADIAL
 FREQUENCY          1407.20         C  3 -- H 12         +48.4% ( 61.4%)      0.1%
 TRANSITION DIPOLE   0.0348         C  3 -- H 11         +26.1% ( 45.1%)      7.9%
 TRAVEL (Ang.)       0.3473         C  3 -- H 13         +13.6% ( 32.6%)     15.1%
 REDUCED MASS        0.3973         C  1 -- C  3          +4.6% ( 18.9%)      0.2%
 EFFECTIVE MASS      1.7083
 FORCE CONSTANT      0.4636

 VIBRATION         31   31A           ATOM PAIR      ENERGY CONTRIBUTION    RADIAL
 FREQUENCY          1411.08         C  3 -- H 13         +41.6% ( 57.1%)      0.8%
 TRANSITION DIPOLE   0.0516         C  3 -- H 11         +35.6% ( 52.8%)      1.8%
 TRAVEL (Ang.)       0.3516         C  3 -- H 12         +10.3% ( 28.5%)     40.3%
 REDUCED MASS        0.3866         C  1 -- C  3          +5.3% ( 20.5%)     15.6%
 EFFECTIVE MASS      1.7371
 FORCE CONSTANT      0.4536

 VIBRATION         32   32A           ATOM PAIR      ENERGY CONTRIBUTION    RADIAL
 FREQUENCY          1418.29         C  1 -- C  3         +17.4% ( 59.7%)     94.7%
 TRANSITION DIPOLE   0.0999         C  1 -- C  2         +11.9% ( 49.4%)     17.5%
 TRAVEL (Ang.)       0.1930         C  3 -- H 13         +10.7% ( 46.9%)      2.7%
 REDUCED MASS        1.2770         C  3 -- H 11         +10.4% ( 46.1%)      4.3%
 EFFECTIVE MASS      7.3974
 FORCE CONSTANT      1.5134

 VIBRATION         33   33A           ATOM PAIR      ENERGY CONTRIBUTION    RADIAL
 FREQUENCY          1449.65         C  6 -- C  7         +17.0% ( 62.4%)    100.0%
 TRANSITION DIPOLE   0.1019         C  2 -- C  5         +11.9% ( 52.1%)     98.7%
 TRAVEL (Ang.)       0.1757         C  5 -- C  7          +9.7% ( 47.0%)      0.7%
 REDUCED MASS        1.5075         C  1 -- C  4          +9.0% ( 45.4%)     98.5%
 EFFECTIVE MASS     10.3010
 FORCE CONSTANT      1.8666

 VIBRATION         34   34A           ATOM PAIR      ENERGY CONTRIBUTION    RADIAL
 FREQUENCY          1843.45         C  5 -- C  7         +25.6% ( 75.4%)     99.3%
 TRANSITION DIPOLE   0.3124         C  4 -- C  6         +18.3% ( 63.7%)     98.6%
 TRAVEL (Ang.)       0.1115         C  6 -- C  7         +16.4% ( 60.4%)     98.3%
 REDUCED MASS        2.9408         C  7 -- H 17          +8.2% ( 42.7%)      2.3%
 EFFECTIVE MASS     11.9486
 FORCE CONSTANT      5.8882

 VIBRATION         35   35A           ATOM PAIR      ENERGY CONTRIBUTION    RADIAL
 FREQUENCY          1859.34         C  4 -- C  6         +26.2% ( 75.0%)     99.6%
 TRANSITION DIPOLE   0.3737         C  5 -- C  7         +18.5% ( 63.0%)     99.0%
 TRAVEL (Ang.)       0.1145         C  6 -- C  7         +12.4% ( 51.6%)      0.7%
 REDUCED MASS        2.7682         C  1 -- C  4          +9.0% ( 43.9%)     50.4%
 EFFECTIVE MASS     11.7807
 FORCE CONSTANT      5.6384

 VIBRATION         36   36A           ATOM PAIR      ENERGY CONTRIBUTION    RADIAL
 FREQUENCY          2850.87         C  1 -- H  8         +96.4% ( 99.7%)    100.0%
 TRANSITION DIPOLE   0.0483         C  1 -- C  2          +1.0% ( 10.2%)      8.4%
 TRAVEL (Ang.)       0.1603         C  1 -- C  3          +1.0% ( 10.1%)      9.2%
 REDUCED MASS        0.9201         C  1 -- C  4          +1.0% ( 10.0%)      6.2%
 EFFECTIVE MASS      1.4375
 FORCE CONSTANT      4.4058

 VIBRATION         37   37A           ATOM PAIR      ENERGY CONTRIBUTION    RADIAL
 FREQUENCY          2937.30         C  2 -- H 10         +64.2% ( 83.0%)     97.9%
 TRANSITION DIPOLE   0.0381         C  2 -- H  9         +33.2% ( 59.7%)     94.1%
 TRAVEL (Ang.)       0.2024         C  2 -- C  5          +1.1% ( 10.9%)      0.1%
 REDUCED MASS        0.5604         C  1 -- C  2          +1.1% ( 10.8%)      0.4%
 EFFECTIVE MASS      1.5287
 FORCE CONSTANT      2.8489

 VIBRATION         38   38A           ATOM PAIR      ENERGY CONTRIBUTION    RADIAL
 FREQUENCY          3022.61         C  2 -- H  9         +65.6% ( 80.0%)     99.1%
 TRANSITION DIPOLE   0.0684         C  2 -- H 10         +32.0% ( 55.9%)     94.7%
 TRAVEL (Ang.)       0.2066         C  5 -- H 15          +1.0% (  9.6%)    100.0%
 REDUCED MASS        0.5227         C  2 -- C  5          +0.7% (  8.1%)     18.6%
 EFFECTIVE MASS      1.2867
 FORCE CONSTANT      2.8138

 VIBRATION         39   39A           ATOM PAIR      ENERGY CONTRIBUTION    RADIAL
 FREQUENCY          3051.94         C  4 -- H 14         +61.8% ( 79.8%)    100.0%
 TRANSITION DIPOLE   0.2790         C  6 -- H 16         +30.3% ( 55.9%)    100.0%
 TRAVEL (Ang.)       0.2180         C  7 -- H 17          +3.8% ( 19.7%)    100.0%
 REDUCED MASS        0.4648         C  5 -- H 15          +1.7% ( 13.3%)    100.0%
 EFFECTIVE MASS      1.4692
 FORCE CONSTANT      2.5507

 VIBRATION         40   40A           ATOM PAIR      ENERGY CONTRIBUTION    RADIAL
 FREQUENCY          3056.66         C  5 -- H 15         +54.2% ( 74.8%)    100.0%
 TRANSITION DIPOLE   0.2672         C  7 -- H 17         +36.0% ( 60.9%)    100.0%
 TRAVEL (Ang.)       0.2296         C  4 -- H 14          +6.8% ( 26.4%)    100.0%
 REDUCED MASS        0.4185         C  5 -- C  7          +1.0% ( 10.3%)      0.6%
 EFFECTIVE MASS      1.4624
 FORCE CONSTANT      2.3038

 VIBRATION         41   41A           ATOM PAIR      ENERGY CONTRIBUTION    RADIAL
 FREQUENCY          3070.27         C  6 -- H 16         +39.7% ( 64.1%)     99.9%
 TRANSITION DIPOLE   0.3837         C  5 -- H 15         +20.9% ( 46.5%)     99.9%
 TRAVEL (Ang.)       0.2868         C  4 -- H 14         +20.8% ( 46.3%)     99.9%
 REDUCED MASS        0.2671         C  7 -- H 17         +14.7% ( 38.9%)     99.8%
 EFFECTIVE MASS      1.5748
 FORCE CONSTANT      1.4833

 VIBRATION         42   42A           ATOM PAIR      ENERGY CONTRIBUTION    RADIAL
 FREQUENCY          3080.31         C  7 -- H 17         +31.1% ( 56.8%)    100.0%
 TRANSITION DIPOLE   0.2826         C  6 -- H 16         +18.7% ( 44.1%)    100.0%
 TRAVEL (Ang.)       0.3328         C  3 -- H 13         +18.6% ( 44.0%)     98.9%
 REDUCED MASS        0.1977         C  5 -- H 15         +14.2% ( 38.4%)     99.8%
 EFFECTIVE MASS      1.5780
 FORCE CONSTANT      1.1051

 VIBRATION         43   43A           ATOM PAIR      ENERGY CONTRIBUTION    RADIAL
 FREQUENCY          3080.69         C  3 -- H 13         +46.9% ( 70.4%)     98.8%
 TRANSITION DIPOLE   0.1690         C  3 -- H 11         +18.4% ( 44.1%)     90.7%
 TRAVEL (Ang.)       0.2743         C  7 -- H 17         +10.9% ( 33.9%)    100.0%
 REDUCED MASS        0.2909         C  6 -- H 16          +7.8% ( 28.6%)    100.0%
 EFFECTIVE MASS      1.5341
 FORCE CONSTANT      1.6264

 VIBRATION         44   44A           ATOM PAIR      ENERGY CONTRIBUTION    RADIAL
 FREQUENCY          3083.79         C  3 -- H 12         +55.8% ( 77.1%)     98.0%
 TRANSITION DIPOLE   0.0227         C  3 -- H 11         +40.9% ( 66.0%)     95.7%
 TRAVEL (Ang.)       0.2073         C  3 -- H 13          +2.2% ( 15.3%)     25.1%
 REDUCED MASS        0.5090         C  1 -- C  3          +1.0% ( 10.5%)      0.0%
 EFFECTIVE MASS      1.5088
 FORCE CONSTANT      2.8518

 VIBRATION         45   45A           ATOM PAIR      ENERGY CONTRIBUTION    RADIAL
 FREQUENCY          3179.42         C  3 -- H 11         +33.8% ( 56.0%)     97.2%
 TRANSITION DIPOLE   0.0274         C  3 -- H 12         +33.8% ( 55.9%)     97.2%
 TRAVEL (Ang.)       0.2546         C  3 -- H 13         +32.1% ( 54.6%)     96.9%
 REDUCED MASS        0.3272         C  1 -- C  3          +0.3% (  5.0%)     99.9%
 EFFECTIVE MASS      1.1348
 FORCE CONSTANT      1.9486

      SYMMETRY NUMBER FOR POINT-GROUP C1  =  1


          SYSTEM IS A GROUND STATE



 InChI=1S/C7H10/c1-7-5-3-2-4-6-7/h2-5,7H,6H2,1H3


          MOLECULE IS NOT LINEAR

          THERE ARE 45 GENUINE VIBRATIONS IN THIS SYSTEM
          THIS THERMODYNAMICS CALCULATION IS LIMITED TO
          MOLECULES WHICH HAVE NO INTERNAL ROTATIONS




                    CALCULATED THERMODYNAMIC PROPERTIES
                                          *
   TEMP. (K)   PARTITION FUNCTION   H.O.F.    ENTHALPY  HEAT CAPACITY ENTROPY
                                   KCAL/MOL   CAL/MOLE    CAL/K/MOL  CAL/K/MOL


 298.00  VIB.     0.1441D+02                  2405.8856    19.6970    13.3746
         ROT.     0.1894D+06                   888.2803     2.9808    27.1284
         INT.     0.2728D+07                  3294.1659    22.6778    40.5031
         TRA.     0.8833D+27                  1480.4672     4.9680    39.5363
         TOT.                       14.902    4774.6330    27.6458    80.0394

 200.00  VIB.     0.4192D+01                   915.3238    11.0049     7.4244
         ROT.     0.1041D+06                   596.1613     2.9808    25.9398
         INT.     0.4365D+06                  1511.4851    13.9858    33.3642
         TRA.     0.4856D+27                   993.6021     4.9680    37.5551
         TOT.                       12.633    2505.0873    18.9538    70.9193

 210.00  VIB.     0.4709D+01                  1029.3340    11.8014     7.9805
         ROT.     0.1120D+06                   625.9693     2.9808    26.0852
         INT.     0.5275D+06                  1655.3033    14.7822    34.0657
         TRA.     0.5225D+27                  1043.2822     4.9680    37.7975
         TOT.                       12.826    2698.5856    19.7502    71.8632

 220.00  VIB.     0.5301D+01                  1151.4377    12.6235     8.5484
         ROT.     0.1201D+06                   655.7774     2.9808    26.2239
         INT.     0.6369D+06                  1807.2151    15.6043    34.7723
         TRA.     0.5603D+27                  1092.9623     4.9680    38.0286
         TOT.                       13.028    2900.1774    20.5723    72.8009

 230.00  VIB.     0.5982D+01                  1281.8848    13.4699     9.1281
         ROT.     0.1284D+06                   685.5855     2.9808    26.3564
         INT.     0.7682D+06                  1967.4702    16.4507    35.4845
         TRA.     0.5989D+27                  1142.6424     4.9680    38.2495
         TOT.                       13.238    3110.1127    21.4187    73.7340

 240.00  VIB.     0.6766D+01                  1420.9099    14.3388     9.7197
         ROT.     0.1369D+06                   715.3935     2.9808    26.4832
         INT.     0.9261D+06                  2136.3034    17.3196    36.2029
         TRA.     0.6384D+27                  1192.3226     4.9680    38.4609
         TOT.                       13.456    3328.6260    22.2876    74.6638

 250.00  VIB.     0.7668D+01                  1568.7278    15.2280    10.3230
         ROT.     0.1455D+06                   745.2016     2.9808    26.6049
         INT.     0.1116D+07                  2313.9294    18.2088    36.9279
         TRA.     0.6787D+27                  1242.0027     4.9680    38.6637
         TOT.                       13.684    3555.9320    23.1768    75.5916

 260.00  VIB.     0.8710D+01                  1725.5295    16.1351    10.9378
         ROT.     0.1543D+06                   775.0097     2.9808    26.7218
         INT.     0.1344D+07                  2500.5392    19.1159    37.6597
         TRA.     0.7198D+27                  1291.6828     4.9680    38.8586
         TOT.                       13.920    3792.2219    24.0839    76.5182

 270.00  VIB.     0.9914D+01                  1891.4804    17.0574    11.5640
         ROT.     0.1633D+06                   804.8177     2.9808    26.8343
         INT.     0.1619D+07                  2696.2982    20.0382    38.3984
         TRA.     0.7618D+27                  1341.3629     4.9680    39.0461
         TOT.                       14.165    4037.6610    25.0062    77.4444

 280.00  VIB.     0.1131D+02                  2066.7186    17.9921    12.2012
         ROT.     0.1725D+06                   834.6258     2.9808    26.9427
         INT.     0.1951D+07                  2901.3444    20.9729    39.1440
         TRA.     0.8045D+27                  1391.0430     4.9680    39.2267
         TOT.                       14.420    4292.3874    25.9409    78.3707

 290.00  VIB.     0.1293D+02                  2251.3544    18.9364    12.8490
         ROT.     0.1818D+06                   864.4339     2.9808    27.0473
         INT.     0.2350D+07                  3115.7882    21.9172    39.8964
         TRA.     0.8479D+27                  1440.7231     4.9680    39.4011
         TOT.                       14.684    4556.5113    26.8852    79.2974

 300.00  VIB.     0.1481D+02                  2445.4702    19.8877    13.5070
         ROT.     0.1913D+06                   894.2419     2.9808    27.1484
         INT.     0.2832D+07                  3339.7121    22.8685    40.6554
         TRA.     0.8922D+27                  1490.4032     4.9680    39.5695
         TOT.                       14.958    4830.1153    27.8365    80.2249

 310.00  VIB.     0.1699D+02                  2649.1219    20.8432    14.1747
         ROT.     0.2009D+06                   924.0500     2.9808    27.2461
         INT.     0.3414D+07                  3573.1718    23.8240    41.4208
         TRA.     0.9372D+27                  1540.0833     4.9680    39.7324
         TOT.                       15.241    5113.2551    28.7920    81.1532

 320.00  VIB.     0.1954D+02                  2862.3395    21.8005    14.8516
         ROT.     0.2107D+06                   953.8580     2.9808    27.3408
         INT.     0.4118D+07                  3816.1975    24.7813    42.1923
         TRA.     0.9829D+27                  1589.7634     4.9680    39.8901
         TOT.                       15.534    5405.9609    29.7493    82.0825

 330.00  VIB.     0.2251D+02                  3085.1290    22.7572    15.5371
         ROT.     0.2207D+06                   983.6661     2.9808    27.4325
         INT.     0.4968D+07                  4068.7952    25.7380    42.9695
         TRA.     0.1029D+28                  1639.4435     4.9680    40.0430
         TOT.                       15.836    5708.2387    30.7060    83.0126

 340.00  VIB.     0.2598D+02                  3317.4742    23.7112    16.2306
         ROT.     0.2308D+06                  1013.4742     2.9808    27.5215
         INT.     0.5997D+07                  4330.9484    26.6920    43.7521
         TRA.     0.1076D+28                  1689.1236     4.9680    40.1913
         TOT.                       16.148    6020.0720    31.6601    83.9434

 350.00  VIB.     0.3005D+02                  3559.3383    24.6607    16.9317
         ROT.     0.2411D+06                  1043.2822     2.9808    27.6079
         INT.     0.7244D+07                  4602.6205    27.6415    44.5395
         TRA.     0.1124D+28                  1738.8037     4.9680    40.3353
         TOT.                       16.469    6341.4243    32.6095    84.8749

 360.00  VIB.     0.3481D+02                  3810.6662    25.6037    17.6396
         ROT.     0.2515D+06                  1073.0903     2.9808    27.6918
         INT.     0.8754D+07                  4883.7565    28.5845    45.3314
         TRA.     0.1173D+28                  1788.4838     4.9680    40.4753
         TOT.                       16.800    6672.2403    33.5525    85.8067

 370.00  VIB.     0.4040D+02                  4071.3865    26.5389    18.3539
         ROT.     0.2620D+06                  1102.8984     2.9808    27.7735
         INT.     0.1058D+08                  5174.2848    29.5197    46.1274
         TRA.     0.1222D+28                  1838.1639     4.9680    40.6114
         TOT.                       17.140    7012.4488    34.4877    86.7388

 380.00  VIB.     0.4696D+02                  4341.4132    27.4648    19.0740
         ROT.     0.2727D+06                  1132.7064     2.9808    27.8530
         INT.     0.1281D+08                  5474.1196    30.4456    46.9270
         TRA.     0.1272D+28                  1887.8440     4.9680    40.7439
         TOT.                       17.490    7361.9636    35.4136    87.6708

 390.00  VIB.     0.5467D+02                  4620.6479    28.3803    19.7992
         ROT.     0.2835D+06                  1162.5145     2.9808    27.9304
         INT.     0.1550D+08                  5783.1624    31.3611    47.7297
         TRA.     0.1322D+28                  1937.5242     4.9680    40.8729
         TOT.                       17.848    7720.6865    36.3291    88.6026

 400.00  VIB.     0.6375D+02                  4908.9816    29.2844    20.5292
         ROT.     0.2945D+06                  1192.3226     2.9808    28.0059
         INT.     0.1878D+08                  6101.3041    32.2652    48.5351
         TRA.     0.1374D+28                  1987.2043     4.9680    40.9987
         TOT.                       18.216    8088.5084    37.2333    89.5338

   *: NOTE: HEATS OF FORMATION ARE RELATIVE TO THE
            ELEMENTS IN THEIR STANDARD STATE AT 298K
              (=  Standard Enthalpy of Formation).

            Hvib:  Zero-point energy is not included.
                   frequencies of less than zero cm-1 are not included.
            Hrot = (3/2)RT
            Htra = (3/2)RT + pV = (5/2)RT

            Heat capacity is Cp, not Cv

          For more information, see: HTTP://OpenMOPAC.net/Manual/thermochemistry.html


           FORCE CONSTANT IN CARTESIAN COORDINATES (Millidynes/A)

    ATOM   CHEMICAL       X               Y               Z
   NUMBER   SYMBOL  FORCE CONSTANT  FORCE CONSTANT  FORCE CONSTANT

      1       C        8.259138        8.733692        8.340471
      2       C        8.174395        8.758525        8.364061
      3       C        8.438670        8.162341        8.298753
      4       C       10.299803        9.517838        7.199120
      5       C       10.397235        9.595616        6.993189
      6       C       10.438631        9.530341        7.666168
      7       C       10.386439       10.189605        7.041220
      8       H        1.078234        1.479561        3.287928
      9       H        1.165335        0.774412        4.407648
     10       H        1.221927        2.889260        2.127864
     11       H        5.360718        0.737309        0.697090
     12       H        1.358431        1.898978        3.519974
     13       H        1.005645        1.741962        4.027796
     14       H        4.511650        0.824913        0.929650
     15       H        4.588138        0.836166        0.839983
     16       H        1.412106        1.869075        2.983740
     17       H        1.442912        3.786399        1.043577

 **********************
 *                    *
 * JOB ENDED NORMALLY *
 *                    *
 **********************



 TOTAL JOB TIME:             1.41 SECONDS

 == MOPAC DONE ==
