 *******************************************************************************
 **                                                                           **
 **                              MOPAC v23.1.2                                **
 **                                                                           **
 *******************************************************************************
 **          Digital Object Identifier (DOI): 10.5281/zenodo.6511958          **
 **    Visit the DOI location for information on how to cite this program.    **
 *******************************************************************************

                              PM3 CALCULATION RESULTS

 *******************************************************************************
 *  CALCULATION DONE: (MAX THREADS = 1)              Tue Jun  3 16:28:03 2025  *
 *  PM3        - The PM3 Hamiltonian to be used
 *  PRECISE    - TIGHTER CRITERIA TO BE USED
 *  NOSYM      - POINT-GROUP SYMMETRY SET TO C1
 *  THREADS=1  - MULTI-THREADING NOT USED
 *  T=         - A TIME OF 172800.0 SECONDS REQUESTED
 *  DUMP=N     - RESTART FILE WRITTEN EVERY 7200.0 SECONDS REQUESTED
 *******************************************************************************
pm3  precise nosym THREADS=1
 InChI=1S/C5H6/c1-2-4-5-3-1/h1-4H,5H2

   ATOM   CHEMICAL          X               Y               Z
  NUMBER   SYMBOL      (ANGSTROMS)     (ANGSTROMS)     (ANGSTROMS)

     1       C         -1.11510000  *   0.21810000  *   0.05160000  *
     2       C         -0.41210000  *  -1.08880000  *  -0.11280000  *
     3       C          0.03930000  *   1.16180000  *   0.13000000  *
     4       C          0.89820000  *  -0.91070000  *  -0.12440000  *
     5       C          1.18200000  *   0.50380000  *   0.02820000  *
     6       H         -1.70470000  *   0.23490000  *   0.99230000  *
     7       H         -1.74880000  *   0.44060000  *  -0.83250000  *
     8       H         -0.89770000  *  -2.05090000  *  -0.20950000  *
     9       H         -0.03810000  *   2.23400000  *   0.25280000  *
    10       H          1.63230000  *  -1.69820000  *  -0.23090000  *
    11       H          2.16460000  *   0.95540000  *   0.05530000  *



          CARTESIAN COORDINATES 

    NO.       ATOM           X           Y           Z

     1         C         -1.1151      0.2181      0.0516
     2         C         -0.4121     -1.0888     -0.1128
     3         C          0.0393      1.1618      0.1300
     4         C          0.8982     -0.9107     -0.1244
     5         C          1.1820      0.5038      0.0282
     6         H         -1.7047      0.2349      0.9923
     7         H         -1.7488      0.4406     -0.8325
     8         H         -0.8977     -2.0509     -0.2095
     9         H         -0.0381      2.2340      0.2528
    10         H          1.6323     -1.6982     -0.2309
    11         H          2.1646      0.9554      0.0553

  H: (PM3): J. J. P. STEWART, J. COMP. CHEM. 10, 209 (1989).
  C: (PM3): J. J. P. STEWART, J. COMP. CHEM. 10, 209 (1989).

           Empirical Formula: C5 H6  =    11 atoms



      MOLECULAR POINT GROUP   :   C1  


      RHF CALCULATION, NO. OF DOUBLY OCCUPIED LEVELS = 13


          Geometry optimization using EF

          DIAGONAL MATRIX USED AS START HESSIAN

 CYCLE:     1 TIME:   0.004 TIME LEFT:  2.00D  GRAD.:   101.570 HEAT:  34.84166
 CYCLE:     2 TIME:   0.008 TIME LEFT:  2.00D  GRAD.:    41.276 HEAT:  33.37463
 CYCLE:     3 TIME:   0.004 TIME LEFT:  2.00D  GRAD.:    24.388 HEAT:  32.68043
 CYCLE:     4 TIME:   0.004 TIME LEFT:  2.00D  GRAD.:    47.595 HEAT:  32.65522
 CYCLE:     5 TIME:   0.000 TIME LEFT:  2.00D  GRAD.:    38.709 HEAT:  32.37688
 CYCLE:     6 TIME:   0.008 TIME LEFT:  2.00D  GRAD.:    21.984 HEAT:  32.03459
 CYCLE:     7 TIME:   0.008 TIME LEFT:  2.00D  GRAD.:    14.658 HEAT:  31.91696
 CYCLE:     8 TIME:   0.000 TIME LEFT:  2.00D  GRAD.:    17.364 HEAT:  31.85740
 CYCLE:     9 TIME:   0.008 TIME LEFT:  2.00D  GRAD.:    12.212 HEAT:  31.76535
 CYCLE:    10 TIME:   0.000 TIME LEFT:  2.00D  GRAD.:     9.916 HEAT:  31.73923
 CYCLE:    11 TIME:   0.004 TIME LEFT:  2.00D  GRAD.:     4.367 HEAT:  31.70612
 CYCLE:    12 TIME:   0.008 TIME LEFT:  2.00D  GRAD.:     2.661 HEAT:  31.70200
 CYCLE:    13 TIME:   0.004 TIME LEFT:  2.00D  GRAD.:     1.718 HEAT:  31.70014
 CYCLE:    14 TIME:   0.004 TIME LEFT:  2.00D  GRAD.:     2.957 HEAT:  31.69929
 CYCLE:    15 TIME:   0.004 TIME LEFT:  2.00D  GRAD.:     1.806 HEAT:  31.69771
 CYCLE:    16 TIME:   0.004 TIME LEFT:  2.00D  GRAD.:     1.176 HEAT:  31.69676
 CYCLE:    17 TIME:   0.004 TIME LEFT:  2.00D  GRAD.:     0.753 HEAT:  31.69624
 CYCLE:    18 TIME:   0.004 TIME LEFT:  2.00D  GRAD.:     0.454 HEAT:  31.69605
 CYCLE:    19 TIME:   0.004 TIME LEFT:  2.00D  GRAD.:     0.135 HEAT:  31.69598
 CYCLE:    20 TIME:   0.004 TIME LEFT:  2.00D  GRAD.:     0.118 HEAT:  31.69595
 CYCLE:    21 TIME:   0.004 TIME LEFT:  2.00D  GRAD.:     0.086 HEAT:  31.69593
 CYCLE:    22 TIME:   0.004 TIME LEFT:  2.00D  GRAD.:     0.045 HEAT:  31.69592

     GRADIENT =  0.04511 IS LESS THAN CUTOFF =  0.05000



 -------------------------------------------------------------------------------
 pm3  precise nosym THREADS=1
 InChI=1S/C5H6/c1-2-4-5-3-1/h1-4H,5H2



     GEOMETRY OPTIMISED USING EIGENVECTOR FOLLOWING (EF).     
     SCF FIELD WAS ACHIEVED                                   


                              PM3 CALCULATION
                                                       MOPAC v23.1.2 MacOS
                                                       Tue Jun  3 16:28:03 2025




          FINAL HEAT OF FORMATION =         31.69592 KCAL/MOL =     132.61574 KJ/MOL


          COSMO AREA              =        108.82 SQUARE ANGSTROMS
          COSMO VOLUME            =         95.33 CUBIC ANGSTROMS

          GRADIENT NORM           =          0.04511          =       0.01360 PER ATOM
          IONIZATION POTENTIAL    =          9.232566 EV
          HOMO LUMO ENERGIES (EV) =         -9.233  0.324
          NO. OF FILLED LEVELS    =         13
          MOLECULAR WEIGHT        =         66.1024         POINT GROUP:  C1  

          MOLECULAR DIMENSIONS (Angstroms)

            Atom       Atom       Distance
            H     9    H     8     4.40786
            H    10    H     6     3.88288
            H    11    H     7     1.73116


          SCF CALCULATIONS        =         28

          WALL-CLOCK TIME         =      0.109 SECONDS
          COMPUTATION TIME        =      0.043 SECONDS




   ATOM   CHEMICAL          X               Y               Z
  NUMBER   SYMBOL      (ANGSTROMS)     (ANGSTROMS)     (ANGSTROMS)

     1       C         -1.11197529  *   0.21750277  *   0.05144745  *
     2       C         -0.42345867  *  -1.10731983  *  -0.11450455  *
     3       C          0.03597101  *   1.18306293  *   0.13261766  *
     4       C          0.91604392  *  -0.92108548  *  -0.12608570  *
     5       C          1.20245492  *   0.50671061  *   0.02799165  *
     6       H         -1.73407316  *   0.24383799  *   0.96437758  *
     7       H         -1.77619990  *   0.44295487  *  -0.80242389  *
     8       H         -0.96838757  *  -2.04382020  *  -0.20673291  *
     9       H         -0.10612438  *   2.25393558  *   0.25694302  *
    10       H          1.68980338  *  -1.67882114  *  -0.23042324  *
    11       H          2.21028719  *   0.91610901  *   0.04967234  *

                             CARTESIAN COORDINATES

   1    C       -1.111975290     0.217502772     0.051447454
   2    C       -0.423458672    -1.107319830    -0.114504555
   3    C        0.035971014     1.183062931     0.132617665
   4    C        0.916043922    -0.921085477    -0.126085702
   5    C        1.202454917     0.506710614     0.027991649
   6    H       -1.734073155     0.243837985     0.964377580
   7    H       -1.776199901     0.442954868    -0.802423895
   8    H       -0.968387573    -2.043820202    -0.206732908
   9    H       -0.106124377     2.253935582     0.256943021
  10    H        1.689803380    -1.678821143    -0.230423240
  11    H        2.210287190     0.916109010     0.049672335


           Empirical Formula: C5 H6  =    11 atoms



      MOLECULAR POINT GROUP   :   C1  


                  EIGENVALUES  
 -39.37579 -27.31564 -27.21204 -19.28017 -18.49234 -18.05819 -14.94436 -13.92841
 -13.65348 -12.95471 -12.78535 -10.91902  -9.23257   0.32423   2.02172   3.36553
   3.39570   3.84111   3.86338   4.24313   4.33343   4.39058   4.68055   5.75885
   5.79244   6.15756


              NET ATOMIC CHARGES AND DIPOLE CONTRIBUTIONS

  ATOM NO.   TYPE          CHARGE      No. of ELECS.   s-Pop       p-Pop       
    1          C          -0.052449        4.0524     1.14596     2.90649
    2          C          -0.162611        4.1626     1.20758     2.95503
    3          C          -0.162628        4.1626     1.20758     2.95505
    4          C          -0.121289        4.1213     1.19248     2.92881
    5          C          -0.121318        4.1213     1.19249     2.92883
    6          H           0.081636        0.9184     0.91836
    7          H           0.081630        0.9184     0.91837
    8          H           0.115026        0.8850     0.88497
    9          H           0.115019        0.8850     0.88498
   10          H           0.113488        0.8865     0.88651
   11          H           0.113494        0.8865     0.88651
 DIPOLE           X         Y         Z       TOTAL
 POINT-CHG.    -0.496     0.097     0.023     0.505
 HYBRID        -0.028     0.006     0.001     0.028
 SUM           -0.523     0.102     0.024     0.534


          ATOMIC ORBITAL ELECTRON POPULATIONS

     Atom    s        px        py        pz   
    1  C   1.14596   0.96843   0.93093   1.00713
    2  C   1.20758   0.96311   0.97389   1.01803
    3  C   1.20758   0.95646   0.98041   1.01818
    4  C   1.19248   0.95968   0.95694   1.01219
    5  C   1.19249   0.97288   0.94408   1.01187
    6  H   0.91836
    7  H   0.91837
    8  H   0.88497
    9  H   0.88498
   10  H   0.88651
   11  H   0.88651
 *******************************************************************************
 **                                                                           **
 **                              MOPAC v23.1.2                                **
 **                                                                           **
 *******************************************************************************
 **          Digital Object Identifier (DOI): 10.5281/zenodo.6511958          **
 **    Visit the DOI location for information on how to cite this program.    **
 *******************************************************************************

                              PM3 CALCULATION RESULTS

 *******************************************************************************
 *  CALCULATION DONE: (MAX THREADS = 1)              Tue Jun  3 16:28:03 2025  *
 *  PM3        - The PM3 Hamiltonian to be used
 *  OLDGEO     - PREVIOUS GEOMETRY TO BE USED
 *  PRECISE    - TIGHTER CRITERIA TO BE USED
 *  NOSYM      - POINT-GROUP SYMMETRY SET TO C1
 *  THREADS=1  - MULTI-THREADING NOT USED
 *  T=         - A TIME OF 172800.0 SECONDS REQUESTED
 *  DUMP=N     - RESTART FILE WRITTEN EVERY 7200.0 SECONDS REQUESTED
 *  THERMO     - THERMODYNAMIC QUANTITIES TO BE CALCULATED
 *******************************************************************************
oldgeo thermo nosym precise THREADS=1  pm3
 InChI=1S/C5H6/c1-2-4-5-3-1/h1-4H,5H2

   ATOM   CHEMICAL          X               Y               Z
  NUMBER   SYMBOL      (ANGSTROMS)     (ANGSTROMS)     (ANGSTROMS)

     1       C         -1.11197529  *   0.21750277  *   0.05144745  *
     2       C         -0.42345867  *  -1.10731983  *  -0.11450455  *
     3       C          0.03597101  *   1.18306293  *   0.13261766  *
     4       C          0.91604392  *  -0.92108548  *  -0.12608570  *
     5       C          1.20245492  *   0.50671061  *   0.02799165  *
     6       H         -1.73407316  *   0.24383799  *   0.96437758  *
     7       H         -1.77619990  *   0.44295487  *  -0.80242389  *
     8       H         -0.96838757  *  -2.04382020  *  -0.20673291  *
     9       H         -0.10612438  *   2.25393558  *   0.25694302  *
    10       H          1.68980338  *  -1.67882114  *  -0.23042324  *
    11       H          2.21028719  *   0.91610901  *   0.04967234  *



          CARTESIAN COORDINATES 

    NO.       ATOM           X           Y           Z

     1         C         -1.1120      0.2175      0.0514
     2         C         -0.4235     -1.1073     -0.1145
     3         C          0.0360      1.1831      0.1326
     4         C          0.9160     -0.9211     -0.1261
     5         C          1.2025      0.5067      0.0280
     6         H         -1.7341      0.2438      0.9644
     7         H         -1.7762      0.4430     -0.8024
     8         H         -0.9684     -2.0438     -0.2067
     9         H         -0.1061      2.2539      0.2569
    10         H          1.6898     -1.6788     -0.2304
    11         H          2.2103      0.9161      0.0497

  H: (PM3): J. J. P. STEWART, J. COMP. CHEM. 10, 209 (1989).
  C: (PM3): J. J. P. STEWART, J. COMP. CHEM. 10, 209 (1989).

           Empirical Formula: C5 H6  =    11 atoms



      MOLECULAR POINT GROUP   :   C1  


      RHF CALCULATION, NO. OF DOUBLY OCCUPIED LEVELS = 13



          HEAT OF FORMATION =      31.695923 KCALS/MOLE


          CARTESIAN COORDINATE DERIVATIVES

   NUMBER  ATOM         X            Y            Z

     1       C      0.004028    -0.000308     0.000975
     2       C      0.013515     0.010660    -0.002895
     3       C     -0.010320    -0.011975    -0.006149
     4       C     -0.002246    -0.006883     0.001332
     5       C     -0.001110    -0.006808     0.001622
     6       H     -0.011705    -0.007487     0.004873
     7       H      0.001730     0.014896    -0.000226
     8       H      0.003569    -0.015602     0.004766
     9       H      0.014613     0.006286     0.002917
    10       H     -0.009765     0.005952    -0.005336
    11       H     -0.002308     0.011270    -0.001879



          GRADIENT NORM =   0.04462

          MOLECULAR WEIGHT =   66.10



          ROTATIONAL CONSTANTS IN CM(-1)

          A =    0.27932908   B =    0.27648511   C =    0.14269966



           PRINCIPAL MOMENTS OF INERTIA IN UNITS OF 10**(-40)*GRAM-CM**2

          A =      100.2142   B =      101.2451   C =      196.1655


          ORIENTATION OF MOLECULE IN FORCE CALCULATION

    NO.       ATOM         X         Y         Z

     1          C      -0.7720   -0.9682    0.0001
     2          C       0.7302   -0.9682    0.0001
     3          C      -1.1064    0.4964    0.0001
     4          C       1.1812    0.3069   -0.0002
     5          C       0.0363    1.2199   -0.0001
     6          H      -1.1812   -1.4812    0.8892
     7          H      -1.1810   -1.4808   -0.8893
     8          H       1.3165   -1.8840    0.0003
     9          H      -2.1296    0.8643    0.0003
    10          H       2.2156    0.6442   -0.0004
    11          H       0.1347    2.3034   -0.0003


    FIRST DERIVATIVES WILL BE USED IN THE CALCULATION OF SECOND DERIVATIVES

          ESTIMATED TIME TO COMPLETE CALCULATION =        0.52 SECONDS

    FOR POINT-GROUP C1   THERE ARE   1 UNIQUE SYMMETRY FUNCTIONS.

 STEP:   1 TIME =     0.01 SECS, INTEGRAL =      0.01 TIME LEFT: 172799.99
 STEP:   2 TIME =     0.01 SECS, INTEGRAL =      0.02 TIME LEFT: 172799.98
 STEP:   3 TIME =     0.01 SECS, INTEGRAL =      0.02 TIME LEFT: 172799.97
 STEP:   4 TIME =     0.01 SECS, INTEGRAL =      0.03 TIME LEFT: 172799.96
 STEP:   5 TIME =     0.01 SECS, INTEGRAL =      0.04 TIME LEFT: 172799.96
 STEP:   6 TIME =     0.01 SECS, INTEGRAL =      0.05 TIME LEFT: 172799.95
 STEP:   7 TIME =     0.01 SECS, INTEGRAL =      0.05 TIME LEFT: 172799.94
 STEP:   8 TIME =     0.01 SECS, INTEGRAL =      0.06 TIME LEFT: 172799.93
 STEP:   9 TIME =     0.01 SECS, INTEGRAL =      0.07 TIME LEFT: 172799.93
 STEP:  10 TIME =     0.01 SECS, INTEGRAL =      0.08 TIME LEFT: 172799.92
 STEP:  11 TIME =     0.01 SECS, INTEGRAL =      0.09 TIME LEFT: 172799.91
 STEP:  12 TIME =     0.01 SECS, INTEGRAL =      0.09 TIME LEFT: 172799.90
 STEP:  13 TIME =     0.01 SECS, INTEGRAL =      0.10 TIME LEFT: 172799.89
 STEP:  14 TIME =     0.01 SECS, INTEGRAL =      0.11 TIME LEFT: 172799.89
 STEP:  15 TIME =     0.01 SECS, INTEGRAL =      0.12 TIME LEFT: 172799.88
 STEP:  16 TIME =     0.01 SECS, INTEGRAL =      0.12 TIME LEFT: 172799.87
 STEP:  17 TIME =     0.01 SECS, INTEGRAL =      0.13 TIME LEFT: 172799.86
 STEP:  18 TIME =     0.01 SECS, INTEGRAL =      0.14 TIME LEFT: 172799.86
 STEP:  19 TIME =     0.01 SECS, INTEGRAL =      0.15 TIME LEFT: 172799.85
 STEP:  20 TIME =     0.01 SECS, INTEGRAL =      0.16 TIME LEFT: 172799.84
 STEP:  21 TIME =     0.01 SECS, INTEGRAL =      0.16 TIME LEFT: 172799.83
 STEP:  22 TIME =     0.01 SECS, INTEGRAL =      0.17 TIME LEFT: 172799.82
 STEP:  23 TIME =     0.01 SECS, INTEGRAL =      0.18 TIME LEFT: 172799.82
 STEP:  24 TIME =     0.01 SECS, INTEGRAL =      0.19 TIME LEFT: 172799.81
 STEP:  25 TIME =     0.01 SECS, INTEGRAL =      0.20 TIME LEFT: 172799.80
 STEP:  26 TIME =     0.01 SECS, INTEGRAL =      0.20 TIME LEFT: 172799.79
 STEP:  27 TIME =     0.01 SECS, INTEGRAL =      0.21 TIME LEFT: 172799.79
 STEP:  28 TIME =     0.00 SECS, INTEGRAL =      0.21 TIME LEFT: 172799.78
 STEP:  29 TIME =     0.01 SECS, INTEGRAL =      0.22 TIME LEFT: 172799.77
 STEP:  30 TIME =     0.01 SECS, INTEGRAL =      0.23 TIME LEFT: 172799.77
 STEP:  31 TIME =     0.01 SECS, INTEGRAL =      0.24 TIME LEFT: 172799.76
 STEP:  32 TIME =     0.01 SECS, INTEGRAL =      0.25 TIME LEFT: 172799.75
 STEP:  33 TIME =     0.01 SECS, INTEGRAL =      0.25 TIME LEFT: 172799.74

(To convert to Hartree/Bohr^2, multiply by (10^(-21) x N x a0^2)/(4.184 x 627.51) =  0.0642)


           FORCE MATRIX IN MILLIDYNES/ANGSTROM


                  C  1       C  2       C  3       C  4       C  5       H  6
 ------------------------------------------------------------------------------
     C    1  14.880545
     C    2   4.398698  17.884763
     C    3   4.399050   1.127288  17.885227
     C    4   1.256868   9.664543   1.608586  18.257365
     C    5   1.256762   1.607729   9.664756   5.145726  18.256028
     H    6   4.518052   0.416193   0.416228   0.046978   0.046972   5.124030
     H    7   4.518204   0.416106   0.416111   0.046992   0.046989   0.547300
     H    8   0.402308   5.087342   0.043672   0.444413   0.100908   0.011162
     H    9   0.402433   0.043461   5.088004   0.100756   0.444365   0.011180
     H   10   0.117414   0.446774   0.050148   5.074467   0.420211   0.016053
     H   11   0.117396   0.050211   0.447008   0.420442   5.073613   0.016038


                  H  7       H  8       H  9       H 10       H 11
 ------------------------------------------------------------------
     H    7   5.124025
     H    8   0.011163   5.486611
     H    9   0.011186   0.010748   5.487131
     H   10   0.016059   0.042228   0.005445   5.465613
     H   11   0.016061   0.005546   0.042234   0.009585   5.464864


          HEAT OF FORMATION =      31.695923 KCALS/MOLE

          ZERO POINT ENERGY      58.179 KCAL/MOL


           NORMAL COORDINATE ANALYSIS (Total motion = 1 Angstrom)


   Root No.       1         2         3         4         5         6         7         8

                 1 A       2 A       3 A       4 A       5 A       6 A       7 A       8 A   

                 345.8     478.6     709.8     791.9     798.1     825.1     875.1     961.1
  
           1    0.0000   -0.0000   -0.0000   -0.0000    0.0656    0.0484   -0.0000    0.0000
           2    0.0000    0.0000   -0.0000   -0.0000    0.0823   -0.0385   -0.0000   -0.0000
           3   -0.0376    0.0000   -0.0290   -0.0000   -0.0000   -0.0000    0.0575   -0.0000
           4    0.0000   -0.0000   -0.0000   -0.0000    0.0712    0.0002   -0.0000   -0.0000
           5    0.0000   -0.0000    0.0000    0.0000   -0.0672   -0.0777    0.0000    0.0000
           6    0.0514   -0.0420   -0.0049   -0.0296   -0.0000   -0.0000   -0.0122    0.0078
           7    0.0000    0.0000    0.0000    0.0000   -0.0814    0.0758    0.0000   -0.0000
           8    0.0000    0.0000   -0.0000   -0.0000    0.0544    0.0172   -0.0000    0.0000
           9    0.0515    0.0420   -0.0049    0.0296   -0.0000    0.0000   -0.0122   -0.0078
          10   -0.0000    0.0000    0.0000    0.0000   -0.0217   -0.1292   -0.0000   -0.0000
          11   -0.0000    0.0000    0.0000    0.0000   -0.0474   -0.0256    0.0000   -0.0000
          12   -0.0270    0.0648   -0.0139   -0.0247   -0.0000    0.0000   -0.0275   -0.0456
          13   -0.0000   -0.0000    0.0000    0.0000   -0.0414   -0.0039    0.0000    0.0000
          14   -0.0000   -0.0000    0.0000   -0.0000   -0.0318    0.1317    0.0000    0.0000
          15   -0.0271   -0.0648   -0.0139    0.0247   -0.0000   -0.0000   -0.0275    0.0456
          16   -0.0918    0.0552    0.0722    0.0661    0.0790    0.0144   -0.0915   -0.1407
          17   -0.1152   -0.0440    0.0906   -0.0527    0.0990   -0.0114   -0.1147    0.1123
          18   -0.1500    0.0000    0.0615    0.0000    0.0120    0.0000   -0.0566   -0.0000
          19    0.0919   -0.0553   -0.0723   -0.0662    0.0789    0.0143    0.0915    0.1411
          20    0.1153    0.0440   -0.0908    0.0527    0.0989   -0.0114    0.1148   -0.1126
          21   -0.1499    0.0000    0.0614    0.0000   -0.0119    0.0000   -0.0565   -0.0000
          22    0.0000   -0.0000   -0.0000   -0.0000    0.0295    0.1015   -0.0000   -0.0000
          23    0.0000   -0.0000    0.0001    0.0001   -0.0954   -0.0146    0.0000   -0.0000
          24    0.1379   -0.0974    0.1903    0.2575    0.0002    0.0002   -0.0436   -0.0639
          25    0.0000    0.0000    0.0001   -0.0000   -0.0996    0.0367    0.0000    0.0000
          26    0.0000    0.0000    0.0000    0.0000    0.0077   -0.0957   -0.0000    0.0000
          27    0.1379    0.0974    0.1905   -0.2574    0.0001   -0.0001   -0.0435    0.0637
          28   -0.0000    0.0000    0.0000    0.0000   -0.0527   -0.1140    0.0001    0.0001
          29   -0.0000    0.0000    0.0000    0.0000    0.0463   -0.0792    0.0000   -0.0000
          30   -0.0545    0.2253    0.1450    0.1038    0.0003    0.0001    0.2307    0.2025
          31   -0.0000   -0.0000    0.0000   -0.0000    0.0570    0.0518    0.0000    0.0000
          32   -0.0000   -0.0000    0.0000   -0.0000   -0.0411    0.1287    0.0000   -0.0000
          33   -0.0546   -0.2252    0.1451   -0.1035    0.0002   -0.0001    0.2307   -0.2025


   Root No.       9        10        11        12        13        14        15        16

                 9 A      10 A      11 A      12 A      13 A      14 A      15 A      16 A   

                 985.9    1011.1    1021.7    1036.4    1088.6    1091.1    1206.8    1219.3
  
           1    0.0000   -0.0263    0.0181    0.0001    0.0026   -0.0016   -0.0330    0.0240
           2    0.0000   -0.0333   -0.0141   -0.0001   -0.0020   -0.0022   -0.0413   -0.0192
           3    0.0453    0.0000    0.0000   -0.0000    0.0000    0.0000    0.0000   -0.0000
           4   -0.0000    0.0256   -0.0326   -0.0001    0.0039   -0.0101    0.0559    0.0220
           5   -0.0000   -0.0057    0.0213    0.0001   -0.0149    0.0059   -0.0167    0.0127
           6   -0.0539   -0.0000   -0.0002    0.0423    0.0000    0.0000   -0.0000   -0.0000
           7    0.0000   -0.0117   -0.0278   -0.0001    0.0147    0.0096   -0.0287   -0.0075
           8   -0.0000    0.0240    0.0267    0.0001    0.0003   -0.0087    0.0508   -0.0243
           9   -0.0540   -0.0000    0.0002   -0.0422   -0.0000   -0.0000   -0.0000    0.0000
          10    0.0000   -0.0207   -0.0028   -0.0000   -0.0039   -0.0048    0.0515   -0.0100
          11    0.0000    0.0057   -0.0040   -0.0000   -0.0003    0.0092   -0.0072    0.0232
          12    0.0260    0.0000    0.0002   -0.0319   -0.0000   -0.0000   -0.0000   -0.0000
          13    0.0000    0.0102    0.0032    0.0000   -0.0013    0.0099   -0.0185   -0.0249
          14    0.0000   -0.0188    0.0039    0.0000    0.0041   -0.0023    0.0485    0.0047
          15    0.0261    0.0000   -0.0001    0.0319    0.0000   -0.0000   -0.0000    0.0000
          16   -0.0620   -0.0345    0.1965    0.1936    0.0648   -0.0022   -0.1047   -0.0841
          17   -0.0778   -0.0456   -0.1563   -0.1543   -0.0514   -0.0088   -0.1313    0.0670
          18   -0.0323   -0.0110    0.0001    0.0000    0.0001   -0.0025   -0.0748   -0.0000
          19    0.0620   -0.0344    0.1977   -0.1923    0.0646   -0.0022   -0.1046   -0.0839
          20    0.0780   -0.0455   -0.1572    0.1533   -0.0512   -0.0088   -0.1313    0.0669
          21   -0.0323    0.0110   -0.0001    0.0000   -0.0001    0.0025    0.0747    0.0000
          22   -0.0001    0.1987   -0.0533   -0.0001   -0.1717   -0.1684   -0.0638   -0.1394
          23   -0.0000    0.1059    0.0075    0.0001   -0.1293   -0.0948   -0.0993   -0.0913
          24    0.1937    0.0001    0.0004   -0.0940    0.0000    0.0000    0.0000    0.0000
          25    0.0000    0.0587   -0.0200   -0.0001    0.0918   -0.0456   -0.0827    0.0580
          26   -0.0001    0.2178    0.0470    0.0001    0.2101   -0.1644   -0.0845    0.1564
          27    0.1937    0.0001   -0.0004    0.0938    0.0000    0.0000    0.0000   -0.0000
          28    0.0000   -0.0611    0.0391    0.0002   -0.0547   -0.0920    0.0594    0.0470
          29   -0.0001    0.1329   -0.1356   -0.0006    0.1542    0.2788   -0.0156   -0.1530
          30   -0.0988   -0.0001   -0.0004    0.0852    0.0000   -0.0000   -0.0000    0.0000
          31   -0.0001    0.1454    0.1397    0.0007   -0.1844    0.2746   -0.0284    0.1590
          32    0.0000   -0.0301   -0.0076   -0.0001    0.0210   -0.0255    0.0544   -0.0116
          33   -0.0991   -0.0001    0.0004   -0.0851    0.0000   -0.0000   -0.0000   -0.0000


   Root No.      17        18        19        20        21        22        23        24

                17 A      18 A      19 A      20 A      21 A      22 A      23 A      24 A   

                1350.8    1363.3    1419.5    1718.2    1782.8    2985.5    3053.6    3133.7
  
           1    0.1114   -0.0489    0.0287   -0.0093   -0.0003    0.0000   -0.0259   -0.0001
           2   -0.0889   -0.0614    0.0360   -0.0116    0.0002    0.0000   -0.0325    0.0001
           3   -0.0000   -0.0000    0.0000    0.0000    0.0000   -0.0610   -0.0000   -0.0000
           4   -0.0775    0.0093   -0.0501    0.0505   -0.0545   -0.0000   -0.0012   -0.0077
           5    0.0161   -0.0070   -0.0097    0.1311   -0.1102   -0.0000    0.0006    0.0111
           6   -0.0000    0.0000    0.0000   -0.0000    0.0000   -0.0003    0.0000   -0.0000
           7   -0.0329   -0.0089    0.0017    0.1165    0.0953   -0.0000    0.0008   -0.0129
           8    0.0720    0.0076   -0.0510    0.0785    0.0776   -0.0000   -0.0011    0.0052
           9    0.0000    0.0000    0.0000   -0.0000   -0.0000   -0.0003    0.0000    0.0000
          10    0.0191    0.0413    0.0724   -0.0327    0.0406   -0.0000   -0.0004    0.0238
          11   -0.0145   -0.0164   -0.0577   -0.1251    0.1245   -0.0000    0.0003    0.0083
          12    0.0000   -0.0000   -0.0000    0.0000   -0.0000   -0.0002   -0.0000   -0.0000
          13    0.0184   -0.0251   -0.0724   -0.1147   -0.1123    0.0000    0.0004   -0.0028
          14   -0.0155    0.0366    0.0577   -0.0598   -0.0673   -0.0000   -0.0003   -0.0258
          15   -0.0000   -0.0000    0.0000    0.0000    0.0000   -0.0002   -0.0000    0.0000
          16   -0.1230    0.1617   -0.0306   -0.0079    0.0291   -0.1780    0.1544   -0.0007
          17    0.0979    0.2028   -0.0383   -0.0099   -0.0232   -0.2231    0.1936    0.0005
          18   -0.0001    0.2211   -0.0612   -0.0051    0.0000    0.3703   -0.3793    0.0000
          19   -0.1229    0.1618   -0.0306   -0.0078    0.0291    0.1778    0.1543   -0.0007
          20    0.0978    0.2029   -0.0384   -0.0098   -0.0232    0.2229    0.1935    0.0005
          21    0.0001   -0.2210    0.0612    0.0051   -0.0000    0.3704    0.3795   -0.0000
          22   -0.0257    0.0126    0.1046   -0.0923    0.0725   -0.0000    0.0056    0.0894
          23    0.0506   -0.0086    0.0894    0.0675   -0.0538    0.0000   -0.0113   -0.1370
          24   -0.0000   -0.0000   -0.0000   -0.0000    0.0000   -0.0009    0.0000    0.0000
          25   -0.0551   -0.0112    0.0638    0.0864    0.0686    0.0000   -0.0123    0.1578
          26    0.0137    0.0103    0.1218   -0.0748   -0.0586   -0.0000    0.0029   -0.0582
          27    0.0000   -0.0000   -0.0000   -0.0000   -0.0000   -0.0009    0.0000   -0.0000
          28   -0.0211    0.0274    0.0196   -0.0883    0.1133   -0.0000    0.0110   -0.2750
          29    0.1096    0.0403    0.1159   -0.0346   -0.0348   -0.0000    0.0038   -0.0897
          30   -0.0000   -0.0000   -0.0000    0.0000   -0.0000   -0.0007   -0.0000    0.0001
          31   -0.1115    0.0330    0.1084   -0.0142    0.0590   -0.0000    0.0013    0.0270
          32   -0.0039    0.0357    0.0449   -0.0938   -0.1027   -0.0000    0.0116    0.2972
          33    0.0000   -0.0000   -0.0000    0.0000    0.0000   -0.0007   -0.0000   -0.0000


   Root No.      25        26        27

                25 A      26 A      27 A   

                3136.2    3148.4    3158.2
  
           1    0.0002    0.0001   -0.0013
           2    0.0003   -0.0001   -0.0016
           3    0.0000    0.0000    0.0000
           4    0.0101   -0.0122    0.0107
           5   -0.0148    0.0234   -0.0208
           6    0.0000   -0.0000    0.0000
           7   -0.0160   -0.0257   -0.0228
           8    0.0063    0.0067    0.0058
           9    0.0000    0.0000    0.0000
          10   -0.0208   -0.0143    0.0188
          11   -0.0067   -0.0073    0.0078
          12    0.0000    0.0000   -0.0000
          13   -0.0019    0.0039    0.0034
          14   -0.0212    0.0151    0.0199
          15    0.0000   -0.0000   -0.0000
          16    0.0001   -0.0010    0.0041
          17    0.0001    0.0008    0.0051
          18    0.0001    0.0000   -0.0096
          19    0.0001   -0.0010    0.0041
          20    0.0001    0.0008    0.0051
          21   -0.0001   -0.0000    0.0096
          22   -0.1170    0.1577   -0.1296
          23    0.1806   -0.2454    0.2021
          24   -0.0000    0.0001   -0.0000
          25    0.1941    0.2762    0.2281
          26   -0.0709   -0.0998   -0.0821
          27   -0.0000   -0.0000   -0.0000
          28    0.2409    0.1574   -0.1933
          29    0.0766    0.0524   -0.0626
          30   -0.0001   -0.0000    0.0000
          31    0.0205   -0.0156   -0.0178
          32    0.2457   -0.1607   -0.2009
          33   -0.0000    0.0000    0.0000


           MASS-WEIGHTED COORDINATE ANALYSIS (NORMAL COORDINATES)


   Root No.       1         2         3         4         5         6         7         8

                 1 A       2 A       3 A       4 A       5 A       6 A       7 A       8 A   

                 345.8     478.6     709.8     791.9     798.1     825.1     875.1     961.1
  
           1    0.0000   -0.0000   -0.0002   -0.0001    0.3244    0.2053   -0.0001    0.0000
           2    0.0000    0.0000   -0.0002   -0.0000    0.4068   -0.1634   -0.0001   -0.0000
           3   -0.2708    0.0000   -0.2473   -0.0001   -0.0000   -0.0000    0.4228   -0.0001
           4    0.0000   -0.0000   -0.0002   -0.0000    0.3520    0.0007   -0.0002   -0.0002
           5    0.0000   -0.0001    0.0002    0.0001   -0.3322   -0.3294    0.0001    0.0001
           6    0.3705   -0.2777   -0.0416   -0.2264   -0.0001   -0.0000   -0.0896    0.0593
           7    0.0000    0.0000    0.0002    0.0000   -0.4026    0.3211    0.0001   -0.0001
           8    0.0000    0.0000   -0.0001   -0.0001    0.2691    0.0728   -0.0001    0.0001
           9    0.3706    0.2776   -0.0419    0.2266   -0.0001    0.0000   -0.0898   -0.0589
          10   -0.0000    0.0001    0.0001    0.0001   -0.1071   -0.5477   -0.0000   -0.0001
          11   -0.0001    0.0001    0.0001    0.0000   -0.2345   -0.1085    0.0001   -0.0001
          12   -0.1948    0.4285   -0.1183   -0.1890   -0.0001    0.0000   -0.2022   -0.3468
          13   -0.0000   -0.0001    0.0001    0.0001   -0.2048   -0.0166    0.0001    0.0001
          14   -0.0000   -0.0001    0.0001   -0.0001   -0.1571    0.5581    0.0000    0.0001
          15   -0.1949   -0.4285   -0.1183    0.1887   -0.0000   -0.0000   -0.2022    0.3467
          16   -0.1916    0.1058    0.1782    0.1465    0.1131    0.0177   -0.1947   -0.3099
          17   -0.2403   -0.0843    0.2237   -0.1167    0.1417   -0.0139   -0.2441    0.2472
          18   -0.3129    0.0001    0.1517    0.0000    0.0172    0.0000   -0.1204   -0.0000
          19    0.1917   -0.1059   -0.1784   -0.1467    0.1130    0.0176    0.1947    0.3107
          20    0.2405    0.0844   -0.2240    0.1168    0.1417   -0.0139    0.2442   -0.2479
          21   -0.3127    0.0001    0.1516    0.0001   -0.0171    0.0000   -0.1203   -0.0000
          22    0.0000   -0.0000   -0.0000   -0.0000    0.0422    0.1246   -0.0000   -0.0001
          23    0.0000   -0.0000    0.0002    0.0002   -0.1367   -0.0179    0.0000   -0.0000
          24    0.2876   -0.1866    0.4695    0.5703    0.0003    0.0002   -0.0928   -0.1408
          25    0.0000    0.0000    0.0002   -0.0001   -0.1426    0.0451    0.0000    0.0000
          26    0.0000    0.0000    0.0000    0.0000    0.0110   -0.1175   -0.0000    0.0001
          27    0.2877    0.1866    0.4700   -0.5701    0.0002   -0.0001   -0.0926    0.1404
          28   -0.0000    0.0001    0.0001    0.0001   -0.0754   -0.1399    0.0001    0.0001
          29   -0.0000    0.0001    0.0000    0.0001    0.0664   -0.0972    0.0001   -0.0000
          30   -0.1138    0.4316    0.3579    0.2300    0.0004    0.0001    0.4910    0.4460
          31   -0.0000   -0.0001    0.0000   -0.0001    0.0817    0.0636    0.0000    0.0001
          32   -0.0000   -0.0001    0.0001   -0.0001   -0.0589    0.1580    0.0001   -0.0001
          33   -0.1139   -0.4314    0.3581   -0.2293    0.0003   -0.0001    0.4910   -0.4460


   Root No.       9        10        11        12        13        14        15        16

                 9 A      10 A      11 A      12 A      13 A      14 A      15 A      16 A   

                 985.9    1011.1    1021.7    1036.4    1088.6    1091.1    1206.8    1219.3
  
           1    0.0001   -0.2028    0.1346    0.0006    0.0212   -0.0113   -0.2144    0.2002
           2    0.0002   -0.2562   -0.1048   -0.0005   -0.0161   -0.0159   -0.2684   -0.1598
           3    0.3284    0.0002    0.0001   -0.0002    0.0000    0.0000    0.0001   -0.0000
           4   -0.0002    0.1972   -0.2430   -0.0009    0.0315   -0.0719    0.3636    0.1834
           5   -0.0001   -0.0442    0.1585    0.0007   -0.1213    0.0423   -0.1084    0.1058
           6   -0.3912   -0.0002   -0.0014    0.3106    0.0002    0.0000   -0.0000   -0.0001
           7    0.0001   -0.0898   -0.2072   -0.0009    0.1194    0.0687   -0.1865   -0.0623
           8   -0.0002    0.1848    0.1990    0.0007    0.0021   -0.0617    0.3304   -0.2024
           9   -0.3914   -0.0002    0.0012   -0.3103   -0.0002   -0.0000   -0.0000    0.0001
          10    0.0001   -0.1591   -0.0209   -0.0001   -0.0319   -0.0344    0.3347   -0.0834
          11    0.0000    0.0437   -0.0301   -0.0002   -0.0028    0.0654   -0.0469    0.1934
          12    0.1888    0.0002    0.0012   -0.2344   -0.0001   -0.0000   -0.0000   -0.0000
          13    0.0000    0.0782    0.0239    0.0001   -0.0105    0.0702   -0.1202   -0.2076
          14    0.0001   -0.1449    0.0290    0.0001    0.0332   -0.0161    0.3158    0.0390
          15    0.1893    0.0001   -0.0011    0.2343    0.0001   -0.0000   -0.0000    0.0000
          16   -0.1303   -0.0770    0.4244    0.4122    0.1530   -0.0045   -0.1972   -0.2029
          17   -0.1635   -0.1018   -0.3376   -0.3285   -0.1213   -0.0182   -0.2475    0.1618
          18   -0.0678   -0.0246    0.0001    0.0001    0.0002   -0.0051   -0.1409   -0.0000
          19    0.1303   -0.0767    0.4270   -0.4093    0.1525   -0.0045   -0.1972   -0.2026
          20    0.1639   -0.1016   -0.3395    0.3263   -0.1208   -0.0181   -0.2474    0.1615
          21   -0.0678    0.0244   -0.0002    0.0001   -0.0002    0.0051    0.1407    0.0000
          22   -0.0002    0.4435   -0.1152   -0.0003   -0.4053   -0.3473   -0.1202   -0.3365
          23   -0.0000    0.2364    0.0161    0.0002   -0.3051   -0.1956   -0.1871   -0.2203
          24    0.4070    0.0002    0.0010   -0.2001    0.0000    0.0000    0.0001    0.0001
          25    0.0000    0.1310   -0.0433   -0.0002    0.2166   -0.0940   -0.1558    0.1400
          26   -0.0003    0.4859    0.1016    0.0003    0.4958   -0.3389   -0.1593    0.3775
          27    0.4070    0.0002   -0.0008    0.1997    0.0000    0.0000    0.0000   -0.0001
          28    0.0000   -0.1364    0.0844    0.0004   -0.1290   -0.1896    0.1119    0.1134
          29   -0.0002    0.2966   -0.2928   -0.0013    0.3640    0.5750   -0.0293   -0.3693
          30   -0.2076   -0.0002   -0.0010    0.1813    0.0000   -0.0001   -0.0000    0.0000
          31   -0.0003    0.3244    0.3016    0.0014   -0.4352    0.5664   -0.0536    0.3839
          32    0.0000   -0.0672   -0.0163   -0.0001    0.0496   -0.0527    0.1026   -0.0280
          33   -0.2082   -0.0001    0.0009   -0.1812    0.0000   -0.0001   -0.0000   -0.0001


   Root No.      17        18        19        20        21        22        23        24

                17 A      18 A      19 A      20 A      21 A      22 A      23 A      24 A   

                1350.8    1363.3    1419.5    1718.2    1782.8    2985.5    3053.6    3133.7
  
           1    0.5518   -0.2809    0.1631   -0.0334   -0.0011    0.0001   -0.1362   -0.0009
           2   -0.4400   -0.3526    0.2044   -0.0419    0.0009    0.0001   -0.1708    0.0008
           3   -0.0000   -0.0001    0.0000    0.0000    0.0000   -0.3034   -0.0001   -0.0000
           4   -0.3837    0.0536   -0.2849    0.1823   -0.2081   -0.0000   -0.0065   -0.0537
           5    0.0796   -0.0402   -0.0552    0.4728   -0.4211   -0.0000    0.0030    0.0770
           6   -0.0000    0.0000    0.0000   -0.0001    0.0001   -0.0013    0.0000   -0.0000
           7   -0.1631   -0.0512    0.0096    0.4203    0.3642   -0.0000    0.0044   -0.0893
           8    0.3567    0.0437   -0.2897    0.2829    0.2967   -0.0000   -0.0057    0.0362
           9    0.0000    0.0000    0.0000   -0.0001   -0.0001   -0.0013    0.0000    0.0000
          10    0.0947    0.2371    0.4112   -0.1179    0.1551   -0.0000   -0.0022    0.1648
          11   -0.0717   -0.0940   -0.3279   -0.4513    0.4759   -0.0000    0.0015    0.0572
          12    0.0000   -0.0000   -0.0000    0.0001   -0.0001   -0.0010   -0.0000   -0.0000
          13    0.0913   -0.1443   -0.4111   -0.4137   -0.4292    0.0000    0.0020   -0.0197
          14   -0.0765    0.2101    0.3276   -0.2155   -0.2573   -0.0000   -0.0018   -0.1791
          15   -0.0000   -0.0000    0.0000    0.0001    0.0001   -0.0010   -0.0000    0.0000
          16   -0.1765    0.2691   -0.0504   -0.0082    0.0322   -0.2565    0.2350   -0.0014
          17    0.1405    0.3375   -0.0631   -0.0103   -0.0257   -0.3216    0.2947    0.0011
          18   -0.0001    0.3679   -0.1007   -0.0053    0.0000    0.5337   -0.5772    0.0001
          19   -0.1763    0.2692   -0.0504   -0.0082    0.0322    0.2563    0.2349   -0.0014
          20    0.1403    0.3376   -0.0632   -0.0103   -0.0256    0.3213    0.2945    0.0011
          21    0.0002   -0.3677    0.1007    0.0053   -0.0000    0.5338    0.5776   -0.0001
          22   -0.0369    0.0209    0.1722   -0.0964    0.0802   -0.0000    0.0085    0.1796
          23    0.0725   -0.0142    0.1471    0.0705   -0.0596    0.0000   -0.0173   -0.2753
          24   -0.0000   -0.0000   -0.0000   -0.0000    0.0000   -0.0013    0.0000    0.0001
          25   -0.0791   -0.0186    0.1050    0.0902    0.0759    0.0000   -0.0187    0.3169
          26    0.0196    0.0172    0.2004   -0.0782   -0.0648   -0.0000    0.0045   -0.1170
          27    0.0000   -0.0000   -0.0000   -0.0000   -0.0000   -0.0013    0.0000   -0.0001
          28   -0.0303    0.0456    0.0323   -0.0923    0.1254   -0.0000    0.0167   -0.5523
          29    0.1573    0.0670    0.1908   -0.0361   -0.0385   -0.0000    0.0059   -0.1802
          30   -0.0000   -0.0000   -0.0000    0.0000   -0.0000   -0.0010   -0.0000    0.0001
          31   -0.1600    0.0549    0.1784   -0.0148    0.0654   -0.0000    0.0020    0.0542
          32   -0.0055    0.0593    0.0739   -0.0980   -0.1137   -0.0000    0.0176    0.5970
          33    0.0000   -0.0000   -0.0000    0.0000    0.0000   -0.0010   -0.0000   -0.0001


   Root No.      25        26        27

                25 A      26 A      27 A   

                3136.2    3148.4    3158.2
  
           1    0.0015    0.0007   -0.0094
           2    0.0019   -0.0005   -0.0118
           3    0.0000    0.0000    0.0000
           4    0.0721   -0.0845    0.0782
           5   -0.1064    0.1626   -0.1523
           6    0.0000   -0.0000    0.0000
           7   -0.1147   -0.1782   -0.1672
           8    0.0449    0.0466    0.0428
           9    0.0000    0.0000    0.0000
          10   -0.1489   -0.0990    0.1375
          11   -0.0481   -0.0506    0.0574
          12    0.0000    0.0000   -0.0000
          13   -0.0136    0.0270    0.0253
          14   -0.1521    0.1051    0.1460
          15    0.0000   -0.0000   -0.0000
          16    0.0002   -0.0020    0.0087
          17    0.0001    0.0016    0.0109
          18    0.0002    0.0000   -0.0203
          19    0.0002   -0.0020    0.0087
          20    0.0001    0.0016    0.0109
          21   -0.0002   -0.0000    0.0203
          22   -0.2428    0.3169   -0.2753
          23    0.3749   -0.4933    0.4294
          24   -0.0001    0.0001   -0.0001
          25    0.4028    0.5550    0.4845
          26   -0.1471   -0.2005   -0.1745
          27   -0.0001   -0.0001   -0.0001
          28    0.4999    0.3163   -0.4106
          29    0.1591    0.1052   -0.1329
          30   -0.0001   -0.0001    0.0001
          31    0.0426   -0.0314   -0.0379
          32    0.5100   -0.3229   -0.4269
          33   -0.0001    0.0000    0.0001


          DESCRIPTION OF VIBRATIONS


 VIBRATION          1    1A           ATOM PAIR      ENERGY CONTRIBUTION    RADIAL
 FREQUENCY           345.81         C  1 -- H  7         +19.9% (135.7%)     23.0%
 TRANSITION DIPOLE   0.2067         C  1 -- H  6         +19.9% (135.7%)     23.0%
 TRAVEL (Ang.)       0.5516         C  1 -- C  3         +14.3% (114.8%)      0.0%
 REDUCED MASS        0.6408         C  1 -- C  2         +14.3% (114.8%)      0.0%
 EFFECTIVE MASS     17.8710
 FORCE CONSTANT      0.0451

 VIBRATION          2    2A           ATOM PAIR      ENERGY CONTRIBUTION    RADIAL
 FREQUENCY           478.60         C  4 -- C  5         +21.0% ( 86.7%)      0.0%
 TRANSITION DIPOLE   0.0002         C  2 -- C  4         +14.8% ( 72.8%)      0.0%
 TRAVEL (Ang.)       0.3707         C  3 -- C  5         +14.8% ( 72.8%)      0.0%
 REDUCED MASS        1.0255         C  2 -- C  5         +11.0% ( 62.9%)      0.0%
 EFFECTIVE MASS     11.8715         C  3 -- C  4         +11.0% ( 62.9%)      0.0%
 FORCE CONSTANT      0.1384

 VIBRATION          3    3A           ATOM PAIR      ENERGY CONTRIBUTION    RADIAL
 FREQUENCY           709.82         C  1 -- H  6         +17.6% ( 58.5%)      9.5%
 TRANSITION DIPOLE   0.7262         C  1 -- H  7         +17.6% ( 58.5%)      9.5%
 TRAVEL (Ang.)       0.6839         C  3 -- H  9         +13.9% ( 52.0%)      0.0%
 REDUCED MASS        0.2031         C  2 -- H  8         +13.9% ( 51.9%)      0.0%
 EFFECTIVE MASS      2.2604         C  5 -- H 11         +10.8% ( 45.8%)      0.0%
 FORCE CONSTANT      0.0603         C  4 -- H 10         +10.8% ( 45.8%)      0.0%

 VIBRATION          4    4A           ATOM PAIR      ENERGY CONTRIBUTION    RADIAL
 FREQUENCY           791.93         C  2 -- H  8         +30.4% ( 66.1%)      0.0%
 TRANSITION DIPOLE   0.0003         C  3 -- H  9         +30.3% ( 66.1%)      0.0%
 TRAVEL (Ang.)       0.5199         C  4 -- H 10          +7.6% ( 33.1%)      0.0%
 REDUCED MASS        0.3150         C  5 -- H 11          +7.6% ( 33.1%)      0.0%
 EFFECTIVE MASS      2.1800
 FORCE CONSTANT      0.1164

 VIBRATION          5    5A           ATOM PAIR      ENERGY CONTRIBUTION    RADIAL
 FREQUENCY           798.08         C  1 -- C  3         +14.1% (104.5%)      0.1%
 TRANSITION DIPOLE   0.0165         C  1 -- C  2         +14.0% (104.5%)      0.1%
 TRAVEL (Ang.)       0.1913         C  3 -- C  4         +10.6% ( 90.6%)     33.1%
 REDUCED MASS        2.3093         C  2 -- C  5         +10.6% ( 90.6%)     33.0%
 EFFECTIVE MASS     15.7681
 FORCE CONSTANT      0.8666

 VIBRATION          6    6A           ATOM PAIR      ENERGY CONTRIBUTION    RADIAL
 FREQUENCY           825.05         C  4 -- C  5         +17.6% (123.5%)      0.0%
 TRANSITION DIPOLE   0.2244         C  2 -- C  5         +15.1% (114.4%)     92.0%
 TRAVEL (Ang.)       0.1747         C  3 -- C  4         +15.1% (114.4%)     91.9%
 REDUCED MASS        2.6764         C  2 -- C  4          +9.9% ( 92.8%)      0.2%
 EFFECTIVE MASS     16.1221
 FORCE CONSTANT      1.0734

 VIBRATION          7    7A           ATOM PAIR      ENERGY CONTRIBUTION    RADIAL
 FREQUENCY           875.15         C  1 -- H  7         +18.7% ( 60.0%)     16.1%
 TRANSITION DIPOLE   0.3400         C  1 -- H  6         +18.7% ( 60.0%)     16.1%
 TRAVEL (Ang.)       0.3683         C  5 -- H 11         +14.6% ( 53.0%)      0.0%
 REDUCED MASS        0.5680         C  4 -- H 10         +14.6% ( 53.0%)      0.0%
 EFFECTIVE MASS      4.1441         C  1 -- C  3         +14.3% ( 52.6%)      0.0%
 FORCE CONSTANT      0.2563         C  1 -- C  2         +14.3% ( 52.5%)      0.0%

 VIBRATION          8    8A           ATOM PAIR      ENERGY CONTRIBUTION    RADIAL
 FREQUENCY           961.10         C  4 -- H 10         +21.9% ( 51.9%)      0.0%
 TRANSITION DIPOLE   0.0003         C  5 -- H 11         +21.9% ( 51.9%)      0.0%
 TRAVEL (Ang.)       0.3831         C  1 -- H  7         +14.1% ( 41.8%)      0.0%
 REDUCED MASS        0.4781         C  1 -- H  6         +14.1% ( 41.7%)      0.0%
 EFFECTIVE MASS      3.0908
 FORCE CONSTANT      0.2602

 VIBRATION          9    9A           ATOM PAIR      ENERGY CONTRIBUTION    RADIAL
 FREQUENCY           985.91         C  3 -- H  9         +14.8% ( 49.2%)      0.0%
 TRANSITION DIPOLE   0.2548         C  2 -- H  8         +14.8% ( 49.2%)      0.0%
 TRAVEL (Ang.)       0.2929         C  1 -- C  3         +13.2% ( 46.4%)      0.0%
 REDUCED MASS        0.7972         C  1 -- C  2         +13.2% ( 46.4%)      0.0%
 EFFECTIVE MASS      5.6459
 FORCE CONSTANT      0.4566

 VIBRATION         10   10A           ATOM PAIR      ENERGY CONTRIBUTION    RADIAL
 FREQUENCY          1011.14         C  3 -- H  9         +13.6% ( 53.6%)      8.0%
 TRANSITION DIPOLE   0.1635         C  2 -- H  8         +13.5% ( 53.4%)      7.7%
 TRAVEL (Ang.)       0.4371         C  1 -- C  3         +11.7% ( 49.7%)     79.1%
 REDUCED MASS        0.3491         C  1 -- C  2         +11.6% ( 49.5%)     78.1%
 EFFECTIVE MASS      5.0377
 FORCE CONSTANT      0.2103

 VIBRATION         11   11A           ATOM PAIR      ENERGY CONTRIBUTION    RADIAL
 FREQUENCY          1021.67         C  1 -- H  7         +14.7% ( 52.0%)      0.0%
 TRANSITION DIPOLE   0.1599         C  1 -- H  6         +14.5% ( 51.7%)      0.0%
 TRAVEL (Ang.)       0.4218         C  1 -- C  2         +10.9% ( 44.8%)     67.3%
 REDUCED MASS        0.3709         C  1 -- C  3         +10.7% ( 44.5%)     66.3%
 EFFECTIVE MASS      4.1624
 FORCE CONSTANT      0.2281

 VIBRATION         12   12A           ATOM PAIR      ENERGY CONTRIBUTION    RADIAL
 FREQUENCY          1036.41         C  1 -- H  6         +22.9% ( 51.4%)      0.0%
 TRANSITION DIPOLE   0.0006         C  1 -- H  7         +22.7% ( 51.0%)      0.0%
 TRAVEL (Ang.)       0.3784         C  2 -- H  8          +7.3% ( 29.0%)      0.0%
 REDUCED MASS        0.4544         C  3 -- H  9          +7.3% ( 28.9%)      0.0%
 EFFECTIVE MASS      3.4538
 FORCE CONSTANT      0.2876

 VIBRATION         13   13A           ATOM PAIR      ENERGY CONTRIBUTION    RADIAL
 FREQUENCY          1088.62         C  3 -- H  9         +26.4% ( 54.5%)      2.3%
 TRANSITION DIPOLE   0.0383         C  2 -- H  8         +23.5% ( 51.4%)      2.9%
 TRAVEL (Ang.)       0.5294         C  5 -- H 11         +16.8% ( 43.4%)      0.3%
 REDUCED MASS        0.2210         C  4 -- H 10         +13.1% ( 38.5%)      0.3%
 EFFECTIVE MASS      1.4708
 FORCE CONSTANT      0.1543

 VIBRATION         14   14A           ATOM PAIR      ENERGY CONTRIBUTION    RADIAL
 FREQUENCY          1091.14         C  4 -- H 10         +33.7% ( 58.9%)      0.0%
 TRANSITION DIPOLE   0.0467         C  5 -- H 11         +29.7% ( 55.3%)      0.0%
 TRAVEL (Ang.)       0.4665         C  2 -- H  8         +15.0% ( 39.3%)      2.0%
 REDUCED MASS        0.2840         C  3 -- H  9         +11.9% ( 35.0%)      3.4%
 EFFECTIVE MASS      1.3361
 FORCE CONSTANT      0.1992

 VIBRATION         15   15A           ATOM PAIR      ENERGY CONTRIBUTION    RADIAL
 FREQUENCY          1206.78         C  4 -- C  5         +12.2% ( 58.4%)    100.0%
 TRANSITION DIPOLE   0.1444         C  1 -- C  2         +11.1% ( 55.6%)     92.9%
 TRAVEL (Ang.)       0.2349         C  1 -- C  3         +11.1% ( 55.5%)     92.8%
 REDUCED MASS        1.0126         C  3 -- C  4         +10.2% ( 53.4%)     73.2%
 EFFECTIVE MASS      9.3830         C  2 -- C  5         +10.2% ( 53.4%)     73.2%
 FORCE CONSTANT      0.8689

 VIBRATION         16   16A           ATOM PAIR      ENERGY CONTRIBUTION    RADIAL
 FREQUENCY          1219.34         C  3 -- H  9         +13.7% ( 45.7%)      0.0%
 TRANSITION DIPOLE   0.0255         C  2 -- H  8         +13.7% ( 45.7%)      0.0%
 TRAVEL (Ang.)       0.4665         C  4 -- H 10         +12.9% ( 44.5%)      0.0%
 REDUCED MASS        0.2541         C  5 -- H 11         +12.9% ( 44.4%)      0.0%
 EFFECTIVE MASS      2.5900
 FORCE CONSTANT      0.2226

 VIBRATION         17   17A           ATOM PAIR      ENERGY CONTRIBUTION    RADIAL
 FREQUENCY          1350.81         C  1 -- C  3         +21.1% ( 74.6%)     76.4%
 TRANSITION DIPOLE   0.1586         C  1 -- C  2         +21.1% ( 74.5%)     76.4%
 TRAVEL (Ang.)       0.1184         C  1 -- H  6         +14.2% ( 61.1%)      0.0%
 REDUCED MASS        3.5592         C  1 -- H  7         +14.2% ( 61.1%)      0.0%
 EFFECTIVE MASS     10.1654
 FORCE CONSTANT      3.8264

 VIBRATION         18   18A           ATOM PAIR      ENERGY CONTRIBUTION    RADIAL
 FREQUENCY          1363.32         C  1 -- H  6         +24.1% ( 61.2%)      5.7%
 TRANSITION DIPOLE   0.3782         C  1 -- H  7         +24.0% ( 61.2%)      5.7%
 TRAVEL (Ang.)       0.2476         C  1 -- C  3         +10.7% ( 40.9%)     53.6%
 REDUCED MASS        0.8069         C  1 -- C  2         +10.7% ( 40.9%)     53.4%
 EFFECTIVE MASS      4.8164
 FORCE CONSTANT      0.8836

 VIBRATION         19   19A           ATOM PAIR      ENERGY CONTRIBUTION    RADIAL
 FREQUENCY          1419.46         C  4 -- C  5         +22.3% ( 75.9%)    100.0%
 TRANSITION DIPOLE   0.2204         C  3 -- C  4          +9.9% ( 50.7%)    100.0%
 TRAVEL (Ang.)       0.1515         C  2 -- C  5          +9.9% ( 50.7%)    100.0%
 REDUCED MASS        2.0706         C  2 -- C  4          +9.6% ( 49.9%)      0.1%
 EFFECTIVE MASS      9.7150
 FORCE CONSTANT      2.4580

 VIBRATION         20   20A           ATOM PAIR      ENERGY CONTRIBUTION    RADIAL
 FREQUENCY          1718.20         C  3 -- C  5         +18.2% ( 72.9%)     99.9%
 TRANSITION DIPOLE   0.5525         C  2 -- C  4         +18.2% ( 72.9%)     99.9%
 TRAVEL (Ang.)       0.1201         C  2 -- C  5         +10.7% ( 55.9%)     27.3%
 REDUCED MASS        2.7209         C  3 -- C  4         +10.7% ( 55.9%)     27.3%
 EFFECTIVE MASS     12.0273
 FORCE CONSTANT      4.7327

 VIBRATION         21   21A           ATOM PAIR      ENERGY CONTRIBUTION    RADIAL
 FREQUENCY          1782.78         C  3 -- C  5         +17.8% ( 69.9%)     99.8%
 TRANSITION DIPOLE   0.2897         C  2 -- C  4         +17.8% ( 69.9%)     99.8%
 TRAVEL (Ang.)       0.1189         C  4 -- C  5         +12.2% ( 57.8%)      0.0%
 REDUCED MASS        2.6775         C  3 -- C  4         +10.9% ( 54.6%)     65.7%
 EFFECTIVE MASS     11.7687         C  2 -- C  5         +10.9% ( 54.6%)     65.6%
 FORCE CONSTANT      5.0139

 VIBRATION         22   22A           ATOM PAIR      ENERGY CONTRIBUTION    RADIAL
 FREQUENCY          2985.50         C  1 -- H  6         +49.0% ( 72.4%)     96.8%
 TRANSITION DIPOLE   0.1608         C  1 -- H  7         +48.9% ( 72.4%)     96.8%
 TRAVEL (Ang.)       0.2090         C  1 -- C  2          +1.1% ( 10.7%)      0.0%
 REDUCED MASS        0.5172         C  1 -- C  3          +1.1% ( 10.7%)      0.0%
 EFFECTIVE MASS      1.5318
 FORCE CONSTANT      2.7162

 VIBRATION         23   23A           ATOM PAIR      ENERGY CONTRIBUTION    RADIAL
 FREQUENCY          3053.62         C  1 -- H  7         +49.2% ( 69.4%)     97.3%
 TRANSITION DIPOLE   0.2815         C  1 -- H  6         +49.2% ( 69.3%)     97.3%
 TRAVEL (Ang.)       0.2138         C  1 -- C  3          +0.7% (  8.5%)     35.8%
 REDUCED MASS        0.4829         C  1 -- C  2          +0.7% (  8.5%)     35.8%
 EFFECTIVE MASS      1.2876
 FORCE CONSTANT      2.6532

 VIBRATION         24   24A           ATOM PAIR      ENERGY CONTRIBUTION    RADIAL
 FREQUENCY          3133.69         C  5 -- H 11         +37.4% ( 62.7%)    100.0%
 TRANSITION DIPOLE   0.0834         C  4 -- H 10         +35.2% ( 60.8%)    100.0%
 TRAVEL (Ang.)       0.2698         C  3 -- H  9         +11.8% ( 35.3%)    100.0%
 REDUCED MASS        0.2956         C  2 -- H  8         +11.2% ( 34.3%)    100.0%
 EFFECTIVE MASS      1.4906
 FORCE CONSTANT      1.7102

 VIBRATION         25   25A           ATOM PAIR      ENERGY CONTRIBUTION    RADIAL
 FREQUENCY          3136.16         C  4 -- H 10         +28.7% ( 54.8%)    100.0%
 TRANSITION DIPOLE   0.5120         C  5 -- H 11         +27.3% ( 53.5%)    100.0%
 TRAVEL (Ang.)       0.2997         C  2 -- H  8         +20.7% ( 46.6%)    100.0%
 REDUCED MASS        0.2394         C  3 -- H  9         +19.1% ( 44.7%)    100.0%
 EFFECTIVE MASS      1.4756
 FORCE CONSTANT      1.3876

 VIBRATION         26   26A           ATOM PAIR      ENERGY CONTRIBUTION    RADIAL
 FREQUENCY          3148.37         C  3 -- H  9         +36.1% ( 61.8%)    100.0%
 TRANSITION DIPOLE   0.5760         C  2 -- H  8         +35.7% ( 61.4%)    100.0%
 TRAVEL (Ang.)       0.2691         C  4 -- H 10         +11.6% ( 35.0%)     99.8%
 REDUCED MASS        0.2958         C  5 -- H 11         +11.0% ( 34.1%)     99.8%
 EFFECTIVE MASS      1.5893
 FORCE CONSTANT      1.7274

 VIBRATION         27   27A           ATOM PAIR      ENERGY CONTRIBUTION    RADIAL
 FREQUENCY          3158.19         C  3 -- H  9         +27.6% ( 54.1%)     99.9%
 TRANSITION DIPOLE   0.1391         C  2 -- H  8         +27.1% ( 53.6%)     99.9%
 TRAVEL (Ang.)       0.2978         C  4 -- H 10         +19.4% ( 45.4%)    100.0%
 REDUCED MASS        0.2408         C  5 -- H 11         +19.2% ( 45.1%)    100.0%
 EFFECTIVE MASS      1.6985
 FORCE CONSTANT      1.4149

      SYMMETRY NUMBER FOR POINT-GROUP C1  =  1


          SYSTEM IS A GROUND STATE



 InChI=1S/C5H6/c1-2-4-5-3-1/h1-4H,5H2


          MOLECULE IS NOT LINEAR

          THERE ARE 27 GENUINE VIBRATIONS IN THIS SYSTEM
          THIS THERMODYNAMICS CALCULATION IS LIMITED TO
          MOLECULES WHICH HAVE NO INTERNAL ROTATIONS




                    CALCULATED THERMODYNAMIC PROPERTIES
                                          *
   TEMP. (K)   PARTITION FUNCTION   H.O.F.    ENTHALPY  HEAT CAPACITY ENTROPY
                                   KCAL/MOL   CAL/MOLE    CAL/K/MOL  CAL/K/MOL


 298.00  VIB.     0.1622D+01                   814.5206     9.3948     3.6942
         ROT.     0.5033D+05                   888.2803     2.9808    24.4949
         INT.     0.8162D+05                  1702.8009    12.3757    28.1891
         TRA.     0.5196D+27                  1480.4672     4.9680    38.4818
         TOT.                       31.696    3183.2680    17.3437    66.6709

 200.00  VIB.     0.1152D+01                   187.9072     3.6593     1.2205
         ROT.     0.2767D+05                   596.1613     2.9808    23.3062
         INT.     0.3187D+05                   784.0685     6.6401    24.5267
         TRA.     0.2857D+27                   993.6021     4.9680    36.5007
         TOT.                       30.290    1777.6706    11.6081    61.0274

 210.00  VIB.     0.1181D+01                   226.9534     4.1548     1.4109
         ROT.     0.2977D+05                   625.9693     2.9808    23.4516
         INT.     0.3515D+05                   852.9228     7.1356    24.8626
         TRA.     0.3074D+27                  1043.2822     4.9680    36.7431
         TOT.                       30.409    1896.2050    12.1036    61.6057

 220.00  VIB.     0.1213D+01                   271.0961     4.6781     1.6162
         ROT.     0.3192D+05                   655.7774     2.9808    23.5903
         INT.     0.3873D+05                   926.8735     7.6590    25.2065
         TRA.     0.3296D+27                  1092.9623     4.9680    36.9742
         TOT.                       30.532    2019.8359    12.6270    62.1807

 230.00  VIB.     0.1249D+01                   320.6003     5.2266     1.8362
         ROT.     0.3412D+05                   685.5855     2.9808    23.7228
         INT.     0.4263D+05                  1006.1858     8.2075    25.5590
         TRA.     0.3523D+27                  1142.6424     4.9680    37.1950
         TOT.                       30.661    2148.8282    13.1755    62.7540

 240.00  VIB.     0.1289D+01                   375.7032     5.7974     2.0706
         ROT.     0.3637D+05                   715.3935     2.9808    23.8497
         INT.     0.4690D+05                  1091.0968     8.7782    25.9203
         TRA.     0.3755D+27                  1192.3226     4.9680    37.4065
         TOT.                       30.796    2283.4193    13.7462    63.3267

 250.00  VIB.     0.1334D+01                   436.6126     6.3874     2.3192
         ROT.     0.3867D+05                   745.2016     2.9808    23.9714
         INT.     0.5159D+05                  1181.8142     9.3682    26.2905
         TRA.     0.3992D+27                  1242.0027     4.9680    37.6093
         TOT.                       30.936    2423.8168    14.3362    63.8998

 260.00  VIB.     0.1383D+01                   503.5058     6.9937     2.5814
         ROT.     0.4101D+05                   775.0097     2.9808    24.0883
         INT.     0.5674D+05                  1278.5155     9.9745    26.6697
         TRA.     0.4234D+27                  1291.6828     4.9680    37.8041
         TOT.                       31.083    2570.1982    14.9425    64.4738

 270.00  VIB.     0.1438D+01                   576.5305     7.6132     2.8570
         ROT.     0.4340D+05                   804.8177     2.9808    24.2008
         INT.     0.6241D+05                  1381.3482    10.5940    27.0577
         TRA.     0.4481D+27                  1341.3629     4.9680    37.9916
         TOT.                       31.235    2722.7111    15.5620    65.0493

 280.00  VIB.     0.1498D+01                   655.8049     8.2432     3.1452
         ROT.     0.4584D+05                   834.6258     2.9808    24.3092
         INT.     0.6866D+05                  1490.4307    11.2240    27.4544
         TRA.     0.4732D+27                  1391.0430     4.9680    38.1723
         TOT.                       31.394    2881.4736    16.1920    65.6267

 290.00  VIB.     0.1564D+01                   741.4196     8.8808     3.4456
         ROT.     0.4831D+05                   864.4339     2.9808    24.4138
         INT.     0.7557D+05                  1605.8534    11.8617    27.8593
         TRA.     0.4988D+27                  1440.7231     4.9680    38.3466
         TOT.                       31.559    3046.5765    16.8297    66.2060

 300.00  VIB.     0.1637D+01                   833.4391     9.5237     3.7575
         ROT.     0.5083D+05                   894.2419     2.9808    24.5148
         INT.     0.8321D+05                  1727.6810    12.5045    28.2723
         TRA.     0.5248D+27                  1490.4032     4.9680    38.5150
         TOT.                       31.731    3218.0842    17.4725    66.7873

 310.00  VIB.     0.1717D+01                   931.9038    10.1695     4.0803
         ROT.     0.5340D+05                   924.0500     2.9808    24.6126
         INT.     0.9168D+05                  1855.9537    13.1503    28.6928
         TRA.     0.5513D+27                  1540.0833     4.9680    38.6779
         TOT.                       31.909    3396.0370    18.1183    67.3708

 320.00  VIB.     0.1805D+01                  1036.8318    10.8161     4.4134
         ROT.     0.5600D+05                   953.8580     2.9808    24.7072
         INT.     0.1011D+06                  1990.6898    13.7969    29.1206
         TRA.     0.5782D+27                  1589.7634     4.9680    38.8357
         TOT.                       32.093    3580.4532    18.7649    67.9562

 330.00  VIB.     0.1901D+01                  1148.2215    11.4615     4.7561
         ROT.     0.5865D+05                   983.6661     2.9808    24.7989
         INT.     0.1115D+06                  2131.8876    14.4423    29.5550
         TRA.     0.6055D+27                  1639.4435     4.9680    38.9885
         TOT.                       32.284    3771.3311    19.4104    68.5435

 340.00  VIB.     0.2007D+01                  1266.0533    12.1042     5.1078
         ROT.     0.6133D+05                  1013.4742     2.9808    24.8879
         INT.     0.1231D+06                  2279.5275    15.0850    29.9957
         TRA.     0.6332D+27                  1689.1236     4.9680    39.1369
         TOT.                       32.481    3968.6511    20.0530    69.1325

 350.00  VIB.     0.2123D+01                  1390.2919    12.7427     5.4679
         ROT.     0.6406D+05                  1043.2822     2.9808    24.9743
         INT.     0.1360D+06                  2433.5741    15.7235    30.4422
         TRA.     0.6613D+27                  1738.8037     4.9680    39.2809
         TOT.                       32.685    4172.3778    20.6915    69.7231

 360.00  VIB.     0.2250D+01                  1520.8881    13.3756     5.8357
         ROT.     0.6682D+05                  1073.0903     2.9808    25.0583
         INT.     0.1503D+06                  2593.9784    16.3564    30.8940
         TRA.     0.6899D+27                  1788.4838     4.9680    39.4208
         TOT.                       32.895    4382.4623    21.3244    70.3148

 370.00  VIB.     0.2389D+01                  1657.7810    14.0018     6.2108
         ROT.     0.6963D+05                  1102.8984     2.9808    25.1400
         INT.     0.1663D+06                  2760.6794    16.9826    31.3507
         TRA.     0.7188D+27                  1838.1639     4.9680    39.5569
         TOT.                       33.111    4598.8433    21.9506    70.9077

 380.00  VIB.     0.2541D+01                  1800.8991    14.6205     6.5924
         ROT.     0.7247D+05                  1132.7064     2.9808    25.2194
         INT.     0.1841D+06                  2933.6056    17.6013    31.8119
         TRA.     0.7482D+27                  1887.8440     4.9680    39.6894
         TOT.                       33.334    4821.4496    22.5693    71.5013

 390.00  VIB.     0.2708D+01                  1950.1627    15.2308     6.9801
         ROT.     0.7535D+05                  1162.5145     2.9808    25.2969
         INT.     0.2040D+06                  3112.6772    18.2116    32.2770
         TRA.     0.7779D+27                  1937.5242     4.9680    39.8185
         TOT.                       33.563    5050.2013    23.1796    72.0954

 400.00  VIB.     0.2891D+01                  2105.4846    15.8321     7.3733
         ROT.     0.7827D+05                  1192.3226     2.9808    25.3723
         INT.     0.2263D+06                  3297.8071    18.8129    32.7456
         TRA.     0.8080D+27                  1987.2043     4.9680    39.9443
         TOT.                       33.798    5285.0114    23.7809    72.6899

   *: NOTE: HEATS OF FORMATION ARE RELATIVE TO THE
            ELEMENTS IN THEIR STANDARD STATE AT 298K
              (=  Standard Enthalpy of Formation).

            Hvib:  Zero-point energy is not included.
                   frequencies of less than zero cm-1 are not included.
            Hrot = (3/2)RT
            Htra = (3/2)RT + pV = (5/2)RT

            Heat capacity is Cp, not Cv

          For more information, see: HTTP://OpenMOPAC.net/Manual/thermochemistry.html


           FORCE CONSTANT IN CARTESIAN COORDINATES (Millidynes/A)

    ATOM   CHEMICAL       X               Y               Z
   NUMBER   SYMBOL  FORCE CONSTANT  FORCE CONSTANT  FORCE CONSTANT

      1       C        8.612322        9.149235        7.796853
      2       C        9.305405       15.093087        2.324448
      3       C       14.888302        9.510837        2.324163
      4       C       12.485323       12.636678        2.215683
      5       C       11.527328       13.591764        2.215613
      6       H        1.189735        1.523600        3.557764
      7       H        1.188796        1.522053        3.559870
      8       H        2.086693        4.042906        0.333621
      9       H        4.882042        1.248027        0.333493
     10       H        4.962085        1.147780        0.348613
     11       H        0.736860        5.371635        0.348690

 **********************
 *                    *
 * JOB ENDED NORMALLY *
 *                    *
 **********************



 TOTAL JOB TIME:             0.50 SECONDS

 == MOPAC DONE ==
