 *******************************************************************************
 **                                                                           **
 **                              MOPAC v23.1.2                                **
 **                                                                           **
 *******************************************************************************
 **          Digital Object Identifier (DOI): 10.5281/zenodo.6511958          **
 **    Visit the DOI location for information on how to cite this program.    **
 *******************************************************************************

                              PM3 CALCULATION RESULTS

 *******************************************************************************
 *  CALCULATION DONE: (MAX THREADS = 1)              Tue Jun  3 16:37:08 2025  *
 *  PM3        - The PM3 Hamiltonian to be used
 *  PRECISE    - TIGHTER CRITERIA TO BE USED
 *  NOSYM      - POINT-GROUP SYMMETRY SET TO C1
 *  THREADS=1  - MULTI-THREADING NOT USED
 *  T=         - A TIME OF 172800.0 SECONDS REQUESTED
 *  DUMP=N     - RESTART FILE WRITTEN EVERY 7200.0 SECONDS REQUESTED
 *******************************************************************************
pm3  precise nosym THREADS=1
 InChI=1S/C12H22/c1-4-7-10(5-2)12-9-8-11(12)6-3/h4,10-12H,1,5-9H2,2-3H3

   ATOM   CHEMICAL          X               Y               Z
  NUMBER   SYMBOL      (ANGSTROMS)     (ANGSTROMS)     (ANGSTROMS)

     1       C          0.43000000  *  -0.48080000  *  -0.70670000  *
     2       C          1.31860000  *   0.72170000  *  -1.07960000  *
     3       C         -0.93210000  *  -0.10040000  *  -0.05920000  *
     4       C          1.21660000  *   0.33760000  *  -2.55480000  *
     5       C          0.33270000  *  -0.84640000  *  -2.19260000  *
     6       C          2.76290000  *   0.63590000  *  -0.54960000  *
     7       C         -1.91880000  *  -1.30330000  *  -0.03330000  *
     8       C         -0.71470000  *   0.51560000  *   1.34630000  *
     9       C          2.84010000  *   0.94830000  *   0.94140000  *
    10       C         -1.47060000  *  -2.48490000  *   0.83160000  *
    11       C         -2.00130000  *   0.93540000  *   2.00710000  *
    12       C         -2.71860000  *   1.96880000  *   1.55680000  *
    13       H          0.85110000  *   1.71440000  *  -0.89200000  *
    14       H          0.98080000  *  -1.25490000  *  -0.12820000  *
    15       H         -1.40220000  *   0.68260000  *  -0.69630000  *
    16       H          3.18950000  *  -0.37510000  *  -0.73320000  *
    17       H          3.38820000  *   1.37450000  *  -1.09630000  *
    18       H         -2.91110000  *  -0.95950000  *   0.32970000  *
    19       H         -2.08810000  *  -1.67410000  *  -1.06550000  *
    20       H          0.67330000  *   1.10180000  *  -3.15290000  *
    21       H          2.17820000  *   0.01910000  *  -3.01550000  *
    22       H         -0.68180000  *  -0.74220000  *  -2.63450000  *
    23       H          0.81740000  *  -1.82090000  *  -2.41970000  *
    24       H         -0.06160000  *   1.41010000  *   1.27460000  *
    25       H         -0.19100000  *  -0.21040000  *   2.00280000  *
    26       H          3.90090000  *   0.93090000  *   1.26870000  *
    27       H          2.28120000  *   0.18890000  *   1.52660000  *
    28       H          2.42320000  *   1.95700000  *   1.14730000  *
    29       H         -0.50810000  *  -2.90140000  *   0.47180000  *
    30       H         -2.23310000  *  -3.28970000  *   0.76990000  *
    31       H         -1.37810000  *  -2.18810000  *   1.89600000  *
    32       H         -2.34050000  *   0.39860000  *   2.88800000  *
    33       H         -2.39670000  *   2.53740000  *   0.68970000  *
    34       H         -3.63600000  *   2.25360000  *   2.06140000  *



          CARTESIAN COORDINATES 

    NO.       ATOM           X           Y           Z

     1         C          0.4300     -0.4808     -0.7067
     2         C          1.3186      0.7217     -1.0796
     3         C         -0.9321     -0.1004     -0.0592
     4         C          1.2166      0.3376     -2.5548
     5         C          0.3327     -0.8464     -2.1926
     6         C          2.7629      0.6359     -0.5496
     7         C         -1.9188     -1.3033     -0.0333
     8         C         -0.7147      0.5156      1.3463
     9         C          2.8401      0.9483      0.9414
    10         C         -1.4706     -2.4849      0.8316
    11         C         -2.0013      0.9354      2.0071
    12         C         -2.7186      1.9688      1.5568
    13         H          0.8511      1.7144     -0.8920
    14         H          0.9808     -1.2549     -0.1282
    15         H         -1.4022      0.6826     -0.6963
    16         H          3.1895     -0.3751     -0.7332
    17         H          3.3882      1.3745     -1.0963
    18         H         -2.9111     -0.9595      0.3297
    19         H         -2.0881     -1.6741     -1.0655
    20         H          0.6733      1.1018     -3.1529
    21         H          2.1782      0.0191     -3.0155
    22         H         -0.6818     -0.7422     -2.6345
    23         H          0.8174     -1.8209     -2.4197
    24         H         -0.0616      1.4101      1.2746
    25         H         -0.1910     -0.2104      2.0028
    26         H          3.9009      0.9309      1.2687
    27         H          2.2812      0.1889      1.5266
    28         H          2.4232      1.9570      1.1473
    29         H         -0.5081     -2.9014      0.4718
    30         H         -2.2331     -3.2897      0.7699
    31         H         -1.3781     -2.1881      1.8960
    32         H         -2.3405      0.3986      2.8880
    33         H         -2.3967      2.5374      0.6897
    34         H         -3.6360      2.2536      2.0614

  H: (PM3): J. J. P. STEWART, J. COMP. CHEM. 10, 209 (1989).
  C: (PM3): J. J. P. STEWART, J. COMP. CHEM. 10, 209 (1989).

           Empirical Formula: C12 H22  =    34 atoms



      MOLECULAR POINT GROUP   :   C1  


      RHF CALCULATION, NO. OF DOUBLY OCCUPIED LEVELS = 35


          Geometry optimization using L-BFGS
 CYCLE:     1 TIME:   0.016 TIME LEFT:  2.00D  GRAD.:    86.019 HEAT: -10.07098
 CYCLE:     2 TIME:   0.008 TIME LEFT:  2.00D  GRAD.:    84.631 HEAT: -10.14438
 CYCLE:     3 TIME:   0.012 TIME LEFT:  2.00D  GRAD.:    35.555 HEAT: -13.16986
 CYCLE:     4 TIME:   0.012 TIME LEFT:  2.00D  GRAD.:    84.635 HEAT: -10.14444
 CYCLE:     5 TIME:   0.012 TIME LEFT:  2.00D  GRAD.:    35.557 HEAT: -13.16985
 CYCLE:     6 TIME:   0.008 TIME LEFT:  2.00D  GRAD.:    36.384 HEAT: -13.77601
 CYCLE:     7 TIME:   0.012 TIME LEFT:  2.00D  GRAD.:    28.126 HEAT: -14.54919
 CYCLE:     8 TIME:   0.012 TIME LEFT:  2.00D  GRAD.:    25.818 HEAT: -15.24450
 CYCLE:     9 TIME:   0.016 TIME LEFT:  2.00D  GRAD.:    32.357 HEAT: -15.32941
 CYCLE:    10 TIME:   0.012 TIME LEFT:  2.00D  GRAD.:     7.346 HEAT: -15.58904
 CYCLE:    11 TIME:   0.012 TIME LEFT:  2.00D  GRAD.:     4.889 HEAT: -15.61584
 CYCLE:    12 TIME:   0.016 TIME LEFT:  2.00D  GRAD.:     4.586 HEAT: -15.65306
 CYCLE:    13 TIME:   0.012 TIME LEFT:  2.00D  GRAD.:     5.197 HEAT: -15.68476
 CYCLE:    14 TIME:   0.008 TIME LEFT:  2.00D  GRAD.:     8.664 HEAT: -15.70408
 CYCLE:    15 TIME:   0.012 TIME LEFT:  2.00D  GRAD.:     3.061 HEAT: -15.73096
 CYCLE:    16 TIME:   0.012 TIME LEFT:  2.00D  GRAD.:     2.756 HEAT: -15.73896
 CYCLE:    17 TIME:   0.008 TIME LEFT:  2.00D  GRAD.:     3.512 HEAT: -15.75528
 CYCLE:    18 TIME:   0.012 TIME LEFT:  2.00D  GRAD.:     6.975 HEAT: -15.75954
 CYCLE:    19 TIME:   0.008 TIME LEFT:  2.00D  GRAD.:     2.252 HEAT: -15.77272
 CYCLE:    20 TIME:   0.012 TIME LEFT:  2.00D  GRAD.:     1.769 HEAT: -15.77674
 CYCLE:    21 TIME:   0.008 TIME LEFT:  2.00D  GRAD.:     2.641 HEAT: -15.78237
 CYCLE:    22 TIME:   0.016 TIME LEFT:  2.00D  GRAD.:     4.916 HEAT: -15.78878
 CYCLE:    23 TIME:   0.012 TIME LEFT:  2.00D  GRAD.:     3.076 HEAT: -15.79762
 CYCLE:    24 TIME:   0.012 TIME LEFT:  2.00D  GRAD.:     2.551 HEAT: -15.80660
 CYCLE:    25 TIME:   0.012 TIME LEFT:  2.00D  GRAD.:     2.244 HEAT: -15.81291
 CYCLE:    26 TIME:   0.012 TIME LEFT:  2.00D  GRAD.:     3.323 HEAT: -15.82346
 CYCLE:    27 TIME:   0.012 TIME LEFT:  2.00D  GRAD.:     2.726 HEAT: -15.83117
 CYCLE:    28 TIME:   0.008 TIME LEFT:  2.00D  GRAD.:     1.796 HEAT: -15.83711
 CYCLE:    29 TIME:   0.012 TIME LEFT:  2.00D  GRAD.:     1.842 HEAT: -15.84241
 CYCLE:    30 TIME:   0.012 TIME LEFT:  2.00D  GRAD.:     3.126 HEAT: -15.84570
 CYCLE:    31 TIME:   0.008 TIME LEFT:  2.00D  GRAD.:     2.129 HEAT: -15.84998
 CYCLE:    32 TIME:   0.012 TIME LEFT:  2.00D  GRAD.:     1.954 HEAT: -15.85877
 CYCLE:    33 TIME:   0.008 TIME LEFT:  2.00D  GRAD.:     2.301 HEAT: -15.86369
 CYCLE:    34 TIME:   0.016 TIME LEFT:  2.00D  GRAD.:     2.261 HEAT: -15.87157
 CYCLE:    35 TIME:   0.012 TIME LEFT:  2.00D  GRAD.:     4.289 HEAT: -15.87930
 CYCLE:    36 TIME:   0.012 TIME LEFT:  2.00D  GRAD.:     2.597 HEAT: -15.88792
 CYCLE:    37 TIME:   0.008 TIME LEFT:  2.00D  GRAD.:     2.502 HEAT: -15.89532
 CYCLE:    38 TIME:   0.012 TIME LEFT:  2.00D  GRAD.:     4.390 HEAT: -15.89909
 CYCLE:    39 TIME:   0.012 TIME LEFT:  2.00D  GRAD.:     2.513 HEAT: -15.90439
 CYCLE:    40 TIME:   0.012 TIME LEFT:  2.00D  GRAD.:     2.731 HEAT: -15.91166
 CYCLE:    41 TIME:   0.012 TIME LEFT:  2.00D  GRAD.:     2.663 HEAT: -15.91644
 CYCLE:    42 TIME:   0.008 TIME LEFT:  2.00D  GRAD.:     3.425 HEAT: -15.92530
 CYCLE:    43 TIME:   0.012 TIME LEFT:  2.00D  GRAD.:     4.678 HEAT: -15.93278
 CYCLE:    44 TIME:   0.012 TIME LEFT:  2.00D  GRAD.:     3.277 HEAT: -15.94610
 CYCLE:    45 TIME:   0.012 TIME LEFT:  2.00D  GRAD.:     3.051 HEAT: -15.95894
 CYCLE:    46 TIME:   0.008 TIME LEFT:  2.00D  GRAD.:     3.458 HEAT: -15.97753
 CYCLE:    47 TIME:   0.016 TIME LEFT:  2.00D  GRAD.:     3.144 HEAT: -15.99226
 CYCLE:    48 TIME:   0.008 TIME LEFT:  2.00D  GRAD.:     3.207 HEAT: -16.00759
 CYCLE:    49 TIME:   0.016 TIME LEFT:  2.00D  GRAD.:     5.167 HEAT: -16.02011
 CYCLE:    50 TIME:   0.008 TIME LEFT:  2.00D  GRAD.:     3.292 HEAT: -16.03555
 CYCLE:    51 TIME:   0.012 TIME LEFT:  2.00D  GRAD.:     3.130 HEAT: -16.04672
 CYCLE:    52 TIME:   0.012 TIME LEFT:  2.00D  GRAD.:     4.564 HEAT: -16.05783
 CYCLE:    53 TIME:   0.016 TIME LEFT:  2.00D  GRAD.:     4.369 HEAT: -16.07136
 CYCLE:    54 TIME:   0.012 TIME LEFT:  2.00D  GRAD.:     3.904 HEAT: -16.08414
 CYCLE:    55 TIME:   0.012 TIME LEFT:  2.00D  GRAD.:     4.360 HEAT: -16.10061
 CYCLE:    56 TIME:   0.012 TIME LEFT:  2.00D  GRAD.:     4.575 HEAT: -16.12909
 CYCLE:    57 TIME:   0.012 TIME LEFT:  2.00D  GRAD.:     6.646 HEAT: -16.16188
 CYCLE:    58 TIME:   0.008 TIME LEFT:  2.00D  GRAD.:     9.108 HEAT: -16.17382
 CYCLE:    59 TIME:   0.012 TIME LEFT:  2.00D  GRAD.:    11.401 HEAT: -16.18822
 CYCLE:    60 TIME:   0.012 TIME LEFT:  2.00D  GRAD.:     3.424 HEAT: -16.23349
 CYCLE:    61 TIME:   0.012 TIME LEFT:  2.00D  GRAD.:     6.554 HEAT: -16.25233
 CYCLE:    62 TIME:   0.008 TIME LEFT:  2.00D  GRAD.:     4.103 HEAT: -16.27879
 CYCLE:    63 TIME:   0.012 TIME LEFT:  2.00D  GRAD.:     4.372 HEAT: -16.32202
 CYCLE:    64 TIME:   0.016 TIME LEFT:  2.00D  GRAD.:     7.960 HEAT: -16.34090
 CYCLE:    65 TIME:   0.012 TIME LEFT:  2.00D  GRAD.:     3.660 HEAT: -16.36727
 CYCLE:    66 TIME:   0.012 TIME LEFT:  2.00D  GRAD.:     2.789 HEAT: -16.37753
 CYCLE:    67 TIME:   0.012 TIME LEFT:  2.00D  GRAD.:     3.152 HEAT: -16.39139
 CYCLE:    68 TIME:   0.012 TIME LEFT:  2.00D  GRAD.:     5.358 HEAT: -16.41043
 CYCLE:    69 TIME:   0.012 TIME LEFT:  2.00D  GRAD.:     5.072 HEAT: -16.42921
 CYCLE:    70 TIME:   0.012 TIME LEFT:  2.00D  GRAD.:     4.471 HEAT: -16.44308
 CYCLE:    71 TIME:   0.008 TIME LEFT:  2.00D  GRAD.:     4.041 HEAT: -16.45395
 CYCLE:    72 TIME:   0.012 TIME LEFT:  2.00D  GRAD.:     3.965 HEAT: -16.46595
 CYCLE:    73 TIME:   0.012 TIME LEFT:  2.00D  GRAD.:     3.086 HEAT: -16.48270
 CYCLE:    74 TIME:   0.008 TIME LEFT:  2.00D  GRAD.:     3.657 HEAT: -16.50618
 CYCLE:    75 TIME:   0.012 TIME LEFT:  2.00D  GRAD.:    14.517 HEAT: -16.49596
 CYCLE:    76 TIME:   0.016 TIME LEFT:  2.00D  GRAD.:     4.014 HEAT: -16.52912
 CYCLE:    77 TIME:   0.008 TIME LEFT:  2.00D  GRAD.:     2.322 HEAT: -16.53656
 CYCLE:    78 TIME:   0.012 TIME LEFT:  2.00D  GRAD.:     2.788 HEAT: -16.54701
 CYCLE:    79 TIME:   0.008 TIME LEFT:  2.00D  GRAD.:     2.747 HEAT: -16.55533
 CYCLE:    80 TIME:   0.012 TIME LEFT:  2.00D  GRAD.:     5.413 HEAT: -16.56469
 CYCLE:    81 TIME:   0.012 TIME LEFT:  2.00D  GRAD.:     3.689 HEAT: -16.57533
 CYCLE:    82 TIME:   0.008 TIME LEFT:  2.00D  GRAD.:     1.688 HEAT: -16.58043
 CYCLE:    83 TIME:   0.012 TIME LEFT:  2.00D  GRAD.:     1.556 HEAT: -16.58380
 CYCLE:    84 TIME:   0.012 TIME LEFT:  2.00D  GRAD.:     2.212 HEAT: -16.58833
 CYCLE:    85 TIME:   0.012 TIME LEFT:  2.00D  GRAD.:     3.459 HEAT: -16.59226
 CYCLE:    86 TIME:   0.008 TIME LEFT:  2.00D  GRAD.:     1.936 HEAT: -16.59675
 CYCLE:    87 TIME:   0.012 TIME LEFT:  2.00D  GRAD.:     1.690 HEAT: -16.60146
 CYCLE:    88 TIME:   0.012 TIME LEFT:  2.00D  GRAD.:     2.090 HEAT: -16.60518
 CYCLE:    89 TIME:   0.012 TIME LEFT:  2.00D  GRAD.:     3.705 HEAT: -16.61151
 CYCLE:    90 TIME:   0.012 TIME LEFT:  2.00D  GRAD.:     2.568 HEAT: -16.61808
 CYCLE:    91 TIME:   0.012 TIME LEFT:  2.00D  GRAD.:     2.001 HEAT: -16.62226
 CYCLE:    92 TIME:   0.008 TIME LEFT:  2.00D  GRAD.:     2.139 HEAT: -16.62642
 CYCLE:    93 TIME:   0.012 TIME LEFT:  2.00D  GRAD.:     2.958 HEAT: -16.63120
 CYCLE:    94 TIME:   0.012 TIME LEFT:  2.00D  GRAD.:     2.212 HEAT: -16.63899
 CYCLE:    95 TIME:   0.012 TIME LEFT:  2.00D  GRAD.:     1.984 HEAT: -16.64611
 CYCLE:    96 TIME:   0.012 TIME LEFT:  2.00D  GRAD.:     2.369 HEAT: -16.65258
 CYCLE:    97 TIME:   0.012 TIME LEFT:  2.00D  GRAD.:     2.353 HEAT: -16.65746
 CYCLE:    98 TIME:   0.012 TIME LEFT:  2.00D  GRAD.:     1.908 HEAT: -16.66175
 CYCLE:    99 TIME:   0.008 TIME LEFT:  2.00D  GRAD.:     2.390 HEAT: -16.67071
 CYCLE:   100 TIME:   0.012 TIME LEFT:  2.00D  GRAD.:     3.442 HEAT: -16.67549
 CYCLE:   101 TIME:   0.008 TIME LEFT:  2.00D  GRAD.:     2.256 HEAT: -16.68106
 CYCLE:   102 TIME:   0.012 TIME LEFT:  2.00D  GRAD.:     1.959 HEAT: -16.68762
 CYCLE:   103 TIME:   0.012 TIME LEFT:  2.00D  GRAD.:     2.668 HEAT: -16.69377
 CYCLE:   104 TIME:   0.012 TIME LEFT:  2.00D  GRAD.:     3.702 HEAT: -16.70372
 CYCLE:   105 TIME:   0.012 TIME LEFT:  2.00D  GRAD.:     3.183 HEAT: -16.71523
 CYCLE:   106 TIME:   0.012 TIME LEFT:  2.00D  GRAD.:     3.017 HEAT: -16.72503
 CYCLE:   107 TIME:   0.012 TIME LEFT:  2.00D  GRAD.:     3.255 HEAT: -16.73266
 CYCLE:   108 TIME:   0.008 TIME LEFT:  2.00D  GRAD.:     2.641 HEAT: -16.74024
 CYCLE:   109 TIME:   0.012 TIME LEFT:  2.00D  GRAD.:     2.250 HEAT: -16.75008
 CYCLE:   110 TIME:   0.012 TIME LEFT:  2.00D  GRAD.:     2.980 HEAT: -16.75689
 CYCLE:   111 TIME:   0.012 TIME LEFT:  2.00D  GRAD.:     2.400 HEAT: -16.76386
 CYCLE:   112 TIME:   0.012 TIME LEFT:  2.00D  GRAD.:     1.941 HEAT: -16.76947
 CYCLE:   113 TIME:   0.012 TIME LEFT:  2.00D  GRAD.:     2.526 HEAT: -16.77614
 CYCLE:   114 TIME:   0.012 TIME LEFT:  2.00D  GRAD.:     3.425 HEAT: -16.78006
 CYCLE:   115 TIME:   0.012 TIME LEFT:  2.00D  GRAD.:     2.287 HEAT: -16.78564
 CYCLE:   116 TIME:   0.008 TIME LEFT:  2.00D  GRAD.:     1.551 HEAT: -16.78874
 CYCLE:   117 TIME:   0.012 TIME LEFT:  2.00D  GRAD.:     2.181 HEAT: -16.79208
 CYCLE:   118 TIME:   0.020 TIME LEFT:  2.00D  GRAD.:     1.930 HEAT: -16.79530
 CYCLE:   119 TIME:   0.008 TIME LEFT:  2.00D  GRAD.:     1.503 HEAT: -16.79826
 CYCLE:   120 TIME:   0.012 TIME LEFT:  2.00D  GRAD.:     2.137 HEAT: -16.80223
 CYCLE:   121 TIME:   0.012 TIME LEFT:  2.00D  GRAD.:     1.743 HEAT: -16.80540
 CYCLE:   122 TIME:   0.012 TIME LEFT:  2.00D  GRAD.:     1.489 HEAT: -16.80791
 CYCLE:   123 TIME:   0.012 TIME LEFT:  2.00D  GRAD.:     2.504 HEAT: -16.81043
 CYCLE:   124 TIME:   0.016 TIME LEFT:  2.00D  GRAD.:     2.254 HEAT: -16.81361
 CYCLE:   125 TIME:   0.012 TIME LEFT:  2.00D  GRAD.:     1.433 HEAT: -16.81592
 CYCLE:   126 TIME:   0.012 TIME LEFT:  2.00D  GRAD.:     1.117 HEAT: -16.81985
 CYCLE:   127 TIME:   0.008 TIME LEFT:  2.00D  GRAD.:     1.698 HEAT: -16.82316
 CYCLE:   128 TIME:   0.016 TIME LEFT:  2.00D  GRAD.:     2.633 HEAT: -16.82558
 CYCLE:   129 TIME:   0.008 TIME LEFT:  2.00D  GRAD.:     1.291 HEAT: -16.82865
 CYCLE:   130 TIME:   0.012 TIME LEFT:  2.00D  GRAD.:     1.501 HEAT: -16.83094
 CYCLE:   131 TIME:   0.008 TIME LEFT:  2.00D  GRAD.:     1.774 HEAT: -16.83326
 CYCLE:   132 TIME:   0.012 TIME LEFT:  2.00D  GRAD.:     5.117 HEAT: -16.83424
 CYCLE:   133 TIME:   0.012 TIME LEFT:  2.00D  GRAD.:     1.467 HEAT: -16.83851
 CYCLE:   134 TIME:   0.012 TIME LEFT:  2.00D  GRAD.:     1.254 HEAT: -16.84000
 CYCLE:   135 TIME:   0.008 TIME LEFT:  2.00D  GRAD.:     1.505 HEAT: -16.84209
 CYCLE:   136 TIME:   0.012 TIME LEFT:  2.00D  GRAD.:     2.102 HEAT: -16.84599
 CYCLE:   137 TIME:   0.012 TIME LEFT:  2.00D  GRAD.:     2.862 HEAT: -16.85009
 CYCLE:   138 TIME:   0.012 TIME LEFT:  2.00D  GRAD.:     1.863 HEAT: -16.85561
 CYCLE:   139 TIME:   0.012 TIME LEFT:  2.00D  GRAD.:     2.360 HEAT: -16.86360
 CYCLE:   140 TIME:   0.012 TIME LEFT:  2.00D  GRAD.:     3.052 HEAT: -16.87022
 CYCLE:   141 TIME:   0.012 TIME LEFT:  2.00D  GRAD.:     4.129 HEAT: -16.88017
 CYCLE:   142 TIME:   0.012 TIME LEFT:  2.00D  GRAD.:     5.527 HEAT: -16.89041
 CYCLE:   143 TIME:   0.012 TIME LEFT:  2.00D  GRAD.:     7.606 HEAT: -16.89863
 CYCLE:   144 TIME:   0.008 TIME LEFT:  2.00D  GRAD.:     9.966 HEAT: -16.92273
 CYCLE:   145 TIME:   0.012 TIME LEFT:  2.00D  GRAD.:    12.017 HEAT: -16.89869
 CYCLE:   146 TIME:   0.012 TIME LEFT:  2.00D  GRAD.:     8.977 HEAT: -16.95449
 CYCLE:   147 TIME:   0.012 TIME LEFT:  2.00D  GRAD.:     8.768 HEAT: -16.96578
 CYCLE:   148 TIME:   0.012 TIME LEFT:  2.00D  GRAD.:     8.250 HEAT: -16.97001
 CYCLE:   149 TIME:   0.012 TIME LEFT:  2.00D  GRAD.:    36.559 HEAT: -16.65431
 CYCLE:   150 TIME:   0.012 TIME LEFT:  2.00D  GRAD.:    18.815 HEAT: -16.94085
 CYCLE:   151 TIME:   0.012 TIME LEFT:  2.00D  GRAD.:    13.981 HEAT: -16.90330
 CYCLE:   152 TIME:   0.012 TIME LEFT:  2.00D  GRAD.:    33.501 HEAT: -16.76793
 CYCLE:   153 TIME:   0.012 TIME LEFT:  2.00D  GRAD.:    16.511 HEAT: -16.88661
 CYCLE:   154 TIME:   0.016 TIME LEFT:  2.00D  GRAD.:    20.927 HEAT: -16.87789
 CYCLE:   155 TIME:   0.008 TIME LEFT:  2.00D  GRAD.:    15.208 HEAT: -16.98385
 CYCLE:   156 TIME:   0.016 TIME LEFT:  2.00D  GRAD.:     4.917 HEAT: -17.02157
 CYCLE:   157 TIME:   0.012 TIME LEFT:  2.00D  GRAD.:     4.073 HEAT: -17.02625
 CYCLE:   158 TIME:   0.008 TIME LEFT:  2.00D  GRAD.:     1.663 HEAT: -17.03069
 CYCLE:   159 TIME:   0.012 TIME LEFT:  2.00D  GRAD.:     1.533 HEAT: -17.03307
 CYCLE:   160 TIME:   0.008 TIME LEFT:  2.00D  GRAD.:     2.309 HEAT: -17.04115
 CYCLE:   161 TIME:   0.012 TIME LEFT:  2.00D  GRAD.:     3.157 HEAT: -17.05180
 CYCLE:   162 TIME:   0.012 TIME LEFT:  2.00D  GRAD.:     4.621 HEAT: -17.06038
 CYCLE:   163 TIME:   0.012 TIME LEFT:  2.00D  GRAD.:     2.103 HEAT: -17.07060
 CYCLE:   164 TIME:   0.008 TIME LEFT:  2.00D  GRAD.:     2.218 HEAT: -17.07627
 CYCLE:   165 TIME:   0.012 TIME LEFT:  2.00D  GRAD.:     3.326 HEAT: -17.08523
 CYCLE:   166 TIME:   0.012 TIME LEFT:  2.00D  GRAD.:     5.252 HEAT: -17.09242
 CYCLE:   167 TIME:   0.012 TIME LEFT:  2.00D  GRAD.:     4.131 HEAT: -17.10961
 CYCLE:   168 TIME:   0.008 TIME LEFT:  2.00D  GRAD.:     3.044 HEAT: -17.13023
 CYCLE:   169 TIME:   0.012 TIME LEFT:  2.00D  GRAD.:     6.937 HEAT: -17.15217
 CYCLE:   170 TIME:   0.012 TIME LEFT:  2.00D  GRAD.:    10.368 HEAT: -17.15907
 CYCLE:   171 TIME:   0.012 TIME LEFT:  2.00D  GRAD.:     5.289 HEAT: -17.18440
 CYCLE:   172 TIME:   0.008 TIME LEFT:  2.00D  GRAD.:     3.981 HEAT: -17.20737
 CYCLE:   173 TIME:   0.012 TIME LEFT:  2.00D  GRAD.:     3.750 HEAT: -17.22676
 CYCLE:   174 TIME:   0.012 TIME LEFT:  2.00D  GRAD.:     4.044 HEAT: -17.24793
 CYCLE:   175 TIME:   0.012 TIME LEFT:  2.00D  GRAD.:     8.453 HEAT: -17.25503
 CYCLE:   176 TIME:   0.008 TIME LEFT:  2.00D  GRAD.:     2.967 HEAT: -17.27794
 CYCLE:   177 TIME:   0.012 TIME LEFT:  2.00D  GRAD.:     2.121 HEAT: -17.28380
 CYCLE:   178 TIME:   0.012 TIME LEFT:  2.00D  GRAD.:     2.016 HEAT: -17.29190
 CYCLE:   179 TIME:   0.012 TIME LEFT:  2.00D  GRAD.:     4.433 HEAT: -17.29972
 CYCLE:   180 TIME:   0.008 TIME LEFT:  2.00D  GRAD.:     2.179 HEAT: -17.30854
 CYCLE:   181 TIME:   0.012 TIME LEFT:  2.00D  GRAD.:     1.728 HEAT: -17.31203
 CYCLE:   182 TIME:   0.012 TIME LEFT:  2.00D  GRAD.:     2.346 HEAT: -17.31846
 CYCLE:   183 TIME:   0.008 TIME LEFT:  2.00D  GRAD.:     2.723 HEAT: -17.32395
 CYCLE:   184 TIME:   0.012 TIME LEFT:  2.00D  GRAD.:     2.320 HEAT: -17.32958
 CYCLE:   185 TIME:   0.012 TIME LEFT:  2.00D  GRAD.:     6.759 HEAT: -17.33418
 CYCLE:   186 TIME:   0.016 TIME LEFT:  2.00D  GRAD.:     2.152 HEAT: -17.34240
 CYCLE:   187 TIME:   0.012 TIME LEFT:  2.00D  GRAD.:     1.773 HEAT: -17.34471
 CYCLE:   188 TIME:   0.012 TIME LEFT:  2.00D  GRAD.:     1.761 HEAT: -17.35385
 CYCLE:   189 TIME:   0.043 TIME LEFT:  2.00D  GRAD.:     4.951 HEAT: -17.35674
 CYCLE:   190 TIME:   0.023 TIME LEFT:  2.00D  GRAD.:     1.993 HEAT: -17.36367
 CYCLE:   191 TIME:   0.016 TIME LEFT:  2.00D  GRAD.:     1.434 HEAT: -17.36765
 CYCLE:   192 TIME:   0.012 TIME LEFT:  2.00D  GRAD.:     1.790 HEAT: -17.37187
 CYCLE:   193 TIME:   0.012 TIME LEFT:  2.00D  GRAD.:     2.397 HEAT: -17.37846
 CYCLE:   194 TIME:   0.008 TIME LEFT:  2.00D  GRAD.:     4.137 HEAT: -17.38144
 CYCLE:   195 TIME:   0.012 TIME LEFT:  2.00D  GRAD.:     1.282 HEAT: -17.38780
 CYCLE:   196 TIME:   0.012 TIME LEFT:  2.00D  GRAD.:     1.173 HEAT: -17.38962
 CYCLE:   197 TIME:   0.008 TIME LEFT:  2.00D  GRAD.:     1.602 HEAT: -17.39190
 CYCLE:   198 TIME:   0.012 TIME LEFT:  2.00D  GRAD.:     2.696 HEAT: -17.39252
 CYCLE:   199 TIME:   0.012 TIME LEFT:  2.00D  GRAD.:     0.865 HEAT: -17.39436
 CYCLE:   200 TIME:   0.008 TIME LEFT:  2.00D  GRAD.:     0.734 HEAT: -17.39499
 CYCLE:   201 TIME:   0.012 TIME LEFT:  2.00D  GRAD.:     1.039 HEAT: -17.39599
 CYCLE:   202 TIME:   0.012 TIME LEFT:  2.00D  GRAD.:     2.510 HEAT: -17.39671
 CYCLE:   203 TIME:   0.008 TIME LEFT:  2.00D  GRAD.:     1.051 HEAT: -17.39807
 CYCLE:   204 TIME:   0.012 TIME LEFT:  2.00D  GRAD.:     0.777 HEAT: -17.39887
 CYCLE:   205 TIME:   0.012 TIME LEFT:  2.00D  GRAD.:     0.873 HEAT: -17.39966
 CYCLE:   206 TIME:   0.008 TIME LEFT:  2.00D  GRAD.:     0.954 HEAT: -17.40104
 CYCLE:   207 TIME:   0.012 TIME LEFT:  2.00D  GRAD.:     1.736 HEAT: -17.40283
 CYCLE:   208 TIME:   0.012 TIME LEFT:  2.00D  GRAD.:     1.166 HEAT: -17.40437
 CYCLE:   209 TIME:   0.012 TIME LEFT:  2.00D  GRAD.:     0.685 HEAT: -17.40539
 CYCLE:   210 TIME:   0.008 TIME LEFT:  2.00D  GRAD.:     0.835 HEAT: -17.40651
 CYCLE:   211 TIME:   0.016 TIME LEFT:  2.00D  GRAD.:     1.398 HEAT: -17.40734
 CYCLE:   212 TIME:   0.012 TIME LEFT:  2.00D  GRAD.:     0.980 HEAT: -17.40851
 CYCLE:   213 TIME:   0.008 TIME LEFT:  2.00D  GRAD.:     1.048 HEAT: -17.40985
 CYCLE:   214 TIME:   0.016 TIME LEFT:  2.00D  GRAD.:     1.366 HEAT: -17.41058
 CYCLE:   215 TIME:   0.012 TIME LEFT:  2.00D  GRAD.:     0.822 HEAT: -17.41116
 CYCLE:   216 TIME:   0.012 TIME LEFT:  2.00D  GRAD.:     0.551 HEAT: -17.41190
 CYCLE:   217 TIME:   0.012 TIME LEFT:  2.00D  GRAD.:     0.959 HEAT: -17.41216
 CYCLE:   218 TIME:   0.012 TIME LEFT:  2.00D  GRAD.:     0.463 HEAT: -17.41245
 CYCLE:   219 TIME:   0.012 TIME LEFT:  2.00D  GRAD.:     0.415 HEAT: -17.41266
 CYCLE:   220 TIME:   0.012 TIME LEFT:  2.00D  GRAD.:     0.545 HEAT: -17.41297
 CYCLE:   221 TIME:   0.012 TIME LEFT:  2.00D  GRAD.:     0.583 HEAT: -17.41337
 CYCLE:   222 TIME:   0.012 TIME LEFT:  2.00D  GRAD.:     2.090 HEAT: -17.41280
 CYCLE:   223 TIME:   0.012 TIME LEFT:  2.00D  GRAD.:     0.417 HEAT: -17.41389
 CYCLE:   224 TIME:   0.008 TIME LEFT:  2.00D  GRAD.:     0.318 HEAT: -17.41403
 CYCLE:   225 TIME:   0.012 TIME LEFT:  2.00D  GRAD.:     0.466 HEAT: -17.41441
 CYCLE:   226 TIME:   0.012 TIME LEFT:  2.00D  GRAD.:     0.556 HEAT: -17.41478
 CYCLE:   227 TIME:   0.012 TIME LEFT:  2.00D  GRAD.:     1.452 HEAT: -17.41475
 CYCLE:   228 TIME:   0.012 TIME LEFT:  2.00D  GRAD.:     0.419 HEAT: -17.41527
 CYCLE:   229 TIME:   0.012 TIME LEFT:  2.00D  GRAD.:     0.299 HEAT: -17.41541
 CYCLE:   230 TIME:   0.012 TIME LEFT:  2.00D  GRAD.:     0.374 HEAT: -17.41563
 CYCLE:   231 TIME:   0.012 TIME LEFT:  2.00D  GRAD.:     0.397 HEAT: -17.41589
 CYCLE:   232 TIME:   0.012 TIME LEFT:  2.00D  GRAD.:     3.337 HEAT: -17.41476
 CYCLE:   233 TIME:   0.012 TIME LEFT:  2.00D  GRAD.:     0.332 HEAT: -17.41619
 CYCLE:   234 TIME:   0.008 TIME LEFT:  2.00D  GRAD.:     0.262 HEAT: -17.41627
 CYCLE:   235 TIME:   0.012 TIME LEFT:  2.00D  GRAD.:     0.292 HEAT: -17.41636
 CYCLE:   236 TIME:   0.012 TIME LEFT:  2.00D  GRAD.:     0.344 HEAT: -17.41650
 CYCLE:   237 TIME:   0.012 TIME LEFT:  2.00D  GRAD.:     0.512 HEAT: -17.41658
 CYCLE:   238 TIME:   0.012 TIME LEFT:  2.00D  GRAD.:     0.262 HEAT: -17.41669
 CYCLE:   239 TIME:   0.012 TIME LEFT:  2.00D  GRAD.:     0.259 HEAT: -17.41679
 CYCLE:   240 TIME:   0.008 TIME LEFT:  2.00D  GRAD.:     0.309 HEAT: -17.41690
 CYCLE:   241 TIME:   0.012 TIME LEFT:  2.00D  GRAD.:     0.711 HEAT: -17.41701
 CYCLE:   242 TIME:   0.012 TIME LEFT:  2.00D  GRAD.:     0.265 HEAT: -17.41718
 CYCLE:   243 TIME:   0.008 TIME LEFT:  2.00D  GRAD.:     0.202 HEAT: -17.41724
 CYCLE:   244 TIME:   0.012 TIME LEFT:  2.00D  GRAD.:     0.267 HEAT: -17.41733
 CYCLE:   245 TIME:   0.012 TIME LEFT:  2.00D  GRAD.:     0.405 HEAT: -17.41747
 CYCLE:   246 TIME:   0.008 TIME LEFT:  2.00D  GRAD.:     0.277 HEAT: -17.41759
 CYCLE:   247 TIME:   0.012 TIME LEFT:  2.00D  GRAD.:     0.893 HEAT: -17.41757
 CYCLE:   248 TIME:   0.008 TIME LEFT:  2.00D  GRAD.:     0.256 HEAT: -17.41768
 CYCLE:   249 TIME:   0.008 TIME LEFT:  2.00D  GRAD.:     0.181 HEAT: -17.41772

 -------------------------------------------------------------------------------
 pm3  precise nosym THREADS=1
 InChI=1S/C12H22/c1-4-7-10(5-2)12-9-8-11(12)6-3/h4,10-12H,1,5-9H2,2-3H3



     HERBERTS TEST WAS SATISFIED IN BFGS                      
     SCF FIELD WAS ACHIEVED                                   


                              PM3 CALCULATION
                                                       MOPAC v23.1.2 MacOS
                                                       Tue Jun  3 16:37:11 2025




          FINAL HEAT OF FORMATION =        -17.41772 KCAL/MOL =     -72.87573 KJ/MOL


          COSMO AREA              =        232.86 SQUARE ANGSTROMS
          COSMO VOLUME            =        257.34 CUBIC ANGSTROMS

          GRADIENT NORM           =          0.18091          =       0.03103 PER ATOM
          IONIZATION POTENTIAL    =         10.053644 EV
          HOMO LUMO ENERGIES (EV) =        -10.054  1.201
          NO. OF FILLED LEVELS    =         35
          MOLECULAR WEIGHT        =        166.3058         POINT GROUP:  C1  

          MOLECULAR DIMENSIONS (Angstroms)

            Atom       Atom       Distance
            H    34    H    21     8.18547
            H    19    H    26     6.58558
            H    20    H    30     5.68458


          SCF CALCULATIONS        =        250

          WALL-CLOCK TIME         =      2.840 SECONDS
          COMPUTATION TIME        =      1.908 SECONDS




   ATOM   CHEMICAL          X               Y               Z
  NUMBER   SYMBOL      (ANGSTROMS)     (ANGSTROMS)     (ANGSTROMS)

     1       C          0.33230474  *  -0.55860024  *  -0.81478201  *
     2       C          1.26287549  *   0.66236099  *  -1.07594692  *
     3       C         -1.03151433  *  -0.23055175  *  -0.21380806  *
     4       C          1.19797557  *   0.37753556  *  -2.59481686  *
     5       C          0.30654048  *  -0.84991399  *  -2.33577911  *
     6       C          2.65612566  *   0.56020920  *  -0.48894395  *
     7       C         -1.82031481  *  -1.50921766  *   0.08545295  *
     8       C         -0.88874504  *   0.65286961  *   1.02816063  *
     9       C          2.66932630  *   0.82693860  *   0.99935428  *
    10       C         -1.11010267  *  -2.47067870  *   1.01279050  *
    11       C         -2.21429056  *   1.10295314  *   1.53163083  *
    12       C         -2.43646810  *   2.31730559  *   2.01868430  *
    13       H          0.78815280  *   1.62316321  *  -0.76487833  *
    14       H          0.81699323  *  -1.36630744  *  -0.21466192  *
    15       H         -1.61672567  *   0.35477337  *  -0.96796358  *
    16       H          3.08522675  *  -0.44051552  *  -0.69778867  *
    17       H          3.31665737  *   1.28202241  *  -1.00932549  *
    18       H         -2.79897014  *  -1.21510502  *   0.52839253  *
    19       H         -2.05199010  *  -2.01687149  *  -0.87156888  *
    20       H          0.72415726  *   1.17421556  *  -3.18722105  *
    21       H          2.16862638  *   0.15567536  *  -3.06460837  *
    22       H         -0.69078238  *  -0.80997797  *  -2.80119817  *
    23       H          0.75666346  *  -1.81287546  *  -2.61987675  *
    24       H         -0.23068562  *   1.51751887  *   0.77634283  *
    25       H         -0.36580592  *   0.10207581  *   1.83779598  *
    26       H          3.68404696  *   0.75113212  *   1.40965330  *
    27       H          2.03759193  *   0.10855528  *   1.54141775  *
    28       H          2.29135005  *   1.83126152  *   1.23549740  *
    29       H         -0.06987933  *  -2.63880741  *   0.68647601  *
    30       H         -1.61481349  *  -3.44392455  *   1.04185401  *
    31       H         -1.06751338  *  -2.09165286  *   2.04283075  *
    32       H         -3.01071510  *   0.34222148  *   1.47467880  *
    33       H         -1.66920586  *   3.08457507  *   2.07609238  *
    34       H         -3.40579193  *   2.62773730  *   2.39586289  *

                             CARTESIAN COORDINATES

   1    C        0.332304745    -0.558600243    -0.814782008
   2    C        1.262875485     0.662360993    -1.075946918
   3    C       -1.031514327    -0.230551749    -0.213808055
   4    C        1.197975568     0.377535563    -2.594816856
   5    C        0.306540479    -0.849913993    -2.335779107
   6    C        2.656125658     0.560209201    -0.488943952
   7    C       -1.820314806    -1.509217656     0.085452947
   8    C       -0.888745043     0.652869606     1.028160634
   9    C        2.669326304     0.826938598     0.999354281
  10    C       -1.110102665    -2.470678697     1.012790496
  11    C       -2.214290559     1.102953142     1.531630829
  12    C       -2.436468102     2.317305594     2.018684296
  13    H        0.788152797     1.623163206    -0.764878334
  14    H        0.816993230    -1.366307436    -0.214661919
  15    H       -1.616725674     0.354773366    -0.967963579
  16    H        3.085226747    -0.440515516    -0.697788667
  17    H        3.316657370     1.282022406    -1.009325487
  18    H       -2.798970144    -1.215105017     0.528392527
  19    H       -2.051990102    -2.016871495    -0.871568882
  20    H        0.724157255     1.174215562    -3.187221047
  21    H        2.168626385     0.155675358    -3.064608370
  22    H       -0.690782376    -0.809977969    -2.801198171
  23    H        0.756663462    -1.812875462    -2.619876752
  24    H       -0.230685619     1.517518872     0.776342833
  25    H       -0.365805920     0.102075815     1.837795981
  26    H        3.684046964     0.751132117     1.409653299
  27    H        2.037591928     0.108555285     1.541417747
  28    H        2.291350055     1.831261524     1.235497396
  29    H       -0.069879330    -2.638807406     0.686476010
  30    H       -1.614813490    -3.443924555     1.041854009
  31    H       -1.067513383    -2.091652864     2.042830751
  32    H       -3.010715100     0.342221478     1.474678803
  33    H       -1.669205865     3.084575067     2.076092377
  34    H       -3.405791925     2.627737302     2.395862892


           Empirical Formula: C12 H22  =    34 atoms



      MOLECULAR POINT GROUP   :   C1  


                  EIGENVALUES  
 -42.80794 -37.34193 -33.81050 -32.62851 -28.56935 -25.53449 -24.54096 -23.84727
 -21.61324 -20.07026 -19.11264 -18.53417 -16.94276 -16.80050 -15.86558 -15.58810
 -15.09626 -14.94203 -14.71543 -14.34101 -14.18986 -13.80014 -13.41056 -13.23447
 -12.94078 -12.54786 -12.20652 -12.07610 -11.89411 -11.82019 -11.63063 -11.30416
 -11.10122 -10.88439 -10.05364   1.20083   3.19790   3.22931   3.37523   3.55797
   3.59950   3.66919   3.77297   3.82662   3.88613   3.93177   3.98974   3.99956
   4.06086   4.13451   4.13632   4.19468   4.28053   4.33367   4.35453   4.42742
   4.51194   4.63192   4.74229   4.76383   4.86772   4.91589   4.97202   5.03241
   5.07512   5.13717   5.52413   5.63320   5.69577   5.92562


              NET ATOMIC CHARGES AND DIPOLE CONTRIBUTIONS

  ATOM NO.   TYPE          CHARGE      No. of ELECS.   s-Pop       p-Pop       
    1          C          -0.104803        4.1048     1.19908     2.90572
    2          C          -0.099415        4.0994     1.19554     2.90388
    3          C          -0.066758        4.0668     1.17897     2.88778
    4          C          -0.107533        4.1075     1.17326     2.93427
    5          C          -0.107914        4.1079     1.17389     2.93402
    6          C          -0.087913        4.0879     1.15715     2.93077
    7          C          -0.102290        4.1023     1.16251     2.93978
    8          C          -0.087574        4.0876     1.15627     2.93131
    9          C          -0.115154        4.1152     1.13963     2.97552
   10          C          -0.120255        4.1203     1.14015     2.98010
   11          C          -0.141632        4.1416     1.19756     2.94407
   12          C          -0.169234        4.1692     1.18160     2.98764
   13          H           0.082050        0.9180     0.91795
   14          H           0.086894        0.9131     0.91311
   15          H           0.066064        0.9339     0.93394
   16          H           0.051360        0.9486     0.94864
   17          H           0.049805        0.9502     0.95020
   18          H           0.054229        0.9458     0.94577
   19          H           0.050864        0.9491     0.94914
   20          H           0.055271        0.9447     0.94473
   21          H           0.057945        0.9421     0.94205
   22          H           0.059262        0.9407     0.94074
   23          H           0.054561        0.9454     0.94544
   24          H           0.067445        0.9326     0.93255
   25          H           0.064820        0.9352     0.93518
   26          H           0.038235        0.9618     0.96177
   27          H           0.041983        0.9580     0.95802
   28          H           0.038575        0.9614     0.96142
   29          H           0.046229        0.9538     0.95377
   30          H           0.039395        0.9606     0.96060
   31          H           0.040565        0.9594     0.95943
   32          H           0.104820        0.8952     0.89518
   33          H           0.080899        0.9191     0.91910
   34          H           0.079203        0.9208     0.92080
 DIPOLE           X         Y         Z       TOTAL
 POINT-CHG.     0.176    -0.181    -0.085     0.266
 HYBRID        -0.013    -0.020     0.034     0.042
 SUM            0.163    -0.201    -0.051     0.264


          ATOMIC ORBITAL ELECTRON POPULATIONS

     Atom    s        px        py        pz   
    1  C   1.19908   0.95933   0.98542   0.96097
    2  C   1.19554   0.95850   0.98777   0.95760
    3  C   1.17897   0.95714   0.95890   0.97174
    4  C   1.17326   0.99940   0.98018   0.95469
    5  C   1.17389   0.99966   0.97700   0.95737
    6  C   1.15715   0.95801   1.01536   0.95740
    7  C   1.16251   0.98569   0.95843   0.99565
    8  C   1.15627   0.95722   1.00026   0.97383
    9  C   1.13963   1.00913   1.00876   0.95763
   10  C   1.14015   1.00410   0.98454   0.99146
   11  C   1.19756   0.98142   0.97474   0.98791
   12  C   1.18160   1.00932   0.96574   1.01258
   13  H   0.91795
   14  H   0.91311
   15  H   0.93394
   16  H   0.94864
   17  H   0.95020
   18  H   0.94577
   19  H   0.94914
   20  H   0.94473
   21  H   0.94205
   22  H   0.94074
   23  H   0.94544
   24  H   0.93255
   25  H   0.93518
   26  H   0.96177
   27  H   0.95802
   28  H   0.96142
   29  H   0.95377
   30  H   0.96060
   31  H   0.95943
   32  H   0.89518
   33  H   0.91910
   34  H   0.92080
 *******************************************************************************
 **                                                                           **
 **                              MOPAC v23.1.2                                **
 **                                                                           **
 *******************************************************************************
 **          Digital Object Identifier (DOI): 10.5281/zenodo.6511958          **
 **    Visit the DOI location for information on how to cite this program.    **
 *******************************************************************************

                              PM3 CALCULATION RESULTS

 *******************************************************************************
 *  CALCULATION DONE: (MAX THREADS = 1)              Tue Jun  3 16:37:11 2025  *
 *  PM3        - The PM3 Hamiltonian to be used
 *  OLDGEO     - PREVIOUS GEOMETRY TO BE USED
 *  PRECISE    - TIGHTER CRITERIA TO BE USED
 *  NOSYM      - POINT-GROUP SYMMETRY SET TO C1
 *  THREADS=1  - MULTI-THREADING NOT USED
 *  T=         - A TIME OF 172800.0 SECONDS REQUESTED
 *  DUMP=N     - RESTART FILE WRITTEN EVERY 7200.0 SECONDS REQUESTED
 *  THERMO     - THERMODYNAMIC QUANTITIES TO BE CALCULATED
 *******************************************************************************
oldgeo thermo nosym precise THREADS=1  pm3
 InChI=1S/C12H22/c1-4-7-10(5-2)12-9-8-11(12)6-3/h4,10-12H,1,5-9H2,2-3H3

   ATOM   CHEMICAL          X               Y               Z
  NUMBER   SYMBOL      (ANGSTROMS)     (ANGSTROMS)     (ANGSTROMS)

     1       C          0.33230474  *  -0.55860024  *  -0.81478201  *
     2       C          1.26287549  *   0.66236099  *  -1.07594692  *
     3       C         -1.03151433  *  -0.23055175  *  -0.21380806  *
     4       C          1.19797557  *   0.37753556  *  -2.59481686  *
     5       C          0.30654048  *  -0.84991399  *  -2.33577911  *
     6       C          2.65612566  *   0.56020920  *  -0.48894395  *
     7       C         -1.82031481  *  -1.50921766  *   0.08545295  *
     8       C         -0.88874504  *   0.65286961  *   1.02816063  *
     9       C          2.66932630  *   0.82693860  *   0.99935428  *
    10       C         -1.11010267  *  -2.47067870  *   1.01279050  *
    11       C         -2.21429056  *   1.10295314  *   1.53163083  *
    12       C         -2.43646810  *   2.31730559  *   2.01868430  *
    13       H          0.78815280  *   1.62316321  *  -0.76487833  *
    14       H          0.81699323  *  -1.36630744  *  -0.21466192  *
    15       H         -1.61672567  *   0.35477337  *  -0.96796358  *
    16       H          3.08522675  *  -0.44051552  *  -0.69778867  *
    17       H          3.31665737  *   1.28202241  *  -1.00932549  *
    18       H         -2.79897014  *  -1.21510502  *   0.52839253  *
    19       H         -2.05199010  *  -2.01687149  *  -0.87156888  *
    20       H          0.72415726  *   1.17421556  *  -3.18722105  *
    21       H          2.16862638  *   0.15567536  *  -3.06460837  *
    22       H         -0.69078238  *  -0.80997797  *  -2.80119817  *
    23       H          0.75666346  *  -1.81287546  *  -2.61987675  *
    24       H         -0.23068562  *   1.51751887  *   0.77634283  *
    25       H         -0.36580592  *   0.10207581  *   1.83779598  *
    26       H          3.68404696  *   0.75113212  *   1.40965330  *
    27       H          2.03759193  *   0.10855528  *   1.54141775  *
    28       H          2.29135005  *   1.83126152  *   1.23549740  *
    29       H         -0.06987933  *  -2.63880741  *   0.68647601  *
    30       H         -1.61481349  *  -3.44392455  *   1.04185401  *
    31       H         -1.06751338  *  -2.09165286  *   2.04283075  *
    32       H         -3.01071510  *   0.34222148  *   1.47467880  *
    33       H         -1.66920586  *   3.08457507  *   2.07609238  *
    34       H         -3.40579193  *   2.62773730  *   2.39586289  *



          CARTESIAN COORDINATES 

    NO.       ATOM           X           Y           Z

     1         C          0.3323     -0.5586     -0.8148
     2         C          1.2629      0.6624     -1.0759
     3         C         -1.0315     -0.2306     -0.2138
     4         C          1.1980      0.3775     -2.5948
     5         C          0.3065     -0.8499     -2.3358
     6         C          2.6561      0.5602     -0.4889
     7         C         -1.8203     -1.5092      0.0855
     8         C         -0.8887      0.6529      1.0282
     9         C          2.6693      0.8269      0.9994
    10         C         -1.1101     -2.4707      1.0128
    11         C         -2.2143      1.1030      1.5316
    12         C         -2.4365      2.3173      2.0187
    13         H          0.7882      1.6232     -0.7649
    14         H          0.8170     -1.3663     -0.2147
    15         H         -1.6167      0.3548     -0.9680
    16         H          3.0852     -0.4405     -0.6978
    17         H          3.3167      1.2820     -1.0093
    18         H         -2.7990     -1.2151      0.5284
    19         H         -2.0520     -2.0169     -0.8716
    20         H          0.7242      1.1742     -3.1872
    21         H          2.1686      0.1557     -3.0646
    22         H         -0.6908     -0.8100     -2.8012
    23         H          0.7567     -1.8129     -2.6199
    24         H         -0.2307      1.5175      0.7763
    25         H         -0.3658      0.1021      1.8378
    26         H          3.6840      0.7511      1.4097
    27         H          2.0376      0.1086      1.5414
    28         H          2.2914      1.8313      1.2355
    29         H         -0.0699     -2.6388      0.6865
    30         H         -1.6148     -3.4439      1.0419
    31         H         -1.0675     -2.0917      2.0428
    32         H         -3.0107      0.3422      1.4747
    33         H         -1.6692      3.0846      2.0761
    34         H         -3.4058      2.6277      2.3959

  H: (PM3): J. J. P. STEWART, J. COMP. CHEM. 10, 209 (1989).
  C: (PM3): J. J. P. STEWART, J. COMP. CHEM. 10, 209 (1989).

           Empirical Formula: C12 H22  =    34 atoms



      MOLECULAR POINT GROUP   :   C1  


      RHF CALCULATION, NO. OF DOUBLY OCCUPIED LEVELS = 35



          HEAT OF FORMATION =     -17.417718 KCALS/MOLE


          CARTESIAN COORDINATE DERIVATIVES

   NUMBER  ATOM         X            Y            Z

     1       C      0.000494    -0.002899     0.011918
     2       C      0.004755    -0.010677     0.014147
     3       C      0.005070     0.044625     0.025872
     4       C      0.007359     0.010538    -0.022183
     5       C     -0.026645     0.007815    -0.006418
     6       C     -0.008619     0.010668     0.003354
     7       C      0.008209    -0.012665    -0.037017
     8       C      0.009188    -0.016290     0.000883
     9       C     -0.009443     0.008003     0.003878
    10       C     -0.008032    -0.002725     0.000528
    11       C     -0.028422     0.011804     0.002041
    12       C      0.037509    -0.006416    -0.009559
    13       H      0.022540    -0.020485     0.009655
    14       H      0.010541    -0.012819    -0.013291
    15       H     -0.002555     0.017037     0.017290
    16       H     -0.009629    -0.003703    -0.003249
    17       H     -0.017478    -0.022111     0.026335
    18       H     -0.002045     0.008518    -0.024222
    19       H     -0.011589    -0.004689    -0.019313
    20       H     -0.015227     0.027816    -0.009329
    21       H     -0.039835     0.007243    -0.021424
    22       H     -0.023573    -0.011533     0.024949
    23       H      0.008196     0.004608     0.006854
    24       H      0.021881     0.016729     0.003308
    25       H     -0.016891     0.024189     0.014566
    26       H      0.001469     0.002782     0.029004
    27       H      0.014698     0.005569    -0.015493
    28       H      0.002600     0.016555     0.023573
    29       H      0.010944    -0.019354    -0.017705
    30       H      0.039913     0.002138     0.015903
    31       H      0.051859    -0.019364    -0.018639
    32       H     -0.016799    -0.001323     0.007939
    33       H      0.011917    -0.029206    -0.006893
    34       H     -0.032361    -0.030381    -0.017262



          GRADIENT NORM =   0.18106

          MOLECULAR WEIGHT =  166.31



          ROTATIONAL CONSTANTS IN CM(-1)

          A =    0.03384243   B =    0.02095573   C =    0.01719229



           PRINCIPAL MOMENTS OF INERTIA IN UNITS OF 10**(-40)*GRAM-CM**2

          A =      827.1495   B =     1335.8040   C =     1628.2157


          ORIENTATION OF MOLECULE IN FORCE CALCULATION

    NO.       ATOM         X         Y         Z

     1          C      -0.1153   -0.9331   -0.4847
     2          C       1.4419   -0.9331   -0.4847
     3          C      -0.7739    0.4435   -0.4847
     4          C       1.4345   -1.6033   -1.8786
     5          C      -0.1040   -1.6357   -1.8650
     6          C       2.0959   -1.7686    0.5971
     7          C      -2.2980    0.3217   -0.3900
     8          C      -0.2042    1.3273    0.6278
     9          C       2.0634   -1.0840    1.9449
    10          C      -2.7830   -0.4382    0.8250
    11          C      -0.7279    2.7170    0.5413
    12          C       0.0098    3.7921    0.7890
    13          H       1.8594    0.1016   -0.4712
    14          H      -0.5596   -1.5564    0.3287
    15          H      -0.5382    0.9462   -1.4570
    16          H       1.6028   -2.7593    0.6640
    17          H       3.1439   -1.9768    0.3029
    18          H      -2.7265    1.3497   -0.3848
    19          H      -2.6740   -0.1674   -1.3102
    20          H       1.8754   -0.9918   -2.6798
    21          H       1.9194   -2.5910   -1.9184
    22          H      -0.5907   -1.0741   -2.6778
    23          H      -0.5424   -2.6448   -1.8629
    24          H       0.9092    1.3041    0.5660
    25          H      -0.4594    0.9093    1.6241
    26          H       2.5415   -1.6995    2.7172
    27          H       1.0317   -0.8863    2.2698
    28          H       2.5853   -0.1174    1.9224
    29          H      -2.2385   -1.3908    0.9386
    30          H      -3.8526   -0.6691    0.7509
    31          H      -2.6331    0.1313    1.7521
    32          H      -1.7907    2.7914    0.2565
    33          H       1.0603    3.7424    1.0624
    34          H      -0.3893    4.8001    0.7357


    FIRST DERIVATIVES WILL BE USED IN THE CALCULATION OF SECOND DERIVATIVES

          ESTIMATED TIME TO COMPLETE CALCULATION =        6.38 SECONDS

    FOR POINT-GROUP C1   THERE ARE   1 UNIQUE SYMMETRY FUNCTIONS.

 STEP:   1 TIME =     0.04 SECS, INTEGRAL =      0.04 TIME LEFT: 172799.94
 STEP:   2 TIME =     0.04 SECS, INTEGRAL =      0.08 TIME LEFT: 172799.90
 STEP:   3 TIME =     0.04 SECS, INTEGRAL =      0.12 TIME LEFT: 172799.86
 STEP:   4 TIME =     0.04 SECS, INTEGRAL =      0.16 TIME LEFT: 172799.82
 STEP:   5 TIME =     0.04 SECS, INTEGRAL =      0.20 TIME LEFT: 172799.79
 STEP:   6 TIME =     0.04 SECS, INTEGRAL =      0.24 TIME LEFT: 172799.75
 STEP:   7 TIME =     0.04 SECS, INTEGRAL =      0.28 TIME LEFT: 172799.71
 STEP:   8 TIME =     0.04 SECS, INTEGRAL =      0.32 TIME LEFT: 172799.67
 STEP:   9 TIME =     0.04 SECS, INTEGRAL =      0.36 TIME LEFT: 172799.62
 STEP:  10 TIME =     0.04 SECS, INTEGRAL =      0.40 TIME LEFT: 172799.59
 STEP:  11 TIME =     0.04 SECS, INTEGRAL =      0.44 TIME LEFT: 172799.55
 STEP:  12 TIME =     0.04 SECS, INTEGRAL =      0.48 TIME LEFT: 172799.51
 STEP:  13 TIME =     0.04 SECS, INTEGRAL =      0.52 TIME LEFT: 172799.47
 STEP:  14 TIME =     0.04 SECS, INTEGRAL =      0.55 TIME LEFT: 172799.43
 STEP:  15 TIME =     0.04 SECS, INTEGRAL =      0.59 TIME LEFT: 172799.39
 STEP:  16 TIME =     0.04 SECS, INTEGRAL =      0.64 TIME LEFT: 172799.35
 STEP:  17 TIME =     0.04 SECS, INTEGRAL =      0.68 TIME LEFT: 172799.31
 STEP:  18 TIME =     0.04 SECS, INTEGRAL =      0.71 TIME LEFT: 172799.27
 STEP:  19 TIME =     0.04 SECS, INTEGRAL =      0.75 TIME LEFT: 172799.23
 STEP:  20 TIME =     0.04 SECS, INTEGRAL =      0.79 TIME LEFT: 172799.20
 STEP:  21 TIME =     0.04 SECS, INTEGRAL =      0.83 TIME LEFT: 172799.16
 STEP:  22 TIME =     0.04 SECS, INTEGRAL =      0.87 TIME LEFT: 172799.12
 STEP:  23 TIME =     0.04 SECS, INTEGRAL =      0.91 TIME LEFT: 172799.08
 STEP:  24 TIME =     0.04 SECS, INTEGRAL =      0.95 TIME LEFT: 172799.04
 STEP:  25 TIME =     0.04 SECS, INTEGRAL =      0.99 TIME LEFT: 172799.00
 STEP:  26 TIME =     0.04 SECS, INTEGRAL =      1.03 TIME LEFT: 172798.95
 STEP:  27 TIME =     0.04 SECS, INTEGRAL =      1.07 TIME LEFT: 172798.91
 STEP:  28 TIME =     0.04 SECS, INTEGRAL =      1.11 TIME LEFT: 172798.88
 STEP:  29 TIME =     0.04 SECS, INTEGRAL =      1.15 TIME LEFT: 172798.84
 STEP:  30 TIME =     0.04 SECS, INTEGRAL =      1.18 TIME LEFT: 172798.80
 STEP:  31 TIME =     0.04 SECS, INTEGRAL =      1.22 TIME LEFT: 172798.76
 STEP:  32 TIME =     0.04 SECS, INTEGRAL =      1.27 TIME LEFT: 172798.72
 STEP:  33 TIME =     0.04 SECS, INTEGRAL =      1.31 TIME LEFT: 172798.68
 STEP:  34 TIME =     0.04 SECS, INTEGRAL =      1.35 TIME LEFT: 172798.64
 STEP:  35 TIME =     0.04 SECS, INTEGRAL =      1.39 TIME LEFT: 172798.60
 STEP:  36 TIME =     0.04 SECS, INTEGRAL =      1.43 TIME LEFT: 172798.55
 STEP:  37 TIME =     0.04 SECS, INTEGRAL =      1.47 TIME LEFT: 172798.51
 STEP:  38 TIME =     0.04 SECS, INTEGRAL =      1.52 TIME LEFT: 172798.47
 STEP:  39 TIME =     0.04 SECS, INTEGRAL =      1.56 TIME LEFT: 172798.43
 STEP:  40 TIME =     0.04 SECS, INTEGRAL =      1.60 TIME LEFT: 172798.39
 STEP:  41 TIME =     0.04 SECS, INTEGRAL =      1.64 TIME LEFT: 172798.35
 STEP:  42 TIME =     0.04 SECS, INTEGRAL =      1.68 TIME LEFT: 172798.31
 STEP:  43 TIME =     0.04 SECS, INTEGRAL =      1.72 TIME LEFT: 172798.27
 STEP:  44 TIME =     0.04 SECS, INTEGRAL =      1.76 TIME LEFT: 172798.22
 STEP:  45 TIME =     0.04 SECS, INTEGRAL =      1.80 TIME LEFT: 172798.18
 STEP:  46 TIME =     0.04 SECS, INTEGRAL =      1.84 TIME LEFT: 172798.14
 STEP:  47 TIME =     0.05 SECS, INTEGRAL =      1.89 TIME LEFT: 172798.10
 STEP:  48 TIME =     0.05 SECS, INTEGRAL =      1.94 TIME LEFT: 172798.04
 STEP:  49 TIME =     0.04 SECS, INTEGRAL =      1.98 TIME LEFT: 172798.00
 STEP:  50 TIME =     0.05 SECS, INTEGRAL =      2.03 TIME LEFT: 172797.96
 STEP:  51 TIME =     0.04 SECS, INTEGRAL =      2.07 TIME LEFT: 172797.91
 STEP:  52 TIME =     0.04 SECS, INTEGRAL =      2.11 TIME LEFT: 172797.88
 STEP:  53 TIME =     0.04 SECS, INTEGRAL =      2.15 TIME LEFT: 172797.84
 STEP:  54 TIME =     0.05 SECS, INTEGRAL =      2.20 TIME LEFT: 172797.79
 STEP:  55 TIME =     0.04 SECS, INTEGRAL =      2.24 TIME LEFT: 172797.75
 STEP:  56 TIME =     0.04 SECS, INTEGRAL =      2.28 TIME LEFT: 172797.70
 STEP:  57 TIME =     0.04 SECS, INTEGRAL =      2.32 TIME LEFT: 172797.66
 STEP:  58 TIME =     0.04 SECS, INTEGRAL =      2.36 TIME LEFT: 172797.62
 STEP:  59 TIME =     0.04 SECS, INTEGRAL =      2.40 TIME LEFT: 172797.58
 STEP:  60 TIME =     0.04 SECS, INTEGRAL =      2.45 TIME LEFT: 172797.54
 STEP:  61 TIME =     0.04 SECS, INTEGRAL =      2.48 TIME LEFT: 172797.50
 STEP:  62 TIME =     0.04 SECS, INTEGRAL =      2.52 TIME LEFT: 172797.46
 STEP:  63 TIME =     0.04 SECS, INTEGRAL =      2.57 TIME LEFT: 172797.42
 STEP:  64 TIME =     0.04 SECS, INTEGRAL =      2.61 TIME LEFT: 172797.38
 STEP:  65 TIME =     0.04 SECS, INTEGRAL =      2.65 TIME LEFT: 172797.34
 STEP:  66 TIME =     0.04 SECS, INTEGRAL =      2.69 TIME LEFT: 172797.30
 STEP:  67 TIME =     0.04 SECS, INTEGRAL =      2.73 TIME LEFT: 172797.26
 STEP:  68 TIME =     0.04 SECS, INTEGRAL =      2.77 TIME LEFT: 172797.22
 STEP:  69 TIME =     0.04 SECS, INTEGRAL =      2.81 TIME LEFT: 172797.18
 STEP:  70 TIME =     0.04 SECS, INTEGRAL =      2.84 TIME LEFT: 172797.14
 STEP:  71 TIME =     0.04 SECS, INTEGRAL =      2.89 TIME LEFT: 172797.10
 STEP:  72 TIME =     0.04 SECS, INTEGRAL =      2.93 TIME LEFT: 172797.05
 STEP:  73 TIME =     0.04 SECS, INTEGRAL =      2.97 TIME LEFT: 172797.02
 STEP:  74 TIME =     0.04 SECS, INTEGRAL =      3.01 TIME LEFT: 172796.97
 STEP:  75 TIME =     0.04 SECS, INTEGRAL =      3.05 TIME LEFT: 172796.93
 STEP:  76 TIME =     0.04 SECS, INTEGRAL =      3.09 TIME LEFT: 172796.89
 STEP:  77 TIME =     0.04 SECS, INTEGRAL =      3.13 TIME LEFT: 172796.85
 STEP:  78 TIME =     0.04 SECS, INTEGRAL =      3.17 TIME LEFT: 172796.81
 STEP:  79 TIME =     0.04 SECS, INTEGRAL =      3.21 TIME LEFT: 172796.77
 STEP:  80 TIME =     0.04 SECS, INTEGRAL =      3.25 TIME LEFT: 172796.73
 STEP:  81 TIME =     0.04 SECS, INTEGRAL =      3.30 TIME LEFT: 172796.69
 STEP:  82 TIME =     0.04 SECS, INTEGRAL =      3.34 TIME LEFT: 172796.65
 STEP:  83 TIME =     0.04 SECS, INTEGRAL =      3.38 TIME LEFT: 172796.61
 STEP:  84 TIME =     0.04 SECS, INTEGRAL =      3.42 TIME LEFT: 172796.57
 STEP:  85 TIME =     0.04 SECS, INTEGRAL =      3.46 TIME LEFT: 172796.53
 STEP:  86 TIME =     0.04 SECS, INTEGRAL =      3.50 TIME LEFT: 172796.49
 STEP:  87 TIME =     0.05 SECS, INTEGRAL =      3.54 TIME LEFT: 172796.44
 STEP:  88 TIME =     0.04 SECS, INTEGRAL =      3.58 TIME LEFT: 172796.40
 STEP:  89 TIME =     0.05 SECS, INTEGRAL =      3.63 TIME LEFT: 172796.36
 STEP:  90 TIME =     0.05 SECS, INTEGRAL =      3.68 TIME LEFT: 172796.31
 STEP:  91 TIME =     0.05 SECS, INTEGRAL =      3.72 TIME LEFT: 172796.26
 STEP:  92 TIME =     0.04 SECS, INTEGRAL =      3.76 TIME LEFT: 172796.22
 STEP:  93 TIME =     0.04 SECS, INTEGRAL =      3.80 TIME LEFT: 172796.18
 STEP:  94 TIME =     0.04 SECS, INTEGRAL =      3.84 TIME LEFT: 172796.15
 STEP:  95 TIME =     0.04 SECS, INTEGRAL =      3.88 TIME LEFT: 172796.11
 STEP:  96 TIME =     0.04 SECS, INTEGRAL =      3.92 TIME LEFT: 172796.06
 STEP:  97 TIME =     0.04 SECS, INTEGRAL =      3.96 TIME LEFT: 172796.02
 STEP:  98 TIME =     0.04 SECS, INTEGRAL =      4.00 TIME LEFT: 172795.98
 STEP:  99 TIME =     0.05 SECS, INTEGRAL =      4.05 TIME LEFT: 172795.93
 STEP: 100 TIME =     0.04 SECS, INTEGRAL =      4.09 TIME LEFT: 172795.89
 STEP: 101 TIME =     0.04 SECS, INTEGRAL =      4.13 TIME LEFT: 172795.85
 STEP: 102 TIME =     0.04 SECS, INTEGRAL =      4.18 TIME LEFT: 172795.81

(To convert to Hartree/Bohr^2, multiply by (10^(-21) x N x a0^2)/(4.184 x 627.51) =  0.0642)


           FORCE MATRIX IN MILLIDYNES/ANGSTROM


                  C  1       C  2       C  3       C  4       C  5       C  6
 ------------------------------------------------------------------------------
     C    1  14.258896
     C    2   3.166761  14.388041
     C    3   3.926482   0.504885  14.217470
     C    4   1.812504   3.506359   0.039879  14.464438
     C    5   3.444584   1.817687   0.539537   3.767730  14.426336
     C    6   0.528947   4.281435   0.037353   0.556360   0.041248  14.483333
     C    7   0.622700   0.047469   3.780420   0.004819   0.027920   0.007047
     C    8   0.614026   0.085896   3.819228   0.006235   0.048509   0.004045
     C    9   0.028082   0.652441   0.001736   0.050974   0.004732   4.470390
     C   10   0.084516   0.006553   0.594350   0.000862   0.003692   0.000642
     C   11   0.054352   0.007088   0.680791   0.001157   0.008990   0.001118
     C   12   0.009725   0.001567   0.048196   0.000403   0.002177   0.000605
     H   13   0.437252   4.251822   0.035331   0.423827   0.027237   0.430787
     H   14   4.212478   0.434110   0.435974   0.027120   0.427414   0.029238
     H   15   0.432426   0.012290   4.156282   0.002391   0.046809   0.000737
     H   16   0.024071   0.450592   0.001758   0.020490   0.002275   4.436764
     H   17   0.046849   0.431981   0.006562   0.021800   0.003433   4.451885
     H   18   0.049860   0.008112   0.438936   0.000678   0.001706   0.001621
     H   19   0.018635   0.001565   0.436008   0.000449   0.005378   0.000583
     H   20   0.029205   0.444367   0.003574   4.703991   0.446546   0.034797
     H   21   0.030578   0.452393   0.001223   4.671762   0.444589   0.033296
     H   22   0.450774   0.030853   0.033458   0.444642   4.659052   0.001832
     H   23   0.442030   0.029328   0.033919   0.446893   4.696945   0.003712
     H   24   0.044174   0.105262   0.437748   0.001093   0.002102   0.005056
     H   25   0.016392   0.004103   0.456938   0.000624   0.001095   0.001201
     H   26   0.002092   0.052458   0.000433   0.008865   0.000603   0.451260
     H   27   0.006800   0.019270   0.002522   0.001883   0.000529   0.463492
     H   28   0.001946   0.023940   0.000732   0.001664   0.000421   0.464087
     H   29   0.099060   0.001899   0.024313   0.000393   0.002114   0.000575
     H   30   0.006766   0.000615   0.051309   0.000101   0.000711   0.000146
     H   31   0.003381   0.000523   0.009955   0.000109   0.000368   0.000229
     H   32   0.002591   0.000704   0.043478   0.000374   0.000707   0.000406
     H   33   0.001790   0.000498   0.008385   0.000192   0.000385   0.000363
     H   34   0.002842   0.000321   0.015202   0.000109   0.000595   0.000255


                  C  7       C  8       C  9       C 10       C 11       C 12
 ------------------------------------------------------------------------------
     C    7  14.216937
     C    8   0.606586  14.529178
     C    9   0.000353   0.024050  14.352489
     C   10   4.431595   0.045995   0.000478  14.299533
     C   11   0.087308   4.949303   0.001306   0.006483  18.206627
     C   12   0.006896   0.832889   0.000449   0.002494  11.090319  18.041307
     H   13   0.002823   0.078873   0.034015   0.000546   0.002430   0.000760
     H   14   0.044265   0.011431   0.008018   0.109238   0.001918   0.000815
     H   15   0.417375   0.421008   0.000261   0.048471   0.030936   0.002246
     H   16   0.000696   0.000398   0.437274   0.000231   0.000376   0.000206
     H   17   0.001639   0.000738   0.439449   0.000128   0.000466   0.000198
     H   18   4.272764   0.029797   0.000164   0.437522   0.093535   0.002809
     H   19   4.464174   0.049943   0.000135   0.436827   0.005886   0.001125
     H   20   0.000675   0.000942   0.006508   0.000265   0.000270   0.000207
     H   21   0.000411   0.000458   0.002887   0.000213   0.000293   0.000128
     H   22   0.007884   0.003125   0.000504   0.000800   0.000998   0.000259
     H   23   0.001402   0.006504   0.000740   0.000634   0.001406   0.000549
     H   24   0.049262   4.227033   0.005688   0.002888   0.454558   0.039973
     H   25   0.017649   4.368506   0.010325   0.018214   0.410412   0.029912
     H   26   0.000251   0.001448   4.759034   0.000181   0.000473   0.000179
     H   27   0.000443   0.010420   4.679332   0.000550   0.000919   0.000559
     H   28   0.000266   0.006933   4.704418   0.000205   0.000490   0.000331
     H   29   0.465946   0.003902   0.000497   4.551854   0.000857   0.000923
     H   30   0.452788   0.003149   0.000113   4.771851   0.001100   0.000518
     H   31   0.463711   0.017018   0.000270   4.713587   0.001931   0.000807
     H   32   0.086241   0.436449   0.000381   0.003523   4.592337   0.451197
     H   33   0.001079   0.099924   0.000368   0.000513   0.493381   5.072861
     H   34   0.000890   0.139948   0.000166   0.000305   0.462528   5.109388


                  H 13       H 14       H 15       H 16       H 17       H 18
 ------------------------------------------------------------------------------
     H   13   4.787443
     H   14   0.027515   4.807179
     H   15   0.007490   0.039874   4.624924
     H   16   0.042764   0.025179   0.000454   5.053353
     H   17   0.022763   0.003228   0.000334   0.571299   5.060743
     H   18   0.000608   0.002507   0.035447   0.000166   0.000429   4.906587
     H   19   0.000638   0.002450   0.039068   0.000133   0.000158   0.538947
     H   20   0.025066   0.001138   0.001252   0.001239   0.001980   0.000103
     H   21   0.029802   0.002715   0.000534   0.015003   0.014882   0.000067
     H   22   0.002799   0.029444   0.029659   0.000551   0.000606   0.000517
     H   23   0.001065   0.026939   0.001797   0.001415   0.000638   0.000306
     H   24   0.065114   0.001550   0.029584   0.000749   0.000600   0.002497
     H   25   0.000941   0.004681   0.044207   0.000285   0.000304   0.002379
     H   26   0.002105   0.000586   0.000156   0.030381   0.029102   0.000093
     H   27   0.002347   0.010725   0.000319   0.024336   0.049102   0.000137
     H   28   0.023713   0.000533   0.000139   0.048249   0.024486   0.000079
     H   29   0.000644   0.151272   0.002828   0.000361   0.000212   0.047643
     H   30   0.000188   0.002557   0.008209   0.000098   0.000060   0.022199
     H   31   0.000141   0.001262   0.001382   0.000059   0.000069   0.031009
     H   32   0.000933   0.000796   0.005736   0.000132   0.000116   0.080356
     H   33   0.000474   0.000168   0.000626   0.000131   0.000106   0.000647
     H   34   0.000278   0.000218   0.000684   0.000081   0.000087   0.000696


                  H 19       H 20       H 21       H 22       H 23       H 24
 ------------------------------------------------------------------------------
     H   19   5.051177
     H   20   0.000239   5.323358
     H   21   0.000289   0.555529   5.302038
     H   22   0.008501   0.022906   0.031708   5.292061
     H   23   0.000735   0.034736   0.023289   0.559206   5.318918
     H   24   0.008390   0.000431   0.000640   0.000447   0.000419   4.865541
     H   25   0.002465   0.000238   0.000134   0.000474   0.000357   0.548954
     H   26   0.000090   0.001263   0.000675   0.000100   0.000119   0.000667
     H   27   0.000158   0.000408   0.000404   0.000276   0.000230   0.003074
     H   28   0.000129   0.000337   0.000429   0.000101   0.000199   0.010205
     H   29   0.018277   0.000155   0.000131   0.000554   0.000866   0.000356
     H   30   0.035750   0.000086   0.000049   0.000290   0.000263   0.000265
     H   31   0.047633   0.000073   0.000078   0.000303   0.000266   0.000537
     H   32   0.002847   0.000126   0.000157   0.000333   0.000143   0.036830
     H   33   0.000343   0.000105   0.000058   0.000096   0.000106   0.025598
     H   34   0.000154   0.000078   0.000020   0.000103   0.000113   0.005211


                  H 25       H 26       H 27       H 28       H 29       H 30
 ------------------------------------------------------------------------------
     H   25   4.962743
     H   26   0.000461   5.490344
     H   27   0.016482   0.565643   5.418723
     H   28   0.000910   0.570150   0.579277   5.448492
     H   29   0.001468   0.000118   0.000935   0.000126   5.345854
     H   30   0.001039   0.000041   0.000120   0.000057   0.550949   5.494410
     H   31   0.019843   0.000102   0.000402   0.000079   0.572634   0.575123
     H   32   0.012961   0.000141   0.000281   0.000248   0.001141   0.000793
     H   33   0.013409   0.000089   0.000216   0.000196   0.000158   0.000095
     H   34   0.018815   0.000061   0.000152   0.000084   0.000108   0.000110


                  H 31       H 32       H 33       H 34
 ------------------------------------------------------
     H   31   5.450518
     H   32   0.001690   5.002608
     H   33   0.000194   0.120250   5.467950
     H   34   0.000181   0.081583   0.422869   5.497901


          HEAT OF FORMATION =     -17.417718 KCALS/MOLE

          ZERO POINT ENERGY     194.971 KCAL/MOL


           NORMAL COORDINATE ANALYSIS (Total motion = 1 Angstrom)


   Root No.       1         2         3         4         5         6         7         8

                 1 A       2 A       3 A       4 A       5 A       6 A       7 A       8 A   

                  42.2      62.3      87.9      96.1     113.9     128.0     182.0     192.3
  
           1   -0.0021    0.0036   -0.0064   -0.0025    0.0042   -0.0023   -0.0081   -0.0061
           2   -0.0027   -0.0018   -0.0006    0.0004    0.0035   -0.0087   -0.0059   -0.0020
           3    0.0061   -0.0081   -0.0194   -0.0052   -0.0065   -0.0064   -0.0009   -0.0019
           4   -0.0020    0.0034   -0.0064   -0.0025    0.0038   -0.0016   -0.0074   -0.0057
           5   -0.0054   -0.0062   -0.0046   -0.0095   -0.0077    0.0062    0.0074   -0.0059
           6   -0.0044   -0.0064   -0.0011    0.0122   -0.0087   -0.0014    0.0069    0.0081
           7    0.0041    0.0043   -0.0087    0.0003    0.0114   -0.0055   -0.0065   -0.0055
           8    0.0003   -0.0011   -0.0019    0.0019    0.0069   -0.0104   -0.0041   -0.0010
           9   -0.0046   -0.0150   -0.0042   -0.0030   -0.0001   -0.0017   -0.0136    0.0023
          10   -0.0130    0.0033    0.0088    0.0091   -0.0030    0.0099    0.0051    0.0015
          11   -0.0220   -0.0156   -0.0137    0.0070   -0.0272    0.0138    0.0228   -0.0074
          12    0.0036   -0.0019    0.0034    0.0042    0.0004   -0.0047    0.0001    0.0086
          13   -0.0130    0.0031    0.0079    0.0090   -0.0037    0.0100    0.0058    0.0013
          14   -0.0180   -0.0101    0.0148    0.0132    0.0030   -0.0018   -0.0197    0.0170
          15    0.0140   -0.0039   -0.0272   -0.0120   -0.0061   -0.0099    0.0066   -0.0121
          16    0.0062   -0.0012   -0.0199   -0.0202    0.0020    0.0057   -0.0068    0.0085
          17    0.0072   -0.0018    0.0068   -0.0292    0.0048    0.0125    0.0039   -0.0017
          18    0.0003   -0.0001    0.0157    0.0081    0.0018   -0.0015    0.0038    0.0028
          19    0.0026    0.0055   -0.0077    0.0001    0.0109   -0.0056   -0.0065   -0.0062
          20    0.0080   -0.0034   -0.0036    0.0005    0.0098   -0.0084    0.0082    0.0028
          21   -0.0226    0.0024    0.0139   -0.0030   -0.0052   -0.0093   -0.0025    0.0018
          22   -0.0024    0.0154    0.0007   -0.0003    0.0147   -0.0142    0.0080   -0.0013
          23   -0.0042    0.0090   -0.0065    0.0027   -0.0051   -0.0216   -0.0055    0.0019
          24    0.0021   -0.0288   -0.0053   -0.0034    0.0082    0.0114   -0.0193   -0.0028
          25    0.0356   -0.0234   -0.0044    0.0416   -0.0147   -0.0045    0.0040    0.0209
          26    0.0320   -0.0053    0.0377   -0.0115    0.0115    0.0117    0.0030   -0.0113
          27   -0.0117    0.0011    0.0007    0.0004   -0.0020   -0.0012    0.0048    0.0077
          28   -0.0150    0.0209    0.0067    0.0013    0.0065   -0.0096    0.0005   -0.0114
          29    0.0109    0.0248   -0.0178    0.0190    0.0111    0.0428    0.0062    0.0018
          30   -0.0279    0.0263    0.0110    0.0090   -0.0062    0.0214   -0.0014   -0.0012
          31    0.0008   -0.0044    0.0105   -0.0153   -0.0153    0.0002   -0.0000    0.0013
          32   -0.0028    0.0025   -0.0028   -0.0023   -0.0141   -0.0171   -0.0076    0.0028
          33    0.0075   -0.0124   -0.0010    0.0029    0.0478    0.0052    0.0119   -0.0105
          34   -0.0037   -0.0298    0.0178   -0.0247   -0.0157    0.0166    0.0077   -0.0011
          35   -0.0072    0.0078   -0.0102    0.0069    0.0016   -0.0263   -0.0105    0.0023
          36    0.0405    0.0407    0.0100   -0.0097   -0.0203   -0.0040    0.0018   -0.0005
          37   -0.0015    0.0068   -0.0045    0.0046    0.0088   -0.0118   -0.0122   -0.0087
          38   -0.0055   -0.0074   -0.0051   -0.0125   -0.0095    0.0104    0.0095   -0.0041
          39   -0.0193   -0.0128   -0.0070    0.0285   -0.0241    0.0029    0.0164    0.0049
          40    0.0001    0.0026   -0.0129   -0.0142    0.0028   -0.0042   -0.0118   -0.0126
          41    0.0085    0.0033   -0.0132   -0.0038    0.0043   -0.0115    0.0009   -0.0098
          42    0.0158   -0.0045   -0.0324   -0.0147   -0.0063   -0.0096    0.0021   -0.0119
          43    0.0183   -0.0066   -0.0208   -0.0001    0.0156    0.0009   -0.0091   -0.0070
          44   -0.0021   -0.0100    0.0042    0.0026    0.0130   -0.0035   -0.0125   -0.0012
          45   -0.0023   -0.0221   -0.0039   -0.0027    0.0042    0.0035   -0.0182    0.0015
          46   -0.0032    0.0073   -0.0374   -0.0660    0.0104    0.0167   -0.0106    0.0215
          47    0.0136   -0.0066    0.0171   -0.0050    0.0007    0.0070    0.0060   -0.0078
          48    0.0261   -0.0076    0.0386    0.0294    0.0038   -0.0031    0.0056    0.0047
          49   -0.0007    0.0040   -0.0241   -0.0361    0.0061    0.0086   -0.0091    0.0077
          50   -0.0092    0.0086   -0.0186   -0.0830    0.0126    0.0247   -0.0003    0.0128
          51   -0.0128    0.0114    0.0186   -0.0108    0.0111    0.0002   -0.0015   -0.0115
          52    0.0074    0.0016   -0.0067   -0.0031    0.0098   -0.0050    0.0016   -0.0032
          53    0.0101   -0.0051   -0.0032   -0.0008    0.0092   -0.0081    0.0116    0.0041
          54   -0.0284   -0.0182    0.0311   -0.0188   -0.0050   -0.0529    0.0081    0.0026
          55    0.0111   -0.0018   -0.0196    0.0023    0.0135    0.0018   -0.0204   -0.0064
          56    0.0093   -0.0271    0.0072   -0.0146    0.0103   -0.0466    0.0165    0.0059
          57   -0.0268    0.0180    0.0131    0.0042   -0.0065    0.0082   -0.0011    0.0002
          58   -0.0167    0.0066    0.0377    0.0199    0.0137    0.0062   -0.0177    0.0242
          59   -0.0329   -0.0227   -0.0292    0.0148   -0.0489    0.0230    0.0476   -0.0179
          60   -0.0067   -0.0055    0.0077    0.0162   -0.0069    0.0002    0.0062    0.0132
          61   -0.0159   -0.0001   -0.0100    0.0054   -0.0233    0.0202    0.0348   -0.0157
          62   -0.0238   -0.0176   -0.0238    0.0055   -0.0379    0.0191    0.0382   -0.0164
          63    0.0123    0.0055    0.0216   -0.0027    0.0181   -0.0087   -0.0161    0.0180
          64   -0.0169    0.0063    0.0360    0.0198    0.0119    0.0069   -0.0156    0.0231
          65   -0.0256   -0.0133    0.0350    0.0227    0.0140   -0.0028   -0.0448    0.0386
          66    0.0111   -0.0080   -0.0301   -0.0120   -0.0080   -0.0087    0.0024   -0.0106
          67   -0.0156   -0.0005   -0.0124    0.0049   -0.0249    0.0208    0.0369   -0.0168
          68   -0.0168   -0.0086    0.0237    0.0149    0.0123   -0.0065   -0.0333    0.0250
          69    0.0281    0.0015   -0.0493   -0.0262   -0.0092   -0.0164    0.0222   -0.0353
          70   -0.0021    0.0144    0.0005   -0.0004    0.0138   -0.0133    0.0073   -0.0015
          71   -0.0061    0.0240   -0.0123    0.0113    0.0146   -0.0296    0.0060    0.0016
          72    0.0079   -0.0525   -0.0082   -0.0093   -0.0137    0.0299   -0.0409   -0.0074
          73   -0.0090    0.0434    0.0007    0.0090    0.0405   -0.0341    0.0334    0.0045
          74   -0.0085    0.0046   -0.0055   -0.0023   -0.0304   -0.0231   -0.0182    0.0046
          75   -0.0013   -0.0232   -0.0048   -0.0031    0.0042    0.0057   -0.0178   -0.0004
          76    0.0403   -0.0171   -0.0117    0.0198    0.0049    0.0004    0.0317    0.1765
          77    0.0403    0.0020    0.0472   -0.0292    0.0294    0.0165    0.0126    0.0555
          78   -0.0080    0.0030    0.0129   -0.0002    0.0003   -0.0004   -0.0047   -0.0353
          79    0.0429   -0.0292   -0.0001    0.0581   -0.0195   -0.0074    0.0061    0.0195
          80    0.0500   -0.0254    0.0612    0.0509   -0.0169    0.0003   -0.0190   -0.1629
          81    0.0007   -0.0051   -0.0002    0.0147    0.0000   -0.0033    0.0245    0.0942
          82    0.0468   -0.0414    0.0115    0.0958   -0.0425   -0.0147   -0.0166   -0.1221
          83    0.0254    0.0046    0.0286   -0.0413    0.0265    0.0173    0.0140    0.0655
          84   -0.0372    0.0066   -0.0223   -0.0202   -0.0083    0.0008   -0.0044   -0.0309
          85   -0.0152    0.0235   -0.0026    0.0031    0.0051    0.0352   -0.0436   -0.0106
          86    0.0120    0.0282   -0.0260    0.0218    0.0106    0.0770   -0.0241    0.0024
          87   -0.0170    0.0420   -0.0145    0.0237   -0.0036    0.0960   -0.0454   -0.0001
          88   -0.0135    0.0203    0.0026    0.0017    0.0065    0.0044   -0.0146   -0.0109
          89    0.0093    0.0218   -0.0041    0.0158    0.0121   -0.0155    0.0650    0.0008
          90   -0.0433    0.0447    0.0273    0.0126   -0.0093    0.0002    0.0359   -0.0067
          91   -0.0297    0.0313    0.0309    0.0000    0.0044   -0.0701    0.0684   -0.0165
          92    0.0137    0.0471   -0.0346    0.0342    0.0121    0.1074   -0.0231    0.0010
          93   -0.0273    0.0109    0.0175   -0.0001   -0.0066   -0.0086    0.0058   -0.0000
          94    0.0073    0.0026    0.0123   -0.0198   -0.0385    0.0011   -0.0089    0.0054
          95    0.0025   -0.0056    0.0059   -0.0131   -0.0330   -0.0079   -0.0061    0.0048
          96   -0.0155   -0.0406   -0.0052    0.0169    0.1297    0.0048    0.0463   -0.0251
          97   -0.0101   -0.0375    0.0159   -0.0202    0.0077    0.0165    0.0168   -0.0053
          98   -0.0125    0.0174   -0.0207    0.0202    0.0242   -0.0405   -0.0138    0.0014
          99    0.0642    0.0719    0.0155   -0.0247   -0.1068   -0.0060   -0.0340    0.0155
         100   -0.0012   -0.0448    0.0265   -0.0378   -0.0400    0.0320    0.0058    0.0008
         101   -0.0060    0.0027   -0.0066    0.0019   -0.0066   -0.0206   -0.0098    0.0027
         102    0.0458    0.0562    0.0144   -0.0061    0.0060   -0.0101    0.0289   -0.0076


   Root No.       9        10        11        12        13        14        15        16

                 9 A      10 A      11 A      12 A      13 A      14 A      15 A      16 A   

                 215.6     241.3     263.9     318.4     345.9     377.5     391.9     458.3
  
           1    0.0002   -0.0055   -0.0072    0.0060   -0.0121   -0.0073   -0.0209   -0.0133
           2   -0.0028    0.0025   -0.0225    0.0015    0.0013   -0.0162   -0.0214    0.0066
           3    0.0015   -0.0047    0.0061   -0.0148   -0.0115    0.0041   -0.0170    0.0109
           4    0.0002   -0.0022   -0.0064    0.0092   -0.0158   -0.0062   -0.0260   -0.0122
           5   -0.0031    0.0063   -0.0119    0.0030    0.0141   -0.0266   -0.0092    0.0107
           6   -0.0009    0.0034    0.0051   -0.0113   -0.0016    0.0137    0.0022    0.0201
           7    0.0049   -0.0160    0.0068   -0.0038    0.0062    0.0035    0.0019   -0.0151
           8   -0.0011   -0.0000   -0.0158    0.0014    0.0058   -0.0039   -0.0036    0.0054
           9    0.0056   -0.0094    0.0170    0.0049   -0.0082   -0.0080    0.0043   -0.0073
          10   -0.0023    0.0050   -0.0015    0.0259   -0.0105   -0.0033    0.0021    0.0065
          11   -0.0068   -0.0184    0.0131   -0.0159    0.0009    0.0066   -0.0021    0.0034
          12    0.0005    0.0147   -0.0058   -0.0005    0.0019   -0.0009   -0.0019    0.0341
          13   -0.0025    0.0051   -0.0014    0.0260   -0.0109   -0.0031    0.0022    0.0066
          14    0.0086    0.0046    0.0083   -0.0308   -0.0077    0.0001   -0.0263    0.0073
          15   -0.0046   -0.0058   -0.0109   -0.0017   -0.0054   -0.0055   -0.0218    0.0136
          16    0.0119    0.0266    0.0137   -0.0050   -0.0124    0.0217    0.0001    0.0061
          17    0.0036    0.0175    0.0020   -0.0070    0.0245   -0.0167    0.0106   -0.0159
          18   -0.0034   -0.0048    0.0022   -0.0112    0.0046    0.0063    0.0001   -0.0175
          19    0.0046   -0.0169    0.0043   -0.0077    0.0071    0.0034    0.0049   -0.0164
          20   -0.0011    0.0074    0.0114    0.0312    0.0240    0.0258   -0.0215    0.0011
          21   -0.0105    0.0039    0.0127    0.0248    0.0016    0.0028   -0.0115   -0.0145
          22   -0.0173   -0.0034    0.0282   -0.0132    0.0083   -0.0216   -0.0064    0.0063
          23   -0.0073    0.0020   -0.0077   -0.0020   -0.0183    0.0080    0.0109   -0.0145
          24    0.0219   -0.0184    0.0005    0.0177    0.0109   -0.0064    0.0122    0.0007
          25    0.0008    0.0158   -0.0043   -0.0034    0.0097   -0.0012    0.0057   -0.0076
          26   -0.0011   -0.0196    0.0114   -0.0025   -0.0084    0.0073   -0.0021    0.0020
          27   -0.0014    0.0126   -0.0021   -0.0155    0.0228   -0.0054    0.0070   -0.0339
          28    0.0122   -0.0155   -0.0261   -0.0175    0.0319    0.0269    0.0057    0.0160
          29    0.0184    0.0035    0.0068    0.0082   -0.0029    0.0002   -0.0051   -0.0030
          30    0.0037    0.0018   -0.0037    0.0066   -0.0049   -0.0034    0.0000   -0.0042
          31   -0.0067   -0.0046    0.0146   -0.0011    0.0083   -0.0207    0.0209    0.0243
          32   -0.0047    0.0025   -0.0134    0.0036   -0.0215    0.0111    0.0269   -0.0115
          33   -0.0078    0.0036   -0.0103   -0.0004   -0.0093   -0.0013    0.0207    0.0052
          34   -0.0071    0.0063   -0.0166   -0.0097   -0.0142    0.0020    0.0065   -0.0032
          35   -0.0056   -0.0045    0.0058    0.0096   -0.0085   -0.0049    0.0431    0.0085
          36   -0.0043    0.0027   -0.0037   -0.0021   -0.0060    0.0019    0.0057   -0.0010
          37   -0.0047   -0.0098   -0.0178    0.0095   -0.0193   -0.0155   -0.0454   -0.0135
          38   -0.0011    0.0094   -0.0062    0.0020    0.0153   -0.0217   -0.0005    0.0114
          39   -0.0039   -0.0096    0.0099   -0.0106   -0.0080    0.0266    0.0068    0.0303
          40   -0.0065   -0.0074   -0.0168    0.0035   -0.0026   -0.0091   -0.0306   -0.0096
          41   -0.0055    0.0004   -0.0324    0.0051   -0.0012   -0.0225   -0.0307    0.0051
          42   -0.0041   -0.0078   -0.0075   -0.0124   -0.0089   -0.0039   -0.0300    0.0109
          43    0.0196   -0.0260    0.0088   -0.0079    0.0161    0.0172    0.0110   -0.0108
          44    0.0065   -0.0046   -0.0215    0.0074    0.0124   -0.0161   -0.0005    0.0055
          45    0.0131   -0.0141    0.0135    0.0077   -0.0020   -0.0105    0.0087   -0.0057
          46    0.0265    0.0598    0.0366   -0.0198   -0.0093    0.0541    0.0287    0.0173
          47   -0.0038   -0.0003   -0.0087    0.0000    0.0222   -0.0313   -0.0032   -0.0216
          48   -0.0068   -0.0224    0.0056   -0.0125   -0.0009    0.0148    0.0020   -0.0234
          49    0.0152    0.0326    0.0186   -0.0069   -0.0139    0.0276    0.0028    0.0058
          50    0.0205    0.0585    0.0259   -0.0230    0.0296    0.0162    0.0419   -0.0009
          51   -0.0038   -0.0142    0.0028   -0.0068   -0.0058    0.0039   -0.0140   -0.0302
          52    0.0016   -0.0092    0.0200    0.0137    0.0092    0.0179   -0.0041   -0.0238
          53   -0.0024    0.0108    0.0181    0.0407    0.0247    0.0322   -0.0257   -0.0024
          54   -0.0292    0.0145    0.0180    0.0590    0.0308    0.0406   -0.0336   -0.0124
          55    0.0090   -0.0283    0.0020   -0.0337   -0.0106   -0.0260    0.0228   -0.0169
          56   -0.0187    0.0169    0.0293    0.0705    0.0501    0.0617   -0.0473   -0.0039
          57   -0.0028    0.0037    0.0037    0.0150   -0.0047   -0.0036   -0.0053   -0.0114
          58    0.0080    0.0286   -0.0011    0.0223   -0.0113   -0.0063    0.0018    0.0265
          59   -0.0154   -0.0447    0.0301   -0.0241   -0.0038    0.0331    0.0126   -0.0132
          60   -0.0003    0.0079    0.0071   -0.0087   -0.0020    0.0172    0.0089    0.0330
[...]
 TRAVEL (Ang.)       0.2125         C  6 -- C  9          +1.2% ( 11.2%)      0.0%
 REDUCED MASS        0.5061         C  2 -- C  6          +1.1% ( 11.0%)      0.0%
 EFFECTIVE MASS      1.5421
 FORCE CONSTANT      2.5964

 VIBRATION         81   81A           ATOM PAIR      ENERGY CONTRIBUTION    RADIAL
 FREQUENCY          2986.70         C  8 -- H 25         +48.4% ( 69.5%)     99.4%
 TRANSITION DIPOLE   0.1682         C 11 -- H 32         +30.4% ( 55.1%)    100.0%
 TRAVEL (Ang.)       0.2560         C  8 -- H 24         +15.2% ( 39.0%)     91.6%
 REDUCED MASS        0.3446         C  7 -- H 19          +3.2% ( 17.9%)     99.8%
 EFFECTIVE MASS      1.3715
 FORCE CONSTANT      1.8112

 VIBRATION         82   82A           ATOM PAIR      ENERGY CONTRIBUTION    RADIAL
 FREQUENCY          2989.41         C 11 -- H 32         +58.4% ( 76.7%)    100.0%
 TRANSITION DIPOLE   0.2447         C  8 -- H 25         +22.0% ( 47.1%)     99.1%
 TRAVEL (Ang.)       0.2409         C  8 -- H 24         +10.0% ( 31.7%)     94.1%
 REDUCED MASS        0.3887         C  7 -- H 19          +6.8% ( 26.2%)     99.9%
 EFFECTIVE MASS      1.4182
 FORCE CONSTANT      2.0468

 VIBRATION         83   83A           ATOM PAIR      ENERGY CONTRIBUTION    RADIAL
 FREQUENCY          3008.36         C  7 -- H 19         +70.6% ( 83.3%)     99.5%
 TRANSITION DIPOLE   0.0724         C  7 -- H 18         +19.8% ( 44.1%)     89.7%
 TRAVEL (Ang.)       0.2067         C 11 -- H 32          +7.5% ( 27.2%)    100.0%
 REDUCED MASS        0.5247         C  7 -- C 10          +0.6% (  7.8%)     22.6%
 EFFECTIVE MASS      1.3142
 FORCE CONSTANT      2.7978

 VIBRATION         84   84A           ATOM PAIR      ENERGY CONTRIBUTION    RADIAL
 FREQUENCY          3027.05         C  5 -- H 22         +32.7% ( 59.8%)     97.3%
 TRANSITION DIPOLE   0.0118         C  5 -- H 23         +26.1% ( 53.4%)     96.0%
 TRAVEL (Ang.)       0.2853         C  4 -- H 21         +20.5% ( 47.3%)     97.2%
 REDUCED MASS        0.2737         C  4 -- H 20         +17.0% ( 43.1%)     96.0%
 EFFECTIVE MASS      1.5541
 FORCE CONSTANT      1.4776

 VIBRATION         85   85A           ATOM PAIR      ENERGY CONTRIBUTION    RADIAL
 FREQUENCY          3030.39         C  6 -- H 17         +51.3% ( 70.6%)     98.0%
 TRANSITION DIPOLE   0.0207         C  6 -- H 16         +46.7% ( 67.3%)     97.4%
 TRAVEL (Ang.)       0.2157         C  6 -- C  9          +0.6% (  7.8%)     25.9%
 REDUCED MASS        0.4783         C  2 -- C  6          +0.6% (  7.7%)     28.9%
 EFFECTIVE MASS      1.2753
 FORCE CONSTANT      2.5879

 VIBRATION         86   86A           ATOM PAIR      ENERGY CONTRIBUTION    RADIAL
 FREQUENCY          3041.96         C  4 -- H 21         +33.1% ( 59.8%)     97.6%
 TRANSITION DIPOLE   0.0893         C  4 -- H 20         +25.9% ( 52.9%)     96.2%
 TRAVEL (Ang.)       0.2840         C  5 -- H 22         +21.5% ( 48.2%)     97.7%
 REDUCED MASS        0.2749         C  5 -- H 23         +15.9% ( 41.4%)     96.0%
 EFFECTIVE MASS      1.5320
 FORCE CONSTANT      1.4989

 VIBRATION         87   87A           ATOM PAIR      ENERGY CONTRIBUTION    RADIAL
 FREQUENCY          3047.03         C 10 -- H 29         +77.4% ( 90.5%)     99.2%
 TRANSITION DIPOLE   0.0392         C 10 -- H 31         +17.1% ( 42.5%)     87.1%
 TRAVEL (Ang.)       0.1841         C 10 -- H 30          +4.1% ( 20.7%)     52.9%
 REDUCED MASS        0.6527         C  7 -- C 10          +1.0% ( 10.1%)      0.5%
 EFFECTIVE MASS      1.4850
 FORCE CONSTANT      3.5705

 VIBRATION         88   88A           ATOM PAIR      ENERGY CONTRIBUTION    RADIAL
 FREQUENCY          3067.35         C  9 -- H 27         +59.8% ( 79.8%)     98.2%
 TRANSITION DIPOLE   0.0250         C  9 -- H 28         +36.9% ( 62.7%)     94.9%
 TRAVEL (Ang.)       0.2052         C  9 -- H 26          +1.9% ( 14.1%)     21.9%
 REDUCED MASS        0.5221         C  6 -- C  9          +1.0% ( 10.2%)      0.0%
 EFFECTIVE MASS      1.5001
 FORCE CONSTANT      2.8943

 VIBRATION         89   89A           ATOM PAIR      ENERGY CONTRIBUTION    RADIAL
 FREQUENCY          3082.68         C 10 -- H 30         +49.1% ( 72.2%)     97.5%
 TRANSITION DIPOLE   0.0122         C 10 -- H 31         +45.9% ( 69.9%)     96.2%
 TRAVEL (Ang.)       0.2130         C 10 -- H 29          +3.7% ( 19.7%)     42.0%
 REDUCED MASS        0.4821         C  7 -- C 10          +1.0% ( 10.3%)      0.1%
 EFFECTIVE MASS      1.5036
 FORCE CONSTANT      2.6990

 VIBRATION         90   90A           ATOM PAIR      ENERGY CONTRIBUTION    RADIAL
 FREQUENCY          3083.18         C  9 -- H 26         +56.8% ( 77.7%)     98.5%
 TRANSITION DIPOLE   0.0030         C  9 -- H 28         +30.1% ( 56.6%)     92.4%
 TRAVEL (Ang.)       0.2191         C  9 -- H 27         +11.5% ( 35.0%)     76.5%
 REDUCED MASS        0.4557         C  6 -- C  9          +1.0% ( 10.3%)      0.0%
 EFFECTIVE MASS      1.5027
 FORCE CONSTANT      2.5520

 VIBRATION         91   91A           ATOM PAIR      ENERGY CONTRIBUTION    RADIAL
 FREQUENCY          3101.86         C  5 -- H 23         +45.5% ( 66.9%)     98.0%
 TRANSITION DIPOLE   0.0660         C  5 -- H 22         +33.9% ( 57.7%)     96.1%
 TRAVEL (Ang.)       0.2523         C  4 -- H 20         +10.8% ( 32.6%)     98.0%
 REDUCED MASS        0.3414         C  4 -- H 21          +7.8% ( 27.7%)     95.9%
 EFFECTIVE MASS      1.2816
 FORCE CONSTANT      1.9354

 VIBRATION         92   92A           ATOM PAIR      ENERGY CONTRIBUTION    RADIAL
 FREQUENCY          3103.80         C  4 -- H 20         +44.0% ( 65.8%)     97.8%
 TRANSITION DIPOLE   0.0709         C  4 -- H 21         +35.2% ( 58.9%)     96.4%
 TRAVEL (Ang.)       0.2533         C  5 -- H 23         +10.3% ( 31.8%)     97.9%
 REDUCED MASS        0.3387         C  5 -- H 22          +8.3% ( 28.5%)     96.5%
 EFFECTIVE MASS      1.2877
 FORCE CONSTANT      1.9224

 VIBRATION         93   93A           ATOM PAIR      ENERGY CONTRIBUTION    RADIAL
 FREQUENCY          3136.03         C 12 -- H 33         +93.1% ( 98.2%)     99.9%
 TRANSITION DIPOLE   0.1889         C 12 -- H 34          +5.5% ( 23.9%)     66.6%
 TRAVEL (Ang.)       0.1570         C 11 -- C 12          +1.3% ( 11.7%)     24.6%
 REDUCED MASS        0.8726
 EFFECTIVE MASS      1.5331
 FORCE CONSTANT      5.0564

 VIBRATION         94   94A           ATOM PAIR      ENERGY CONTRIBUTION    RADIAL
 FREQUENCY          3147.62         C 12 -- H 34         +93.5% ( 97.4%)     99.8%
 TRANSITION DIPOLE   0.2548         C 12 -- H 33          +4.6% ( 21.6%)     31.1%
 TRAVEL (Ang.)       0.1589         C 11 -- C 12          +1.5% ( 12.5%)     67.3%
 REDUCED MASS        0.8479         C 11 -- H 32          +0.3% (  5.9%)     90.6%
 EFFECTIVE MASS      1.4663
 FORCE CONSTANT      4.9496

 VIBRATION         95   95A           ATOM PAIR      ENERGY CONTRIBUTION    RADIAL
 FREQUENCY          3168.84         C 10 -- H 30         +47.5% ( 66.6%)     98.5%
 TRANSITION DIPOLE   0.0227         C 10 -- H 31         +36.3% ( 58.2%)     97.2%
 TRAVEL (Ang.)       0.2399         C 10 -- H 29         +15.8% ( 38.4%)     91.1%
 REDUCED MASS        0.3698         C  7 -- C 10          +0.3% (  5.4%)     85.9%
 EFFECTIVE MASS      1.1519
 FORCE CONSTANT      2.1879

 VIBRATION         96   96A           ATOM PAIR      ENERGY CONTRIBUTION    RADIAL
 FREQUENCY          3174.42         C  9 -- H 26         +41.2% ( 61.8%)     98.1%
 TRANSITION DIPOLE   0.0146         C  9 -- H 28         +31.8% ( 54.3%)     96.8%
 TRAVEL (Ang.)       0.2515         C  9 -- H 27         +26.7% ( 49.7%)     95.7%
 REDUCED MASS        0.3357         C  6 -- C  9          +0.3% (  5.2%)     97.4%
 EFFECTIVE MASS      1.1391
 FORCE CONSTANT      1.9932

      SYMMETRY NUMBER FOR POINT-GROUP C1  =  1


          SYSTEM IS A GROUND STATE



 InChI=1S/C12H22/c1-4-7-10(5-2)12-9-8-11(12)6-3/h4,10-12H,1,5-9H2,2-3H3


          MOLECULE IS NOT LINEAR

          THERE ARE 96 GENUINE VIBRATIONS IN THIS SYSTEM
          THIS THERMODYNAMICS CALCULATION IS LIMITED TO
          MOLECULES WHICH HAVE NO INTERNAL ROTATIONS




                    CALCULATED THERMODYNAMIC PROPERTIES
                                          *
   TEMP. (K)   PARTITION FUNCTION   H.O.F.    ENTHALPY  HEAT CAPACITY ENTROPY
                                   KCAL/MOL   CAL/MOLE    CAL/K/MOL  CAL/K/MOL


 298.00  VIB.     0.3281D+05                  6874.4957    46.6853    43.7329
         ROT.     0.1513D+07                   888.2803     2.9808    31.2580
         INT.     0.4965D+11                  7762.7760    49.6661    74.9909
         TRA.     0.2073D+28                  1480.4672     4.9680    41.2320
         TOT.                      -17.418    9243.2431    54.6341   116.2229

 200.00  VIB.     0.7145D+03                  3133.2473    30.3409    28.7252
         ROT.     0.8319D+06                   596.1613     2.9808    30.0694
         INT.     0.5944D+09                  3729.4086    33.3217    58.7945
         TRA.     0.1140D+28                   993.6021     4.9680    39.2509
         TOT.                      -21.938    4723.0107    38.2897    98.0454

 210.00  VIB.     0.1059D+04                  3443.9577    31.8091    30.2408
         ROT.     0.8951D+06                   625.9693     2.9808    30.2148
         INT.     0.9479D+09                  4069.9270    34.7899    60.4556
         TRA.     0.1227D+28                  1043.2822     4.9680    39.4932
         TOT.                      -21.548    5113.2093    39.7579    99.9489

 220.00  VIB.     0.1568D+04                  3769.5912    33.3259    31.7554
         ROT.     0.9598D+06                   655.7774     2.9808    30.3535
         INT.     0.1505D+10                  4425.3686    36.3067    62.1089
         TRA.     0.1315D+28                  1092.9623     4.9680    39.7244
         TOT.                      -21.143    5518.3309    41.2747   101.8332

 230.00  VIB.     0.2319D+04                  4110.6410    34.8924    33.2712
         ROT.     0.1026D+07                   685.5855     2.9808    30.4860
         INT.     0.2379D+10                  4796.2265    37.8732    63.7572
         TRA.     0.1406D+28                  1142.6424     4.9680    39.9452
         TOT.                      -20.722    5938.8689    42.8412   103.7024

 240.00  VIB.     0.3428D+04                  4467.6038    36.5082    34.7902
         ROT.     0.1094D+07                   715.3935     2.9808    30.6128
         INT.     0.3749D+10                  5182.9973    39.4890    65.4030
         TRA.     0.1499D+28                  1192.3226     4.9680    40.1566
         TOT.                      -20.286    6375.3199    44.4570   105.5596

 250.00  VIB.     0.5063D+04                  4840.9627    38.1712    36.3141
         ROT.     0.1163D+07                   745.2016     2.9808    30.7345
         INT.     0.5886D+10                  5586.1643    41.1520    67.0486
         TRA.     0.1593D+28                  1242.0027     4.9680    40.3594
         TOT.                      -19.833    6828.1670    46.1200   107.4080

 260.00  VIB.     0.7475D+04                  5231.1745    39.8782    37.8443
         ROT.     0.1233D+07                   775.0097     2.9808    30.8514
         INT.     0.9217D+10                  6006.1842    42.8590    68.6957
         TRA.     0.1690D+28                  1291.6828     4.9680    40.5543
         TOT.                      -19.363    7297.8670    47.8270   109.2500

 270.00  VIB.     0.1103D+05                  5638.6586    41.6249    39.3819
         ROT.     0.1305D+07                   804.8177     2.9808    30.9639
         INT.     0.1440D+11                  6443.4763    44.6057    70.3458
         TRA.     0.1788D+28                  1341.3629     4.9680    40.7418
         TOT.                      -18.876    7784.8392    49.5737   111.0876

 280.00  VIB.     0.1628D+05                  6063.7894    43.4067    40.9278
         ROT.     0.1378D+07                   834.6258     2.9808    31.0723
         INT.     0.2244D+11                  6898.4152    46.3875    72.0002
         TRA.     0.1888D+28                  1391.0430     4.9680    40.9225
         TOT.                      -18.372    8289.4581    51.3555   112.9226

 290.00  VIB.     0.2403D+05                  6506.8911    45.2182    42.4826
         ROT.     0.1453D+07                   864.4339     2.9808    31.1769
         INT.     0.3490D+11                  7371.3250    48.1990    73.6595
         TRA.     0.1990D+28                  1440.7231     4.9680    41.0968
         TOT.                      -17.849    8812.0481    53.1670   114.7563

 300.00  VIB.     0.3547D+05                  6968.2350    47.0542    44.0464
         ROT.     0.1528D+07                   894.2419     2.9808    31.2780
         INT.     0.5421D+11                  7862.4769    50.0350    75.3244
         TRA.     0.2094D+28                  1490.4032     4.9680    41.2652
         TOT.                      -17.308    9352.8801    55.0030   116.5896

 310.00  VIB.     0.5238D+05                  7448.0376    48.9091    45.6195
         ROT.     0.1605D+07                   924.0500     2.9808    31.3757
         INT.     0.8409D+11                  8372.0875    51.8899    76.9952
         TRA.     0.2200D+28                  1540.0833     4.9680    41.4281
         TOT.                      -16.749    9912.1708    56.8579   118.4233

 320.00  VIB.     0.7739D+05                  7946.4615    50.7776    47.2018
         ROT.     0.1684D+07                   953.8580     2.9808    31.4704
         INT.     0.1303D+12                  8900.3195    53.7584    78.6721
         TRA.     0.2307D+28                  1589.7634     4.9680    41.5859
         TOT.                      -16.171   10490.0830    58.7264   120.2580

 330.00  VIB.     0.1144D+06                  8463.6169    52.6545    48.7930
         ROT.     0.1763D+07                   983.6661     2.9808    31.5621
         INT.     0.2017D+12                  9447.2830    55.6353    80.3551
         TRA.     0.2416D+28                  1639.4435     4.9680    41.7387
         TOT.                      -15.574   11086.7265    60.6033   122.0938

 340.00  VIB.     0.1692D+06                  8999.5638    54.5351    50.3928
         ROT.     0.1844D+07                  1013.4742     2.9808    31.6511
         INT.     0.3120D+12                 10013.0379    57.5159    82.0439
         TRA.     0.2527D+28                  1689.1236     4.9680    41.8870
         TOT.                      -14.959   11702.1615    62.4839   123.9309

 350.00  VIB.     0.2504D+06                  9554.3151    56.4147    52.0008
         ROT.     0.1926D+07                  1043.2822     2.9808    31.7375
         INT.     0.4823D+12                 10597.5973    59.3955    83.7382
         TRA.     0.2639D+28                  1738.8037     4.9680    42.0310
         TOT.                      -14.325   12336.4011    64.3635   125.7693

 360.00  VIB.     0.3709D+06                 10127.8406    58.2892    53.6163
         ROT.     0.2009D+07                  1073.0903     2.9808    31.8214
         INT.     0.7452D+12                 11200.9309    61.2700    85.4378
         TRA.     0.2753D+28                  1788.4838     4.9680    42.1710
         TOT.                      -13.672   12989.4147    66.2380   127.6088

 370.00  VIB.     0.5499D+06                 10720.0702    60.1549    55.2389
         ROT.     0.2093D+07                  1102.8984     2.9808    31.9031
         INT.     0.1151D+13                 11822.9686    63.1357    87.1420
         TRA.     0.2869D+28                  1838.1639     4.9680    42.3071
         TOT.                      -13.000   13661.1325    68.1037   129.4491

 380.00  VIB.     0.8158D+06                 11330.8984    62.0084    56.8677
         ROT.     0.2179D+07                  1132.7064     2.9808    31.9826
         INT.     0.1777D+13                 12463.6049    64.9892    88.8503
         TRA.     0.2986D+28                  1887.8440     4.9680    42.4396
         TOT.                      -12.310   14351.4489    69.9572   131.2899

 390.00  VIB.     0.1211D+07                 11960.1880    63.8467    58.5022
         ROT.     0.2265D+07                  1162.5145     2.9808    32.0600
         INT.     0.2744D+13                 13122.7025    66.8275    90.5623
         TRA.     0.3104D+28                  1937.5242     4.9680    42.5687
         TOT.                      -11.601   15060.2266    71.7955   133.1309

 400.00  VIB.     0.1800D+07                 12607.7738    65.6673    60.1417
         ROT.     0.2353D+07                  1192.3226     2.9808    32.1355
         INT.     0.4235D+13                 13800.0964    68.6481    92.2772
         TRA.     0.3224D+28                  1987.2043     4.9680    42.6944
         TOT.                      -10.874   15787.3006    73.6161   134.9716

   *: NOTE: HEATS OF FORMATION ARE RELATIVE TO THE
            ELEMENTS IN THEIR STANDARD STATE AT 298K
              (=  Standard Enthalpy of Formation).

            Hvib:  Zero-point energy is not included.
                   frequencies of less than zero cm-1 are not included.
            Hrot = (3/2)RT
            Htra = (3/2)RT + pV = (5/2)RT

            Heat capacity is Cp, not Cv

          For more information, see: HTTP://OpenMOPAC.net/Manual/thermochemistry.html


           FORCE CONSTANT IN CARTESIAN COORDINATES (Millidynes/A)

    ATOM   CHEMICAL       X               Y               Z
   NUMBER   SYMBOL  FORCE CONSTANT  FORCE CONSTANT  FORCE CONSTANT

      1       C        7.962117        8.184118        8.208468
      2       C        7.661435        8.654775        8.231980
      3       C        8.050929        8.336952        8.233370
      4       C        8.111108        8.399022        8.088577
      5       C        8.108567        8.494026        7.927049
      6       C        8.291313        8.348112        8.443934
      7       C        7.839414        8.377605        8.394225
      8       C        8.410028        8.909885        7.784014
      9       C        8.204199        8.257135        8.393914
     10       C        8.507681        8.052355        8.199975
     11       C       10.422823       13.448354        3.151271
     12       C       10.424287       13.420266        2.627778
     13       H        1.351904        4.082578        0.761855
     14       H        1.530329        1.966570        2.796719
     15       H        0.892529        1.514957        3.580286
     16       H        1.624942        4.014574        0.752795
     17       H        4.550078        0.802144        1.020120
     18       H        1.376775        4.214776        0.735566
     19       H        1.183699        1.579257        3.601686
     20       H        1.392936        2.161090        3.069008
     21       H        1.535199        4.359282        0.729278
     22       H        1.533535        1.939181        3.140671
     23       H        1.382913        4.533724        0.704551
     24       H        4.716561        0.833573        0.740081
     25       H        0.932911        1.230902        4.044249
     26       H        1.579987        2.263032        2.945149
     27       H        4.836757        0.818812        1.070864
     28       H        1.763843        4.262395        0.739411
     29       H        1.954724        4.050893        0.778401
     30       H        5.176868        0.855152        0.753022
     31       H        0.768253        2.037137        3.941505
     32       H        4.590114        0.883356        0.682035
     33       H        5.081119        0.714789        0.661459
     34       H        1.333703        4.768150        0.370400

 **********************
 *                    *
 * JOB ENDED NORMALLY *
 *                    *
 **********************



 TOTAL JOB TIME:            10.12 SECONDS

 == MOPAC DONE ==
