 *******************************************************************************
 **                                                                           **
 **                              MOPAC v23.1.2                                **
 **                                                                           **
 *******************************************************************************
 **          Digital Object Identifier (DOI): 10.5281/zenodo.6511958          **
 **    Visit the DOI location for information on how to cite this program.    **
 *******************************************************************************

                              PM3 CALCULATION RESULTS

 *******************************************************************************
 *  CALCULATION DONE: (MAX THREADS = 1)              Tue Jun  3 16:40:15 2025  *
 *  PM3        - The PM3 Hamiltonian to be used
 *  PRECISE    - TIGHTER CRITERIA TO BE USED
 *  NOSYM      - POINT-GROUP SYMMETRY SET TO C1
 *  THREADS=1  - MULTI-THREADING NOT USED
 *  T=         - A TIME OF 172800.0 SECONDS REQUESTED
 *  DUMP=N     - RESTART FILE WRITTEN EVERY 7200.0 SECONDS REQUESTED
 *******************************************************************************
pm3  precise nosym THREADS=1
 InChI=1S/C12H20/c1-4-7-11(6-3)12-8-10(5-2)9-12/h6,8,11-12H,3-5,7,9H2,1-2H3

   ATOM   CHEMICAL          X               Y               Z
  NUMBER   SYMBOL      (ANGSTROMS)     (ANGSTROMS)     (ANGSTROMS)

     1       C          0.73150000  *   0.47070000  *  -0.14850000  *
     2       C         -0.43200000  *   0.93750000  *   0.76050000  *
     3       C          1.78660000  *  -0.29890000  *   0.67570000  *
     4       C          2.87270000  *  -0.92540000  *  -0.21270000  *
     5       C         -1.56300000  *   1.49480000  *   0.06190000  *
     6       C         -3.83620000  *  -0.03170000  *   0.37430000  *
     7       C          3.86730000  *  -1.73080000  *   0.61840000  *
     8       C         -3.94910000  *  -1.36390000  *  -0.35650000  *
     9       C         -2.40220000  *   0.35720000  *   0.54420000  *
    10       C         -1.30930000  *  -0.18920000  *   1.21710000  *
    11       C          1.36800000  *   1.67970000  *  -0.79960000  *
    12       C          1.41160000  *   1.82870000  *  -2.12690000  *
    13       H          0.32680000  *  -0.21930000  *  -0.92600000  *
    14       H         -0.09690000  *   1.56710000  *   1.61640000  *
    15       H          3.42760000  *  -0.12980000  *  -0.75490000  *
    16       H          2.40220000  *  -1.59900000  *  -0.96160000  *
    17       H          2.25810000  *   0.38470000  *   1.41680000  *
    18       H          1.28660000  *  -1.11580000  *   1.24000000  *
    19       H         -4.36070000  *   0.75430000  *  -0.20940000  *
    20       H         -4.31360000  *  -0.11150000  *   1.37380000  *
    21       H         -1.48620000  *   1.49630000  *  -1.04840000  *
    22       H         -1.90560000  *   2.46440000  *   0.48570000  *
    23       H          4.64140000  *  -2.16670000  *  -0.04780000  *
    24       H          3.34800000  *  -2.55810000  *   1.14750000  *
    25       H          4.36730000  *  -1.07540000  *   1.36300000  *
    26       H         -3.45200000  *  -2.16800000  *   0.22740000  *
    27       H         -3.47700000  *  -1.29360000  *  -1.36000000  *
    28       H         -5.02000000  *  -1.62790000  *  -0.48440000  *
    29       H          1.80460000  *   2.44960000  *  -0.16930000  *
    30       H         -1.16120000  *  -1.07030000  *   1.83200000  *
    31       H          1.87720000  *   2.70870000  *  -2.55810000  *
    32       H          0.98770000  *   1.08170000  *  -2.79090000  *



          CARTESIAN COORDINATES 

    NO.       ATOM           X           Y           Z

     1         C          0.7315      0.4707     -0.1485
     2         C         -0.4320      0.9375      0.7605
     3         C          1.7866     -0.2989      0.6757
     4         C          2.8727     -0.9254     -0.2127
     5         C         -1.5630      1.4948      0.0619
     6         C         -3.8362     -0.0317      0.3743
     7         C          3.8673     -1.7308      0.6184
     8         C         -3.9491     -1.3639     -0.3565
     9         C         -2.4022      0.3572      0.5442
    10         C         -1.3093     -0.1892      1.2171
    11         C          1.3680      1.6797     -0.7996
    12         C          1.4116      1.8287     -2.1269
    13         H          0.3268     -0.2193     -0.9260
    14         H         -0.0969      1.5671      1.6164
    15         H          3.4276     -0.1298     -0.7549
    16         H          2.4022     -1.5990     -0.9616
    17         H          2.2581      0.3847      1.4168
    18         H          1.2866     -1.1158      1.2400
    19         H         -4.3607      0.7543     -0.2094
    20         H         -4.3136     -0.1115      1.3738
    21         H         -1.4862      1.4963     -1.0484
    22         H         -1.9056      2.4644      0.4857
    23         H          4.6414     -2.1667     -0.0478
    24         H          3.3480     -2.5581      1.1475
    25         H          4.3673     -1.0754      1.3630
    26         H         -3.4520     -2.1680      0.2274
    27         H         -3.4770     -1.2936     -1.3600
    28         H         -5.0200     -1.6279     -0.4844
    29         H          1.8046      2.4496     -0.1693
    30         H         -1.1612     -1.0703      1.8320
    31         H          1.8772      2.7087     -2.5581
    32         H          0.9877      1.0817     -2.7909

  H: (PM3): J. J. P. STEWART, J. COMP. CHEM. 10, 209 (1989).
  C: (PM3): J. J. P. STEWART, J. COMP. CHEM. 10, 209 (1989).

           Empirical Formula: C12 H20  =    32 atoms



      MOLECULAR POINT GROUP   :   C1  


      RHF CALCULATION, NO. OF DOUBLY OCCUPIED LEVELS = 34


          Geometry optimization using EF

          DIAGONAL MATRIX USED AS START HESSIAN

 CYCLE:     1 TIME:   0.012 TIME LEFT:  2.00D  GRAD.:   212.317 HEAT:  34.51554
 CYCLE:     2 TIME:   0.020 TIME LEFT:  2.00D  GRAD.:    72.425 HEAT:  25.24645
 CYCLE:     3 TIME:   0.016 TIME LEFT:  2.00D  GRAD.:   104.699 HEAT:  24.70138
 CYCLE:     4 TIME:   0.012 TIME LEFT:  2.00D  GRAD.:   105.684 HEAT:  24.27729
 CYCLE:     5 TIME:   0.012 TIME LEFT:  2.00D  GRAD.:    88.698 HEAT:  23.54351
 CYCLE:     6 TIME:   0.008 TIME LEFT:  2.00D  GRAD.:    90.218 HEAT:  23.20247
 CYCLE:     7 TIME:   0.020 TIME LEFT:  2.00D  GRAD.:    32.032 HEAT:  21.78695
 CYCLE:     8 TIME:   0.020 TIME LEFT:  2.00D  GRAD.:    21.713 HEAT:  21.55450
 CYCLE:     9 TIME:   0.008 TIME LEFT:  2.00D  GRAD.:    13.175 HEAT:  21.35107
 CYCLE:    10 TIME:   0.020 TIME LEFT:  2.00D  GRAD.:    22.812 HEAT:  21.31957
 CYCLE:    11 TIME:   0.012 TIME LEFT:  2.00D  GRAD.:    18.775 HEAT:  21.22148
 CYCLE:    12 TIME:   0.020 TIME LEFT:  2.00D  GRAD.:    15.835 HEAT:  21.15738
 CYCLE:    13 TIME:   0.008 TIME LEFT:  2.00D  GRAD.:    14.852 HEAT:  21.13636
 CYCLE:    14 TIME:   0.012 TIME LEFT:  2.00D  GRAD.:    16.096 HEAT:  21.10753
 CYCLE:    15 TIME:   0.012 TIME LEFT:  2.00D  GRAD.:    12.238 HEAT:  21.07997
 CYCLE:    16 TIME:   0.020 TIME LEFT:  2.00D  GRAD.:     7.350 HEAT:  21.04033
 CYCLE:    17 TIME:   0.016 TIME LEFT:  2.00D  GRAD.:     4.471 HEAT:  21.02800
 CYCLE:    18 TIME:   0.016 TIME LEFT:  2.00D  GRAD.:     4.313 HEAT:  21.02202
 CYCLE:    19 TIME:   0.012 TIME LEFT:  2.00D  GRAD.:     3.753 HEAT:  21.01496
 CYCLE:    20 TIME:   0.020 TIME LEFT:  2.00D  GRAD.:     5.817 HEAT:  21.01090
 CYCLE:    21 TIME:   0.008 TIME LEFT:  2.00D  GRAD.:     4.106 HEAT:  21.00299
 CYCLE:    22 TIME:   0.016 TIME LEFT:  2.00D  GRAD.:     5.398 HEAT:  21.00247
 CYCLE:    23 TIME:   0.012 TIME LEFT:  2.00D  GRAD.:     2.412 HEAT:  20.99438
 CYCLE:    24 TIME:   0.012 TIME LEFT:  2.00D  GRAD.:     4.953 HEAT:  20.99577
 CYCLE:    25 TIME:   0.008 TIME LEFT:  2.00D  GRAD.:     2.935 HEAT:  20.99059
 CYCLE:    26 TIME:   0.012 TIME LEFT:  2.00D  GRAD.:     7.164 HEAT:  20.99843
 CYCLE:    27 TIME:   0.012 TIME LEFT:  2.00D  GRAD.:     2.110 HEAT:  20.98594
 CYCLE:    28 TIME:   0.008 TIME LEFT:  2.00D  GRAD.:     4.118 HEAT:  20.98798
 CYCLE:    29 TIME:   0.012 TIME LEFT:  2.00D  GRAD.:     1.783 HEAT:  20.98240
 CYCLE:    30 TIME:   0.012 TIME LEFT:  2.00D  GRAD.:     3.179 HEAT:  20.98261
 CYCLE:    31 TIME:   0.008 TIME LEFT:  2.00D  GRAD.:     1.515 HEAT:  20.97841
 CYCLE:    32 TIME:   0.012 TIME LEFT:  2.00D  GRAD.:     2.492 HEAT:  20.97666
 CYCLE:    33 TIME:   0.012 TIME LEFT:  2.00D  GRAD.:     2.047 HEAT:  20.97301
 CYCLE:    34 TIME:   0.008 TIME LEFT:  2.00D  GRAD.:     2.308 HEAT:  20.96947
 CYCLE:    35 TIME:   0.012 TIME LEFT:  2.00D  GRAD.:     2.080 HEAT:  20.96615
 CYCLE:    36 TIME:   0.012 TIME LEFT:  2.00D  GRAD.:     2.447 HEAT:  20.96230
 CYCLE:    37 TIME:   0.012 TIME LEFT:  2.00D  GRAD.:     2.659 HEAT:  20.95833
 CYCLE:    38 TIME:   0.012 TIME LEFT:  2.00D  GRAD.:     2.643 HEAT:  20.95170
 CYCLE:    39 TIME:   0.012 TIME LEFT:  2.00D  GRAD.:     2.965 HEAT:  20.94564
 CYCLE:    40 TIME:   0.008 TIME LEFT:  2.00D  GRAD.:     3.027 HEAT:  20.93810
 CYCLE:    41 TIME:   0.012 TIME LEFT:  2.00D  GRAD.:     3.553 HEAT:  20.93304
 CYCLE:    42 TIME:   0.012 TIME LEFT:  2.00D  GRAD.:     2.566 HEAT:  20.92741
 CYCLE:    43 TIME:   0.012 TIME LEFT:  2.00D  GRAD.:     2.853 HEAT:  20.92434
 CYCLE:    44 TIME:   0.012 TIME LEFT:  2.00D  GRAD.:     2.193 HEAT:  20.91943
 CYCLE:    45 TIME:   0.012 TIME LEFT:  2.00D  GRAD.:     2.012 HEAT:  20.91382
 CYCLE:    46 TIME:   0.012 TIME LEFT:  2.00D  GRAD.:     2.712 HEAT:  20.90894
 CYCLE:    47 TIME:   0.012 TIME LEFT:  2.00D  GRAD.:     1.611 HEAT:  20.90459
 CYCLE:    48 TIME:   0.012 TIME LEFT:  2.00D  GRAD.:     1.717 HEAT:  20.90180
 CYCLE:    49 TIME:   0.012 TIME LEFT:  2.00D  GRAD.:     1.186 HEAT:  20.89960
 CYCLE:    50 TIME:   0.012 TIME LEFT:  2.00D  GRAD.:     0.982 HEAT:  20.89860
 CYCLE:    51 TIME:   0.012 TIME LEFT:  2.00D  GRAD.:     1.423 HEAT:  20.89792
 CYCLE:    52 TIME:   0.008 TIME LEFT:  2.00D  GRAD.:     0.894 HEAT:  20.89696
 CYCLE:    53 TIME:   0.012 TIME LEFT:  2.00D  GRAD.:     0.631 HEAT:  20.89609
 CYCLE:    54 TIME:   0.012 TIME LEFT:  2.00D  GRAD.:     0.708 HEAT:  20.89526
 CYCLE:    55 TIME:   0.012 TIME LEFT:  2.00D  GRAD.:     0.844 HEAT:  20.89452
 CYCLE:    56 TIME:   0.012 TIME LEFT:  2.00D  GRAD.:     0.735 HEAT:  20.89388
 CYCLE:    57 TIME:   0.012 TIME LEFT:  2.00D  GRAD.:     0.513 HEAT:  20.89332
 CYCLE:    58 TIME:   0.008 TIME LEFT:  2.00D  GRAD.:     0.512 HEAT:  20.89279
 CYCLE:    59 TIME:   0.012 TIME LEFT:  2.00D  GRAD.:     0.574 HEAT:  20.89231
 CYCLE:    60 TIME:   0.012 TIME LEFT:  2.00D  GRAD.:     0.605 HEAT:  20.89135
 CYCLE:    61 TIME:   0.012 TIME LEFT:  2.00D  GRAD.:     0.551 HEAT:  20.89069
 CYCLE:    62 TIME:   0.012 TIME LEFT:  2.00D  GRAD.:     0.538 HEAT:  20.89001
 CYCLE:    63 TIME:   0.012 TIME LEFT:  2.00D  GRAD.:     0.617 HEAT:  20.88919
 CYCLE:    64 TIME:   0.012 TIME LEFT:  2.00D  GRAD.:     0.633 HEAT:  20.88828
 CYCLE:    65 TIME:   0.012 TIME LEFT:  2.00D  GRAD.:     0.520 HEAT:  20.88748
 CYCLE:    66 TIME:   0.008 TIME LEFT:  2.00D  GRAD.:     0.346 HEAT:  20.88711
 CYCLE:    67 TIME:   0.012 TIME LEFT:  2.00D  GRAD.:     0.292 HEAT:  20.88690
 CYCLE:    68 TIME:   0.012 TIME LEFT:  2.00D  GRAD.:     0.276 HEAT:  20.88675
 CYCLE:    69 TIME:   0.012 TIME LEFT:  2.00D  GRAD.:     0.297 HEAT:  20.88651
 CYCLE:    70 TIME:   0.008 TIME LEFT:  2.00D  GRAD.:     0.305 HEAT:  20.88631
 CYCLE:    71 TIME:   0.012 TIME LEFT:  2.00D  GRAD.:     0.294 HEAT:  20.88609
 CYCLE:    72 TIME:   0.016 TIME LEFT:  2.00D  GRAD.:     0.299 HEAT:  20.88590
 CYCLE:    73 TIME:   0.012 TIME LEFT:  2.00D  GRAD.:     0.332 HEAT:  20.88566
 CYCLE:    74 TIME:   0.008 TIME LEFT:  2.00D  GRAD.:     0.343 HEAT:  20.88539
 CYCLE:    75 TIME:   0.012 TIME LEFT:  2.00D  GRAD.:     0.281 HEAT:  20.88511
 CYCLE:    76 TIME:   0.012 TIME LEFT:  2.00D  GRAD.:     0.206 HEAT:  20.88501
 CYCLE:    77 TIME:   0.008 TIME LEFT:  2.00D  GRAD.:     0.275 HEAT:  20.88489
 CYCLE:    78 TIME:   0.012 TIME LEFT:  2.00D  GRAD.:     0.215 HEAT:  20.88480
 CYCLE:    79 TIME:   0.012 TIME LEFT:  2.00D  GRAD.:     0.176 HEAT:  20.88465
 CYCLE:    80 TIME:   0.012 TIME LEFT:  2.00D  GRAD.:     0.152 HEAT:  20.88458
 CYCLE:    81 TIME:   0.012 TIME LEFT:  2.00D  GRAD.:     0.153 HEAT:  20.88451
 CYCLE:    82 TIME:   0.008 TIME LEFT:  2.00D  GRAD.:     0.151 HEAT:  20.88446
 CYCLE:    83 TIME:   0.012 TIME LEFT:  2.00D  GRAD.:     0.159 HEAT:  20.88435
 CYCLE:    84 TIME:   0.012 TIME LEFT:  2.00D  GRAD.:     0.290 HEAT:  20.88432
 CYCLE:    85 TIME:   0.012 TIME LEFT:  2.00D  GRAD.:     0.197 HEAT:  20.88423
 CYCLE:    86 TIME:   0.008 TIME LEFT:  2.00D  GRAD.:     0.122 HEAT:  20.88413
 CYCLE:    87 TIME:   0.012 TIME LEFT:  2.00D  GRAD.:     0.132 HEAT:  20.88403
 CYCLE:    88 TIME:   0.012 TIME LEFT:  2.00D  GRAD.:     0.179 HEAT:  20.88388
 CYCLE:    89 TIME:   0.012 TIME LEFT:  2.00D  GRAD.:     0.163 HEAT:  20.88381
 CYCLE:    90 TIME:   0.012 TIME LEFT:  2.00D  GRAD.:     0.158 HEAT:  20.88371
 CYCLE:    91 TIME:   0.012 TIME LEFT:  2.00D  GRAD.:     0.136 HEAT:  20.88367
 CYCLE:    92 TIME:   0.012 TIME LEFT:  2.00D  GRAD.:     0.176 HEAT:  20.88357
 CYCLE:    93 TIME:   0.020 TIME LEFT:  2.00D  GRAD.:     0.137 HEAT:  20.88353
 CYCLE:    94 TIME:   0.012 TIME LEFT:  2.00D  GRAD.:     0.161 HEAT:  20.88343
 CYCLE:    95 TIME:   0.008 TIME LEFT:  2.00D  GRAD.:     0.156 HEAT:  20.88337
 CYCLE:    96 TIME:   0.012 TIME LEFT:  2.00D  GRAD.:     0.124 HEAT:  20.88324
 CYCLE:    97 TIME:   0.012 TIME LEFT:  2.00D  GRAD.:     0.190 HEAT:  20.88317
 CYCLE:    98 TIME:   0.012 TIME LEFT:  2.00D  GRAD.:     0.162 HEAT:  20.88313
 CYCLE:    99 TIME:   0.012 TIME LEFT:  2.00D  GRAD.:     0.263 HEAT:  20.88305
 CYCLE:   100 TIME:   0.008 TIME LEFT:  2.00D  GRAD.:     0.142 HEAT:  20.88293
 CYCLE:   101 TIME:   0.012 TIME LEFT:  2.00D  GRAD.:     0.133 HEAT:  20.88286
 CYCLE:   102 TIME:   0.012 TIME LEFT:  2.00D  GRAD.:     0.142 HEAT:  20.88279
 CYCLE:   103 TIME:   0.012 TIME LEFT:  2.00D  GRAD.:     0.140 HEAT:  20.88269
 CYCLE:   104 TIME:   0.012 TIME LEFT:  2.00D  GRAD.:     0.119 HEAT:  20.88264
 CYCLE:   105 TIME:   0.012 TIME LEFT:  2.00D  GRAD.:     0.153 HEAT:  20.88260
 CYCLE:   106 TIME:   0.008 TIME LEFT:  2.00D  GRAD.:     0.116 HEAT:  20.88254
 CYCLE:   107 TIME:   0.012 TIME LEFT:  2.00D  GRAD.:     0.101 HEAT:  20.88247
 CYCLE:   108 TIME:   0.012 TIME LEFT:  2.00D  GRAD.:     0.092 HEAT:  20.88245
 CYCLE:   109 TIME:   0.012 TIME LEFT:  2.00D  GRAD.:     0.261 HEAT:  20.88251
 CYCLE:   110 TIME:   0.012 TIME LEFT:  2.00D  GRAD.:     0.111 HEAT:  20.88237
 CYCLE:   111 TIME:   0.008 TIME LEFT:  2.00D  GRAD.:     0.093 HEAT:  20.88235
 CYCLE:   112 TIME:   0.012 TIME LEFT:  2.00D  GRAD.:     0.138 HEAT:  20.88229
 CYCLE:   113 TIME:   0.008 TIME LEFT:  2.00D  GRAD.:     0.120 HEAT:  20.88225
 CYCLE:   114 TIME:   0.012 TIME LEFT:  2.00D  GRAD.:     0.135 HEAT:  20.88217
 CYCLE:   115 TIME:   0.012 TIME LEFT:  2.00D  GRAD.:     0.159 HEAT:  20.88211
 CYCLE:   116 TIME:   0.012 TIME LEFT:  2.00D  GRAD.:     0.139 HEAT:  20.88200
 CYCLE:   117 TIME:   0.012 TIME LEFT:  2.00D  GRAD.:     0.754 HEAT:  20.88285
 CYCLE:   118 TIME:   0.012 TIME LEFT:  2.00D  GRAD.:     0.216 HEAT:  20.88174
 CYCLE:   119 TIME:   0.008 TIME LEFT:  2.00D  GRAD.:     0.198 HEAT:  20.88168
 CYCLE:   120 TIME:   0.012 TIME LEFT:  2.00D  GRAD.:     0.194 HEAT:  20.88152
 CYCLE:   121 TIME:   0.012 TIME LEFT:  2.00D  GRAD.:     0.153 HEAT:  20.88131
 CYCLE:   122 TIME:   0.012 TIME LEFT:  2.00D  GRAD.:     0.234 HEAT:  20.88103
 CYCLE:   123 TIME:   0.012 TIME LEFT:  2.00D  GRAD.:     0.164 HEAT:  20.88092
 CYCLE:   124 TIME:   0.012 TIME LEFT:  2.00D  GRAD.:     0.158 HEAT:  20.88076
 CYCLE:   125 TIME:   0.008 TIME LEFT:  2.00D  GRAD.:     0.173 HEAT:  20.88059
 CYCLE:   126 TIME:   0.016 TIME LEFT:  2.00D  GRAD.:     0.230 HEAT:  20.88042
 CYCLE:   127 TIME:   0.008 TIME LEFT:  2.00D  GRAD.:     0.229 HEAT:  20.88029
 CYCLE:   128 TIME:   0.012 TIME LEFT:  2.00D  GRAD.:     0.248 HEAT:  20.87993
 CYCLE:   129 TIME:   0.012 TIME LEFT:  2.00D  GRAD.:     0.188 HEAT:  20.87979
 CYCLE:   130 TIME:   0.012 TIME LEFT:  2.00D  GRAD.:     0.235 HEAT:  20.87942
 CYCLE:   131 TIME:   0.012 TIME LEFT:  2.00D  GRAD.:     0.286 HEAT:  20.87927
 CYCLE:   132 TIME:   0.012 TIME LEFT:  2.00D  GRAD.:     0.263 HEAT:  20.87893
 CYCLE:   133 TIME:   0.012 TIME LEFT:  2.00D  GRAD.:     0.312 HEAT:  20.87871
 CYCLE:   134 TIME:   0.012 TIME LEFT:  2.00D  GRAD.:     0.254 HEAT:  20.87844
 CYCLE:   135 TIME:   0.012 TIME LEFT:  2.00D  GRAD.:     0.275 HEAT:  20.87821
 CYCLE:   136 TIME:   0.012 TIME LEFT:  2.00D  GRAD.:     0.271 HEAT:  20.87793
 CYCLE:   137 TIME:   0.012 TIME LEFT:  2.00D  GRAD.:     0.269 HEAT:  20.87764
 CYCLE:   138 TIME:   0.012 TIME LEFT:  2.00D  GRAD.:     0.224 HEAT:  20.87749
 CYCLE:   139 TIME:   0.012 TIME LEFT:  2.00D  GRAD.:     0.220 HEAT:  20.87725
 CYCLE:   140 TIME:   0.008 TIME LEFT:  2.00D  GRAD.:     0.206 HEAT:  20.87711
 CYCLE:   141 TIME:   0.012 TIME LEFT:  2.00D  GRAD.:     0.202 HEAT:  20.87686
 CYCLE:   142 TIME:   0.012 TIME LEFT:  2.00D  GRAD.:     0.191 HEAT:  20.87675
 CYCLE:   143 TIME:   0.012 TIME LEFT:  2.00D  GRAD.:     0.374 HEAT:  20.87648
 CYCLE:   144 TIME:   0.012 TIME LEFT:  2.00D  GRAD.:     0.249 HEAT:  20.87628
 CYCLE:   145 TIME:   0.012 TIME LEFT:  2.00D  GRAD.:     0.197 HEAT:  20.87613
 CYCLE:   146 TIME:   0.012 TIME LEFT:  2.00D  GRAD.:     0.203 HEAT:  20.87591
 CYCLE:   147 TIME:   0.008 TIME LEFT:  2.00D  GRAD.:     0.319 HEAT:  20.87547
 CYCLE:   148 TIME:   0.012 TIME LEFT:  2.00D  GRAD.:     0.581 HEAT:  20.87504
 CYCLE:   149 TIME:   0.012 TIME LEFT:  2.00D  GRAD.:     0.528 HEAT:  20.87453
 CYCLE:   150 TIME:   0.016 TIME LEFT:  2.00D  GRAD.:     1.526 HEAT:  20.87456
 CYCLE:   151 TIME:   0.008 TIME LEFT:  2.00D  GRAD.:     1.117 HEAT:  20.87348
 CYCLE:   152 TIME:   0.012 TIME LEFT:  2.00D  GRAD.:     0.441 HEAT:  20.87272
 CYCLE:   153 TIME:   0.012 TIME LEFT:  2.00D  GRAD.:     0.405 HEAT:  20.87214
 CYCLE:   154 TIME:   0.012 TIME LEFT:  2.00D  GRAD.:     2.791 HEAT:  20.87197
 CYCLE:   155 TIME:   0.012 TIME LEFT:  2.00D  GRAD.:     1.362 HEAT:  20.87499
 CYCLE:   156 TIME:   0.012 TIME LEFT:  2.00D  GRAD.:     0.934 HEAT:  20.86862
 CYCLE:   157 TIME:   0.016 TIME LEFT:  2.00D  GRAD.:     0.855 HEAT:  20.86699
 CYCLE:   158 TIME:   0.012 TIME LEFT:  2.00D  GRAD.:     1.501 HEAT:  20.86578
 CYCLE:   159 TIME:   0.012 TIME LEFT:  2.00D  GRAD.:     1.465 HEAT:  20.86391
 CYCLE:   160 TIME:   0.012 TIME LEFT:  2.00D  GRAD.:     2.855 HEAT:  20.85887
 CYCLE:   161 TIME:   0.012 TIME LEFT:  2.00D  GRAD.:     2.116 HEAT:  20.85994
 CYCLE:   162 TIME:   0.012 TIME LEFT:  2.00D  GRAD.:     0.928 HEAT:  20.85475
 CYCLE:   163 TIME:   0.012 TIME LEFT:  2.00D  GRAD.:     1.296 HEAT:  20.85344
 CYCLE:   164 TIME:   0.012 TIME LEFT:  2.00D  GRAD.:     1.637 HEAT:  20.85188
 CYCLE:   165 TIME:   0.008 TIME LEFT:  2.00D  GRAD.:     1.088 HEAT:  20.84891
 CYCLE:   166 TIME:   0.012 TIME LEFT:  2.00D  GRAD.:     1.178 HEAT:  20.84779
 CYCLE:   167 TIME:   0.012 TIME LEFT:  2.00D  GRAD.:     1.043 HEAT:  20.84646
 CYCLE:   168 TIME:   0.012 TIME LEFT:  2.00D  GRAD.:     1.137 HEAT:  20.84457
 CYCLE:   169 TIME:   0.012 TIME LEFT:  2.00D  GRAD.:     1.368 HEAT:  20.84192
 CYCLE:   170 TIME:   0.012 TIME LEFT:  2.00D  GRAD.:     2.243 HEAT:  20.84038
 CYCLE:   171 TIME:   0.012 TIME LEFT:  2.00D  GRAD.:     1.334 HEAT:  20.83661
 CYCLE:   172 TIME:   0.012 TIME LEFT:  2.00D  GRAD.:     0.956 HEAT:  20.83277
 CYCLE:   173 TIME:   0.016 TIME LEFT:  2.00D  GRAD.:     1.451 HEAT:  20.82601
 CYCLE:   174 TIME:   0.012 TIME LEFT:  2.00D  GRAD.:     2.748 HEAT:  20.81894
 CYCLE:   175 TIME:   0.012 TIME LEFT:  2.00D  GRAD.:     2.602 HEAT:  20.80688
 CYCLE:   176 TIME:   0.012 TIME LEFT:  2.00D  GRAD.:     1.635 HEAT:  20.78802
 CYCLE:   177 TIME:   0.012 TIME LEFT:  2.00D  GRAD.:     3.687 HEAT:  20.77549
 CYCLE:   178 TIME:   0.031 TIME LEFT:  2.00D  GRAD.:     2.547 HEAT:  20.77074
 CYCLE:   179 TIME:   0.008 TIME LEFT:  2.00D  GRAD.:     1.163 HEAT:  20.76579
 CYCLE:   180 TIME:   0.016 TIME LEFT:  2.00D  GRAD.:     1.952 HEAT:  20.75509
 CYCLE:   181 TIME:   0.012 TIME LEFT:  2.00D  GRAD.:     4.585 HEAT:  20.75082
 CYCLE:   182 TIME:   0.008 TIME LEFT:  2.00D  GRAD.:     3.090 HEAT:  20.73786
 CYCLE:   183 TIME:   0.012 TIME LEFT:  2.00D  GRAD.:     2.136 HEAT:  20.72727
 CYCLE:   184 TIME:   0.012 TIME LEFT:  2.00D  GRAD.:     2.509 HEAT:  20.71156
 CYCLE:   185 TIME:   0.012 TIME LEFT:  2.00D  GRAD.:     2.732 HEAT:  20.70310
 CYCLE:   186 TIME:   0.012 TIME LEFT:  2.00D  GRAD.:     2.564 HEAT:  20.69315
 CYCLE:   187 TIME:   0.012 TIME LEFT:  2.00D  GRAD.:     3.574 HEAT:  20.69078
 CYCLE:   188 TIME:   0.012 TIME LEFT:  2.00D  GRAD.:     4.244 HEAT:  20.69022
 CYCLE:   189 TIME:   0.012 TIME LEFT:  2.00D  GRAD.:     1.438 HEAT:  20.68119
 CYCLE:   190 TIME:   0.008 TIME LEFT:  2.00D  GRAD.:     1.101 HEAT:  20.67905
 CYCLE:   191 TIME:   0.016 TIME LEFT:  2.00D  GRAD.:     1.347 HEAT:  20.67759
 CYCLE:   192 TIME:   0.012 TIME LEFT:  2.00D  GRAD.:     0.871 HEAT:  20.67605
 CYCLE:   193 TIME:   0.008 TIME LEFT:  2.00D  GRAD.:     0.682 HEAT:  20.67500
 CYCLE:   194 TIME:   0.012 TIME LEFT:  2.00D  GRAD.:     0.862 HEAT:  20.67406
 CYCLE:   195 TIME:   0.012 TIME LEFT:  2.00D  GRAD.:     0.835 HEAT:  20.67292
 CYCLE:   196 TIME:   0.012 TIME LEFT:  2.00D  GRAD.:     0.872 HEAT:  20.67172
 CYCLE:   197 TIME:   0.012 TIME LEFT:  2.00D  GRAD.:     0.873 HEAT:  20.67041
 CYCLE:   198 TIME:   0.008 TIME LEFT:  2.00D  GRAD.:     0.800 HEAT:  20.66919
 CYCLE:   199 TIME:   0.016 TIME LEFT:  2.00D  GRAD.:     1.248 HEAT:  20.66627
 CYCLE:   200 TIME:   0.008 TIME LEFT:  2.00D  GRAD.:     1.517 HEAT:  20.66289
 CYCLE:   201 TIME:   0.012 TIME LEFT:  2.00D  GRAD.:     1.907 HEAT:  20.65808
 CYCLE:   202 TIME:   0.016 TIME LEFT:  2.00D  GRAD.:     1.903 HEAT:  20.64972
 CYCLE:   203 TIME:   0.012 TIME LEFT:  2.00D  GRAD.:     2.262 HEAT:  20.64076
 CYCLE:   204 TIME:   0.008 TIME LEFT:  2.00D  GRAD.:     2.371 HEAT:  20.63044
 CYCLE:   205 TIME:   0.012 TIME LEFT:  2.00D  GRAD.:     4.905 HEAT:  20.62556
 CYCLE:   206 TIME:   0.012 TIME LEFT:  2.00D  GRAD.:     2.542 HEAT:  20.60619
 CYCLE:   207 TIME:   0.012 TIME LEFT:  2.00D  GRAD.:     2.732 HEAT:  20.59353
 CYCLE:   208 TIME:   0.012 TIME LEFT:  2.00D  GRAD.:     2.859 HEAT:  20.58293
 CYCLE:   209 TIME:   0.012 TIME LEFT:  2.00D  GRAD.:     3.095 HEAT:  20.57632
 CYCLE:   210 TIME:   0.012 TIME LEFT:  2.00D  GRAD.:     1.922 HEAT:  20.57079
 CYCLE:   211 TIME:   0.012 TIME LEFT:  2.00D  GRAD.:     2.415 HEAT:  20.56611
 CYCLE:   212 TIME:   0.012 TIME LEFT:  2.00D  GRAD.:     1.891 HEAT:  20.56075
 CYCLE:   213 TIME:   0.012 TIME LEFT:  2.00D  GRAD.:     1.282 HEAT:  20.55706
 CYCLE:   214 TIME:   0.012 TIME LEFT:  2.00D  GRAD.:     1.200 HEAT:  20.55450
 CYCLE:   215 TIME:   0.012 TIME LEFT:  2.00D  GRAD.:     1.801 HEAT:  20.55268
 CYCLE:   216 TIME:   0.012 TIME LEFT:  2.00D  GRAD.:     1.048 HEAT:  20.55100
 CYCLE:   217 TIME:   0.012 TIME LEFT:  2.00D  GRAD.:     0.742 HEAT:  20.54977
 CYCLE:   218 TIME:   0.008 TIME LEFT:  2.00D  GRAD.:     0.961 HEAT:  20.54863
 CYCLE:   219 TIME:   0.012 TIME LEFT:  2.00D  GRAD.:     1.033 HEAT:  20.54763
 CYCLE:   220 TIME:   0.016 TIME LEFT:  2.00D  GRAD.:     0.660 HEAT:  20.54687
 CYCLE:   221 TIME:   0.012 TIME LEFT:  2.00D  GRAD.:     0.621 HEAT:  20.54605
 CYCLE:   222 TIME:   0.012 TIME LEFT:  2.00D  GRAD.:     0.702 HEAT:  20.54533
 CYCLE:   223 TIME:   0.008 TIME LEFT:  2.00D  GRAD.:     0.475 HEAT:  20.54501
 CYCLE:   224 TIME:   0.016 TIME LEFT:  2.00D  GRAD.:     0.401 HEAT:  20.54457
 CYCLE:   225 TIME:   0.012 TIME LEFT:  2.00D  GRAD.:     0.557 HEAT:  20.54426
 CYCLE:   226 TIME:   0.008 TIME LEFT:  2.00D  GRAD.:     0.451 HEAT:  20.54401
 CYCLE:   227 TIME:   0.012 TIME LEFT:  2.00D  GRAD.:     0.392 HEAT:  20.54368
 CYCLE:   228 TIME:   0.012 TIME LEFT:  2.00D  GRAD.:     0.354 HEAT:  20.54343
 CYCLE:   229 TIME:   0.012 TIME LEFT:  2.00D  GRAD.:     0.349 HEAT:  20.54324
 CYCLE:   230 TIME:   0.012 TIME LEFT:  2.00D  GRAD.:     0.244 HEAT:  20.54312
 CYCLE:   231 TIME:   0.012 TIME LEFT:  2.00D  GRAD.:     0.270 HEAT:  20.54299
 CYCLE:   232 TIME:   0.008 TIME LEFT:  2.00D  GRAD.:     0.236 HEAT:  20.54291
 CYCLE:   233 TIME:   0.012 TIME LEFT:  2.00D  GRAD.:     0.206 HEAT:  20.54280
 CYCLE:   234 TIME:   0.012 TIME LEFT:  2.00D  GRAD.:     0.185 HEAT:  20.54272
 CYCLE:   235 TIME:   0.012 TIME LEFT:  2.00D  GRAD.:     0.187 HEAT:  20.54265
 CYCLE:   236 TIME:   0.008 TIME LEFT:  2.00D  GRAD.:     0.313 HEAT:  20.54257
 CYCLE:   237 TIME:   0.012 TIME LEFT:  2.00D  GRAD.:     0.292 HEAT:  20.54245
 CYCLE:   238 TIME:   0.012 TIME LEFT:  2.00D  GRAD.:     0.486 HEAT:  20.54216
 CYCLE:   239 TIME:   0.012 TIME LEFT:  2.00D  GRAD.:     0.276 HEAT:  20.54191
 CYCLE:   240 TIME:   0.012 TIME LEFT:  2.00D  GRAD.:     0.203 HEAT:  20.54176
 CYCLE:   241 TIME:   0.012 TIME LEFT:  2.00D  GRAD.:     0.366 HEAT:  20.54145
 CYCLE:   242 TIME:   0.008 TIME LEFT:  2.00D  GRAD.:     0.418 HEAT:  20.54125
 CYCLE:   243 TIME:   0.012 TIME LEFT:  2.00D  GRAD.:     0.407 HEAT:  20.54083
 CYCLE:   244 TIME:   0.012 TIME LEFT:  2.00D  GRAD.:     0.416 HEAT:  20.54045
 CYCLE:   245 TIME:   0.012 TIME LEFT:  2.00D  GRAD.:     0.658 HEAT:  20.53955
 CYCLE:   246 TIME:   0.012 TIME LEFT:  2.00D  GRAD.:     0.674 HEAT:  20.53904
 CYCLE:   247 TIME:   0.012 TIME LEFT:  2.00D  GRAD.:     1.272 HEAT:  20.53779
 CYCLE:   248 TIME:   0.012 TIME LEFT:  2.00D  GRAD.:     0.694 HEAT:  20.53630
 CYCLE:   249 TIME:   0.012 TIME LEFT:  2.00D  GRAD.:     0.508 HEAT:  20.53534
 CYCLE:   250 TIME:   0.016 TIME LEFT:  2.00D  GRAD.:     0.645 HEAT:  20.53384
 CYCLE:   251 TIME:   0.012 TIME LEFT:  2.00D  GRAD.:     0.939 HEAT:  20.53366
 CYCLE:   252 TIME:   0.008 TIME LEFT:  2.00D  GRAD.:     0.440 HEAT:  20.53323
 CYCLE:   253 TIME:   0.012 TIME LEFT:  2.00D  GRAD.:     0.419 HEAT:  20.53311
 CYCLE:   254 TIME:   0.012 TIME LEFT:  2.00D  GRAD.:     0.531 HEAT:  20.53315
 CYCLE:   255 TIME:   0.012 TIME LEFT:  2.00D  GRAD.:     0.088 HEAT:  20.53300
 CYCLE:   256 TIME:   0.012 TIME LEFT:  2.00D  GRAD.:     0.064 HEAT:  20.53299
 CYCLE:   257 TIME:   0.008 TIME LEFT:  2.00D  GRAD.:     0.047 HEAT:  20.53299

     GRADIENT =  0.04691 IS LESS THAN CUTOFF =  0.05000



 -------------------------------------------------------------------------------
 pm3  precise nosym THREADS=1
 InChI=1S/C12H20/c1-4-7-11(6-3)12-8-10(5-2)9-12/h6,8,11-12H,3-5,7,9H2,1-2H3



     GEOMETRY OPTIMISED USING EIGENVECTOR FOLLOWING (EF).     
     SCF FIELD WAS ACHIEVED                                   


                              PM3 CALCULATION
                                                       MOPAC v23.1.2 MacOS
                                                       Tue Jun  3 16:40:18 2025




          FINAL HEAT OF FORMATION =         20.53299 KCAL/MOL =      85.91001 KJ/MOL


          COSMO AREA              =        239.26 SQUARE ANGSTROMS
          COSMO VOLUME            =        252.77 CUBIC ANGSTROMS

          GRADIENT NORM           =          0.04691          =       0.00829 PER ATOM
          IONIZATION POTENTIAL    =          9.539561 EV
          HOMO LUMO ENERGIES (EV) =         -9.540  0.937
          NO. OF FILLED LEVELS    =         34
          MOLECULAR WEIGHT        =        164.2900         POINT GROUP:  C1  

          MOLECULAR DIMENSIONS (Angstroms)

            Atom       Atom       Distance
            H    28    H    23    10.06862
            H    31    H    30     6.26579
            H    14    H    26     4.20579


          SCF CALCULATIONS        =        272

          WALL-CLOCK TIME         =      3.008 SECONDS
          COMPUTATION TIME        =      2.252 SECONDS




   ATOM   CHEMICAL          X               Y               Z
  NUMBER   SYMBOL      (ANGSTROMS)     (ANGSTROMS)     (ANGSTROMS)

     1       C          0.78175460  *   0.38912772  *  -0.14122176  *
     2       C         -0.37142879  *   0.87314942  *   0.72793254  *
     3       C          1.86714851  *  -0.24676401  *   0.73144399  *
     4       C          2.92183913  *  -0.95719145  *  -0.10150039  *
     5       C         -1.67165510  *   1.30795879  *  -0.04775408  *
     6       C         -3.75298491  *  -0.28984141  *   0.63776709  *
     7       C          4.00145549  *  -1.55815268  *   0.76974238  *
     8       C         -4.15183911  *  -0.74284653  *  -0.75152848  *
     9       C         -2.35648273  *   0.16122869  *   0.67926339  *
    10       C         -1.24132398  *  -0.22354467  *   1.33592610  *
    11       C          1.34218397  *   1.55027062  *  -0.90524013  *
    12       C          1.22957172  *   1.67225169  *  -2.22247703  *
    13       H          0.39514826  *  -0.38363832  *  -0.85231450  *
    14       H         -0.02173321  *   1.62355291  *   1.46695746  *
    15       H          3.36699788  *  -0.24501102  *  -0.82522278  *
    16       H          2.44778457  *  -1.74804365  *  -0.71644544  *
    17       H          2.34325169  *   0.52545477  *   1.36930284  *
    18       H          1.39682891  *  -0.96554466  *   1.43337327  *
    19       H         -4.40350061  *   0.54294814  *   0.97252023  *
    20       H         -3.90316351  *  -1.10911294  *   1.36781060  *
    21       H         -1.62110431  *   1.20743660  *  -1.14252849  *
    22       H         -2.04972764  *   2.31162494  *   0.19105916  *
    23       H          4.75934733  *  -2.07336376  *   0.16602759  *
    24       H          3.59027163  *  -2.29148603  *   1.47629292  *
    25       H          4.51895900  *  -0.79112621  *   1.36125710  *
    26       H         -3.56296422  *  -1.60935984  *  -1.07874920  *
    27       H         -4.00088582  *   0.05227622  *  -1.49383107  *
    28       H         -5.20997096  *  -1.03132545  *  -0.78475024  *
    29       H          1.85581922  *   2.31201425  *  -0.30551116  *
    30       H         -0.98799133  *  -1.00272967  *   2.04229236  *
    31       H          1.63523420  *   2.51833202  *  -2.76859065  *
    32       H          0.72502112  *   0.94014704  *  -2.84773233  *

                             CARTESIAN COORDINATES

   1    C        0.781754597     0.389127716    -0.141221763
   2    C       -0.371428787     0.873149420     0.727932542
   3    C        1.867148512    -0.246764008     0.731443991
   4    C        2.921839130    -0.957191447    -0.101500392
   5    C       -1.671655097     1.307958785    -0.047754078
   6    C       -3.752984907    -0.289841414     0.637767090
   7    C        4.001455486    -1.558152680     0.769742378
   8    C       -4.151839113    -0.742846526    -0.751528477
   9    C       -2.356482732     0.161228685     0.679263388
  10    C       -1.241323975    -0.223544666     1.335926105
  11    C        1.342183969     1.550270618    -0.905240131
  12    C        1.229571722     1.672251689    -2.222477032
  13    H        0.395148255    -0.383638318    -0.852314505
  14    H       -0.021733212     1.623552908     1.466957457
  15    H        3.366997881    -0.245011023    -0.825222776
  16    H        2.447784568    -1.748043652    -0.716445442
  17    H        2.343251686     0.525454765     1.369302844
  18    H        1.396828909    -0.965544656     1.433373275
  19    H       -4.403500608     0.542948143     0.972520235
  20    H       -3.903163510    -1.109112944     1.367810603
  21    H       -1.621104306     1.207436596    -1.142528491
  22    H       -2.049727637     2.311624941     0.191059162
  23    H        4.759347331    -2.073363763     0.166027592
  24    H        3.590271633    -2.291486035     1.476292919
  25    H        4.518959000    -0.791126213     1.361257102
  26    H       -3.562964216    -1.609359841    -1.078749200
  27    H       -4.000885825     0.052276217    -1.493831069
  28    H       -5.209970963    -1.031325454    -0.784750243
  29    H        1.855819222     2.312014253    -0.305511162
  30    H       -0.987991335    -1.002729668     2.042292356
  31    H        1.635234199     2.518332025    -2.768590646
  32    H        0.725021121     0.940147036    -2.847732329


           Empirical Formula: C12 H20  =    32 atoms



      MOLECULAR POINT GROUP   :   C1  


                  EIGENVALUES  
 -41.67332 -37.61861 -34.09545 -32.44625 -28.62623 -25.42394 -24.15374 -23.05040
 -20.92640 -20.30350 -19.82187 -17.58561 -16.79794 -16.39144 -15.99220 -15.83078
 -15.58306 -15.00485 -14.52446 -14.44825 -13.69467 -13.40709 -13.14246 -12.93573
 -12.75076 -12.50552 -12.18833 -12.00714 -11.78526 -11.73198 -11.50326 -11.27596
 -10.27539  -9.53956   0.93671   1.18529   3.16012   3.19019   3.26340   3.51189
   3.64619   3.74669   3.82169   3.90225   3.94053   3.95902   4.03649   4.07818
   4.12216   4.13226   4.20834   4.23990   4.34234   4.48529   4.52418   4.59511
   4.64169   4.73464   4.81426   4.86117   5.02091   5.06472   5.11337   5.23688
   5.37358   5.64728   5.88211   6.25253


              NET ATOMIC CHARGES AND DIPOLE CONTRIBUTIONS

  ATOM NO.   TYPE          CHARGE      No. of ELECS.   s-Pop       p-Pop       
    1          C          -0.039027        4.0390     1.16652     2.87251
    2          C          -0.059777        4.0598     1.18895     2.87083
    3          C          -0.100063        4.1001     1.16527     2.93480
    4          C          -0.101505        4.1015     1.15880     2.94270
    5          C          -0.072755        4.0728     1.17130     2.90145
    6          C          -0.023827        4.0238     1.13189     2.89194
    7          C          -0.108531        4.1085     1.13822     2.97031
    8          C          -0.105203        4.1052     1.13702     2.96818
    9          C          -0.141127        4.1411     1.22181     2.91931
   10          C          -0.167798        4.1678     1.21975     2.94804
   11          C          -0.132103        4.1321     1.19796     2.93415
   12          C          -0.166195        4.1662     1.18313     2.98306
   13          H           0.074447        0.9256     0.92555
   14          H           0.078249        0.9218     0.92175
   15          H           0.053907        0.9461     0.94609
   16          H           0.049386        0.9506     0.95061
   17          H           0.052473        0.9475     0.94753
   18          H           0.055003        0.9450     0.94500
   19          H           0.054375        0.9456     0.94563
   20          H           0.052219        0.9478     0.94778
   21          H           0.068469        0.9315     0.93153
   22          H           0.061831        0.9382     0.93817
   23          H           0.036988        0.9630     0.96301
   24          H           0.036944        0.9631     0.96306
   25          H           0.037212        0.9628     0.96279
   26          H           0.040601        0.9594     0.95940
   27          H           0.039949        0.9601     0.96005
   28          H           0.037177        0.9628     0.96282
   29          H           0.098934        0.9011     0.90107
   30          H           0.128225        0.8718     0.87178
   31          H           0.079286        0.9207     0.92071
   32          H           0.082236        0.9178     0.91776
 DIPOLE           X         Y         Z       TOTAL
 POINT-CHG.    -0.217     0.004    -0.055     0.224
 HYBRID         0.030     0.021     0.024     0.044
 SUM           -0.187     0.025    -0.031     0.191


          ATOMIC ORBITAL ELECTRON POPULATIONS

     Atom    s        px        py        pz   
    1  C   1.16652   0.94479   0.95870   0.96902
    2  C   1.18895   0.93272   0.96889   0.96922
    3  C   1.16527   0.96214   0.99827   0.97438
    4  C   1.15880   0.96650   0.99821   0.97799
    5  C   1.17130   0.94662   0.96504   0.98979
    6  C   1.13189   0.92334   0.99924   0.96935
    7  C   1.13822   0.97936   0.99944   0.99151
    8  C   1.13702   1.00114   1.00664   0.96041
    9  C   1.22181   0.95406   0.97792   0.98734
   10  C   1.21975   0.95354   0.99160   1.00291
   11  C   1.19796   0.99018   0.98059   0.96338
   12  C   1.18313   1.01295   1.01238   0.95774
   13  H   0.92555
   14  H   0.92175
   15  H   0.94609
   16  H   0.95061
   17  H   0.94753
   18  H   0.94500
   19  H   0.94563
   20  H   0.94778
   21  H   0.93153
   22  H   0.93817
   23  H   0.96301
   24  H   0.96306
   25  H   0.96279
   26  H   0.95940
   27  H   0.96005
   28  H   0.96282
   29  H   0.90107
   30  H   0.87178
   31  H   0.92071
   32  H   0.91776
 *******************************************************************************
 **                                                                           **
 **                              MOPAC v23.1.2                                **
 **                                                                           **
 *******************************************************************************
 **          Digital Object Identifier (DOI): 10.5281/zenodo.6511958          **
 **    Visit the DOI location for information on how to cite this program.    **
 *******************************************************************************

                              PM3 CALCULATION RESULTS

 *******************************************************************************
 *  CALCULATION DONE: (MAX THREADS = 1)              Tue Jun  3 16:40:18 2025  *
 *  PM3        - The PM3 Hamiltonian to be used
 *  OLDGEO     - PREVIOUS GEOMETRY TO BE USED
 *  PRECISE    - TIGHTER CRITERIA TO BE USED
 *  NOSYM      - POINT-GROUP SYMMETRY SET TO C1
 *  THREADS=1  - MULTI-THREADING NOT USED
 *  T=         - A TIME OF 172800.0 SECONDS REQUESTED
 *  DUMP=N     - RESTART FILE WRITTEN EVERY 7200.0 SECONDS REQUESTED
 *  THERMO     - THERMODYNAMIC QUANTITIES TO BE CALCULATED
 *******************************************************************************
oldgeo thermo nosym precise THREADS=1  pm3
 InChI=1S/C12H20/c1-4-7-11(6-3)12-8-10(5-2)9-12/h6,8,11-12H,3-5,7,9H2,1-2H3

   ATOM   CHEMICAL          X               Y               Z
  NUMBER   SYMBOL      (ANGSTROMS)     (ANGSTROMS)     (ANGSTROMS)

     1       C          0.78175460  *   0.38912772  *  -0.14122176  *
     2       C         -0.37142879  *   0.87314942  *   0.72793254  *
     3       C          1.86714851  *  -0.24676401  *   0.73144399  *
     4       C          2.92183913  *  -0.95719145  *  -0.10150039  *
     5       C         -1.67165510  *   1.30795879  *  -0.04775408  *
     6       C         -3.75298491  *  -0.28984141  *   0.63776709  *
     7       C          4.00145549  *  -1.55815268  *   0.76974238  *
     8       C         -4.15183911  *  -0.74284653  *  -0.75152848  *
     9       C         -2.35648273  *   0.16122869  *   0.67926339  *
    10       C         -1.24132398  *  -0.22354467  *   1.33592610  *
    11       C          1.34218397  *   1.55027062  *  -0.90524013  *
    12       C          1.22957172  *   1.67225169  *  -2.22247703  *
    13       H          0.39514826  *  -0.38363832  *  -0.85231450  *
    14       H         -0.02173321  *   1.62355291  *   1.46695746  *
    15       H          3.36699788  *  -0.24501102  *  -0.82522278  *
    16       H          2.44778457  *  -1.74804365  *  -0.71644544  *
    17       H          2.34325169  *   0.52545477  *   1.36930284  *
    18       H          1.39682891  *  -0.96554466  *   1.43337327  *
    19       H         -4.40350061  *   0.54294814  *   0.97252023  *
    20       H         -3.90316351  *  -1.10911294  *   1.36781060  *
    21       H         -1.62110431  *   1.20743660  *  -1.14252849  *
    22       H         -2.04972764  *   2.31162494  *   0.19105916  *
    23       H          4.75934733  *  -2.07336376  *   0.16602759  *
    24       H          3.59027163  *  -2.29148603  *   1.47629292  *
    25       H          4.51895900  *  -0.79112621  *   1.36125710  *
    26       H         -3.56296422  *  -1.60935984  *  -1.07874920  *
    27       H         -4.00088582  *   0.05227622  *  -1.49383107  *
    28       H         -5.20997096  *  -1.03132545  *  -0.78475024  *
    29       H          1.85581922  *   2.31201425  *  -0.30551116  *
    30       H         -0.98799133  *  -1.00272967  *   2.04229236  *
    31       H          1.63523420  *   2.51833202  *  -2.76859065  *
    32       H          0.72502112  *   0.94014704  *  -2.84773233  *



          CARTESIAN COORDINATES 

    NO.       ATOM           X           Y           Z

     1         C          0.7818      0.3891     -0.1412
     2         C         -0.3714      0.8731      0.7279
     3         C          1.8671     -0.2468      0.7314
     4         C          2.9218     -0.9572     -0.1015
     5         C         -1.6717      1.3080     -0.0478
     6         C         -3.7530     -0.2898      0.6378
     7         C          4.0015     -1.5582      0.7697
     8         C         -4.1518     -0.7428     -0.7515
     9         C         -2.3565      0.1612      0.6793
    10         C         -1.2413     -0.2235      1.3359
    11         C          1.3422      1.5503     -0.9052
    12         C          1.2296      1.6723     -2.2225
    13         H          0.3951     -0.3836     -0.8523
    14         H         -0.0217      1.6236      1.4670
    15         H          3.3670     -0.2450     -0.8252
    16         H          2.4478     -1.7480     -0.7164
    17         H          2.3433      0.5255      1.3693
    18         H          1.3968     -0.9655      1.4334
    19         H         -4.4035      0.5429      0.9725
    20         H         -3.9032     -1.1091      1.3678
    21         H         -1.6211      1.2074     -1.1425
    22         H         -2.0497      2.3116      0.1911
    23         H          4.7593     -2.0734      0.1660
    24         H          3.5903     -2.2915      1.4763
    25         H          4.5190     -0.7911      1.3613
    26         H         -3.5630     -1.6094     -1.0787
    27         H         -4.0009      0.0523     -1.4938
    28         H         -5.2100     -1.0313     -0.7848
    29         H          1.8558      2.3120     -0.3055
    30         H         -0.9880     -1.0027      2.0423
    31         H          1.6352      2.5183     -2.7686
    32         H          0.7250      0.9401     -2.8477

  H: (PM3): J. J. P. STEWART, J. COMP. CHEM. 10, 209 (1989).
  C: (PM3): J. J. P. STEWART, J. COMP. CHEM. 10, 209 (1989).

           Empirical Formula: C12 H20  =    32 atoms



      MOLECULAR POINT GROUP   :   C1  


      RHF CALCULATION, NO. OF DOUBLY OCCUPIED LEVELS = 34



          HEAT OF FORMATION =      20.532985 KCALS/MOLE


          CARTESIAN COORDINATE DERIVATIVES

   NUMBER  ATOM         X            Y            Z

     1       C     -0.002361    -0.001199     0.002073
     2       C     -0.000604    -0.000715     0.002380
     3       C     -0.002392    -0.001174     0.001538
     4       C      0.001606    -0.000512    -0.002820
     5       C     -0.000137    -0.001445     0.000964
     6       C      0.002823    -0.005133    -0.007031
     7       C      0.001679     0.002872    -0.003264
     8       C     -0.007942     0.005764     0.005387
     9       C     -0.000337    -0.001028    -0.000090
    10       C     -0.000211    -0.003350     0.001033
    11       C      0.009742     0.001755    -0.002032
    12       C     -0.011753    -0.003261     0.004860
    13       H      0.000531    -0.000099     0.002715
    14       H      0.000383    -0.001402     0.000591
    15       H     -0.003003     0.000691     0.003128
    16       H      0.003528    -0.000207    -0.002482
    17       H     -0.000507     0.002815     0.005135
    18       H      0.003003     0.001404    -0.000357
    19       H     -0.004943     0.010604    -0.007643
    20       H     -0.009464    -0.010379     0.006430
    21       H     -0.000513    -0.001182     0.000476
    22       H      0.000764    -0.001179     0.000430
    23       H      0.003502    -0.001030    -0.003557
    24       H      0.005028    -0.005927    -0.003509
    25       H      0.001192    -0.002014    -0.004127
    26       H      0.002353    -0.002125     0.011116
    27       H      0.015084     0.010748    -0.007627
    28       H     -0.007554     0.004829     0.000524
    29       H      0.002578     0.000841     0.003667
    30       H     -0.000034     0.004775    -0.000700
    31       H      0.002449    -0.000526    -0.000992
    32       H     -0.004490    -0.003212    -0.006214



          GRADIENT NORM =   0.04414

          MOLECULAR WEIGHT =  164.29



          ROTATIONAL CONSTANTS IN CM(-1)

          A =    0.04833430   B =    0.01453434   C =    0.01269382



           PRINCIPAL MOMENTS OF INERTIA IN UNITS OF 10**(-40)*GRAM-CM**2

          A =      579.1488   B =     1925.9740   C =     2205.2274


          ORIENTATION OF MOLECULE IN FORCE CALCULATION

    NO.       ATOM         X         Y         Z

     1          C      -0.6895    0.1829    0.5996
     2          C       0.8335    0.1829    0.5996
     3          C      -1.2154    1.6207    0.5996
     4          C      -2.7151    1.6770    0.3576
     5          C       1.5136   -1.2130    0.3341
     6          C       2.9729   -1.1276   -1.9502
     7          C      -3.2263    3.0995    0.3860
     8          C       2.3381   -2.3038   -2.6630
     9          C       2.0826   -0.5734   -0.9228
    10          C       1.4906    0.6206   -0.7065
    11          C      -1.1808   -0.5510    1.8104
    12          C      -1.8085   -1.7190    1.7438
    13          H      -1.0481   -0.3300   -0.3281
    14          H       1.2290    0.7082    1.4936
    15          H      -3.2388    1.0673    1.1211
    16          H      -2.9584    1.2067   -0.6160
    17          H      -0.9664    2.1168    1.5597
    18          H      -0.6871    2.2028   -0.1832
    19          H       3.9212   -1.4370   -1.4666
    20          H       3.2429   -0.3369   -2.6772
    21          H       0.8186   -2.0490    0.1631
    22          H       2.2551   -1.5261    1.0820
    23          H      -4.3085    3.1373    0.2074
    24          H      -2.7448    3.7184   -0.3830
    25          H      -3.0368    3.5793    1.3555
    26          H       1.4301   -2.0068   -3.2034
    27          H       2.0529   -3.0963   -1.9584
    28          H       3.0287   -2.7425   -3.3942
    29          H      -0.9854   -0.0647    2.7742
    30          H       1.4543    1.5718   -1.2203
    31          H      -2.1584   -2.2464    2.6258
    32          H      -2.0160   -2.2315    0.8079


    FIRST DERIVATIVES WILL BE USED IN THE CALCULATION OF SECOND DERIVATIVES

          ESTIMATED TIME TO COMPLETE CALCULATION =        4.50 SECONDS

    FOR POINT-GROUP C1   THERE ARE   1 UNIQUE SYMMETRY FUNCTIONS.

 STEP:   1 TIME =     0.04 SECS, INTEGRAL =      0.04 TIME LEFT: 172799.95
 STEP:   2 TIME =     0.04 SECS, INTEGRAL =      0.07 TIME LEFT: 172799.91
 STEP:   3 TIME =     0.04 SECS, INTEGRAL =      0.11 TIME LEFT: 172799.88
 STEP:   4 TIME =     0.04 SECS, INTEGRAL =      0.15 TIME LEFT: 172799.84
 STEP:   5 TIME =     0.04 SECS, INTEGRAL =      0.19 TIME LEFT: 172799.80
 STEP:   6 TIME =     0.04 SECS, INTEGRAL =      0.23 TIME LEFT: 172799.76
 STEP:   7 TIME =     0.04 SECS, INTEGRAL =      0.26 TIME LEFT: 172799.73
 STEP:   8 TIME =     0.04 SECS, INTEGRAL =      0.30 TIME LEFT: 172799.69
 STEP:   9 TIME =     0.04 SECS, INTEGRAL =      0.33 TIME LEFT: 172799.66
 STEP:  10 TIME =     0.04 SECS, INTEGRAL =      0.37 TIME LEFT: 172799.62
 STEP:  11 TIME =     0.04 SECS, INTEGRAL =      0.40 TIME LEFT: 172799.59
 STEP:  12 TIME =     0.04 SECS, INTEGRAL =      0.44 TIME LEFT: 172799.55
 STEP:  13 TIME =     0.04 SECS, INTEGRAL =      0.48 TIME LEFT: 172799.51
 STEP:  14 TIME =     0.04 SECS, INTEGRAL =      0.52 TIME LEFT: 172799.47
 STEP:  15 TIME =     0.04 SECS, INTEGRAL =      0.55 TIME LEFT: 172799.44
 STEP:  16 TIME =     0.04 SECS, INTEGRAL =      0.59 TIME LEFT: 172799.40
 STEP:  17 TIME =     0.04 SECS, INTEGRAL =      0.62 TIME LEFT: 172799.36
 STEP:  18 TIME =     0.04 SECS, INTEGRAL =      0.66 TIME LEFT: 172799.33
 STEP:  19 TIME =     0.04 SECS, INTEGRAL =      0.70 TIME LEFT: 172799.29
 STEP:  20 TIME =     0.04 SECS, INTEGRAL =      0.73 TIME LEFT: 172799.26
 STEP:  21 TIME =     0.04 SECS, INTEGRAL =      0.77 TIME LEFT: 172799.21
 STEP:  22 TIME =     0.04 SECS, INTEGRAL =      0.81 TIME LEFT: 172799.18
 STEP:  23 TIME =     0.04 SECS, INTEGRAL =      0.85 TIME LEFT: 172799.14
 STEP:  24 TIME =     0.04 SECS, INTEGRAL =      0.88 TIME LEFT: 172799.11
 STEP:  25 TIME =     0.04 SECS, INTEGRAL =      0.92 TIME LEFT: 172799.07
 STEP:  26 TIME =     0.04 SECS, INTEGRAL =      0.96 TIME LEFT: 172799.03
 STEP:  27 TIME =     0.04 SECS, INTEGRAL =      1.00 TIME LEFT: 172798.99
 STEP:  28 TIME =     0.04 SECS, INTEGRAL =      1.04 TIME LEFT: 172798.95
 STEP:  29 TIME =     0.04 SECS, INTEGRAL =      1.07 TIME LEFT: 172798.91
 STEP:  30 TIME =     0.04 SECS, INTEGRAL =      1.11 TIME LEFT: 172798.88
 STEP:  31 TIME =     0.04 SECS, INTEGRAL =      1.15 TIME LEFT: 172798.84
 STEP:  32 TIME =     0.04 SECS, INTEGRAL =      1.19 TIME LEFT: 172798.80
 STEP:  33 TIME =     0.04 SECS, INTEGRAL =      1.22 TIME LEFT: 172798.77
 STEP:  34 TIME =     0.04 SECS, INTEGRAL =      1.26 TIME LEFT: 172798.73
 STEP:  35 TIME =     0.04 SECS, INTEGRAL =      1.30 TIME LEFT: 172798.69
 STEP:  36 TIME =     0.04 SECS, INTEGRAL =      1.33 TIME LEFT: 172798.66
 STEP:  37 TIME =     0.04 SECS, INTEGRAL =      1.37 TIME LEFT: 172798.62
 STEP:  38 TIME =     0.04 SECS, INTEGRAL =      1.41 TIME LEFT: 172798.58
 STEP:  39 TIME =     0.04 SECS, INTEGRAL =      1.44 TIME LEFT: 172798.55
 STEP:  40 TIME =     0.04 SECS, INTEGRAL =      1.48 TIME LEFT: 172798.51
 STEP:  41 TIME =     0.04 SECS, INTEGRAL =      1.52 TIME LEFT: 172798.47
 STEP:  42 TIME =     0.04 SECS, INTEGRAL =      1.55 TIME LEFT: 172798.43
 STEP:  43 TIME =     0.04 SECS, INTEGRAL =      1.59 TIME LEFT: 172798.40
 STEP:  44 TIME =     0.04 SECS, INTEGRAL =      1.63 TIME LEFT: 172798.36
 STEP:  45 TIME =     0.04 SECS, INTEGRAL =      1.67 TIME LEFT: 172798.32
 STEP:  46 TIME =     0.04 SECS, INTEGRAL =      1.71 TIME LEFT: 172798.28
 STEP:  47 TIME =     0.04 SECS, INTEGRAL =      1.74 TIME LEFT: 172798.25
 STEP:  48 TIME =     0.04 SECS, INTEGRAL =      1.78 TIME LEFT: 172798.21
 STEP:  49 TIME =     0.04 SECS, INTEGRAL =      1.82 TIME LEFT: 172798.17
 STEP:  50 TIME =     0.04 SECS, INTEGRAL =      1.85 TIME LEFT: 172798.14
 STEP:  51 TIME =     0.04 SECS, INTEGRAL =      1.89 TIME LEFT: 172798.10
 STEP:  52 TIME =     0.04 SECS, INTEGRAL =      1.93 TIME LEFT: 172798.06
 STEP:  53 TIME =     0.04 SECS, INTEGRAL =      1.96 TIME LEFT: 172798.02
 STEP:  54 TIME =     0.04 SECS, INTEGRAL =      2.00 TIME LEFT: 172797.98
 STEP:  55 TIME =     0.04 SECS, INTEGRAL =      2.04 TIME LEFT: 172797.95
 STEP:  56 TIME =     0.04 SECS, INTEGRAL =      2.08 TIME LEFT: 172797.91
 STEP:  57 TIME =     0.04 SECS, INTEGRAL =      2.12 TIME LEFT: 172797.87
 STEP:  58 TIME =     0.04 SECS, INTEGRAL =      2.16 TIME LEFT: 172797.82
 STEP:  59 TIME =     0.04 SECS, INTEGRAL =      2.20 TIME LEFT: 172797.79
 STEP:  60 TIME =     0.04 SECS, INTEGRAL =      2.23 TIME LEFT: 172797.75
 STEP:  61 TIME =     0.04 SECS, INTEGRAL =      2.27 TIME LEFT: 172797.72
 STEP:  62 TIME =     0.04 SECS, INTEGRAL =      2.30 TIME LEFT: 172797.68
 STEP:  63 TIME =     0.04 SECS, INTEGRAL =      2.35 TIME LEFT: 172797.64
 STEP:  64 TIME =     0.04 SECS, INTEGRAL =      2.39 TIME LEFT: 172797.60
 STEP:  65 TIME =     0.04 SECS, INTEGRAL =      2.43 TIME LEFT: 172797.56
 STEP:  66 TIME =     0.04 SECS, INTEGRAL =      2.46 TIME LEFT: 172797.52
 STEP:  67 TIME =     0.04 SECS, INTEGRAL =      2.50 TIME LEFT: 172797.49
 STEP:  68 TIME =     0.04 SECS, INTEGRAL =      2.54 TIME LEFT: 172797.45
 STEP:  69 TIME =     0.04 SECS, INTEGRAL =      2.58 TIME LEFT: 172797.41
 STEP:  70 TIME =     0.04 SECS, INTEGRAL =      2.62 TIME LEFT: 172797.37
 STEP:  71 TIME =     0.04 SECS, INTEGRAL =      2.66 TIME LEFT: 172797.33
 STEP:  72 TIME =     0.04 SECS, INTEGRAL =      2.70 TIME LEFT: 172797.29
 STEP:  73 TIME =     0.04 SECS, INTEGRAL =      2.74 TIME LEFT: 172797.25
 STEP:  74 TIME =     0.04 SECS, INTEGRAL =      2.77 TIME LEFT: 172797.21
 STEP:  75 TIME =     0.04 SECS, INTEGRAL =      2.81 TIME LEFT: 172797.18
 STEP:  76 TIME =     0.04 SECS, INTEGRAL =      2.85 TIME LEFT: 172797.14
 STEP:  77 TIME =     0.04 SECS, INTEGRAL =      2.89 TIME LEFT: 172797.10
 STEP:  78 TIME =     0.04 SECS, INTEGRAL =      2.92 TIME LEFT: 172797.07
 STEP:  79 TIME =     0.04 SECS, INTEGRAL =      2.96 TIME LEFT: 172797.02
 STEP:  80 TIME =     0.04 SECS, INTEGRAL =      3.00 TIME LEFT: 172796.99
 STEP:  81 TIME =     0.04 SECS, INTEGRAL =      3.04 TIME LEFT: 172796.95
 STEP:  82 TIME =     0.04 SECS, INTEGRAL =      3.07 TIME LEFT: 172796.92
 STEP:  83 TIME =     0.04 SECS, INTEGRAL =      3.11 TIME LEFT: 172796.88
 STEP:  84 TIME =     0.04 SECS, INTEGRAL =      3.14 TIME LEFT: 172796.84
 STEP:  85 TIME =     0.04 SECS, INTEGRAL =      3.18 TIME LEFT: 172796.80
 STEP:  86 TIME =     0.04 SECS, INTEGRAL =      3.22 TIME LEFT: 172796.77
 STEP:  87 TIME =     0.04 SECS, INTEGRAL =      3.26 TIME LEFT: 172796.73
 STEP:  88 TIME =     0.04 SECS, INTEGRAL =      3.30 TIME LEFT: 172796.69
 STEP:  89 TIME =     0.04 SECS, INTEGRAL =      3.33 TIME LEFT: 172796.66
 STEP:  90 TIME =     0.04 SECS, INTEGRAL =      3.37 TIME LEFT: 172796.62
 STEP:  91 TIME =     0.04 SECS, INTEGRAL =      3.41 TIME LEFT: 172796.58
 STEP:  92 TIME =     0.04 SECS, INTEGRAL =      3.45 TIME LEFT: 172796.54
 STEP:  93 TIME =     0.04 SECS, INTEGRAL =      3.48 TIME LEFT: 172796.51
 STEP:  94 TIME =     0.04 SECS, INTEGRAL =      3.52 TIME LEFT: 172796.47
 STEP:  95 TIME =     0.04 SECS, INTEGRAL =      3.56 TIME LEFT: 172796.43
 STEP:  96 TIME =     0.04 SECS, INTEGRAL =      3.60 TIME LEFT: 172796.39

(To convert to Hartree/Bohr^2, multiply by (10^(-21) x N x a0^2)/(4.184 x 627.51) =  0.0642)


           FORCE MATRIX IN MILLIDYNES/ANGSTROM


                  C  1       C  2       C  3       C  4       C  5       C  6
 ------------------------------------------------------------------------------
     C    1  14.633405
     C    2   3.983096  14.317553
     C    3   3.816986   0.650827  14.263965
     C    4   0.618278   0.052042   4.188921  14.385432
     C    5   0.479446   2.867789   0.047196   0.008633  14.187497
     C    6   0.019692   0.130601   0.002022   0.000621   0.366300  14.937076
     C    7   0.053501   0.010235   0.664221   4.480825   0.002190   0.000159
     C    8   0.003625   0.017978   0.000561   0.000191   0.027163   4.367695
     C    9   0.049626   2.239753   0.006452   0.000876   3.981588   5.590936
     C   10   0.531433   3.848404   0.045377   0.003509   2.238093   0.563459
     C   11   4.614655   0.706987   0.686583   0.049079   0.035237   0.002475
     C   12   0.801169   0.039038   0.043065   0.009797   0.013572   0.000981
     H   13   4.173626   0.431764   0.424580   0.036255   0.020605   0.001404
     H   14   0.441382   4.424451   0.024313   0.001418   0.414610   0.017138
     H   15   0.028632   0.001701   0.445275   4.440785   0.000568   0.000201
     H   16   0.027520   0.001431   0.444736   4.449562   0.000479   0.000092
     H   17   0.450165   0.020639   4.424000   0.444643   0.000904   0.000200
     H   18   0.439602   0.047073   4.416918   0.442648   0.002390   0.000726
     H   19   0.002148   0.016592   0.000285   0.000107   0.008979   4.429164
     H   20   0.000966   0.004893   0.000373   0.000173   0.033810   4.471089
     H   21   0.022607   0.434926   0.002559   0.000681   4.668267   0.006142
     H   22   0.026680   0.423361   0.005158   0.001075   4.723326   0.007277
     H   23   0.009309   0.002070   0.051737   0.450224   0.000518   0.000051
     H   24   0.002034   0.000554   0.023691   0.463792   0.000167   0.000079
     H   25   0.001674   0.000546   0.023897   0.463134   0.000123   0.000049
     H   26   0.000358   0.000812   0.000145   0.000068   0.002527   0.461179
     H   27   0.000304   0.000969   0.000127   0.000097   0.005707   0.463865
     H   28   0.000748   0.003129   0.000177   0.000063   0.001492   0.450552
     H   29   0.437090   0.015783   0.024585   0.004757   0.002535   0.000592
     H   30   0.009525   0.335372   0.011234   0.001752   0.110436   0.036595
     H   31   0.139062   0.020401   0.018785   0.001001   0.001197   0.000359
     H   32   0.099479   0.013985   0.010965   0.000791   0.002712   0.000575


                  C  7       C  8       C  9       C 10       C 11       C 12
 ------------------------------------------------------------------------------
     C    7  14.379090
     C    8   0.000251  14.330591
     C    9   0.000206   0.741846  19.109081
     C   10   0.000520   0.034577  10.086896  18.211711
     C   11   0.003661   0.001271   0.008031   0.046319  18.127551
     C   12   0.001770   0.000640   0.002115   0.007618  11.090259  18.022155
     H   13   0.001872   0.000468   0.003999   0.018185   0.443296   0.053147
     H   14   0.000625   0.002029   0.042874   0.414228   0.024400   0.001686
     H   15   0.436789   0.000068   0.000229   0.000598   0.012156   0.006483
     H   16   0.436589   0.000057   0.000147   0.000744   0.002559   0.000675
     H   17   0.029318   0.000058   0.000502   0.002897   0.034769   0.002338
     H   18   0.026430   0.000342   0.000554   0.013855   0.049084   0.007614
     H   19   0.000105   0.447293   0.426350   0.030438   0.000276   0.000294
     H   20   0.000074   0.439876   0.451600   0.013881   0.000366   0.000211
     H   21   0.000216   0.006143   0.438932   0.039710   0.005773   0.007677
     H   22   0.000415   0.001393   0.439435   0.039779   0.002438   0.000949
     H   23   4.752592   0.000086   0.000048   0.000216   0.000806   0.000528
     H   24   4.721219   0.000047   0.000076   0.000127   0.000729   0.000434
     H   25   4.722402   0.000042   0.000055   0.000221   0.000452   0.000281
     H   26   0.000070   4.748732   0.015823   0.002548   0.000201   0.000142
     H   27   0.000082   4.725793   0.026208   0.001924   0.000219   0.000282
     H   28   0.000084   4.754910   0.054834   0.005863   0.000395   0.000227
     H   29   0.000742   0.000173   0.000643   0.002945   4.779233   0.453791
     H   30   0.000341   0.004832   0.430104   5.266578   0.003569   0.001088
     H   31   0.000438   0.000160   0.000417   0.003045   0.462301   5.105090
     H   32   0.000594   0.000237   0.000790   0.003010   0.490714   5.062742


                  H 13       H 14       H 15       H 16       H 17       H 18
 ------------------------------------------------------------------------------
     H   13   4.652014
     H   14   0.040694   4.942391
     H   15   0.002247   0.000437   5.054320
     H   16   0.026566   0.000474   0.572269   5.068100
     H   17   0.041965   0.014133   0.023199   0.046308   5.050526
     H   18   0.022818   0.002551   0.046421   0.025706   0.567769   5.039544
     H   19   0.000249   0.002955   0.000048   0.000030   0.000040   0.000182
     H   20   0.000226   0.000953   0.000045   0.000031   0.000045   0.000168
     H   21   0.016559   0.024471   0.000193   0.000173   0.000477   0.000475
     H   22   0.001345   0.025767   0.000081   0.000074   0.000297   0.000358
     H   23   0.000520   0.000139   0.029419   0.030175   0.001838   0.001739
     H   24   0.000365   0.000137   0.048142   0.024162   0.001623   0.018168
     H   25   0.000492   0.000179   0.024236   0.048380   0.020129   0.001531
     H   26   0.000252   0.000161   0.000016   0.000029   0.000050   0.000071
     H   27   0.000153   0.000286   0.000019   0.000020   0.000038   0.000064
     H   28   0.000165   0.000298   0.000024   0.000022   0.000039   0.000124
     H   29   0.037089   0.010412   0.001980   0.000613   0.025260   0.002048
     H   30   0.002565   0.005507   0.000580   0.000468   0.000857   0.021227
     H   31   0.002363   0.000581   0.000660   0.000159   0.000765   0.003062
     H   32   0.029934   0.000627   0.000632   0.000311   0.000660   0.002043


                  H 19       H 20       H 21       H 22       H 23       H 24
 ------------------------------------------------------------------------------
     H   19   5.013712
     H   20   0.557808   5.053989
     H   21   0.000750   0.001336   5.282230
     H   22   0.003028   0.001290   0.526963   5.336899
     H   23   0.000036   0.000023   0.000062   0.000106   5.489922
     H   24   0.000027   0.000018   0.000057   0.000043   0.574037   5.465295
     H   25   0.000019   0.000010   0.000054   0.000039   0.575665   0.578627
     H   26   0.049008   0.025334   0.000578   0.000244   0.000027   0.000014
     H   27   0.022622   0.048643   0.007668   0.000414   0.000031   0.000015
     H   28   0.029484   0.027535   0.000480   0.000175   0.000025   0.000020
     H   29   0.000091   0.000174   0.000886   0.000680   0.000127   0.000312
     H   30   0.003542   0.005914   0.014760   0.014477   0.000163   0.000253
     H   31   0.000095   0.000084   0.000651   0.000402   0.000128   0.000145
     H   32   0.000121   0.000148   0.005350   0.000371   0.000166   0.000217


                  H 25       H 26       H 27       H 28       H 29       H 30
 ------------------------------------------------------------------------------
     H   25   5.466487
     H   26   0.000018   5.487141
     H   27   0.000013   0.579548   5.464459
     H   28   0.000017   0.572429   0.568714   5.488580
     H   29   0.000222   0.000063   0.000088   0.000060   5.155128
     H   30   0.000137   0.000553   0.000521   0.001120   0.001127   5.657718
     H   31   0.000073   0.000049   0.000099   0.000057   0.081814   0.000369
     H   32   0.000138   0.000087   0.000163   0.000106   0.121486   0.000364


                  H 31       H 32
 ------------------------------
     H   31   5.493710
     H   32   0.422908   5.458363


          HEAT OF FORMATION =      20.532985 KCALS/MOLE

          ZERO POINT ENERGY     179.527 KCAL/MOL


           NORMAL COORDINATE ANALYSIS (Total motion = 1 Angstrom)


   Root No.       1         2         3         4         5         6         7         8

                 1 A       2 A       3 A       4 A       5 A       6 A       7 A       8 A   

                   3.6      25.0      46.8      56.4      73.8      92.3     139.6     162.0
  
           1   -0.0102    0.0035   -0.0074    0.0078    0.0041   -0.0094   -0.0071    0.0016
           2    0.0091   -0.0056   -0.0088    0.0009   -0.0007   -0.0008   -0.0210    0.0107
           3   -0.0056    0.0086    0.0085    0.0122   -0.0011    0.0096   -0.0073    0.0027
           4   -0.0099    0.0035   -0.0074    0.0079    0.0042   -0.0097   -0.0062    0.0013
           5    0.0022   -0.0062   -0.0188    0.0045    0.0071    0.0054   -0.0011    0.0019
           6    0.0027    0.0119    0.0051    0.0125    0.0013   -0.0132    0.0000   -0.0002
           7   -0.0033    0.0028    0.0023    0.0032   -0.0003   -0.0088   -0.0011    0.0002
           8    0.0112   -0.0059   -0.0052   -0.0008   -0.0025   -0.0001   -0.0187    0.0108
           9   -0.0060   -0.0061   -0.0004    0.0255    0.0083    0.0331   -0.0245    0.0087
          10   -0.0047    0.0041    0.0019    0.0112   -0.0068   -0.0026   -0.0012    0.0000
          11    0.0175   -0.0090    0.0043   -0.0018   -0.0047    0.0116    0.0037    0.0024
          12    0.0044   -0.0150    0.0046   -0.0240    0.0487   -0.0017   -0.0114    0.0046
          13   -0.0157    0.0021   -0.0156    0.0071    0.0112    0.0019    0.0273   -0.0038
          14   -0.0011   -0.0066   -0.0178    0.0060    0.0095    0.0078    0.0125   -0.0042
          15    0.0050    0.0095   -0.0222    0.0027    0.0083    0.0054    0.0195    0.0105
          16   -0.0064    0.0013   -0.0038   -0.0226   -0.0028    0.0112   -0.0026    0.0031
          17   -0.0082   -0.0052    0.0254    0.0100   -0.0008   -0.0066    0.0113   -0.0076
          18    0.0108    0.0095   -0.0148   -0.0160   -0.0003    0.0106   -0.0027    0.0040
          19    0.0036    0.0035    0.0168    0.0062    0.0088    0.0097    0.0293   -0.0139
          20    0.0207   -0.0089    0.0103   -0.0036    0.0026    0.0166    0.0150   -0.0027
          21   -0.0037   -0.0337   -0.0244   -0.0237   -0.0341   -0.0138    0.0115   -0.0040
          22   -0.0116   -0.0340    0.0275   -0.0241   -0.0121    0.0213   -0.0093    0.0097
          23   -0.0025    0.0432    0.0007   -0.0081    0.0003    0.0028    0.0088    0.0020
          24    0.0060   -0.0392   -0.0015    0.0150    0.0058   -0.0134    0.0071   -0.0165
          25   -0.0073    0.0045   -0.0090   -0.0051    0.0035   -0.0079    0.0046   -0.0005
          26   -0.0036   -0.0044    0.0045    0.0098    0.0045   -0.0060    0.0066   -0.0161
          27    0.0076    0.0118   -0.0080   -0.0009    0.0022   -0.0062    0.0058    0.0060
          28   -0.0017    0.0069   -0.0043    0.0009    0.0001   -0.0271   -0.0191    0.0006
          29   -0.0005   -0.0037    0.0029    0.0106    0.0035   -0.0116   -0.0030   -0.0133
          30    0.0059    0.0144    0.0140    0.0109   -0.0020   -0.0278   -0.0073   -0.0047
          31   -0.0183    0.0013   -0.0083    0.0071    0.0034    0.0103   -0.0109   -0.0002
          32    0.0043    0.0056    0.0029   -0.0138   -0.0137   -0.0142   -0.0093    0.0072
          33   -0.0117    0.0145    0.0153    0.0028   -0.0096    0.0094   -0.0022   -0.0003
          34    0.0819    0.0047    0.0002    0.0034   -0.0113    0.0032   -0.0083    0.0029
          35   -0.0494    0.0031   -0.0023   -0.0109   -0.0050   -0.0103   -0.0114    0.0060
          36   -0.0147    0.0246    0.0274   -0.0128   -0.0251    0.0068    0.0101   -0.0071
          37   -0.0074    0.0055   -0.0133    0.0113    0.0086   -0.0213   -0.0008   -0.0004
          38    0.0133   -0.0143   -0.0130    0.0094    0.0054    0.0078   -0.0317    0.0152
          39   -0.0091    0.0126    0.0131    0.0060   -0.0064    0.0096   -0.0033    0.0008
          40   -0.0124    0.0020   -0.0029    0.0083    0.0010   -0.0009   -0.0185    0.0060
          41   -0.0003   -0.0088   -0.0385    0.0008    0.0138    0.0247    0.0190    0.0078
          42    0.0051    0.0141    0.0147    0.0142   -0.0012   -0.0281   -0.0062   -0.0057
          43   -0.0025    0.0001   -0.0011   -0.0129    0.0102   -0.0257   -0.0053    0.0023
          44    0.0271   -0.0008    0.0261   -0.0132    0.0521    0.0155    0.0047    0.0015
          45    0.0135   -0.0113    0.0199   -0.0498    0.1056   -0.0148   -0.0136    0.0056
          46   -0.0145    0.0097   -0.0071    0.0451   -0.0410    0.0161   -0.0174    0.0061
          47    0.0107   -0.0197   -0.0142    0.0103   -0.0680    0.0149    0.0189   -0.0036
          48    0.0101   -0.0113    0.0157   -0.0385    0.0878   -0.0080   -0.0144    0.0058
          49    0.0056   -0.0027    0.0095   -0.0304    0.0243   -0.0303    0.0134   -0.0047
          50    0.0135    0.0024    0.0007   -0.0196    0.0022   -0.0233   -0.0086    0.0074
          51   -0.0094   -0.0090   -0.0054    0.0439   -0.0006    0.0507   -0.0331    0.0116
          52   -0.0058    0.0066    0.0031    0.0265   -0.0215    0.0105   -0.0024    0.0006
          53    0.0062   -0.0119   -0.0149    0.0178   -0.0059    0.0180   -0.0336    0.0158
          54   -0.0114   -0.0081   -0.0071    0.0549   -0.0087    0.0593   -0.0369    0.0129
          55   -0.0109   -0.0189    0.0111   -0.0060   -0.0018   -0.0028    0.0054    0.0049
          56   -0.0157   -0.0583    0.0588    0.0296   -0.0039   -0.0167    0.0159   -0.0106
          57    0.0147    0.0149   -0.0226   -0.0361   -0.0043    0.0318   -0.0160   -0.0018
          58    0.0025    0.0441   -0.0364   -0.0521   -0.0030    0.0346   -0.0168   -0.0010
          59   -0.0089    0.0078    0.0298    0.0047   -0.0037   -0.0037    0.0125    0.0047
          60    0.0133    0.0395   -0.0221   -0.0327   -0.0035    0.0224   -0.0067    0.0153
          61   -0.0202    0.0014   -0.0204    0.0068    0.0157    0.0082    0.0489   -0.0077
          62    0.0027   -0.0054   -0.0099    0.0052    0.0042   -0.0001   -0.0088   -0.0019
          63    0.0029    0.0067   -0.0410    0.0077    0.0163    0.0193    0.0378    0.0162
          64   -0.0203    0.0009   -0.0193    0.0148    0.0157    0.0066    0.0403   -0.0062
          65   -0.0051   -0.0092   -0.0380    0.0056    0.0190    0.0248    0.0456   -0.0016
          66    0.0079    0.0097   -0.0270   -0.0050    0.0079    0.0079    0.0207    0.0139
          67    0.0024    0.0045    0.0158    0.0123    0.0008    0.0147    0.0278   -0.0128
          68    0.0253   -0.0112    0.0173   -0.0044    0.0000    0.0268    0.0412   -0.0144
          69    0.0043   -0.0400   -0.0171   -0.0609    0.0143   -0.0414    0.0270   -0.0136
          70    0.0011    0.0075    0.0173    0.0312   -0.0216    0.0351    0.0326   -0.0136
          71    0.0115   -0.0173   -0.0124    0.0076   -0.0603    0.0127    0.0133   -0.0002
          72   -0.0127   -0.0380   -0.0423    0.0009   -0.1039   -0.0011    0.0122   -0.0018
          73    0.0138   -0.0019    0.0291   -0.0290    0.0599   -0.0105    0.0532   -0.0272
          74    0.0278    0.0020    0.0306   -0.0155    0.0739    0.0142   -0.0003    0.0021
          75   -0.0093   -0.0380   -0.0369   -0.0110   -0.0794   -0.0087    0.0145   -0.0039
          76   -0.0069   -0.0140    0.0121   -0.0423   -0.0136    0.0407   -0.0358   -0.0958
          77    0.0049    0.0967   -0.0322   -0.0278    0.0033    0.0140   -0.0004   -0.0307
          78    0.0022   -0.0434    0.0063    0.0347    0.0099   -0.0399    0.0464    0.1426
          79   -0.0205   -0.0759    0.0608    0.0053   -0.0120   -0.0078    0.0323    0.1854
          80   -0.0016    0.0311   -0.0048   -0.0033    0.0033    0.0026   -0.0049   -0.0920
          81    0.0034   -0.0698    0.0059    0.0323    0.0092   -0.0256    0.0084   -0.0519
          82   -0.0113   -0.0399    0.0343   -0.0367   -0.0180    0.0393   -0.0301   -0.0542
          83   -0.0063    0.0402    0.0194   -0.0074   -0.0047   -0.0008    0.0303    0.1371
          84    0.0085   -0.0430   -0.0063    0.0027    0.0032    0.0057   -0.0254   -0.1581
          85   -0.1091   -0.0032   -0.0159    0.0097    0.0146    0.0318   -0.0165   -0.0048
          86    0.0451    0.0160    0.0162   -0.0278   -0.0307   -0.0281    0.0024    0.0049
          87   -0.0139    0.0102    0.0102    0.0094   -0.0034    0.0121   -0.0069    0.0017
          88    0.0056    0.0103    0.0019   -0.0010   -0.0056   -0.0447   -0.0419    0.0020
          89    0.0001   -0.0021    0.0128    0.0133    0.0007   -0.0221   -0.0114   -0.0183
          90    0.0064    0.0171    0.0320    0.0160   -0.0068   -0.0461   -0.0213   -0.0140
          91    0.0783    0.0034    0.0003    0.0024   -0.0131    0.0181   -0.0106    0.0005
          92   -0.0556    0.0112    0.0062   -0.0221   -0.0149   -0.0198   -0.0006    0.0016
          93   -0.0199    0.0289    0.0326   -0.0199   -0.0317    0.0070    0.0157   -0.0107
          94    0.1755    0.0092    0.0080    0.0009   -0.0231   -0.0182   -0.0040    0.0083
          95   -0.0909   -0.0070   -0.0155    0.0026    0.0127    0.0028   -0.0241    0.0091
          96   -0.0129    0.0292    0.0330   -0.0197   -0.0322    0.0044    0.0161   -0.0101


   Root No.       9        10        11        12        13        14        15        16

                 9 A      10 A      11 A      12 A      13 A      14 A      15 A      16 A   

                 189.2     195.6     257.7     291.3     316.3     356.9     363.0     430.2
  
           1    0.0018    0.0086    0.0016   -0.0076    0.0037    0.0063   -0.0023   -0.0028
           2    0.0036    0.0058    0.0017    0.0009   -0.0033    0.0070    0.0063   -0.0036
           3    0.0070    0.0110   -0.0049   -0.0128   -0.0039    0.0260   -0.0238    0.0282
           4    0.0013    0.0081    0.0028   -0.0018    0.0081    0.0073   -0.0083   -0.0009
           5    0.0010    0.0001    0.0133   -0.0153    0.0164   -0.0050    0.0095    0.0297
           6    0.0051    0.0161    0.0133   -0.0054    0.0000    0.0012   -0.0120   -0.0151
           7    0.0028    0.0138   -0.0149   -0.0152   -0.0195   -0.0279    0.0007    0.0099
           8    0.0041    0.0081   -0.0062    0.0051   -0.0131   -0.0093    0.0001    0.0002
           9    0.0099   -0.0032   -0.0207    0.0132    0.0175   -0.0016    0.0134   -0.0087
          10    0.0088    0.0119   -0.0173   -0.0164   -0.0176   -0.0307    0.0046    0.0115
          11    0.0024   -0.0035    0.0021    0.0215   -0.0118   -0.0134   -0.0253    0.0063
          12   -0.0277    0.0060   -0.0065    0.0027    0.0012   -0.0072    0.0038   -0.0021
          13   -0.0008    0.0156   -0.0133    0.0238    0.0061    0.0028   -0.0252   -0.0267
          14   -0.0004    0.0011    0.0030   -0.0133    0.0172   -0.0111   -0.0024    0.0184
          15    0.0054    0.0228    0.0196    0.0143   -0.0026   -0.0063    0.0144    0.0062
          16   -0.0051   -0.0172   -0.0228    0.0054   -0.0043    0.0121   -0.0043    0.0042
          17    0.0009    0.0066    0.0001    0.0085   -0.0182    0.0035    0.0165    0.0011
          18   -0.0005   -0.0119   -0.0006   -0.0256   -0.0042   -0.0079   -0.0012   -0.0116
          19   -0.0038   -0.0039    0.0051   -0.0282    0.0143    0.0140    0.0284   -0.0040
          20   -0.0031   -0.0099    0.0116    0.0198    0.0003    0.0044   -0.0205    0.0003
          21    0.0057   -0.0010    0.0022   -0.0035    0.0024    0.0032    0.0027   -0.0006
          22    0.0058    0.0175    0.0132   -0.0025    0.0079   -0.0034   -0.0026    0.0003
          23   -0.0011   -0.0050   -0.0072    0.0002   -0.0175    0.0041    0.0128   -0.0009
          24   -0.0063   -0.0221   -0.0190   -0.0061   -0.0185    0.0046    0.0070   -0.0059
          25   -0.0074   -0.0163   -0.0183    0.0337    0.0014    0.0144    0.0015    0.0225
          26   -0.0041   -0.0128   -0.0117   -0.0161    0.0073   -0.0062   -0.0158   -0.0074
          27    0.0003    0.0001    0.0097    0.0151   -0.0096    0.0010    0.0184    0.0132
          28   -0.0056   -0.0160    0.0132    0.0220    0.0277   -0.0021    0.0005    0.0240
          29   -0.0032   -0.0127    0.0029   -0.0203    0.0190   -0.0132   -0.0121    0.0001
          30    0.0005    0.0001    0.0183    0.0074    0.0063   -0.0065   -0.0099   -0.0193
          31   -0.0001   -0.0222    0.0333   -0.0020   -0.0206    0.0039    0.0020   -0.0128
          32   -0.0002    0.0140   -0.0129    0.0007    0.0060    0.0183    0.0134   -0.0217
          33    0.0040    0.0025   -0.0017   -0.0104   -0.0065    0.0311   -0.0203    0.0227
          34    0.0006   -0.0053    0.0107   -0.0002   -0.0095    0.0090    0.0054   -0.0152
          35   -0.0003    0.0056   -0.0004   -0.0011   -0.0008    0.0189    0.0117   -0.0227
          36   -0.0026   -0.0135   -0.0051    0.0122    0.0123   -0.0269    0.0035    0.0056
          37    0.0016    0.0168    0.0113   -0.0121    0.0155    0.0048   -0.0038   -0.0089
          38    0.0066    0.0047   -0.0068    0.0102   -0.0029   -0.0084    0.0155   -0.0144
          39    0.0053    0.0078   -0.0039   -0.0148   -0.0079    0.0336   -0.0280    0.0356
          40    0.0047    0.0116   -0.0062   -0.0140   -0.0028    0.0262   -0.0122    0.0094
          41    0.0029    0.0115    0.0137   -0.0112    0.0147   -0.0065    0.0212    0.0505
          42    0.0023    0.0073    0.0167   -0.0017    0.0054   -0.0065   -0.0171   -0.0318
          43   -0.0027    0.0219   -0.0166   -0.0241   -0.0338   -0.0428    0.0015    0.0173
          44   -0.0252   -0.0035    0.0078    0.0223   -0.0072   -0.0075   -0.0257    0.0036
          45   -0.0574    0.0132   -0.0020   -0.0021   -0.0066   -0.0115    0.0014    0.0001
          46    0.0329    0.0109   -0.0323   -0.0103   -0.0126   -0.0359    0.0112    0.0096
          47    0.0305   -0.0128    0.0061    0.0232   -0.0052   -0.0044   -0.0265    0.0051
          48   -0.0472    0.0105   -0.0044    0.0003   -0.0029   -0.0096    0.0028   -0.0013
          49   -0.0216    0.0198   -0.0061   -0.0246   -0.0387   -0.0383   -0.0150    0.0271
          50   -0.0087    0.0209    0.0077   -0.0176   -0.0320    0.0115   -0.0267    0.0323
          51    0.0232   -0.0116   -0.0301    0.0274    0.0331   -0.0095    0.0322   -0.0305
          52    0.0208    0.0074   -0.0229   -0.0063   -0.0141   -0.0344    0.0024    0.0092
          53    0.0160   -0.0015   -0.0171    0.0226    0.0116   -0.0153    0.0318   -0.0370
          54    0.0313   -0.0146   -0.0348    0.0328    0.0397   -0.0107    0.0383   -0.0377
          55   -0.0041   -0.0063   -0.0148    0.0383   -0.0148    0.0207    0.0195    0.0282
          56    0.0057    0.0286    0.0166    0.0292   -0.0281    0.0060    0.0390    0.0146
          57    0.0006   -0.0189   -0.0054   -0.0778    0.0110   -0.0237   -0.0348   -0.0512
          58   -0.0085   -0.0413   -0.0409   -0.0519    0.0167   -0.0020   -0.0502   -0.0367
          59    0.0046    0.0189    0.0131    0.0216   -0.0251    0.0054    0.0341    0.0122
          60    0.0021   -0.0079    0.0061   -0.0334   -0.0039   -0.0111    0.0000   -0.0159
          61   -0.0022    0.0203   -0.0229    0.0401    0.0062   -0.0043   -0.0389   -0.0529
          62   -0.0005   -0.0087    0.0075   -0.0258    0.0148   -0.0022    0.0099    0.0433
          63    0.0122    0.0538    0.0374    0.0133    0.0103   -0.0228    0.0065   -0.0166
          64    0.0034    0.0362   -0.0080    0.0176    0.0146   -0.0082   -0.0484   -0.0665
          65    0.0018    0.0228    0.0049    0.0086    0.0234   -0.0269   -0.0113   -0.0088
          66    0.0021    0.0116    0.0153    0.0299   -0.0080   -0.0025    0.0329    0.0330
          67   -0.0368    0.0002    0.0064   -0.0291    0.0149    0.0150    0.0298   -0.0049
          68   -0.0247   -0.0217    0.0326    0.0072    0.0299    0.0492    0.0037   -0.0161
          69    0.2015   -0.0286   -0.0004   -0.0024    0.0068    0.0094    0.0030   -0.0003
          70   -0.1515    0.0087    0.0183   -0.0364    0.0282    0.0348    0.0430   -0.0136
          71   -0.0300   -0.0011    0.0092    0.0206   -0.0125   -0.0088   -0.0315    0.0080
          72   -0.1080    0.0139    0.0084   -0.0078    0.0005    0.0052    0.0025   -0.0002
          73    0.1661   -0.0342    0.0110   -0.0325    0.0315    0.0384    0.0403   -0.0113
          74    0.0409   -0.0120    0.0010    0.0275   -0.0043   -0.0090   -0.0246    0.0021
          75   -0.0489    0.0059    0.0064   -0.0067    0.0016    0.0055    0.0027   -0.0002
          76    0.0098    0.0405    0.0210    0.0065    0.0071   -0.0041    0.0009    0.0024
          77   -0.0047   -0.0169   -0.0226   -0.0007   -0.0227    0.0105    0.0108   -0.0007
          78   -0.0150   -0.0672   -0.0403   -0.0218   -0.0197    0.0090   -0.0001   -0.0093
          79    0.0025   -0.0100    0.0121   -0.0198    0.0151   -0.0084   -0.0093   -0.0041
          80   -0.0025    0.0034   -0.0168    0.0203   -0.0303    0.0143    0.0218    0.0046
          81   -0.0093   -0.0240   -0.0307    0.0096   -0.0304    0.0143    0.0146   -0.0016
          82    0.0147    0.0523    0.0401   -0.0016    0.0171   -0.0147   -0.0011   -0.0008
          83    0.0020   -0.0119    0.0107   -0.0261    0.0002   -0.0114    0.0023   -0.0085
          84    0.0001    0.0146   -0.0048    0.0105   -0.0211    0.0035    0.0150   -0.0025
          85   -0.0022   -0.0678    0.0922    0.0053   -0.0678   -0.0213    0.0035   -0.0344
          86   -0.0042    0.0274   -0.0431    0.0074    0.0366    0.0107    0.0269   -0.0284
[...]
 TRANSITION DIPOLE   0.0252         C  4 -- H 16         +31.6% ( 58.2%)     96.3%
 TRAVEL (Ang.)       0.2812         C  3 -- H 18         +16.2% ( 41.7%)     96.9%
 REDUCED MASS        0.2886         C  3 -- H 17         +15.2% ( 40.4%)     96.5%
 EFFECTIVE MASS      1.5311
 FORCE CONSTANT      1.4850

 VIBRATION         75   75A           ATOM PAIR      ENERGY CONTRIBUTION    RADIAL
 FREQUENCY          2959.09         C  2 -- H 14         +95.1% ( 99.6%)    100.0%
 TRANSITION DIPOLE   0.1041         C  2 -- C  5          +1.0% ( 10.3%)     14.4%
 TRAVEL (Ang.)       0.1579         C  2 -- C  9          +1.0% ( 10.3%)     32.8%
 REDUCED MASS        0.9145         C  2 -- C 10          +1.0% ( 10.2%)     16.5%
 EFFECTIVE MASS      1.4386
 FORCE CONSTANT      4.7178

 VIBRATION         76   76A           ATOM PAIR      ENERGY CONTRIBUTION    RADIAL
 FREQUENCY          3023.93         C  3 -- H 17         +49.5% ( 69.3%)     97.9%
 TRANSITION DIPOLE   0.0344         C  3 -- H 18         +45.9% ( 66.8%)     97.5%
 TRAVEL (Ang.)       0.2218         C  4 -- H 16          +1.6% ( 12.4%)     98.2%
 REDUCED MASS        0.4534         C  4 -- H 15          +1.4% ( 11.7%)     97.6%
 EFFECTIVE MASS      1.2717
 FORCE CONSTANT      2.4425

 VIBRATION         77   77A           ATOM PAIR      ENERGY CONTRIBUTION    RADIAL
 FREQUENCY          3024.75         C  6 -- H 20         +56.7% ( 74.3%)     98.4%
 TRANSITION DIPOLE   0.0479         C  6 -- H 19         +41.5% ( 63.6%)     96.6%
 TRAVEL (Ang.)       0.2135         C  6 -- C  8          +0.7% (  8.0%)     26.3%
 REDUCED MASS        0.4892         C  6 -- C  9          +0.6% (  7.9%)     30.3%
 EFFECTIVE MASS      1.2794
 FORCE CONSTANT      2.6372

 VIBRATION         78   78A           ATOM PAIR      ENERGY CONTRIBUTION    RADIAL
 FREQUENCY          3031.73         C  4 -- H 16         +49.5% ( 69.3%)     97.9%
 TRANSITION DIPOLE   0.0339         C  4 -- H 15         +45.6% ( 66.5%)     97.5%
 TRAVEL (Ang.)       0.2221         C  3 -- H 17          +1.6% ( 12.4%)     97.8%
 REDUCED MASS        0.4508         C  3 -- H 18          +1.4% ( 11.5%)     97.0%
 EFFECTIVE MASS      1.2731
 FORCE CONSTANT      2.4412

 VIBRATION         79   79A           ATOM PAIR      ENERGY CONTRIBUTION    RADIAL
 FREQUENCY          3040.25         C 11 -- H 29         +96.0% ( 99.4%)    100.0%
 TRANSITION DIPOLE   0.2287         C 11 -- C 12          +1.4% ( 12.0%)     31.3%
 TRAVEL (Ang.)       0.1564         C  1 -- C 11          +1.3% ( 11.7%)     13.8%
 REDUCED MASS        0.9066         C 12 -- H 31          +0.9% (  9.6%)     95.3%
 EFFECTIVE MASS      1.5004
 FORCE CONSTANT      4.9373

 VIBRATION         80   80A           ATOM PAIR      ENERGY CONTRIBUTION    RADIAL
 FREQUENCY          3043.45         C  5 -- H 21         +61.7% ( 81.6%)     98.3%
 TRANSITION DIPOLE   0.0898         C  5 -- H 22         +34.8% ( 61.3%)     95.0%
 TRAVEL (Ang.)       0.2004         C  5 -- C 10          +1.1% ( 10.9%)      1.0%
 REDUCED MASS        0.5514         C  5 -- C  9          +1.1% ( 10.9%)      0.6%
 EFFECTIVE MASS      1.5353
 FORCE CONSTANT      3.0094

 VIBRATION         81   81A           ATOM PAIR      ENERGY CONTRIBUTION    RADIAL
 FREQUENCY          3078.12         C  7 -- H 24         +49.1% ( 72.3%)     97.1%
 TRANSITION DIPOLE   0.0138         C  7 -- H 25         +48.8% ( 72.0%)     97.0%
 TRAVEL (Ang.)       0.2080         C  4 -- C  7          +1.0% ( 10.2%)      0.0%
 REDUCED MASS        0.5062         C  7 -- H 23          +0.9% ( 10.0%)      0.0%
 EFFECTIVE MASS      1.5009
 FORCE CONSTANT      2.8261

 VIBRATION         82   82A           ATOM PAIR      ENERGY CONTRIBUTION    RADIAL
 FREQUENCY          3080.97         C  8 -- H 27         +62.6% ( 81.6%)     98.5%
 TRANSITION DIPOLE   0.0167         C  8 -- H 26         +32.1% ( 58.4%)     93.5%
 TRAVEL (Ang.)       0.2045         C  8 -- H 28          +4.0% ( 20.6%)     47.6%
 REDUCED MASS        0.5234         C  6 -- C  8          +1.0% ( 10.2%)      0.0%
 EFFECTIVE MASS      1.5014
 FORCE CONSTANT      2.9272

 VIBRATION         83   83A           ATOM PAIR      ENERGY CONTRIBUTION    RADIAL
 FREQUENCY          3084.38         C  7 -- H 23         +61.7% ( 81.0%)     98.7%
 TRANSITION DIPOLE   0.0041         C  7 -- H 25         +18.4% ( 44.3%)     85.8%
 TRAVEL (Ang.)       0.2142         C  7 -- H 24         +18.4% ( 44.2%)     85.8%
 REDUCED MASS        0.4764         C  4 -- C  7          +1.0% ( 10.3%)      0.0%
 EFFECTIVE MASS      1.5030
 FORCE CONSTANT      2.6701

 VIBRATION         84   84A           ATOM PAIR      ENERGY CONTRIBUTION    RADIAL
 FREQUENCY          3087.24         C  8 -- H 28         +60.7% ( 80.4%)     98.5%
 TRANSITION DIPOLE   0.0136         C  8 -- H 26         +32.0% ( 58.4%)     93.3%
 TRAVEL (Ang.)       0.2083         C  8 -- H 27          +5.9% ( 25.0%)     59.1%
 REDUCED MASS        0.5034         C  6 -- C  8          +1.0% ( 10.3%)      0.1%
 EFFECTIVE MASS      1.5049
 FORCE CONSTANT      2.8267

 VIBRATION         85   85A           ATOM PAIR      ENERGY CONTRIBUTION    RADIAL
 FREQUENCY          3099.73         C  5 -- H 22         +63.5% ( 79.3%)     98.4%
 TRANSITION DIPOLE   0.1113         C  5 -- H 21         +34.2% ( 58.2%)     94.1%
 TRAVEL (Ang.)       0.2045         C  5 -- C 10          +0.7% (  8.4%)     95.8%
 REDUCED MASS        0.5201         C  2 -- C  5          +0.7% (  8.3%)     50.0%
 EFFECTIVE MASS      1.2857
 FORCE CONSTANT      2.9442

 VIBRATION         86   86A           ATOM PAIR      ENERGY CONTRIBUTION    RADIAL
 FREQUENCY          3133.15         C 12 -- H 32         +93.4% ( 98.3%)     99.9%
 TRANSITION DIPOLE   0.1874         C 12 -- H 31          +5.2% ( 23.3%)     65.3%
 TRAVEL (Ang.)       0.1567         C 11 -- C 12          +1.3% ( 11.7%)     25.3%
 REDUCED MASS        0.8761
 EFFECTIVE MASS      1.5313
 FORCE CONSTANT      5.0674

 VIBRATION         87   87A           ATOM PAIR      ENERGY CONTRIBUTION    RADIAL
 FREQUENCY          3146.68         C 12 -- H 31         +93.2% ( 97.3%)     99.8%
 TRANSITION DIPOLE   0.2523         C 12 -- H 32          +4.3% ( 21.0%)     29.0%
 TRAVEL (Ang.)       0.1593         C 11 -- C 12          +1.6% ( 12.7%)     69.7%
 REDUCED MASS        0.8442         C 11 -- H 29          +0.8% (  8.9%)     94.9%
 EFFECTIVE MASS      1.4729
 FORCE CONSTANT      4.9247

 VIBRATION         88   88A           ATOM PAIR      ENERGY CONTRIBUTION    RADIAL
 FREQUENCY          3181.24         C  7 -- H 23         +36.7% ( 58.3%)     97.6%
 TRANSITION DIPOLE   0.0154         C  7 -- H 25         +31.7% ( 54.1%)     96.8%
 TRAVEL (Ang.)       0.2540         C  7 -- H 24         +31.4% ( 53.9%)     96.8%
 REDUCED MASS        0.3284         C  4 -- C  7          +0.3% (  5.1%)     99.6%
 EFFECTIVE MASS      1.1368
 FORCE CONSTANT      1.9583

 VIBRATION         89   89A           ATOM PAIR      ENERGY CONTRIBUTION    RADIAL
 FREQUENCY          3182.37         C  8 -- H 26         +35.3% ( 57.2%)     97.4%
 TRANSITION DIPOLE   0.0210         C  8 -- H 28         +34.3% ( 56.4%)     97.3%
 TRAVEL (Ang.)       0.2541         C  8 -- H 27         +30.1% ( 52.8%)     96.5%
 REDUCED MASS        0.3283         C  6 -- C  8          +0.3% (  5.1%)     99.6%
 EFFECTIVE MASS      1.1357
 FORCE CONSTANT      1.9587

 VIBRATION         90   90A           ATOM PAIR      ENERGY CONTRIBUTION    RADIAL
 FREQUENCY          3201.78         C 10 -- H 30         +94.1% ( 99.9%)    100.0%
 TRANSITION DIPOLE   0.4358         C  9 -- C 10          +2.1% ( 14.7%)     64.9%
 TRAVEL (Ang.)       0.1505         C  5 -- C 10          +1.9% ( 14.1%)     99.3%
 REDUCED MASS        0.9292         C  2 -- C 10          +1.8% ( 14.0%)     37.3%
 EFFECTIVE MASS      1.6014
 FORCE CONSTANT      5.6124

      SYMMETRY NUMBER FOR POINT-GROUP C1  =  1


          SYSTEM IS A GROUND STATE



 InChI=1S/C12H20/c1-4-7-11(6-3)12-8-10(5-2)9-12/h6,8,11-12H,3-5,7,9H2,1-2H3


          MOLECULE IS NOT LINEAR

          THERE ARE 90 GENUINE VIBRATIONS IN THIS SYSTEM
          THIS THERMODYNAMICS CALCULATION IS LIMITED TO
          MOLECULES WHICH HAVE NO INTERNAL ROTATIONS




                    CALCULATED THERMODYNAMIC PROPERTIES
                                          *
   TEMP. (K)   PARTITION FUNCTION   H.O.F.    ENTHALPY  HEAT CAPACITY ENTROPY
                                   KCAL/MOL   CAL/MOLE    CAL/K/MOL  CAL/K/MOL


 298.00  VIB.     0.7160D+07                  7388.3102    46.7074    56.1591
         ROT.     0.1769D+07                   888.2803     2.9808    31.5689
         INT.     0.1267D+14                  8276.5905    49.6882    87.7280
         TRA.     0.2036D+28                  1480.4672     4.9680    41.1956
         TOT.                       20.533    9757.0577    54.6562   128.9236

 200.00  VIB.     0.1040D+06                  3589.2034    31.4294    40.9020
         ROT.     0.9728D+06                   596.1613     2.9808    30.3802
         INT.     0.1011D+12                  4185.3646    34.4102    71.2822
         TRA.     0.1119D+28                   993.6021     4.9680    39.2145
         TOT.                       15.955    5178.9668    39.3782   110.4967

 210.00  VIB.     0.1629D+06                  3910.3404    32.8057    42.4686
         ROT.     0.1047D+07                   625.9693     2.9808    30.5256
         INT.     0.1705D+12                  4536.3097    35.7865    72.9942
         TRA.     0.1204D+28                  1043.2822     4.9680    39.4569
         TOT.                       16.356    5579.5920    40.7545   112.4511

 220.00  VIB.     0.2538D+06                  4245.4716    34.2284    44.0273
         ROT.     0.1122D+07                   655.7774     2.9808    30.6643
         INT.     0.2849D+12                  4901.2490    37.2092    74.6916
         TRA.     0.1291D+28                  1092.9623     4.9680    39.6880
         TOT.                       16.770    5994.2114    42.1772   114.3796

 230.00  VIB.     0.3938D+06                  4595.0635    35.6977    45.5811
         ROT.     0.1200D+07                   685.5855     2.9808    30.7968
         INT.     0.4725D+12                  5280.6489    38.6785    76.3779
         TRA.     0.1380D+28                  1142.6424     4.9680    39.9088
         TOT.                       17.199    6423.2914    43.6465   116.2867

 240.00  VIB.     0.6086D+06                  4959.5761    37.2122    47.1322
         ROT.     0.1279D+07                   715.3935     2.9808    30.9236
         INT.     0.7782D+12                  5674.9697    40.1930    78.0559
         TRA.     0.1471D+28                  1192.3226     4.9680    40.1203
         TOT.                       17.643    6867.2922    45.1610   118.1762

 250.00  VIB.     0.9370D+06                  5339.4497    38.7693    48.6827
         ROT.     0.1359D+07                   745.2016     2.9808    31.0453
         INT.     0.1274D+13                  6084.6513    41.7502    79.7281
         TRA.     0.1564D+28                  1242.0027     4.9680    40.3231
         TOT.                       18.103    7326.6540    46.7182   120.0511

 260.00  VIB.     0.1438D+07                  5735.0933    40.3655    50.2343
         ROT.     0.1442D+07                   775.0097     2.9808    31.1622
         INT.     0.2074D+13                  6510.1030    43.3464    81.3965
         TRA.     0.1659D+28                  1291.6828     4.9680    40.5179
         TOT.                       18.578    7801.7857    48.3144   121.9144

 270.00  VIB.     0.2201D+07                  6146.8768    41.9966    51.7882
         ROT.     0.1526D+07                   804.8177     2.9808    31.2747
         INT.     0.3358D+13                  6951.6945    44.9774    83.0629
         TRA.     0.1756D+28                  1341.3629     4.9680    40.7054
         TOT.                       19.069    8293.0574    49.9454   123.7683

 280.00  VIB.     0.3360D+07                  6575.1247    43.6576    53.3454
         ROT.     0.1611D+07                   834.6258     2.9808    31.3831
         INT.     0.5415D+13                  7409.7505    46.6384    84.7285
         TRA.     0.1854D+28                  1391.0430     4.9680    40.8861
         TOT.                       19.577    8800.7935    51.6065   125.6147

 290.00  VIB.     0.5120D+07                  7020.1132    45.3438    54.9068
         ROT.     0.1698D+07                   864.4339     2.9808    31.4877
         INT.     0.8695D+13                  7884.5470    48.3246    86.3945
         TRA.     0.1954D+28                  1440.7231     4.9680    41.0604
         TOT.                       20.101    9325.2701    53.2926   127.4549

 300.00  VIB.     0.7785D+07                  7482.0674    47.0500    56.4727
         ROT.     0.1787D+07                   894.2419     2.9808    31.5888
         INT.     0.1391D+14                  8376.3093    50.0308    88.0615
         TRA.     0.2056D+28                  1490.4032     4.9680    41.2289
         TOT.                       20.643    9866.7125    54.9988   129.2904

 310.00  VIB.     0.1182D+08                  7961.1620    48.7710    58.0435
         ROT.     0.1877D+07                   924.0500     2.9808    31.6865
         INT.     0.2219D+14                  8885.2119    51.7518    89.7300
         TRA.     0.2160D+28                  1540.0833     4.9680    41.3918
         TOT.                       21.201   10425.2952    56.7199   131.1218

 320.00  VIB.     0.1792D+08                  8457.5216    50.5022    59.6192
         ROT.     0.1969D+07                   953.8580     2.9808    31.7812
         INT.     0.3529D+14                  9411.3796    53.4830    91.4004
         TRA.     0.2265D+28                  1589.7634     4.9680    41.5495
         TOT.                       21.777   11001.1430    58.4510   132.9499

 330.00  VIB.     0.2714D+08                  8971.2231    52.2387    61.1998
         ROT.     0.2062D+07                   983.6661     2.9808    31.8729
         INT.     0.5596D+14                  9954.8892    55.2195    93.0727
         TRA.     0.2372D+28                  1639.4435     4.9680    41.7024
         TOT.                       22.370   11594.3328    60.1875   134.7751

 340.00  VIB.     0.4107D+08                  9502.2982    53.9762    62.7851
         ROT.     0.2156D+07                  1013.4742     2.9808    31.9619
         INT.     0.8855D+14                 10515.7724    56.9570    94.7470
         TRA.     0.2481D+28                  1689.1236     4.9680    41.8507
         TOT.                       22.981   12204.8960    61.9250   136.5977

 350.00  VIB.     0.6208D+08                 10050.7365    55.7107    64.3748
         ROT.     0.2252D+07                  1043.2822     2.9808    32.0483
         INT.     0.1398D+15                 11094.0188    58.6915    96.4231
         TRA.     0.2591D+28                  1738.8037     4.9680    41.9947
         TOT.                       23.609   12832.8225    63.6595   138.4178

 360.00  VIB.     0.9379D+08                 10616.4890    57.4384    65.9684
         ROT.     0.2349D+07                  1073.0903     2.9808    32.1323
         INT.     0.2203D+15                 11689.5793    60.4192    98.1007
         TRA.     0.2703D+28                  1788.4838     4.9680    42.1347
         TOT.                       24.254   13478.0632    65.3873   140.2353

 370.00  VIB.     0.1416D+09                 11199.4720    59.1562    67.5656
         ROT.     0.2448D+07                  1102.8984     2.9808    32.2139
         INT.     0.3466D+15                 12302.3703    62.1370    99.7796
         TRA.     0.2817D+28                  1838.1639     4.9680    42.2708
         TOT.                       24.916   14140.5343    67.1050   142.0503

 380.00  VIB.     0.2137D+09                 11799.5702    60.8611    69.1659
         ROT.     0.2548D+07                  1132.7064     2.9808    32.2934
         INT.     0.5443D+15                 12932.2767    63.8419   101.4593
         TRA.     0.2932D+28                  1887.8440     4.9680    42.4033
         TOT.                       25.596   14820.1207    68.8099   143.8626

 390.00  VIB.     0.3223D+09                 12416.6413    62.5504    70.7687
         ROT.     0.2649D+07                  1162.5145     2.9808    32.3708
         INT.     0.8537D+15                 13579.1557    65.5312   103.1395
         TRA.     0.3048D+28                  1937.5242     4.9680    42.5323
         TOT.                       26.293   15516.6799    70.4992   145.6718

 400.00  VIB.     0.4859D+09                 13050.5185    64.2219    72.3734
         ROT.     0.2751D+07                  1192.3226     2.9808    32.4463
         INT.     0.1337D+16                 14242.8410    67.2028   104.8197
         TRA.     0.3166D+28                  1987.2043     4.9680    42.6581
         TOT.                       27.006   16230.0453    72.1708   147.4778

   *: NOTE: HEATS OF FORMATION ARE RELATIVE TO THE
            ELEMENTS IN THEIR STANDARD STATE AT 298K
              (=  Standard Enthalpy of Formation).

            Hvib:  Zero-point energy is not included.
                   frequencies of less than zero cm-1 are not included.
            Hrot = (3/2)RT
            Htra = (3/2)RT + pV = (5/2)RT

            Heat capacity is Cp, not Cv

          For more information, see: HTTP://OpenMOPAC.net/Manual/thermochemistry.html


           FORCE CONSTANT IN CARTESIAN COORDINATES (Millidynes/A)

    ATOM   CHEMICAL       X               Y               Z
   NUMBER   SYMBOL  FORCE CONSTANT  FORCE CONSTANT  FORCE CONSTANT

      1       C        8.231311        8.287565        8.802975
      2       C        8.808731        6.494799        8.939530
      3       C        8.326690        8.135744        8.241472
      4       C        8.150688        8.572256        8.186620
      5       C        7.399255        8.956219        7.526643
      6       C        8.557078        8.436986        8.813159
      7       C        8.439655        8.261918        8.201095
      8       C        8.244237        8.230985        8.343181
      9       C        7.377279       11.787001        8.839481
     10       C        4.818591       14.956729        6.556262
     11       C        5.564316       12.629193        8.916965
     12       C        5.024914       12.420983        8.996721
     13       H        1.121386        1.548417        3.353410
     14       H        1.262324        1.584628        3.372463
     15       H        1.642928        1.918595        2.814176
     16       H        0.912256        1.419650        4.075806
     17       H        0.916318        1.528671        3.961743
     18       H        1.665772        1.825027        2.901980
     19       H        3.682950        1.050198        1.523872
     20       H        0.879276        2.897361        2.557180
     21       H        2.481580        3.285363        0.753650
     22       H        2.759973        1.060551        2.754571
     23       H        5.272390        0.726158        0.795129
     24       H        1.635175        2.113296        3.024873
     25       H        0.836574        1.537752        4.402250
     26       H        3.882681        1.113962        1.788799
     27       H        0.971035        3.068934        2.723324
     28       H        2.655486        1.394495        2.736474
     29       H        0.578515        1.507006        4.128471
     30       H        0.447770        4.457555        1.674722
     31       H        0.904269        1.711443        3.854552
     32       H        0.587284        1.658924        4.199891

 **********************
 *                    *
 * JOB ENDED NORMALLY *
 *                    *
 **********************



 TOTAL JOB TIME:             9.82 SECONDS

 == MOPAC DONE ==
