 *******************************************************************************
 **                                                                           **
 **                              MOPAC v23.1.2                                **
 **                                                                           **
 *******************************************************************************
 **          Digital Object Identifier (DOI): 10.5281/zenodo.6511958          **
 **    Visit the DOI location for information on how to cite this program.    **
 *******************************************************************************

                              PM3 CALCULATION RESULTS

 *******************************************************************************
 *  CALCULATION DONE: (MAX THREADS = 1)              Tue Jun  3 16:40:06 2025  *
 *  PM3        - The PM3 Hamiltonian to be used
 *  PRECISE    - TIGHTER CRITERIA TO BE USED
 *  NOSYM      - POINT-GROUP SYMMETRY SET TO C1
 *  THREADS=1  - MULTI-THREADING NOT USED
 *  T=         - A TIME OF 172800.0 SECONDS REQUESTED
 *  DUMP=N     - RESTART FILE WRITTEN EVERY 7200.0 SECONDS REQUESTED
 *******************************************************************************
pm3  precise nosym THREADS=1
 InChI=1S/C12H20/c1-4-7-10(5-2)12-9-8-11(12)6-3/h4,8-12H,1,5-7H2,2-3H3

   ATOM   CHEMICAL          X               Y               Z
  NUMBER   SYMBOL      (ANGSTROMS)     (ANGSTROMS)     (ANGSTROMS)

     1       C         -1.24020000  *  -0.09120000  *  -0.26460000  *
     2       C          0.16320000  *  -0.76720000  *  -0.31240000  *
     3       C          1.27830000  *   0.13510000  *  -0.52660000  *
     4       C         -2.38140000  *  -1.08140000  *  -0.61880000  *
     5       C          2.41660000  *  -0.01740000  *   0.49960000  *
     6       C         -1.50130000  *   0.56590000  *   1.11620000  *
     7       C         -2.46920000  *  -2.30410000  *   0.29930000  *
     8       C          3.58450000  *   0.91090000  *   0.17730000  *
     9       C          1.56810000  *  -0.56190000  *  -1.81850000  *
    10       C          0.47450000  *  -1.40620000  *  -1.63590000  *
    11       C         -0.70810000  *   1.82820000  *   1.32530000  *
    12       C         -0.98290000  *   2.95120000  *   0.65540000  *
    13       H         -1.28590000  *   0.70240000  *  -1.04500000  *
    14       H          0.99950000  *   1.19680000  *  -0.70860000  *
    15       H          0.31770000  *  -1.49300000  *   0.51860000  *
    16       H         -3.35440000  *  -0.54420000  *  -0.58470000  *
    17       H         -2.25960000  *  -1.43210000  *  -1.66590000  *
    18       H          2.78370000  *  -1.06780000  *   0.53000000  *
    19       H          2.03040000  *   0.23960000  *   1.50950000  *
    20       H         -2.57970000  *   0.81340000  *   1.22980000  *
    21       H         -1.24190000  *  -0.14870000  *   1.92670000  *
    22       H         -2.62780000  *  -1.99890000  *   1.35390000  *
    23       H         -1.55160000  *  -2.92290000  *   0.22330000  *
    24       H         -3.33110000  *  -2.93180000  *  -0.01050000  *
    25       H          4.37700000  *   0.79120000  *   0.94570000  *
    26       H          4.01390000  *   0.66280000  *  -0.81630000  *
    27       H          3.24670000  *   1.96920000  *   0.17770000  *
    28       H          0.08690000  *   1.83540000  *   2.06480000  *
    29       H          2.31810000  *  -0.44670000  *  -2.59350000  *
    30       H          0.04270000  *  -2.21950000  *  -2.20900000  *
    31       H         -0.40120000  *   3.84860000  *   0.83900000  *
    32       H         -1.78550000  *   2.98420000  *  -0.07490000  *



          CARTESIAN COORDINATES 

    NO.       ATOM           X           Y           Z

     1         C         -1.2402     -0.0912     -0.2646
     2         C          0.1632     -0.7672     -0.3124
     3         C          1.2783      0.1351     -0.5266
     4         C         -2.3814     -1.0814     -0.6188
     5         C          2.4166     -0.0174      0.4996
     6         C         -1.5013      0.5659      1.1162
     7         C         -2.4692     -2.3041      0.2993
     8         C          3.5845      0.9109      0.1773
     9         C          1.5681     -0.5619     -1.8185
    10         C          0.4745     -1.4062     -1.6359
    11         C         -0.7081      1.8282      1.3253
    12         C         -0.9829      2.9512      0.6554
    13         H         -1.2859      0.7024     -1.0450
    14         H          0.9995      1.1968     -0.7086
    15         H          0.3177     -1.4930      0.5186
    16         H         -3.3544     -0.5442     -0.5847
    17         H         -2.2596     -1.4321     -1.6659
    18         H          2.7837     -1.0678      0.5300
    19         H          2.0304      0.2396      1.5095
    20         H         -2.5797      0.8134      1.2298
    21         H         -1.2419     -0.1487      1.9267
    22         H         -2.6278     -1.9989      1.3539
    23         H         -1.5516     -2.9229      0.2233
    24         H         -3.3311     -2.9318     -0.0105
    25         H          4.3770      0.7912      0.9457
    26         H          4.0139      0.6628     -0.8163
    27         H          3.2467      1.9692      0.1777
    28         H          0.0869      1.8354      2.0648
    29         H          2.3181     -0.4467     -2.5935
    30         H          0.0427     -2.2195     -2.2090
    31         H         -0.4012      3.8486      0.8390
    32         H         -1.7855      2.9842     -0.0749

  H: (PM3): J. J. P. STEWART, J. COMP. CHEM. 10, 209 (1989).
  C: (PM3): J. J. P. STEWART, J. COMP. CHEM. 10, 209 (1989).

           Empirical Formula: C12 H20  =    32 atoms



      MOLECULAR POINT GROUP   :   C1  


      RHF CALCULATION, NO. OF DOUBLY OCCUPIED LEVELS = 34


          Geometry optimization using EF

          DIAGONAL MATRIX USED AS START HESSIAN

 CYCLE:     1 TIME:   0.016 TIME LEFT:  2.00D  GRAD.:   213.432 HEAT:  39.19851
 CYCLE:     2 TIME:   0.020 TIME LEFT:  2.00D  GRAD.:    67.195 HEAT:  29.55502
 CYCLE:     3 TIME:   0.020 TIME LEFT:  2.00D  GRAD.:    84.083 HEAT:  28.95477
 CYCLE:     4 TIME:   0.016 TIME LEFT:  2.00D  GRAD.:    48.800 HEAT:  28.02510
 CYCLE:     5 TIME:   0.020 TIME LEFT:  2.00D  GRAD.:    23.976 HEAT:  27.51021
 CYCLE:     6 TIME:   0.012 TIME LEFT:  2.00D  GRAD.:    43.943 HEAT:  27.46421
 CYCLE:     7 TIME:   0.012 TIME LEFT:  2.00D  GRAD.:    27.925 HEAT:  27.06000
 CYCLE:     8 TIME:   0.016 TIME LEFT:  2.00D  GRAD.:    19.359 HEAT:  26.87653
 CYCLE:     9 TIME:   0.012 TIME LEFT:  2.00D  GRAD.:    18.360 HEAT:  26.75032
 CYCLE:    10 TIME:   0.020 TIME LEFT:  2.00D  GRAD.:    13.453 HEAT:  26.65466
 CYCLE:    11 TIME:   0.016 TIME LEFT:  2.00D  GRAD.:    19.217 HEAT:  26.64160
 CYCLE:    12 TIME:   0.012 TIME LEFT:  2.00D  GRAD.:    13.779 HEAT:  26.54823
 CYCLE:    13 TIME:   0.016 TIME LEFT:  2.00D  GRAD.:    16.080 HEAT:  26.54211
 CYCLE:    14 TIME:   0.012 TIME LEFT:  2.00D  GRAD.:    16.372 HEAT:  26.53315
 CYCLE:    15 TIME:   0.016 TIME LEFT:  2.00D  GRAD.:    14.605 HEAT:  26.50097
 CYCLE:    16 TIME:   0.016 TIME LEFT:  2.00D  GRAD.:     5.679 HEAT:  26.45036
 CYCLE:    17 TIME:   0.020 TIME LEFT:  2.00D  GRAD.:     4.983 HEAT:  26.44006
 CYCLE:    18 TIME:   0.012 TIME LEFT:  2.00D  GRAD.:     3.458 HEAT:  26.42733
 CYCLE:    19 TIME:   0.012 TIME LEFT:  2.00D  GRAD.:     7.170 HEAT:  26.41700
 CYCLE:    20 TIME:   0.008 TIME LEFT:  2.00D  GRAD.:     5.249 HEAT:  26.39504
 CYCLE:    21 TIME:   0.020 TIME LEFT:  2.00D  GRAD.:     7.806 HEAT:  26.38883
 CYCLE:    22 TIME:   0.012 TIME LEFT:  2.00D  GRAD.:     7.161 HEAT:  26.37710
 CYCLE:    23 TIME:   0.012 TIME LEFT:  2.00D  GRAD.:     7.279 HEAT:  26.36532
 CYCLE:    24 TIME:   0.012 TIME LEFT:  2.00D  GRAD.:     3.737 HEAT:  26.34776
 CYCLE:    25 TIME:   0.012 TIME LEFT:  2.00D  GRAD.:     7.404 HEAT:  26.34739
 CYCLE:    26 TIME:   0.012 TIME LEFT:  2.00D  GRAD.:     4.351 HEAT:  26.32827
 CYCLE:    27 TIME:   0.023 TIME LEFT:  2.00D  GRAD.:     4.190 HEAT:  26.32407
 CYCLE:    28 TIME:   0.008 TIME LEFT:  2.00D  GRAD.:     2.721 HEAT:  26.31683
 CYCLE:    29 TIME:   0.012 TIME LEFT:  2.00D  GRAD.:     6.070 HEAT:  26.31055
 CYCLE:    30 TIME:   0.012 TIME LEFT:  2.00D  GRAD.:     5.171 HEAT:  26.30542
 CYCLE:    31 TIME:   0.012 TIME LEFT:  2.00D  GRAD.:     4.083 HEAT:  26.29854
 CYCLE:    32 TIME:   0.008 TIME LEFT:  2.00D  GRAD.:     4.803 HEAT:  26.29878
 CYCLE:    33 TIME:   0.012 TIME LEFT:  2.00D  GRAD.:     2.005 HEAT:  26.29125
 CYCLE:    34 TIME:   0.012 TIME LEFT:  2.00D  GRAD.:     2.334 HEAT:  26.28938
 CYCLE:    35 TIME:   0.008 TIME LEFT:  2.00D  GRAD.:     1.787 HEAT:  26.28539
 CYCLE:    36 TIME:   0.012 TIME LEFT:  2.00D  GRAD.:     2.381 HEAT:  26.27915
 CYCLE:    37 TIME:   0.012 TIME LEFT:  2.00D  GRAD.:     3.139 HEAT:  26.27343
 CYCLE:    38 TIME:   0.016 TIME LEFT:  2.00D  GRAD.:     3.244 HEAT:  26.27011
 CYCLE:    39 TIME:   0.008 TIME LEFT:  2.00D  GRAD.:     1.663 HEAT:  26.26433
 CYCLE:    40 TIME:   0.012 TIME LEFT:  2.00D  GRAD.:     2.662 HEAT:  26.26031
 CYCLE:    41 TIME:   0.016 TIME LEFT:  2.00D  GRAD.:     2.819 HEAT:  26.25463
 CYCLE:    42 TIME:   0.008 TIME LEFT:  2.00D  GRAD.:     2.415 HEAT:  26.24885
 CYCLE:    43 TIME:   0.012 TIME LEFT:  2.00D  GRAD.:     3.069 HEAT:  26.24413
 CYCLE:    44 TIME:   0.012 TIME LEFT:  2.00D  GRAD.:     2.685 HEAT:  26.23762
 CYCLE:    45 TIME:   0.012 TIME LEFT:  2.00D  GRAD.:     2.917 HEAT:  26.22773
 CYCLE:    46 TIME:   0.012 TIME LEFT:  2.00D  GRAD.:     2.837 HEAT:  26.21402
 CYCLE:    47 TIME:   0.012 TIME LEFT:  2.00D  GRAD.:     2.387 HEAT:  26.20424
 CYCLE:    48 TIME:   0.016 TIME LEFT:  2.00D  GRAD.:     2.575 HEAT:  26.19152
 CYCLE:    49 TIME:   0.012 TIME LEFT:  2.00D  GRAD.:     2.971 HEAT:  26.17779
 CYCLE:    50 TIME:   0.012 TIME LEFT:  2.00D  GRAD.:     2.589 HEAT:  26.16836
 CYCLE:    51 TIME:   0.008 TIME LEFT:  2.00D  GRAD.:     2.151 HEAT:  26.15954
 CYCLE:    52 TIME:   0.012 TIME LEFT:  2.00D  GRAD.:     2.877 HEAT:  26.15051
 CYCLE:    53 TIME:   0.016 TIME LEFT:  2.00D  GRAD.:     2.903 HEAT:  26.14413
 CYCLE:    54 TIME:   0.012 TIME LEFT:  2.00D  GRAD.:     1.760 HEAT:  26.13671
 CYCLE:    55 TIME:   0.012 TIME LEFT:  2.00D  GRAD.:     1.739 HEAT:  26.12919
 CYCLE:    56 TIME:   0.012 TIME LEFT:  2.00D  GRAD.:     1.835 HEAT:  26.12341
 CYCLE:    57 TIME:   0.012 TIME LEFT:  2.00D  GRAD.:     1.555 HEAT:  26.11870
 CYCLE:    58 TIME:   0.016 TIME LEFT:  2.00D  GRAD.:     1.721 HEAT:  26.11334
 CYCLE:    59 TIME:   0.012 TIME LEFT:  2.00D  GRAD.:     2.068 HEAT:  26.10647
 CYCLE:    60 TIME:   0.012 TIME LEFT:  2.00D  GRAD.:     2.110 HEAT:  26.09813
 CYCLE:    61 TIME:   0.012 TIME LEFT:  2.00D  GRAD.:     2.310 HEAT:  26.08854
 CYCLE:    62 TIME:   0.012 TIME LEFT:  2.00D  GRAD.:     2.787 HEAT:  26.07939
 CYCLE:    63 TIME:   0.012 TIME LEFT:  2.00D  GRAD.:     2.818 HEAT:  26.06556
 CYCLE:    64 TIME:   0.012 TIME LEFT:  2.00D  GRAD.:     2.619 HEAT:  26.04977
 CYCLE:    65 TIME:   0.012 TIME LEFT:  2.00D  GRAD.:     2.514 HEAT:  26.03162
 CYCLE:    66 TIME:   0.012 TIME LEFT:  2.00D  GRAD.:     2.519 HEAT:  26.01885
 CYCLE:    67 TIME:   0.012 TIME LEFT:  2.00D  GRAD.:     4.283 HEAT:  25.99645
 CYCLE:    68 TIME:   0.012 TIME LEFT:  2.00D  GRAD.:     5.072 HEAT:  25.98440
 CYCLE:    69 TIME:   0.012 TIME LEFT:  2.00D  GRAD.:     4.031 HEAT:  25.95917
 CYCLE:    70 TIME:   0.012 TIME LEFT:  2.00D  GRAD.:     3.066 HEAT:  25.94113
 CYCLE:    71 TIME:   0.012 TIME LEFT:  2.00D  GRAD.:     4.159 HEAT:  25.92631
 CYCLE:    72 TIME:   0.012 TIME LEFT:  2.00D  GRAD.:     2.600 HEAT:  25.91496
 CYCLE:    73 TIME:   0.012 TIME LEFT:  2.00D  GRAD.:     2.222 HEAT:  25.90388
 CYCLE:    74 TIME:   0.012 TIME LEFT:  2.00D  GRAD.:     1.819 HEAT:  25.89426
 CYCLE:    75 TIME:   0.016 TIME LEFT:  2.00D  GRAD.:     2.812 HEAT:  25.88775
 CYCLE:    76 TIME:   0.012 TIME LEFT:  2.00D  GRAD.:     2.527 HEAT:  25.87749
 CYCLE:    77 TIME:   0.012 TIME LEFT:  2.00D  GRAD.:     2.161 HEAT:  25.86637
 CYCLE:    78 TIME:   0.012 TIME LEFT:  2.00D  GRAD.:     1.952 HEAT:  25.85516
 CYCLE:    79 TIME:   0.012 TIME LEFT:  2.00D  GRAD.:     3.022 HEAT:  25.84526
 CYCLE:    80 TIME:   0.012 TIME LEFT:  2.00D  GRAD.:     2.059 HEAT:  25.83575
 CYCLE:    81 TIME:   0.012 TIME LEFT:  2.00D  GRAD.:     2.140 HEAT:  25.82478
 CYCLE:    82 TIME:   0.012 TIME LEFT:  2.00D  GRAD.:     1.981 HEAT:  25.81563
 CYCLE:    83 TIME:   0.012 TIME LEFT:  2.00D  GRAD.:     1.786 HEAT:  25.80995
 CYCLE:    84 TIME:   0.012 TIME LEFT:  2.00D  GRAD.:     1.719 HEAT:  25.80302
 CYCLE:    85 TIME:   0.012 TIME LEFT:  2.00D  GRAD.:     1.906 HEAT:  25.79963
 CYCLE:    86 TIME:   0.012 TIME LEFT:  2.00D  GRAD.:     1.868 HEAT:  25.79362
 CYCLE:    87 TIME:   0.012 TIME LEFT:  2.00D  GRAD.:     1.697 HEAT:  25.78733
 CYCLE:    88 TIME:   0.012 TIME LEFT:  2.00D  GRAD.:     2.072 HEAT:  25.78054
 CYCLE:    89 TIME:   0.012 TIME LEFT:  2.00D  GRAD.:     2.095 HEAT:  25.76994
 CYCLE:    90 TIME:   0.016 TIME LEFT:  2.00D  GRAD.:     2.479 HEAT:  25.76117
 CYCLE:    91 TIME:   0.012 TIME LEFT:  2.00D  GRAD.:     2.045 HEAT:  25.75226
 CYCLE:    92 TIME:   0.012 TIME LEFT:  2.00D  GRAD.:     2.681 HEAT:  25.74366
 CYCLE:    93 TIME:   0.012 TIME LEFT:  2.00D  GRAD.:     2.894 HEAT:  25.73637
 CYCLE:    94 TIME:   0.012 TIME LEFT:  2.00D  GRAD.:     2.829 HEAT:  25.72752
 CYCLE:    95 TIME:   0.012 TIME LEFT:  2.00D  GRAD.:     2.315 HEAT:  25.71804
 CYCLE:    96 TIME:   0.012 TIME LEFT:  2.00D  GRAD.:     1.945 HEAT:  25.70732
 CYCLE:    97 TIME:   0.012 TIME LEFT:  2.00D  GRAD.:     1.616 HEAT:  25.70268
 CYCLE:    98 TIME:   0.016 TIME LEFT:  2.00D  GRAD.:     1.412 HEAT:  25.69674
 CYCLE:    99 TIME:   0.012 TIME LEFT:  2.00D  GRAD.:     1.267 HEAT:  25.69293
 CYCLE:   100 TIME:   0.012 TIME LEFT:  2.00D  GRAD.:     1.156 HEAT:  25.68965
 CYCLE:   101 TIME:   0.008 TIME LEFT:  2.00D  GRAD.:     1.230 HEAT:  25.68625
 CYCLE:   102 TIME:   0.012 TIME LEFT:  2.00D  GRAD.:     2.611 HEAT:  25.68350
 CYCLE:   103 TIME:   0.012 TIME LEFT:  2.00D  GRAD.:     1.561 HEAT:  25.67902
 CYCLE:   104 TIME:   0.012 TIME LEFT:  2.00D  GRAD.:     1.650 HEAT:  25.67292
 CYCLE:   105 TIME:   0.012 TIME LEFT:  2.00D  GRAD.:     2.059 HEAT:  25.66084
 CYCLE:   106 TIME:   0.012 TIME LEFT:  2.00D  GRAD.:     1.920 HEAT:  25.65402
 CYCLE:   107 TIME:   0.012 TIME LEFT:  2.00D  GRAD.:     1.997 HEAT:  25.64708
 CYCLE:   108 TIME:   0.012 TIME LEFT:  2.00D  GRAD.:     1.930 HEAT:  25.63854
 CYCLE:   109 TIME:   0.012 TIME LEFT:  2.00D  GRAD.:     2.681 HEAT:  25.63030
 CYCLE:   110 TIME:   0.012 TIME LEFT:  2.00D  GRAD.:     2.581 HEAT:  25.62463
 CYCLE:   111 TIME:   0.016 TIME LEFT:  2.00D  GRAD.:     1.861 HEAT:  25.61801
 CYCLE:   112 TIME:   0.012 TIME LEFT:  2.00D  GRAD.:     1.682 HEAT:  25.61171
 CYCLE:   113 TIME:   0.012 TIME LEFT:  2.00D  GRAD.:     1.719 HEAT:  25.60747
 CYCLE:   114 TIME:   0.008 TIME LEFT:  2.00D  GRAD.:     1.616 HEAT:  25.60325
 CYCLE:   115 TIME:   0.016 TIME LEFT:  2.00D  GRAD.:     1.446 HEAT:  25.59917
 CYCLE:   116 TIME:   0.008 TIME LEFT:  2.00D  GRAD.:     1.214 HEAT:  25.59540
 CYCLE:   117 TIME:   0.012 TIME LEFT:  2.00D  GRAD.:     0.975 HEAT:  25.59228
 CYCLE:   118 TIME:   0.012 TIME LEFT:  2.00D  GRAD.:     1.013 HEAT:  25.59037
 CYCLE:   119 TIME:   0.012 TIME LEFT:  2.00D  GRAD.:     0.816 HEAT:  25.58924
 CYCLE:   120 TIME:   0.012 TIME LEFT:  2.00D  GRAD.:     0.778 HEAT:  25.58847
 CYCLE:   121 TIME:   0.016 TIME LEFT:  2.00D  GRAD.:     0.649 HEAT:  25.58786
 CYCLE:   122 TIME:   0.012 TIME LEFT:  2.00D  GRAD.:     0.608 HEAT:  25.58736
 CYCLE:   123 TIME:   0.012 TIME LEFT:  2.00D  GRAD.:     0.578 HEAT:  25.58679
 CYCLE:   124 TIME:   0.008 TIME LEFT:  2.00D  GRAD.:     0.693 HEAT:  25.58592
 CYCLE:   125 TIME:   0.012 TIME LEFT:  2.00D  GRAD.:     0.930 HEAT:  25.58449
 CYCLE:   126 TIME:   0.012 TIME LEFT:  2.00D  GRAD.:     1.537 HEAT:  25.58146
 CYCLE:   127 TIME:   0.012 TIME LEFT:  2.00D  GRAD.:     1.568 HEAT:  25.57861
 CYCLE:   128 TIME:   0.012 TIME LEFT:  2.00D  GRAD.:     2.114 HEAT:  25.57033
 CYCLE:   129 TIME:   0.012 TIME LEFT:  2.00D  GRAD.:     2.077 HEAT:  25.56594
 CYCLE:   130 TIME:   0.012 TIME LEFT:  2.00D  GRAD.:     1.995 HEAT:  25.55201
 CYCLE:   131 TIME:   0.012 TIME LEFT:  2.00D  GRAD.:     5.508 HEAT:  25.53951
 CYCLE:   132 TIME:   0.012 TIME LEFT:  2.00D  GRAD.:     8.694 HEAT:  25.51608
 CYCLE:   133 TIME:   0.020 TIME LEFT:  2.00D  GRAD.:     5.036 HEAT:  25.49517
 CYCLE:   134 TIME:   0.012 TIME LEFT:  2.00D  GRAD.:    10.824 HEAT:  25.48627
 CYCLE:   135 TIME:   0.012 TIME LEFT:  2.00D  GRAD.:    11.363 HEAT:  25.45642
 CYCLE:   136 TIME:   0.012 TIME LEFT:  2.00D  GRAD.:     3.723 HEAT:  25.40073
 CYCLE:   137 TIME:   0.012 TIME LEFT:  2.00D  GRAD.:     3.394 HEAT:  25.36976
 CYCLE:   138 TIME:   0.012 TIME LEFT:  2.00D  GRAD.:     5.442 HEAT:  25.32465
 CYCLE:   139 TIME:   0.012 TIME LEFT:  2.00D  GRAD.:     4.428 HEAT:  25.26864
 CYCLE:   140 TIME:   0.012 TIME LEFT:  2.00D  GRAD.:     6.940 HEAT:  25.22369
 CYCLE:   141 TIME:   0.012 TIME LEFT:  2.00D  GRAD.:     4.318 HEAT:  25.20276
 CYCLE:   142 TIME:   0.012 TIME LEFT:  2.00D  GRAD.:     3.287 HEAT:  25.16589
 CYCLE:   143 TIME:   0.012 TIME LEFT:  2.00D  GRAD.:     5.757 HEAT:  25.13283
 CYCLE:   144 TIME:   0.012 TIME LEFT:  2.00D  GRAD.:     4.238 HEAT:  25.10954
 CYCLE:   145 TIME:   0.012 TIME LEFT:  2.00D  GRAD.:     3.252 HEAT:  25.08342
 CYCLE:   146 TIME:   0.012 TIME LEFT:  2.00D  GRAD.:     2.977 HEAT:  25.04998
 CYCLE:   147 TIME:   0.012 TIME LEFT:  2.00D  GRAD.:     2.501 HEAT:  25.03836
 CYCLE:   148 TIME:   0.012 TIME LEFT:  2.00D  GRAD.:     2.271 HEAT:  25.02135
 CYCLE:   149 TIME:   0.008 TIME LEFT:  2.00D  GRAD.:     2.872 HEAT:  25.00457
 CYCLE:   150 TIME:   0.016 TIME LEFT:  2.00D  GRAD.:     3.243 HEAT:  24.98504
 CYCLE:   151 TIME:   0.012 TIME LEFT:  2.00D  GRAD.:     3.805 HEAT:  24.95782
 CYCLE:   152 TIME:   0.008 TIME LEFT:  2.00D  GRAD.:     3.721 HEAT:  24.92984
 CYCLE:   153 TIME:   0.016 TIME LEFT:  2.00D  GRAD.:     4.208 HEAT:  24.91017
 CYCLE:   154 TIME:   0.008 TIME LEFT:  2.00D  GRAD.:     3.926 HEAT:  24.88829
 CYCLE:   155 TIME:   0.012 TIME LEFT:  2.00D  GRAD.:     3.159 HEAT:  24.86816
 CYCLE:   156 TIME:   0.012 TIME LEFT:  2.00D  GRAD.:     3.289 HEAT:  24.84925
 CYCLE:   157 TIME:   0.012 TIME LEFT:  2.00D  GRAD.:     3.364 HEAT:  24.83431
 CYCLE:   158 TIME:   0.012 TIME LEFT:  2.00D  GRAD.:     3.288 HEAT:  24.81109
 CYCLE:   159 TIME:   0.012 TIME LEFT:  2.00D  GRAD.:     3.185 HEAT:  24.79014
 CYCLE:   160 TIME:   0.012 TIME LEFT:  2.00D  GRAD.:     2.680 HEAT:  24.77195
 CYCLE:   161 TIME:   0.012 TIME LEFT:  2.00D  GRAD.:     3.046 HEAT:  24.75474
 CYCLE:   162 TIME:   0.012 TIME LEFT:  2.00D  GRAD.:     3.030 HEAT:  24.73498
 CYCLE:   163 TIME:   0.012 TIME LEFT:  2.00D  GRAD.:     3.073 HEAT:  24.71318
 CYCLE:   164 TIME:   0.012 TIME LEFT:  2.00D  GRAD.:     2.676 HEAT:  24.69980
 CYCLE:   165 TIME:   0.016 TIME LEFT:  2.00D  GRAD.:     3.244 HEAT:  24.69009
 CYCLE:   166 TIME:   0.012 TIME LEFT:  2.00D  GRAD.:     1.940 HEAT:  24.67941
 CYCLE:   167 TIME:   0.012 TIME LEFT:  2.00D  GRAD.:     1.410 HEAT:  24.66770
 CYCLE:   168 TIME:   0.012 TIME LEFT:  2.00D  GRAD.:     2.032 HEAT:  24.65445
 CYCLE:   169 TIME:   0.023 TIME LEFT:  2.00D  GRAD.:     5.941 HEAT:  24.61961
 CYCLE:   170 TIME:   0.023 TIME LEFT:  2.00D  GRAD.:    10.580 HEAT:  24.59817
 CYCLE:   171 TIME:   0.043 TIME LEFT:  2.00D  GRAD.:     8.377 HEAT:  24.56933
 CYCLE:   172 TIME:   0.012 TIME LEFT:  2.00D  GRAD.:     4.074 HEAT:  24.53542
 CYCLE:   173 TIME:   0.012 TIME LEFT:  2.00D  GRAD.:     3.608 HEAT:  24.50596
 CYCLE:   174 TIME:   0.012 TIME LEFT:  2.00D  GRAD.:     4.971 HEAT:  24.47800
 CYCLE:   175 TIME:   0.012 TIME LEFT:  2.00D  GRAD.:     5.196 HEAT:  24.46646
 CYCLE:   176 TIME:   0.012 TIME LEFT:  2.00D  GRAD.:     4.545 HEAT:  24.44951
 CYCLE:   177 TIME:   0.020 TIME LEFT:  2.00D  GRAD.:     2.643 HEAT:  24.44005
 CYCLE:   178 TIME:   0.012 TIME LEFT:  2.00D  GRAD.:     2.826 HEAT:  24.43385
 CYCLE:   179 TIME:   0.012 TIME LEFT:  2.00D  GRAD.:     1.886 HEAT:  24.42820
 CYCLE:   180 TIME:   0.012 TIME LEFT:  2.00D  GRAD.:     1.153 HEAT:  24.42506
 CYCLE:   181 TIME:   0.012 TIME LEFT:  2.00D  GRAD.:     1.652 HEAT:  24.42176
 CYCLE:   182 TIME:   0.012 TIME LEFT:  2.00D  GRAD.:     1.196 HEAT:  24.41836
 CYCLE:   183 TIME:   0.012 TIME LEFT:  2.00D  GRAD.:     1.673 HEAT:  24.41501
 CYCLE:   184 TIME:   0.012 TIME LEFT:  2.00D  GRAD.:     1.766 HEAT:  24.41145
 CYCLE:   185 TIME:   0.012 TIME LEFT:  2.00D  GRAD.:     1.413 HEAT:  24.40878
 CYCLE:   186 TIME:   0.012 TIME LEFT:  2.00D  GRAD.:     1.273 HEAT:  24.40587
 CYCLE:   187 TIME:   0.012 TIME LEFT:  2.00D  GRAD.:     1.289 HEAT:  24.40246
 CYCLE:   188 TIME:   0.016 TIME LEFT:  2.00D  GRAD.:     1.381 HEAT:  24.39810
 CYCLE:   189 TIME:   0.012 TIME LEFT:  2.00D  GRAD.:     1.397 HEAT:  24.39422
 CYCLE:   190 TIME:   0.012 TIME LEFT:  2.00D  GRAD.:     1.253 HEAT:  24.39105
 CYCLE:   191 TIME:   0.012 TIME LEFT:  2.00D  GRAD.:     1.354 HEAT:  24.38890
 CYCLE:   192 TIME:   0.012 TIME LEFT:  2.00D  GRAD.:     1.161 HEAT:  24.38689
 CYCLE:   193 TIME:   0.008 TIME LEFT:  2.00D  GRAD.:     1.299 HEAT:  24.38443
 CYCLE:   194 TIME:   0.012 TIME LEFT:  2.00D  GRAD.:     1.425 HEAT:  24.38043
 CYCLE:   195 TIME:   0.012 TIME LEFT:  2.00D  GRAD.:     1.809 HEAT:  24.37407
 CYCLE:   196 TIME:   0.012 TIME LEFT:  2.00D  GRAD.:     1.979 HEAT:  24.36651
 CYCLE:   197 TIME:   0.012 TIME LEFT:  2.00D  GRAD.:     1.931 HEAT:  24.35738
 CYCLE:   198 TIME:   0.012 TIME LEFT:  2.00D  GRAD.:     1.434 HEAT:  24.35340
 CYCLE:   199 TIME:   0.012 TIME LEFT:  2.00D  GRAD.:     0.970 HEAT:  24.35055
 CYCLE:   200 TIME:   0.012 TIME LEFT:  2.00D  GRAD.:     1.085 HEAT:  24.34908
 CYCLE:   201 TIME:   0.012 TIME LEFT:  2.00D  GRAD.:     0.869 HEAT:  24.34725
 CYCLE:   202 TIME:   0.012 TIME LEFT:  2.00D  GRAD.:     0.819 HEAT:  24.34574
 CYCLE:   203 TIME:   0.012 TIME LEFT:  2.00D  GRAD.:     0.605 HEAT:  24.34473
 CYCLE:   204 TIME:   0.012 TIME LEFT:  2.00D  GRAD.:     0.682 HEAT:  24.34375
 CYCLE:   205 TIME:   0.012 TIME LEFT:  2.00D  GRAD.:     0.742 HEAT:  24.34277
 CYCLE:   206 TIME:   0.016 TIME LEFT:  2.00D  GRAD.:     0.775 HEAT:  24.34147
 CYCLE:   207 TIME:   0.012 TIME LEFT:  2.00D  GRAD.:     0.870 HEAT:  24.34009
 CYCLE:   208 TIME:   0.012 TIME LEFT:  2.00D  GRAD.:     1.040 HEAT:  24.33781
 CYCLE:   209 TIME:   0.012 TIME LEFT:  2.00D  GRAD.:     1.253 HEAT:  24.33514
 CYCLE:   210 TIME:   0.012 TIME LEFT:  2.00D  GRAD.:     1.817 HEAT:  24.33124
 CYCLE:   211 TIME:   0.012 TIME LEFT:  2.00D  GRAD.:     1.352 HEAT:  24.32847
 CYCLE:   212 TIME:   0.012 TIME LEFT:  2.00D  GRAD.:     0.949 HEAT:  24.32582
 CYCLE:   213 TIME:   0.012 TIME LEFT:  2.00D  GRAD.:     0.883 HEAT:  24.32437
 CYCLE:   214 TIME:   0.012 TIME LEFT:  2.00D  GRAD.:     0.837 HEAT:  24.32299
 CYCLE:   215 TIME:   0.012 TIME LEFT:  2.00D  GRAD.:     0.730 HEAT:  24.32164
 CYCLE:   216 TIME:   0.012 TIME LEFT:  2.00D  GRAD.:     0.822 HEAT:  24.32003
 CYCLE:   217 TIME:   0.012 TIME LEFT:  2.00D  GRAD.:     1.195 HEAT:  24.31815
 CYCLE:   218 TIME:   0.012 TIME LEFT:  2.00D  GRAD.:     1.361 HEAT:  24.31575
 CYCLE:   219 TIME:   0.016 TIME LEFT:  2.00D  GRAD.:     1.895 HEAT:  24.31320
 CYCLE:   220 TIME:   0.012 TIME LEFT:  2.00D  GRAD.:     2.052 HEAT:  24.30943
 CYCLE:   221 TIME:   0.012 TIME LEFT:  2.00D  GRAD.:     1.437 HEAT:  24.30658
 CYCLE:   222 TIME:   0.012 TIME LEFT:  2.00D  GRAD.:     0.792 HEAT:  24.30179
 CYCLE:   223 TIME:   0.012 TIME LEFT:  2.00D  GRAD.:     0.826 HEAT:  24.30041
 CYCLE:   224 TIME:   0.012 TIME LEFT:  2.00D  GRAD.:     0.480 HEAT:  24.29946
 CYCLE:   225 TIME:   0.008 TIME LEFT:  2.00D  GRAD.:     0.550 HEAT:  24.29928
 CYCLE:   226 TIME:   0.012 TIME LEFT:  2.00D  GRAD.:     0.233 HEAT:  24.29912
 CYCLE:   227 TIME:   0.016 TIME LEFT:  2.00D  GRAD.:     0.193 HEAT:  24.29904
 CYCLE:   228 TIME:   0.012 TIME LEFT:  2.00D  GRAD.:     0.279 HEAT:  24.29894
 CYCLE:   229 TIME:   0.012 TIME LEFT:  2.00D  GRAD.:     0.259 HEAT:  24.29884
 CYCLE:   230 TIME:   0.012 TIME LEFT:  2.00D  GRAD.:     0.258 HEAT:  24.29868
 CYCLE:   231 TIME:   0.012 TIME LEFT:  2.00D  GRAD.:     0.407 HEAT:  24.29840
 CYCLE:   232 TIME:   0.012 TIME LEFT:  2.00D  GRAD.:     0.628 HEAT:  24.29789
 CYCLE:   233 TIME:   0.012 TIME LEFT:  2.00D  GRAD.:     1.071 HEAT:  24.29665
 CYCLE:   234 TIME:   0.012 TIME LEFT:  2.00D  GRAD.:     1.112 HEAT:  24.29450
 CYCLE:   235 TIME:   0.012 TIME LEFT:  2.00D  GRAD.:     0.964 HEAT:  24.29267
 CYCLE:   236 TIME:   0.012 TIME LEFT:  2.00D  GRAD.:     0.822 HEAT:  24.29107
 CYCLE:   237 TIME:   0.012 TIME LEFT:  2.00D  GRAD.:     0.750 HEAT:  24.28985
 CYCLE:   238 TIME:   0.012 TIME LEFT:  2.00D  GRAD.:     0.655 HEAT:  24.28855
 CYCLE:   239 TIME:   0.012 TIME LEFT:  2.00D  GRAD.:     0.471 HEAT:  24.28802
 CYCLE:   240 TIME:   0.012 TIME LEFT:  2.00D  GRAD.:     0.344 HEAT:  24.28763
 CYCLE:   241 TIME:   0.012 TIME LEFT:  2.00D  GRAD.:     0.269 HEAT:  24.28752
 CYCLE:   242 TIME:   0.012 TIME LEFT:  2.00D  GRAD.:     0.165 HEAT:  24.28742
 CYCLE:   243 TIME:   0.012 TIME LEFT:  2.00D  GRAD.:     0.081 HEAT:  24.28739
 CYCLE:   244 TIME:   0.012 TIME LEFT:  2.00D  GRAD.:     0.068 HEAT:  24.28738
 CYCLE:   245 TIME:   0.012 TIME LEFT:  2.00D  GRAD.:     0.052 HEAT:  24.28738
 CYCLE:   246 TIME:   0.012 TIME LEFT:  2.00D  GRAD.:     0.021 HEAT:  24.28737

     GRADIENT =  0.02059 IS LESS THAN CUTOFF =  0.05000



 -------------------------------------------------------------------------------
 pm3  precise nosym THREADS=1
 InChI=1S/C12H20/c1-4-7-10(5-2)12-9-8-11(12)6-3/h4,8-12H,1,5-7H2,2-3H3



     GEOMETRY OPTIMISED USING EIGENVECTOR FOLLOWING (EF).     
     SCF FIELD WAS ACHIEVED                                   


                              PM3 CALCULATION
                                                       MOPAC v23.1.2 MacOS
                                                       Tue Jun  3 16:40:09 2025




          FINAL HEAT OF FORMATION =         24.28737 KCAL/MOL =     101.61837 KJ/MOL


          COSMO AREA              =        231.34 SQUARE ANGSTROMS
          COSMO VOLUME            =        252.22 CUBIC ANGSTROMS

          GRADIENT NORM           =          0.02059          =       0.00364 PER ATOM
          IONIZATION POTENTIAL    =          9.855119 EV
          HOMO LUMO ENERGIES (EV) =         -9.855  1.032
          NO. OF FILLED LEVELS    =         34
          MOLECULAR WEIGHT        =        164.2900         POINT GROUP:  C1  

          MOLECULAR DIMENSIONS (Angstroms)

            Atom       Atom       Distance
            H    25    H    24     8.21275
            H    32    H    30     7.02200
            H    31    H    23     3.70841


          SCF CALCULATIONS        =        267

          WALL-CLOCK TIME         =      3.066 SECONDS
          COMPUTATION TIME        =      2.225 SECONDS




   ATOM   CHEMICAL          X               Y               Z
  NUMBER   SYMBOL      (ANGSTROMS)     (ANGSTROMS)     (ANGSTROMS)

     1       C         -1.21680488  *  -0.11888950  *  -0.39794216  *
     2       C          0.12422970  *  -0.83290153  *  -0.49259775  *
     3       C          1.42880962  *   0.06324757  *  -0.51518280  *
     4       C         -2.34842462  *  -1.14806778  *  -0.50810468  *
     5       C          2.45410466  *  -0.27135074  *   0.54291271  *
     6       C         -1.33694880  *   0.69783491  *   0.89644480  *
     7       C         -2.33807585  *  -2.17174732  *   0.60688103  *
     8       C          3.69906007  *   0.57513331  *   0.40081850  *
     9       C          1.66929105  *  -0.52577597  *  -1.89941518  *
    10       C          0.54317759  *  -1.26377427  *  -1.89483091  *
    11       C         -0.90092705  *   2.10853191  *   0.70406196  *
    12       C         -1.61784984  *   3.15315871  *   1.10028232  *
    13       H         -1.31045149  *   0.57923862  *  -1.26624462  *
    14       H          1.21090337  *   1.15721719  *  -0.52920676  *
    15       H          0.16343797  *  -1.66377740  *   0.25300343  *
    16       H         -3.32482340  *  -0.62505327  *  -0.53224708  *
    17       H         -2.26029693  *  -1.66498053  *  -1.48534523  *
    18       H          2.71740448  *  -1.34647952  *   0.49434732  *
    19       H          1.99642642  *  -0.11853517  *   1.54109125  *
    20       H         -2.38104086  *   0.66549529  *   1.27124202  *
    21       H         -0.71788823  *   0.24380087  *   1.69784729  *
    22       H         -2.62652290  *  -1.73065950  *   1.57047844  *
    23       H         -1.32887580  *  -2.59880659  *   0.73497362  *
    24       H         -3.03059458  *  -2.99673882  *   0.40128547  *
    25       H          4.44501278  *   0.31747363  *   1.16318574  *
    26       H          4.16890768  *   0.43540611  *  -0.58203474  *
    27       H          3.47653876  *   1.64537411  *   0.50661007  *
    28       H          0.07525217  *   2.23824287  *   0.20883291  *
    29       H          2.49088387  *  -0.36417409  *  -2.58415814  *
    30       H          0.04863295  *  -1.93239400  *  -2.58677929  *
    31       H         -1.28267892  *   4.17696675  *   0.96603144  *
    32       H         -2.58575766  *   3.06309561  *   1.58617507  *

                             CARTESIAN COORDINATES

   1    C       -1.216804879    -0.118889496    -0.397942156
   2    C        0.124229700    -0.832901535    -0.492597749
   3    C        1.428809624     0.063247571    -0.515182797
   4    C       -2.348424617    -1.148067778    -0.508104678
   5    C        2.454104663    -0.271350744     0.542912714
   6    C       -1.336948803     0.697834910     0.896444797
   7    C       -2.338075854    -2.171747317     0.606881028
   8    C        3.699060066     0.575133309     0.400818499
   9    C        1.669291048    -0.525775969    -1.899415183
  10    C        0.543177590    -1.263774267    -1.894830914
  11    C       -0.900927047     2.108531906     0.704061958
  12    C       -1.617849844     3.153158710     1.100282316
  13    H       -1.310451491     0.579238615    -1.266244618
  14    H        1.210903369     1.157217190    -0.529206764
  15    H        0.163437966    -1.663777401     0.253003432
  16    H       -3.324823404    -0.625053272    -0.532247075
  17    H       -2.260296934    -1.664980533    -1.485345234
  18    H        2.717404475    -1.346479524     0.494347321
  19    H        1.996426422    -0.118535171     1.541091248
  20    H       -2.381040861     0.665495294     1.271242019
  21    H       -0.717888230     0.243800869     1.697847288
  22    H       -2.626522904    -1.730659504     1.570478439
  23    H       -1.328875800    -2.598806594     0.734973619
  24    H       -3.030594582    -2.996738822     0.401285474
  25    H        4.445012779     0.317473626     1.163185739
  26    H        4.168907684     0.435406112    -0.582034745
  27    H        3.476538763     1.645374114     0.506610072
  28    H        0.075252172     2.238242866     0.208832911
  29    H        2.490883868    -0.364174086    -2.584158136
  30    H        0.048632948    -1.932393996    -2.586779291
  31    H       -1.282678921     4.176966748     0.966031437
  32    H       -2.585757659     3.063095613     1.586175073


           Empirical Formula: C12 H20  =    32 atoms



      MOLECULAR POINT GROUP   :   C1  


                  EIGENVALUES  
 -42.32097 -37.12220 -34.00999 -32.62220 -28.21208 -25.08125 -24.57127 -23.12092
 -21.34986 -20.00828 -19.18261 -17.82626 -17.43680 -16.38606 -16.08656 -15.55073
 -15.18529 -14.81085 -14.45468 -14.34939 -14.22785 -13.85678 -13.41431 -12.97204
 -12.55241 -12.45078 -12.12747 -11.84553 -11.77790 -11.51468 -11.43886 -11.10372
 -10.11517  -9.85512   1.03160   1.17609   3.07205   3.19191   3.27724   3.41352
   3.51409   3.70903   3.75117   3.79796   3.88335   3.96162   3.99618   4.03553
   4.07870   4.16207   4.20869   4.26223   4.36273   4.40333   4.46298   4.54722
   4.69575   4.73878   4.80820   4.95270   4.99890   5.02936   5.14764   5.22693
   5.30267   5.64967   5.89400   6.19109


              NET ATOMIC CHARGES AND DIPOLE CONTRIBUTIONS

  ATOM NO.   TYPE          CHARGE      No. of ELECS.   s-Pop       p-Pop       
    1          C          -0.062490        4.0625     1.17714     2.88535
    2          C          -0.080034        4.0800     1.19802     2.88201
    3          C          -0.076547        4.0765     1.19382     2.88273
    4          C          -0.096707        4.0967     1.16214     2.93457
    5          C          -0.086320        4.0863     1.15453     2.93179
    6          C          -0.072501        4.0725     1.15394     2.91856
    7          C          -0.122048        4.1220     1.14084     2.98120
    8          C          -0.108384        4.1084     1.13770     2.97068
    9          C          -0.155602        4.1556     1.21919     2.93642
   10          C          -0.158839        4.1588     1.22001     2.93883
   11          C          -0.147430        4.1474     1.19988     2.94755
   12          C          -0.166229        4.1662     1.18233     2.98390
   13          H           0.071359        0.9286     0.92864
   14          H           0.088446        0.9116     0.91155
   15          H           0.089222        0.9108     0.91078
   16          H           0.051025        0.9490     0.94898
   17          H           0.050329        0.9497     0.94967
   18          H           0.053494        0.9465     0.94651
   19          H           0.051151        0.9488     0.94885
   20          H           0.059415        0.9406     0.94059
   21          H           0.060755        0.9392     0.93925
   22          H           0.039945        0.9601     0.96006
   23          H           0.045593        0.9544     0.95441
   24          H           0.039986        0.9600     0.96001
   25          H           0.037750        0.9622     0.96225
   26          H           0.039481        0.9605     0.96052
   27          H           0.037114        0.9629     0.96289
   28          H           0.105726        0.8943     0.89427
   29          H           0.126008        0.8740     0.87399
   30          H           0.126074        0.8739     0.87393
   31          H           0.078836        0.9212     0.92116
   32          H           0.081423        0.9186     0.91858
 DIPOLE           X         Y         Z       TOTAL
 POINT-CHG.     0.035    -0.155     0.137     0.209
 HYBRID         0.019    -0.027    -0.040     0.051
 SUM            0.054    -0.182     0.097     0.213


          ATOMIC ORBITAL ELECTRON POPULATIONS

     Atom    s        px        py        pz   
    1  C   1.17714   0.93997   0.96464   0.98073
    2  C   1.19802   0.93767   0.98041   0.96393
    3  C   1.19382   0.94822   0.99520   0.93932
    4  C   1.16214   0.97770   0.97088   0.98598
    5  C   1.15453   0.95499   0.99788   0.97892
    6  C   1.15394   1.01367   0.93577   0.96912
    7  C   1.14084   1.01294   0.98462   0.98364
    8  C   1.13770   0.96984   0.99085   1.00998
    9  C   1.21919   0.98013   0.98499   0.97130
   10  C   1.22001   0.97631   0.99067   0.97185
   11  C   1.19988   0.99509   0.95544   0.99702
   12  C   1.18233   0.99710   0.97547   1.01132
   13  H   0.92864
   14  H   0.91155
   15  H   0.91078
   16  H   0.94898
   17  H   0.94967
   18  H   0.94651
   19  H   0.94885
   20  H   0.94059
   21  H   0.93925
   22  H   0.96006
   23  H   0.95441
   24  H   0.96001
   25  H   0.96225
   26  H   0.96052
   27  H   0.96289
   28  H   0.89427
   29  H   0.87399
   30  H   0.87393
   31  H   0.92116
   32  H   0.91858
 *******************************************************************************
 **                                                                           **
 **                              MOPAC v23.1.2                                **
 **                                                                           **
 *******************************************************************************
 **          Digital Object Identifier (DOI): 10.5281/zenodo.6511958          **
 **    Visit the DOI location for information on how to cite this program.    **
 *******************************************************************************

                              PM3 CALCULATION RESULTS

 *******************************************************************************
 *  CALCULATION DONE: (MAX THREADS = 1)              Tue Jun  3 16:40:09 2025  *
 *  PM3        - The PM3 Hamiltonian to be used
 *  OLDGEO     - PREVIOUS GEOMETRY TO BE USED
 *  PRECISE    - TIGHTER CRITERIA TO BE USED
 *  NOSYM      - POINT-GROUP SYMMETRY SET TO C1
 *  THREADS=1  - MULTI-THREADING NOT USED
 *  T=         - A TIME OF 172800.0 SECONDS REQUESTED
 *  DUMP=N     - RESTART FILE WRITTEN EVERY 7200.0 SECONDS REQUESTED
 *  THERMO     - THERMODYNAMIC QUANTITIES TO BE CALCULATED
 *******************************************************************************
oldgeo thermo nosym precise THREADS=1  pm3
 InChI=1S/C12H20/c1-4-7-10(5-2)12-9-8-11(12)6-3/h4,8-12H,1,5-7H2,2-3H3

   ATOM   CHEMICAL          X               Y               Z
  NUMBER   SYMBOL      (ANGSTROMS)     (ANGSTROMS)     (ANGSTROMS)

     1       C         -1.21680488  *  -0.11888950  *  -0.39794216  *
     2       C          0.12422970  *  -0.83290153  *  -0.49259775  *
     3       C          1.42880962  *   0.06324757  *  -0.51518280  *
     4       C         -2.34842462  *  -1.14806778  *  -0.50810468  *
     5       C          2.45410466  *  -0.27135074  *   0.54291271  *
     6       C         -1.33694880  *   0.69783491  *   0.89644480  *
     7       C         -2.33807585  *  -2.17174732  *   0.60688103  *
     8       C          3.69906007  *   0.57513331  *   0.40081850  *
     9       C          1.66929105  *  -0.52577597  *  -1.89941518  *
    10       C          0.54317759  *  -1.26377427  *  -1.89483091  *
    11       C         -0.90092705  *   2.10853191  *   0.70406196  *
    12       C         -1.61784984  *   3.15315871  *   1.10028232  *
    13       H         -1.31045149  *   0.57923862  *  -1.26624462  *
    14       H          1.21090337  *   1.15721719  *  -0.52920676  *
    15       H          0.16343797  *  -1.66377740  *   0.25300343  *
    16       H         -3.32482340  *  -0.62505327  *  -0.53224708  *
    17       H         -2.26029693  *  -1.66498053  *  -1.48534523  *
    18       H          2.71740448  *  -1.34647952  *   0.49434732  *
    19       H          1.99642642  *  -0.11853517  *   1.54109125  *
    20       H         -2.38104086  *   0.66549529  *   1.27124202  *
    21       H         -0.71788823  *   0.24380087  *   1.69784729  *
    22       H         -2.62652290  *  -1.73065950  *   1.57047844  *
    23       H         -1.32887580  *  -2.59880659  *   0.73497362  *
    24       H         -3.03059458  *  -2.99673882  *   0.40128547  *
    25       H          4.44501278  *   0.31747363  *   1.16318574  *
    26       H          4.16890768  *   0.43540611  *  -0.58203474  *
    27       H          3.47653876  *   1.64537411  *   0.50661007  *
    28       H          0.07525217  *   2.23824287  *   0.20883291  *
    29       H          2.49088387  *  -0.36417409  *  -2.58415814  *
    30       H          0.04863295  *  -1.93239400  *  -2.58677929  *
    31       H         -1.28267892  *   4.17696675  *   0.96603144  *
    32       H         -2.58575766  *   3.06309561  *   1.58617507  *



          CARTESIAN COORDINATES 

    NO.       ATOM           X           Y           Z

     1         C         -1.2168     -0.1189     -0.3979
     2         C          0.1242     -0.8329     -0.4926
     3         C          1.4288      0.0632     -0.5152
     4         C         -2.3484     -1.1481     -0.5081
     5         C          2.4541     -0.2714      0.5429
     6         C         -1.3369      0.6978      0.8964
     7         C         -2.3381     -2.1717      0.6069
     8         C          3.6991      0.5751      0.4008
     9         C          1.6693     -0.5258     -1.8994
    10         C          0.5432     -1.2638     -1.8948
    11         C         -0.9009      2.1085      0.7041
    12         C         -1.6178      3.1532      1.1003
    13         H         -1.3105      0.5792     -1.2662
    14         H          1.2109      1.1572     -0.5292
    15         H          0.1634     -1.6638      0.2530
    16         H         -3.3248     -0.6251     -0.5322
    17         H         -2.2603     -1.6650     -1.4853
    18         H          2.7174     -1.3465      0.4943
    19         H          1.9964     -0.1185      1.5411
    20         H         -2.3810      0.6655      1.2712
    21         H         -0.7179      0.2438      1.6978
    22         H         -2.6265     -1.7307      1.5705
    23         H         -1.3289     -2.5988      0.7350
    24         H         -3.0306     -2.9967      0.4013
    25         H          4.4450      0.3175      1.1632
    26         H          4.1689      0.4354     -0.5820
    27         H          3.4765      1.6454      0.5066
    28         H          0.0753      2.2382      0.2088
    29         H          2.4909     -0.3642     -2.5842
    30         H          0.0486     -1.9324     -2.5868
    31         H         -1.2827      4.1770      0.9660
    32         H         -2.5858      3.0631      1.5862

  H: (PM3): J. J. P. STEWART, J. COMP. CHEM. 10, 209 (1989).
  C: (PM3): J. J. P. STEWART, J. COMP. CHEM. 10, 209 (1989).

           Empirical Formula: C12 H20  =    32 atoms



      MOLECULAR POINT GROUP   :   C1  


      RHF CALCULATION, NO. OF DOUBLY OCCUPIED LEVELS = 34



          HEAT OF FORMATION =      24.287374 KCALS/MOLE


          CARTESIAN COORDINATE DERIVATIVES

   NUMBER  ATOM         X            Y            Z

     1       C      0.000324    -0.000619    -0.000790
     2       C      0.001291    -0.001171    -0.000029
     3       C      0.000656    -0.001728    -0.002546
     4       C      0.001263     0.000728     0.000762
     5       C     -0.002952     0.000488    -0.004574
     6       C     -0.001888    -0.000562    -0.000456
     7       C     -0.001858     0.000201    -0.000602
     8       C      0.002819     0.001439    -0.002201
     9       C      0.001649     0.000493     0.003079
    10       C     -0.001005     0.000732     0.000779
    11       C     -0.000766    -0.000305    -0.000994
    12       C     -0.000748     0.000068    -0.000122
    13       H     -0.000624     0.000469     0.001352
    14       H      0.000767    -0.003701    -0.000864
    15       H     -0.001785     0.003489    -0.002455
    16       H     -0.000507    -0.000164    -0.000430
    17       H     -0.000432     0.000925    -0.000250
    18       H      0.004846    -0.006962    -0.000508
    19       H     -0.003232     0.000225     0.004079
    20       H      0.001896     0.000514     0.000497
    21       H      0.000921    -0.000372    -0.000218
    22       H      0.000263     0.001022     0.001238
    23       H      0.000608    -0.002461    -0.000781
    24       H      0.001102     0.000618     0.000873
    25       H      0.000482     0.002144     0.001945
    26       H     -0.000558    -0.000527     0.000441
    27       H     -0.001616     0.003314     0.000027
    28       H     -0.002016    -0.002060     0.000757
    29       H     -0.001435     0.000591     0.001422
    30       H     -0.000271     0.001747     0.001241
    31       H      0.000416     0.001041     0.000677
    32       H      0.002391     0.000384    -0.001351



          GRADIENT NORM =   0.01714

          MOLECULAR WEIGHT =  164.29



          ROTATIONAL CONSTANTS IN CM(-1)

          A =    0.03284290   B =    0.02261206   C =    0.01602987



           PRINCIPAL MOMENTS OF INERTIA IN UNITS OF 10**(-40)*GRAM-CM**2

          A =      852.3227   B =     1237.9565   C =     1746.2865


          ORIENTATION OF MOLECULE IN FORCE CALCULATION

    NO.       ATOM         X         Y         Z

     1          C      -0.9994   -0.7024   -0.3603
     2          C       0.5228   -0.7024   -0.3603
     3          C       1.2532    0.7019   -0.3603
     4          C      -1.5067   -2.1448   -0.4788
     5          C       2.2476    0.9067    0.7586
     6          C      -1.5688   -0.0175    0.8902
     7          C      -1.0868   -3.0248    0.6790
     8          C       2.9562    2.2372    0.6387
     9          C       1.8274    0.2731   -1.7046
    10          C       1.1812   -0.9080   -1.7210
    11          C      -1.8344    1.4290    0.6573
    12          C      -2.9806    2.0194    0.9733
    13          H      -1.3554   -0.1448   -1.2616
    14          H       0.5490    1.5641   -0.4323
    15          H       0.9007   -1.4047    0.4219
    16          H      -2.6107   -2.1435   -0.5718
    17          H      -1.1258   -2.5752   -1.4273
    18          H       2.9869    0.0815    0.7695
    19          H       1.7107    0.8422    1.7265
    20          H      -2.4968   -0.5315    1.2163
    21          H      -0.8603   -0.1135    1.7389
    22          H      -1.6077   -2.7558    1.6078
    23          H      -0.0053   -2.9243    0.8731
    24          H      -1.2971   -4.0819    0.4771
    25          H       3.6868    2.3735    1.4460
    26          H       3.4967    2.3191   -0.3138
    27          H       2.2515    3.0782    0.6871
    28          H      -1.0045    1.9950    0.2035
    29          H       2.5180    0.7913   -2.3562
    30          H       1.1022   -1.7419   -2.4058
    31          H      -3.1572    3.0781    0.8105
    32          H      -3.8213    1.4921    1.4164


    FIRST DERIVATIVES WILL BE USED IN THE CALCULATION OF SECOND DERIVATIVES

          ESTIMATED TIME TO COMPLETE CALCULATION =        6.00 SECONDS

    FOR POINT-GROUP C1   THERE ARE   1 UNIQUE SYMMETRY FUNCTIONS.

 STEP:   1 TIME =     0.04 SECS, INTEGRAL =      0.04 TIME LEFT: 172799.95
 STEP:   2 TIME =     0.04 SECS, INTEGRAL =      0.07 TIME LEFT: 172799.91
 STEP:   3 TIME =     0.04 SECS, INTEGRAL =      0.11 TIME LEFT: 172799.88
 STEP:   4 TIME =     0.04 SECS, INTEGRAL =      0.15 TIME LEFT: 172799.84
 STEP:   5 TIME =     0.04 SECS, INTEGRAL =      0.18 TIME LEFT: 172799.80
 STEP:   6 TIME =     0.04 SECS, INTEGRAL =      0.22 TIME LEFT: 172799.77
 STEP:   7 TIME =     0.04 SECS, INTEGRAL =      0.25 TIME LEFT: 172799.73
 STEP:   8 TIME =     0.04 SECS, INTEGRAL =      0.29 TIME LEFT: 172799.70
 STEP:   9 TIME =     0.04 SECS, INTEGRAL =      0.32 TIME LEFT: 172799.66
 STEP:  10 TIME =     0.04 SECS, INTEGRAL =      0.36 TIME LEFT: 172799.62
 STEP:  11 TIME =     0.04 SECS, INTEGRAL =      0.39 TIME LEFT: 172799.59
 STEP:  12 TIME =     0.04 SECS, INTEGRAL =      0.43 TIME LEFT: 172799.55
 STEP:  13 TIME =     0.04 SECS, INTEGRAL =      0.46 TIME LEFT: 172799.52
 STEP:  14 TIME =     0.04 SECS, INTEGRAL =      0.50 TIME LEFT: 172799.48
 STEP:  15 TIME =     0.04 SECS, INTEGRAL =      0.54 TIME LEFT: 172799.45
 STEP:  16 TIME =     0.04 SECS, INTEGRAL =      0.57 TIME LEFT: 172799.41
 STEP:  17 TIME =     0.04 SECS, INTEGRAL =      0.61 TIME LEFT: 172799.38
 STEP:  18 TIME =     0.04 SECS, INTEGRAL =      0.65 TIME LEFT: 172799.34
 STEP:  19 TIME =     0.04 SECS, INTEGRAL =      0.69 TIME LEFT: 172799.30
 STEP:  20 TIME =     0.04 SECS, INTEGRAL =      0.73 TIME LEFT: 172799.26
 STEP:  21 TIME =     0.04 SECS, INTEGRAL =      0.77 TIME LEFT: 172799.22
 STEP:  22 TIME =     0.04 SECS, INTEGRAL =      0.80 TIME LEFT: 172799.18
 STEP:  23 TIME =     0.04 SECS, INTEGRAL =      0.84 TIME LEFT: 172799.14
 STEP:  24 TIME =     0.04 SECS, INTEGRAL =      0.88 TIME LEFT: 172799.11
 STEP:  25 TIME =     0.04 SECS, INTEGRAL =      0.91 TIME LEFT: 172799.07
 STEP:  26 TIME =     0.04 SECS, INTEGRAL =      0.95 TIME LEFT: 172799.04
 STEP:  27 TIME =     0.04 SECS, INTEGRAL =      0.99 TIME LEFT: 172799.00
 STEP:  28 TIME =     0.04 SECS, INTEGRAL =      1.02 TIME LEFT: 172798.96
 STEP:  29 TIME =     0.04 SECS, INTEGRAL =      1.06 TIME LEFT: 172798.93
 STEP:  30 TIME =     0.04 SECS, INTEGRAL =      1.09 TIME LEFT: 172798.89
 STEP:  31 TIME =     0.04 SECS, INTEGRAL =      1.13 TIME LEFT: 172798.86
 STEP:  32 TIME =     0.04 SECS, INTEGRAL =      1.16 TIME LEFT: 172798.82
 STEP:  33 TIME =     0.04 SECS, INTEGRAL =      1.20 TIME LEFT: 172798.78
 STEP:  34 TIME =     0.04 SECS, INTEGRAL =      1.24 TIME LEFT: 172798.74
 STEP:  35 TIME =     0.04 SECS, INTEGRAL =      1.28 TIME LEFT: 172798.70
 STEP:  36 TIME =     0.04 SECS, INTEGRAL =      1.32 TIME LEFT: 172798.66
 STEP:  37 TIME =     0.04 SECS, INTEGRAL =      1.36 TIME LEFT: 172798.62
 STEP:  38 TIME =     0.04 SECS, INTEGRAL =      1.40 TIME LEFT: 172798.58
 STEP:  39 TIME =     0.04 SECS, INTEGRAL =      1.44 TIME LEFT: 172798.55
 STEP:  40 TIME =     0.04 SECS, INTEGRAL =      1.48 TIME LEFT: 172798.51
 STEP:  41 TIME =     0.04 SECS, INTEGRAL =      1.51 TIME LEFT: 172798.47
 STEP:  42 TIME =     0.04 SECS, INTEGRAL =      1.55 TIME LEFT: 172798.43
 STEP:  43 TIME =     0.04 SECS, INTEGRAL =      1.59 TIME LEFT: 172798.39
 STEP:  44 TIME =     0.04 SECS, INTEGRAL =      1.63 TIME LEFT: 172798.36
 STEP:  45 TIME =     0.04 SECS, INTEGRAL =      1.67 TIME LEFT: 172798.32
 STEP:  46 TIME =     0.04 SECS, INTEGRAL =      1.70 TIME LEFT: 172798.28
 STEP:  47 TIME =     0.04 SECS, INTEGRAL =      1.74 TIME LEFT: 172798.24
 STEP:  48 TIME =     0.04 SECS, INTEGRAL =      1.79 TIME LEFT: 172798.20
 STEP:  49 TIME =     0.04 SECS, INTEGRAL =      1.82 TIME LEFT: 172798.16
 STEP:  50 TIME =     0.04 SECS, INTEGRAL =      1.86 TIME LEFT: 172798.13
 STEP:  51 TIME =     0.04 SECS, INTEGRAL =      1.89 TIME LEFT: 172798.09
 STEP:  52 TIME =     0.04 SECS, INTEGRAL =      1.93 TIME LEFT: 172798.05
 STEP:  53 TIME =     0.04 SECS, INTEGRAL =      1.96 TIME LEFT: 172798.02
 STEP:  54 TIME =     0.04 SECS, INTEGRAL =      2.01 TIME LEFT: 172797.98
 STEP:  55 TIME =     0.04 SECS, INTEGRAL =      2.05 TIME LEFT: 172797.94
 STEP:  56 TIME =     0.04 SECS, INTEGRAL =      2.09 TIME LEFT: 172797.90
 STEP:  57 TIME =     0.04 SECS, INTEGRAL =      2.12 TIME LEFT: 172797.86
 STEP:  58 TIME =     0.04 SECS, INTEGRAL =      2.16 TIME LEFT: 172797.83
 STEP:  59 TIME =     0.04 SECS, INTEGRAL =      2.19 TIME LEFT: 172797.79
 STEP:  60 TIME =     0.04 SECS, INTEGRAL =      2.23 TIME LEFT: 172797.75
 STEP:  61 TIME =     0.04 SECS, INTEGRAL =      2.27 TIME LEFT: 172797.72
 STEP:  62 TIME =     0.04 SECS, INTEGRAL =      2.30 TIME LEFT: 172797.68
 STEP:  63 TIME =     0.04 SECS, INTEGRAL =      2.34 TIME LEFT: 172797.64
 STEP:  64 TIME =     0.04 SECS, INTEGRAL =      2.38 TIME LEFT: 172797.61
 STEP:  65 TIME =     0.04 SECS, INTEGRAL =      2.41 TIME LEFT: 172797.57
 STEP:  66 TIME =     0.04 SECS, INTEGRAL =      2.45 TIME LEFT: 172797.54
 STEP:  67 TIME =     0.04 SECS, INTEGRAL =      2.48 TIME LEFT: 172797.50
 STEP:  68 TIME =     0.04 SECS, INTEGRAL =      2.52 TIME LEFT: 172797.46
 STEP:  69 TIME =     0.04 SECS, INTEGRAL =      2.56 TIME LEFT: 172797.43
 STEP:  70 TIME =     0.04 SECS, INTEGRAL =      2.60 TIME LEFT: 172797.39
 STEP:  71 TIME =     0.03 SECS, INTEGRAL =      2.63 TIME LEFT: 172797.36
 STEP:  72 TIME =     0.04 SECS, INTEGRAL =      2.67 TIME LEFT: 172797.32
 STEP:  73 TIME =     0.04 SECS, INTEGRAL =      2.71 TIME LEFT: 172797.28
 STEP:  74 TIME =     0.04 SECS, INTEGRAL =      2.75 TIME LEFT: 172797.23
 STEP:  75 TIME =     0.04 SECS, INTEGRAL =      2.79 TIME LEFT: 172797.20
 STEP:  76 TIME =     0.04 SECS, INTEGRAL =      2.82 TIME LEFT: 172797.16
 STEP:  77 TIME =     0.04 SECS, INTEGRAL =      2.86 TIME LEFT: 172797.12
 STEP:  78 TIME =     0.04 SECS, INTEGRAL =      2.90 TIME LEFT: 172797.09
 STEP:  79 TIME =     0.04 SECS, INTEGRAL =      2.93 TIME LEFT: 172797.05
 STEP:  80 TIME =     0.04 SECS, INTEGRAL =      2.97 TIME LEFT: 172797.02
 STEP:  81 TIME =     0.04 SECS, INTEGRAL =      3.01 TIME LEFT: 172796.98
 STEP:  82 TIME =     0.04 SECS, INTEGRAL =      3.04 TIME LEFT: 172796.94
 STEP:  83 TIME =     0.04 SECS, INTEGRAL =      3.08 TIME LEFT: 172796.91
 STEP:  84 TIME =     0.04 SECS, INTEGRAL =      3.12 TIME LEFT: 172796.87
 STEP:  85 TIME =     0.04 SECS, INTEGRAL =      3.16 TIME LEFT: 172796.83
 STEP:  86 TIME =     0.04 SECS, INTEGRAL =      3.20 TIME LEFT: 172796.79
 STEP:  87 TIME =     0.04 SECS, INTEGRAL =      3.23 TIME LEFT: 172796.75
 STEP:  88 TIME =     0.04 SECS, INTEGRAL =      3.28 TIME LEFT: 172796.71
 STEP:  89 TIME =     0.04 SECS, INTEGRAL =      3.32 TIME LEFT: 172796.67
 STEP:  90 TIME =     0.04 SECS, INTEGRAL =      3.35 TIME LEFT: 172796.63
 STEP:  91 TIME =     0.04 SECS, INTEGRAL =      3.39 TIME LEFT: 172796.59
 STEP:  92 TIME =     0.04 SECS, INTEGRAL =      3.43 TIME LEFT: 172796.56
 STEP:  93 TIME =     0.04 SECS, INTEGRAL =      3.47 TIME LEFT: 172796.52
 STEP:  94 TIME =     0.04 SECS, INTEGRAL =      3.51 TIME LEFT: 172796.48
 STEP:  95 TIME =     0.04 SECS, INTEGRAL =      3.54 TIME LEFT: 172796.44
 STEP:  96 TIME =     0.04 SECS, INTEGRAL =      3.58 TIME LEFT: 172796.40

(To convert to Hartree/Bohr^2, multiply by (10^(-21) x N x a0^2)/(4.184 x 627.51) =  0.0642)


           FORCE MATRIX IN MILLIDYNES/ANGSTROM


                  C  1       C  2       C  3       C  4       C  5       C  6
 ------------------------------------------------------------------------------
     C    1  14.152867
     C    2   4.023503  14.182395
     C    3   0.444929   2.650407  14.297645
     C    4   3.746210   0.664708   0.046605  14.255575
     C    5   0.027889   0.492046   4.396821   0.005760  14.513750
     C    6   3.713102   0.602300   0.032752   0.614916   0.004506  14.501514
     C    7   0.604777   0.083791   0.005932   4.412799   0.000613   0.053778
     C    8   0.006269   0.047363   0.669963   0.001862   4.469512   0.000645
     C    9   0.046002   2.232201   3.936976   0.006410   0.544850   0.006588
     C   10   0.528864   3.875208   2.239335   0.037802   0.049781   0.045856
     C   11   0.659496   0.024810   0.052132   0.043168   0.003578   4.928291
     C   12   0.043183   0.003897   0.005415   0.007881   0.002190   0.831365
     H   13   4.212508   0.434870   0.012778   0.416469   0.000711   0.430146
     H   14   0.020526   0.421213   4.222371   0.002592   0.435710   0.010107
     H   15   0.439449   4.197286   0.418812   0.040990   0.028489   0.017128
     H   16   0.439483   0.049748   0.008028   4.463155   0.001215   0.026472
     H   17   0.433801   0.031616   0.001987   4.429660   0.000509   0.048586
     H   18   0.000926   0.018946   0.451626   0.000475   4.463340   0.000368
     H   19   0.001624   0.016775   0.432586   0.000405   4.438414   0.004169
     H   20   0.443152   0.039433   0.001998   0.078212   0.000445   4.402879
     H   21   0.456353   0.055927   0.005992   0.012366   0.004926   4.393266
     H   22   0.010891   0.003421   0.000593   0.464376   0.000132   0.015804
     H   23   0.027302   0.094408   0.001678   0.464664   0.000516   0.004815
     H   24   0.051257   0.006274   0.000649   0.452302   0.000129   0.003755
     H   25   0.001267   0.008286   0.052418   0.000494   0.451072   0.000204
     H   26   0.000504   0.001892   0.021551   0.000203   0.463336   0.000224
     H   27   0.000517   0.001537   0.023952   0.000174   0.463945   0.000269
     H   28   0.025708   0.006855   0.081819   0.002179   0.003462   0.432838
     H   29   0.016434   0.117452   0.341857   0.001701   0.008482   0.002617
     H   30   0.009982   0.340461   0.117304   0.009150   0.016578   0.002276
     H   31   0.017294   0.001016   0.000506   0.002680   0.000313   0.140475
     H   32   0.010067   0.001001   0.000615   0.002056   0.000346   0.099757


                  C  7       C  8       C  9       C 10       C 11       C 12
 ------------------------------------------------------------------------------
     C    7  14.293406
     C    8   0.000345  14.379210
     C    9   0.001138   0.029302  18.386358
     C   10   0.004142   0.006516  10.398291  18.363192
     C   11   0.002777   0.001429   0.004813   0.004519  18.115382
     C   12   0.000854   0.000521   0.002794   0.001915  11.079423  18.026573
     H   13   0.048867   0.000513   0.003408   0.024814   0.069513   0.003715
     H   14   0.000453   0.029797   0.414702   0.043060   0.090948   0.004336
     H   15   0.093617   0.002493   0.041821   0.413949   0.001482   0.000662
     H   16   0.438052   0.000515   0.000894   0.002171   0.001783   0.000799
     H   17   0.437080   0.000261   0.000745   0.007126   0.007492   0.001839
     H   18   0.000177   0.437770   0.016597   0.003279   0.000774   0.000602
     H   19   0.000183   0.440473   0.046116   0.005992   0.001378   0.000567
     H   20   0.015048   0.000250   0.001083   0.007259   0.458444   0.051753
     H   21   0.004926   0.000449   0.001128   0.002200   0.413793   0.034024
     H   22   4.715781   0.000075   0.000281   0.000997   0.000592   0.000592
     H   23   4.551447   0.000271   0.000630   0.002338   0.000541   0.000444
     H   24   4.777161   0.000095   0.000264   0.001160   0.000697   0.000240
     H   25   0.000126   4.755541   0.002038   0.000989   0.000374   0.000216
     H   26   0.000076   4.721397   0.003983   0.000717   0.000451   0.000150
     H   27   0.000081   4.720565   0.002260   0.000740   0.000750   0.000323
     H   28   0.000471   0.001490   0.004174   0.001775   4.593684   0.450625
     H   29   0.000326   0.005383   5.272340   0.422201   0.001149   0.000478
     H   30   0.001845   0.001471   0.422129   5.265091   0.001194   0.000564
     H   31   0.000347   0.000233   0.000469   0.000577   0.462132   5.105954
     H   32   0.000427   0.000164   0.000528   0.000517   0.492588   5.067633


                  H 13       H 14       H 15       H 16       H 17       H 18
 ------------------------------------------------------------------------------
     H   13   4.679644
     H   14   0.008756   4.916471
     H   15   0.041063   0.023064   4.765823
     H   16   0.035477   0.000646   0.002307   5.079103
     H   17   0.037118   0.000603   0.002789   0.565856   5.038604
     H   18   0.000409   0.042795   0.016188   0.000112   0.000128   5.070606
     H   19   0.000284   0.023553   0.007366   0.000104   0.000185   0.566518
     H   20   0.011869   0.001026   0.001111   0.031659   0.002622   0.000156
     H   21   0.036769   0.001548   0.020382   0.001083   0.001982   0.000279
     H   22   0.001465   0.000107   0.000983   0.029485   0.048089   0.000050
     H   23   0.002690   0.000605   0.092975   0.048284   0.019800   0.000255
     H   24   0.008096   0.000177   0.002370   0.023170   0.035453   0.000076
     H   25   0.000107   0.002140   0.000645   0.000141   0.000079   0.030680
     H   26   0.000103   0.002177   0.000426   0.000061   0.000080   0.023652
     H   27   0.000138   0.020575   0.000514   0.000057   0.000041   0.048122
     H   28   0.016997   0.251372   0.000902   0.000772   0.000645   0.001100
     H   29   0.001331   0.006046   0.014346   0.000365   0.000528   0.002481
     H   30   0.002487   0.014495   0.005774   0.000897   0.012347   0.001441
     H   31   0.000981   0.000869   0.000179   0.000216   0.000519   0.000093
     H   32   0.000896   0.000693   0.000237   0.000264   0.000411   0.000109


                  H 19       H 20       H 21       H 22       H 23       H 24
 ------------------------------------------------------------------------------
     H   19   5.039717
     H   20   0.000320   5.016963
     H   21   0.010335   0.564980   4.992027
     H   22   0.000107   0.025339   0.005088   5.455913
     H   23   0.000217   0.000761   0.001607   0.570773   5.316623
     H   24   0.000074   0.000679   0.000452   0.572521   0.548994   5.497231
     H   25   0.027701   0.000070   0.000149   0.000020   0.000105   0.000025
     H   26   0.048986   0.000092   0.000196   0.000039   0.000074   0.000024
     H   27   0.024846   0.000062   0.000124   0.000016   0.000075   0.000027
     H   28   0.001058   0.039874   0.017125   0.000377   0.000278   0.000252
     H   29   0.001800   0.000491   0.000443   0.000137   0.000385   0.000198
     H   30   0.002419   0.000604   0.000793   0.000724   0.001007   0.000660
     H   31   0.000160   0.003400   0.018786   0.000133   0.000131   0.000097
     H   32   0.000164   0.029681   0.012688   0.000216   0.000153   0.000113


                  H 25       H 26       H 27       H 28       H 29       H 30
 ------------------------------------------------------------------------------
     H   25   5.490607
     H   26   0.570949   5.456952
     H   27   0.573890   0.577184   5.463518
     H   28   0.000375   0.000386   0.001621   5.126576
     H   29   0.000770   0.007004   0.000687   0.001090   5.659341
     H   30   0.000373   0.000448   0.000219   0.000798   0.030968   5.653256
     H   31   0.000079   0.000069   0.000104   0.080718   0.000232   0.000219
     H   32   0.000063   0.000054   0.000085   0.119385   0.000188   0.000223


                  H 31       H 32
 ------------------------------
     H   31   5.495624
     H   32   0.424390   5.464996


          HEAT OF FORMATION =      24.287374 KCALS/MOLE

          ZERO POINT ENERGY     180.209 KCAL/MOL


           NORMAL COORDINATE ANALYSIS (Total motion = 1 Angstrom)


   Root No.       1         2         3         4         5         6         7         8

                 1 A       2 A       3 A       4 A       5 A       6 A       7 A       8 A   

                  42.4      56.8      75.2     112.5     119.3     128.5     182.2     190.4
  
           1   -0.0000   -0.0024   -0.0018   -0.0116    0.0007   -0.0054    0.0002   -0.0050
           2   -0.0002    0.0019   -0.0091   -0.0050   -0.0028    0.0011    0.0070    0.0143
           3   -0.0063    0.0010   -0.0152   -0.0030   -0.0033    0.0079    0.0036   -0.0068
           4    0.0000   -0.0023   -0.0018   -0.0119    0.0016   -0.0052    0.0002   -0.0061
           5   -0.0021    0.0081    0.0007    0.0092    0.0041    0.0018    0.0077    0.0150
           6    0.0087    0.0135   -0.0119   -0.0090    0.0105    0.0163    0.0070   -0.0057
           7   -0.0006   -0.0066   -0.0045   -0.0069    0.0034   -0.0003    0.0060   -0.0001
           8   -0.0018    0.0107    0.0020    0.0063    0.0036   -0.0008    0.0049    0.0103
           9   -0.0089    0.0110   -0.0007   -0.0074    0.0067    0.0076   -0.0113   -0.0261
          10   -0.0005    0.0049    0.0109    0.0094    0.0154   -0.0036    0.0082    0.0057
          11    0.0010    0.0003   -0.0158   -0.0141   -0.0081    0.0005    0.0047    0.0105
          12   -0.0190   -0.0113    0.0061    0.0053   -0.0098    0.0049   -0.0026   -0.0022
          13   -0.0140   -0.0075   -0.0128   -0.0198    0.0286    0.0150    0.0163   -0.0128
          14    0.0221    0.0172   -0.0053    0.0014   -0.0070   -0.0068   -0.0071   -0.0032
          15   -0.0015    0.0107    0.0080    0.0048   -0.0129   -0.0043   -0.0173   -0.0117
          16   -0.0106   -0.0165   -0.0105   -0.0207   -0.0246   -0.0183   -0.0092   -0.0034
          17   -0.0080   -0.0075    0.0033   -0.0129   -0.0116    0.0088    0.0016    0.0031
          18   -0.0069   -0.0005   -0.0263   -0.0031   -0.0109   -0.0024    0.0018    0.0004
          19   -0.0114    0.0002    0.0100    0.0257   -0.0147    0.0424    0.0067    0.0167
          20   -0.0049   -0.0043    0.0075   -0.0017    0.0059   -0.0208    0.0045    0.0234
          21   -0.0196   -0.0131    0.0245    0.0093    0.0120   -0.0283   -0.0021    0.0043
          22   -0.0241    0.0516    0.0062   -0.0005    0.0060    0.0024    0.0081    0.0083
          23    0.0265   -0.0191   -0.0154   -0.0089    0.0063    0.0005   -0.0002   -0.0133
          24   -0.0136   -0.0432    0.0101    0.0088   -0.0019    0.0016    0.0173    0.0173
          25    0.0151   -0.0004    0.0038   -0.0008   -0.0121   -0.0106   -0.0080    0.0161
          26   -0.0263    0.0073    0.0099    0.0026    0.0078   -0.0070   -0.0094   -0.0232
          27    0.0057    0.0146    0.0002   -0.0034   -0.0013    0.0049   -0.0132   -0.0100
          28    0.0150    0.0060    0.0045   -0.0113   -0.0022   -0.0088   -0.0057    0.0099
          29   -0.0264    0.0039    0.0096    0.0083    0.0025   -0.0080   -0.0109   -0.0203
          30    0.0195    0.0181   -0.0102   -0.0088    0.0083    0.0160    0.0071    0.0081
          31    0.0106   -0.0152   -0.0176    0.0229   -0.0038   -0.0134   -0.0121   -0.0105
          32   -0.0015   -0.0062    0.0005   -0.0010   -0.0055    0.0081    0.0011    0.0033
          33    0.0102    0.0060   -0.0355    0.0223    0.0040   -0.0163    0.0020    0.0142
          34    0.0263   -0.0173    0.0107    0.0225    0.0010   -0.0013   -0.0131   -0.0219
          35    0.0153   -0.0084    0.0144    0.0195    0.0057    0.0237   -0.0020   -0.0159
          36    0.0360    0.0027    0.0418   -0.0182    0.0007   -0.0018    0.0049    0.0103
          37    0.0089    0.0028   -0.0042   -0.0225    0.0071    0.0009    0.0022   -0.0096
          38    0.0059    0.0052   -0.0253   -0.0111   -0.0044   -0.0029    0.0079    0.0154
          39   -0.0060    0.0009   -0.0242   -0.0021   -0.0068    0.0026    0.0033   -0.0037
          40   -0.0009   -0.0085   -0.0043    0.0017    0.0059    0.0037    0.0071    0.0050
          41   -0.0040    0.0088    0.0019    0.0114    0.0063    0.0026    0.0069    0.0140
          42   -0.0333    0.0071   -0.0017   -0.0180    0.0229    0.0133   -0.0045   -0.0390
          43   -0.0088   -0.0059   -0.0002   -0.0054   -0.0021   -0.0049   -0.0008   -0.0101
          44    0.0105    0.0125   -0.0008    0.0107    0.0066    0.0064    0.0168    0.0314
          45    0.0241    0.0190   -0.0136   -0.0100    0.0142    0.0198    0.0157    0.0120
          46    0.0004    0.0056    0.0116    0.0091    0.0185   -0.0072    0.0088    0.0056
          47    0.0023   -0.0042   -0.0266   -0.0318   -0.0180   -0.0023   -0.0015   -0.0001
          48   -0.0292   -0.0198   -0.0014    0.0083   -0.0459    0.0462   -0.0094   -0.0005
          49    0.0078    0.0140    0.0211    0.0132    0.0497   -0.0378    0.0162    0.0082
          50    0.0056    0.0073   -0.0290   -0.0135   -0.0127    0.0179    0.0091    0.0084
          51   -0.0178   -0.0108    0.0163    0.0066    0.0060   -0.0168   -0.0015   -0.0001
          52   -0.0074   -0.0426   -0.0233   -0.0305    0.0410    0.0220    0.0230   -0.0228
          53    0.0283   -0.0139   -0.0148   -0.0080    0.0036   -0.0009   -0.0015   -0.0127
          54    0.0181    0.0525    0.0187    0.0210   -0.0518   -0.0272   -0.0385   -0.0097
          55   -0.0235   -0.0174   -0.0232   -0.0354    0.0562    0.0316    0.0205   -0.0272
          56    0.0318    0.0820    0.0052    0.0140   -0.0366   -0.0236   -0.0331   -0.0073
          57   -0.0061    0.0093    0.0029   -0.0029    0.0001    0.0036   -0.0164   -0.0197
          58   -0.0219   -0.0195   -0.0093   -0.0428   -0.0399   -0.0215   -0.0094   -0.0003
          59   -0.0010   -0.0107    0.0022    0.0051   -0.0056    0.0111   -0.0025   -0.0036
          60   -0.0279   -0.0142   -0.0245   -0.0369   -0.0445   -0.0083   -0.0052   -0.0006
          61   -0.0249   -0.0258   -0.0128   -0.0432   -0.0491   -0.0271   -0.0142   -0.0005
          62   -0.0281   -0.0126    0.0150   -0.0517   -0.0327    0.0144    0.0020   -0.0011
          63    0.0029    0.0066   -0.0228    0.0112    0.0069    0.0054    0.0059   -0.0022
          64   -0.0232   -0.0098    0.0057    0.0312   -0.0557    0.0970   -0.0166    0.0192
          65   -0.0120   -0.0132    0.0231    0.0032    0.0019   -0.0191   -0.0149    0.0287
          66   -0.0241   -0.0161    0.0176    0.0110   -0.0098    0.0019   -0.0096    0.0042
          67   -0.0140   -0.0022    0.0090    0.0265   -0.0238    0.0542    0.0010    0.0168
          68   -0.0024    0.0013    0.0145    0.0068    0.0265   -0.0459    0.0255    0.0301
          69   -0.0062   -0.0028    0.0265    0.0003    0.0526   -0.0825    0.0192    0.0001
          70   -0.0058    0.0085    0.0143    0.0315    0.0119    0.0101    0.0339    0.0222
          71   -0.0043   -0.0044    0.0030   -0.0049    0.0010   -0.0142    0.0015    0.0203
          72   -0.0284   -0.0215    0.0436    0.0199    0.0101   -0.0293   -0.0149    0.0150
          73   -0.0332    0.0510   -0.0014   -0.0174    0.0421    0.0276   -0.1061    0.0561
          74    0.0444   -0.0147   -0.0215   -0.0108   -0.0110   -0.0120    0.0494   -0.0719
          75   -0.0084   -0.0435    0.0180    0.0244   -0.0316   -0.0190    0.1125   -0.0159
          76   -0.0155    0.0628    0.0184    0.0225   -0.0395   -0.0287    0.1384   -0.0423
          77    0.0175   -0.0859   -0.0271   -0.0245    0.0451    0.0248   -0.0331    0.0245
          78   -0.0095   -0.0428    0.0159    0.0205   -0.0244   -0.0140    0.0888   -0.0081
          79   -0.0318    0.0879    0.0169    0.0091   -0.0027   -0.0016   -0.0133    0.0292
          80    0.0212    0.0138   -0.0058    0.0005   -0.0045   -0.0053   -0.0102   -0.0009
          81   -0.0326   -0.0872   -0.0020   -0.0151    0.0591    0.0424   -0.1177    0.1004
          82    0.0123   -0.0124   -0.0461    0.0534    0.0069   -0.0173   -0.0114   -0.0056
          83   -0.0108   -0.0041   -0.0115   -0.0054   -0.0091   -0.0039   -0.0011    0.0089
          84    0.0018    0.0136   -0.1026    0.0740    0.0196   -0.0387   -0.0010    0.0279
          85    0.0226   -0.0003    0.0072    0.0072   -0.0237   -0.0154   -0.0152    0.0301
          86   -0.0381    0.0075    0.0141   -0.0024    0.0123   -0.0100   -0.0170   -0.0438
          87    0.0042    0.0148    0.0072    0.0012   -0.0100   -0.0025   -0.0266   -0.0115
          88    0.0229    0.0138    0.0083   -0.0162   -0.0001   -0.0111   -0.0083    0.0174
          89   -0.0385   -0.0003    0.0137    0.0109   -0.0006   -0.0130   -0.0207   -0.0374
          90    0.0334    0.0222   -0.0155   -0.0114    0.0117    0.0223    0.0192    0.0281
          91    0.0419   -0.0169    0.0073    0.0568    0.0169    0.0063   -0.0171   -0.0357
          92    0.0200   -0.0077    0.0136    0.0277    0.0101    0.0234   -0.0026   -0.0163
          93    0.0496    0.0074    0.0399   -0.0017    0.0126   -0.0128    0.0053    0.0237
          94    0.0248   -0.0195    0.0395   -0.0119   -0.0104    0.0021   -0.0102   -0.0191
          95    0.0256   -0.0113    0.0277    0.0301    0.0114    0.0384   -0.0047   -0.0344
          96    0.0454   -0.0050    0.1122   -0.0710   -0.0143    0.0220    0.0074   -0.0061


   Root No.       9        10        11        12        13        14        15        16

                 9 A      10 A      11 A      12 A      13 A      14 A      15 A      16 A   

                 201.3     249.6     271.0     299.4     339.3     345.7     369.5     436.5
  
           1   -0.0015   -0.0115   -0.0073    0.0078    0.0171   -0.0024   -0.0217   -0.0123
           2   -0.0012    0.0067   -0.0062    0.0116   -0.0030    0.0004   -0.0040   -0.0103
           3    0.0106   -0.0043    0.0115    0.0155    0.0012   -0.0176   -0.0127   -0.0140
           4   -0.0024   -0.0104   -0.0069    0.0041    0.0178   -0.0040   -0.0250   -0.0071
           5    0.0048    0.0019    0.0150   -0.0038   -0.0168   -0.0059    0.0148   -0.0227
           6    0.0012   -0.0151   -0.0025    0.0086    0.0015    0.0154    0.0020   -0.0113
           7   -0.0039    0.0205    0.0163    0.0063    0.0142    0.0048   -0.0106   -0.0084
           8    0.0056   -0.0160    0.0126   -0.0144   -0.0123   -0.0072    0.0106   -0.0141
           9   -0.0066    0.0113   -0.0122    0.0036   -0.0034    0.0145    0.0058    0.0092
          10    0.0028   -0.0063   -0.0053    0.0441    0.0048   -0.0182    0.0149   -0.0048
          11   -0.0021    0.0030   -0.0068    0.0049   -0.0023    0.0080   -0.0225   -0.0152
          12    0.0049    0.0055    0.0015   -0.0238    0.0121   -0.0105   -0.0067   -0.0166
          13   -0.0113    0.0200    0.0074   -0.0109   -0.0028    0.0038    0.0057    0.0062
          14    0.0029   -0.0071    0.0248   -0.0064    0.0170    0.0136    0.0002    0.0169
          15    0.0003    0.0104   -0.0044    0.0151    0.0072    0.0146   -0.0054   -0.0047
          16    0.0099   -0.0144   -0.0062    0.0053   -0.0082    0.0068    0.0196    0.0162
          17    0.0064    0.0012   -0.0161    0.0056    0.0165   -0.0087    0.0225   -0.0011
          18    0.0115   -0.0029    0.0161    0.0181   -0.0224   -0.0163   -0.0135    0.0033
          19    0.0030    0.0136   -0.0197    0.0071   -0.0064    0.0169   -0.0035    0.0081
          20   -0.0195    0.0072   -0.0139    0.0122   -0.0218    0.0354   -0.0225    0.0109
          21   -0.0080    0.0027    0.0001   -0.0060    0.0019   -0.0020    0.0004   -0.0008
          22    0.0024   -0.0085    0.0249   -0.0137    0.0118    0.0096    0.0035    0.0183
          23   -0.0044    0.0074    0.0193   -0.0078    0.0110    0.0119    0.0026    0.0163
          24    0.0071   -0.0181    0.0193   -0.0060    0.0120    0.0080   -0.0008    0.0099
          25   -0.0044    0.0396    0.0165   -0.0101   -0.0077   -0.0269    0.0008   -0.0077
          26   -0.0015   -0.0182   -0.0131   -0.0144   -0.0073   -0.0103   -0.0069   -0.0041
          27   -0.0047    0.0196   -0.0040   -0.0053   -0.0158    0.0012    0.0170    0.0075
          28   -0.0060   -0.0154   -0.0229   -0.0309   -0.0111   -0.0317   -0.0157    0.0061
          29   -0.0008    0.0125    0.0087   -0.0030   -0.0055   -0.0076    0.0025   -0.0115
          30    0.0008   -0.0199   -0.0083   -0.0087   -0.0152    0.0080    0.0134   -0.0059
          31    0.0018   -0.0120   -0.0048   -0.0069   -0.0036    0.0225    0.0211   -0.0206
          32    0.0023    0.0030   -0.0212    0.0019    0.0242   -0.0092    0.0261   -0.0035
          33   -0.0100    0.0069   -0.0119   -0.0010    0.0071   -0.0168   -0.0049    0.0180
          34    0.0071   -0.0155    0.0069   -0.0034   -0.0162    0.0181    0.0026   -0.0106
          35    0.0099   -0.0024   -0.0029    0.0096    0.0012   -0.0284   -0.0143    0.0271
          36   -0.0061    0.0064   -0.0058   -0.0028    0.0101   -0.0015    0.0044    0.0002
          37   -0.0083   -0.0175   -0.0188    0.0082    0.0309    0.0139   -0.0388   -0.0160
          38   -0.0030    0.0042   -0.0059    0.0232   -0.0122    0.0059   -0.0212   -0.0051
          39    0.0117   -0.0032    0.0156    0.0218   -0.0102   -0.0205   -0.0159   -0.0080
          40   -0.0008    0.0230    0.0225    0.0040   -0.0027    0.0081    0.0023   -0.0226
          41    0.0071   -0.0120    0.0164   -0.0147   -0.0237   -0.0049    0.0198   -0.0248
          42   -0.0132    0.0061   -0.0316    0.0003   -0.0016    0.0123    0.0008    0.0174
          43    0.0034   -0.0078   -0.0010    0.0091    0.0200   -0.0034   -0.0343   -0.0080
          44    0.0116   -0.0132    0.0115   -0.0123   -0.0252   -0.0006    0.0172   -0.0263
          45    0.0051   -0.0292   -0.0080   -0.0015   -0.0085    0.0186    0.0100   -0.0149
          46    0.0029   -0.0075   -0.0046    0.0501    0.0042   -0.0208    0.0182   -0.0038
          47   -0.0046   -0.0044   -0.0031   -0.0227    0.0105    0.0125   -0.0485   -0.0308
          48    0.0038    0.0195   -0.0085   -0.0849    0.0158    0.0202   -0.0394   -0.0214
          49    0.0046   -0.0162    0.0020    0.1090   -0.0047   -0.0473    0.0550    0.0063
          50    0.0110    0.0034   -0.0040    0.0206   -0.0046   -0.0039   -0.0163   -0.0184
          51   -0.0006    0.0015    0.0031   -0.0058    0.0091   -0.0161    0.0058   -0.0107
          52   -0.0184    0.0334    0.0032   -0.0132   -0.0070    0.0029    0.0080    0.0099
          53   -0.0035    0.0053    0.0210   -0.0076    0.0141    0.0135    0.0016    0.0200
          54    0.0082    0.0107    0.0073    0.0425    0.0438    0.0336   -0.0313   -0.0070
          55   -0.0209    0.0299   -0.0064   -0.0274   -0.0280   -0.0034    0.0249    0.0148
          56    0.0085   -0.0070    0.0286    0.0128    0.0396    0.0296   -0.0142    0.0189
          57   -0.0044    0.0153   -0.0117    0.0075   -0.0047    0.0120    0.0039    0.0003
          58    0.0190   -0.0162   -0.0043    0.0126   -0.0203    0.0006    0.0300    0.0483
          59    0.0030   -0.0001   -0.0156   -0.0036    0.0191    0.0010    0.0269   -0.0206
          60    0.0303   -0.0094    0.0213    0.0220   -0.0507   -0.0169    0.0221    0.0588
          61    0.0221   -0.0172   -0.0036    0.0102   -0.0319    0.0046    0.0458    0.0657
          62    0.0232   -0.0065   -0.0083    0.0211    0.0055   -0.0213    0.0311    0.0311
          63    0.0032   -0.0016    0.0144    0.0155   -0.0040   -0.0155   -0.0332   -0.0331
          64   -0.1122   -0.0176    0.0078    0.0071   -0.0084    0.0044    0.0007    0.0030
          65   -0.1357   -0.0303    0.0127    0.0466   -0.0324    0.0251   -0.0044    0.0227
          66   -0.0396   -0.0041    0.0079   -0.0158    0.0036   -0.0059   -0.0025   -0.0069
          67   -0.0251    0.0054   -0.0125    0.0084   -0.0064    0.0126   -0.0020    0.0064
          68    0.0898    0.0499   -0.0463   -0.0180   -0.0319    0.0738   -0.0399    0.0271
          69    0.0941    0.0271   -0.0237    0.0019    0.0061    0.0042   -0.0009    0.0017
          70    0.1449    0.0676   -0.0631   -0.0254   -0.0145    0.0618   -0.0259    0.0259
          71   -0.0324    0.0000   -0.0075    0.0154   -0.0169    0.0244   -0.0196    0.0031
          72   -0.0895   -0.0163    0.0124    0.0114   -0.0165    0.0104    0.0077    0.0226
          73    0.0235   -0.0092    0.0288   -0.0020    0.0197    0.0148   -0.0021    0.0143
          74   -0.0289    0.0435   -0.0105    0.0025   -0.0072    0.0090    0.0037   -0.0046
          75   -0.0078   -0.0240    0.0214   -0.0187    0.0084    0.0041    0.0042    0.0179
          76   -0.0192   -0.0141    0.0250   -0.0286    0.0064    0.0053    0.0097    0.0277
          77    0.0058   -0.0012    0.0336   -0.0179    0.0139    0.0083    0.0050    0.0256
          78   -0.0042   -0.0222    0.0209   -0.0154    0.0095    0.0055    0.0030    0.0164
          79    0.0145   -0.0285    0.0380   -0.0145    0.0236    0.0148    0.0013    0.0285
          80    0.0037   -0.0081    0.0287   -0.0084    0.0198    0.0160    0.0010    0.0240
          81    0.0393   -0.0350    0.0407   -0.0052    0.0263    0.0112   -0.0046    0.0183
          82   -0.0064   -0.0038   -0.0107   -0.0125    0.0096    0.0147    0.0175   -0.0132
          83   -0.0042   -0.0004   -0.0418   -0.0066    0.0388   -0.0030    0.0472   -0.0001
          84   -0.0333    0.0152   -0.0502   -0.0235    0.0492   -0.0205    0.0172    0.0326
          85   -0.0048    0.0841    0.0398   -0.0135   -0.0253   -0.0465    0.0243   -0.0095
          86   -0.0051   -0.0387   -0.0393   -0.0184   -0.0016   -0.0089   -0.0247    0.0070
          87   -0.0080    0.0503   -0.0002   -0.0119   -0.0299   -0.0182    0.0279    0.0144
          88   -0.0081   -0.0489   -0.0546   -0.0645   -0.0350   -0.0608   -0.0185    0.0250
          89   -0.0032    0.0360    0.0169    0.0086    0.0053   -0.0008    0.0001   -0.0087
          90    0.0040   -0.0446   -0.0149   -0.0191   -0.0259    0.0029    0.0166   -0.0116
          91    0.0060   -0.0180    0.0113   -0.0047   -0.0241   -0.0033   -0.0333    0.0345
          92    0.0066   -0.0014   -0.0076    0.0055    0.0078   -0.0306   -0.0148    0.0348
          93   -0.0273    0.0167   -0.0410   -0.0293    0.0629    0.0100    0.0425   -0.0044
          94    0.0133   -0.0166    0.0143    0.0018   -0.0223    0.0332    0.0168   -0.0402
          95    0.0206   -0.0097    0.0195    0.0218   -0.0304   -0.0484   -0.0595    0.0605
[...]
 TRANSITION DIPOLE   0.1144         C  6 -- H 20         +39.9% ( 65.5%)     96.4%
 TRAVEL (Ang.)       0.2453         C  3 -- H 14         +12.6% ( 36.8%)    100.0%
 REDUCED MASS        0.3819         C  5 -- H 19          +1.3% ( 11.8%)     97.2%
 EFFECTIVE MASS      1.5285
 FORCE CONSTANT      1.9378

 VIBRATION         75   75A           ATOM PAIR      ENERGY CONTRIBUTION    RADIAL
 FREQUENCY          2951.02         C  4 -- H 17         +55.6% ( 77.4%)     97.3%
 TRANSITION DIPOLE   0.0111         C  4 -- H 16         +41.6% ( 67.0%)     95.6%
 TRAVEL (Ang.)       0.2088         C  4 -- C  7          +1.2% ( 11.4%)      0.0%
 REDUCED MASS        0.5241         C  1 -- C  4          +1.2% ( 11.3%)      0.0%
 EFFECTIVE MASS      1.5475
 FORCE CONSTANT      2.6890

 VIBRATION         76   76A           ATOM PAIR      ENERGY CONTRIBUTION    RADIAL
 FREQUENCY          2952.48         C  5 -- H 19         +51.0% ( 74.0%)     97.1%
 TRANSITION DIPOLE   0.0697         C  5 -- H 18         +41.1% ( 66.5%)     95.8%
 TRAVEL (Ang.)       0.2215         C  3 -- H 14          +4.5% ( 22.0%)    100.0%
 REDUCED MASS        0.4656         C  5 -- C  8          +1.1% ( 10.9%)      0.1%
 EFFECTIVE MASS      1.5358
 FORCE CONSTANT      2.3912

 VIBRATION         77   77A           ATOM PAIR      ENERGY CONTRIBUTION    RADIAL
 FREQUENCY          3012.41         C  6 -- H 20         +48.3% ( 68.5%)     97.8%
 TRANSITION DIPOLE   0.0636         C  6 -- H 21         +47.4% ( 67.9%)     97.6%
 TRAVEL (Ang.)       0.2214         C 11 -- H 28          +2.0% ( 14.0%)     99.6%
 REDUCED MASS        0.4567         C  6 -- C 11          +0.7% (  8.0%)     29.2%
 EFFECTIVE MASS      1.2792
 FORCE CONSTANT      2.4417

 VIBRATION         78   78A           ATOM PAIR      ENERGY CONTRIBUTION    RADIAL
 FREQUENCY          3022.55         C 11 -- H 28         +90.3% ( 95.9%)     99.9%
 TRANSITION DIPOLE   0.2961         C  3 -- H 14          +4.1% ( 20.5%)     98.7%
 TRAVEL (Ang.)       0.1675         C  6 -- H 20          +1.7% ( 13.0%)     99.2%
 REDUCED MASS        0.7947         C 11 -- C 12          +1.3% ( 11.4%)     32.4%
 EFFECTIVE MASS      1.4612
 FORCE CONSTANT      4.2775

 VIBRATION         79   79A           ATOM PAIR      ENERGY CONTRIBUTION    RADIAL
 FREQUENCY          3029.66         C  4 -- H 16         +53.7% ( 72.3%)     98.4%
 TRANSITION DIPOLE   0.0318         C  4 -- H 17         +40.3% ( 62.7%)     96.7%
 TRAVEL (Ang.)       0.2224         C  7 -- H 23          +2.5% ( 15.7%)     98.7%
 REDUCED MASS        0.4498         C  7 -- H 24          +0.7% (  8.0%)     87.6%
 EFFECTIVE MASS      1.2826
 FORCE CONSTANT      2.4326

 VIBRATION         80   80A           ATOM PAIR      ENERGY CONTRIBUTION    RADIAL
 FREQUENCY          3030.16         C  5 -- H 18         +53.7% ( 72.2%)     98.2%
 TRANSITION DIPOLE   0.0279         C  5 -- H 19         +43.0% ( 64.6%)     97.0%
 TRAVEL (Ang.)       0.2178         C  5 -- C  8          +0.6% (  7.8%)     26.5%
 REDUCED MASS        0.4692         C  3 -- C  5          +0.6% (  7.6%)     29.4%
 EFFECTIVE MASS      1.2765
 FORCE CONSTANT      2.5385

 VIBRATION         81   81A           ATOM PAIR      ENERGY CONTRIBUTION    RADIAL
 FREQUENCY          3043.49         C  7 -- H 23         +76.9% ( 90.0%)     99.3%
 TRANSITION DIPOLE   0.0419         C  7 -- H 22         +15.3% ( 40.2%)     86.1%
 TRAVEL (Ang.)       0.1868         C  7 -- H 24          +3.6% ( 19.3%)     50.1%
 REDUCED MASS        0.6347         C  4 -- H 16          +2.4% ( 16.0%)     99.5%
 EFFECTIVE MASS      1.4770
 FORCE CONSTANT      3.4636

 VIBRATION         82   82A           ATOM PAIR      ENERGY CONTRIBUTION    RADIAL
 FREQUENCY          3077.05         C  8 -- H 26         +49.8% ( 72.8%)     97.2%
 TRANSITION DIPOLE   0.0133         C  8 -- H 27         +48.0% ( 71.5%)     96.9%
 TRAVEL (Ang.)       0.2080         C  5 -- C  8          +1.0% ( 10.2%)      0.0%
 REDUCED MASS        0.5064         C  8 -- H 25          +0.9% ( 10.0%)      0.0%
 EFFECTIVE MASS      1.5016
 FORCE CONSTANT      2.8249

 VIBRATION         83   83A           ATOM PAIR      ENERGY CONTRIBUTION    RADIAL
 FREQUENCY          3084.03         C  7 -- H 24         +48.2% ( 71.6%)     97.5%
 TRANSITION DIPOLE   0.0169         C  7 -- H 22         +47.1% ( 70.7%)     96.4%
 TRAVEL (Ang.)       0.2124         C  7 -- H 23          +3.3% ( 18.8%)     38.6%
 REDUCED MASS        0.4844         C  4 -- C  7          +1.0% ( 10.3%)      0.0%
 EFFECTIVE MASS      1.5038
 FORCE CONSTANT      2.7147

 VIBRATION         84   84A           ATOM PAIR      ENERGY CONTRIBUTION    RADIAL
 FREQUENCY          3084.81         C  8 -- H 25         +61.1% ( 80.6%)     98.7%
 TRANSITION DIPOLE   0.0082         C  8 -- H 27         +19.1% ( 45.1%)     86.3%
 TRAVEL (Ang.)       0.2153         C  8 -- H 26         +18.3% ( 44.1%)     85.7%
 REDUCED MASS        0.4716         C  5 -- C  8          +1.0% ( 10.3%)      0.0%
 EFFECTIVE MASS      1.5038
 FORCE CONSTANT      2.6442

 VIBRATION         85   85A           ATOM PAIR      ENERGY CONTRIBUTION    RADIAL
 FREQUENCY          3134.75         C 12 -- H 32         +91.7% ( 97.5%)     99.9%
 TRANSITION DIPOLE   0.1994         C 12 -- H 31          +7.0% ( 26.9%)     71.9%
 TRAVEL (Ang.)       0.1590         C 11 -- C 12          +1.3% ( 11.7%)     21.9%
 REDUCED MASS        0.8514
 EFFECTIVE MASS      1.5388
 FORCE CONSTANT      4.9292

 VIBRATION         86   86A           ATOM PAIR      ENERGY CONTRIBUTION    RADIAL
 FREQUENCY          3147.15         C 12 -- H 31         +91.9% ( 96.5%)     99.7%
 TRANSITION DIPOLE   0.2498         C 12 -- H 32          +5.9% ( 24.5%)     42.3%
 TRAVEL (Ang.)       0.1616         C 11 -- C 12          +1.6% ( 12.6%)     71.8%
 REDUCED MASS        0.8207         C 11 -- H 28          +0.5% (  7.2%)     92.0%
 EFFECTIVE MASS      1.4613
 FORCE CONSTANT      4.7894

 VIBRATION         87   87A           ATOM PAIR      ENERGY CONTRIBUTION    RADIAL
 FREQUENCY          3167.63         C  7 -- H 24         +48.6% ( 67.4%)     98.5%
 TRANSITION DIPOLE   0.0204         C  7 -- H 22         +36.9% ( 58.7%)     97.2%
 TRAVEL (Ang.)       0.2373         C  7 -- H 23         +14.1% ( 36.3%)     89.2%
 REDUCED MASS        0.3781         C  4 -- C  7          +0.3% (  5.5%)     83.9%
 EFFECTIVE MASS      1.1553
 FORCE CONSTANT      2.2355

 VIBRATION         88   88A           ATOM PAIR      ENERGY CONTRIBUTION    RADIAL
 FREQUENCY          3179.71         C  8 -- H 25         +37.4% ( 58.8%)     97.7%
 TRANSITION DIPOLE   0.0288         C  8 -- H 27         +31.7% ( 54.1%)     96.8%
 TRAVEL (Ang.)       0.2541         C  8 -- H 26         +30.5% ( 53.2%)     96.6%
 REDUCED MASS        0.3285         C  5 -- C  8          +0.3% (  5.1%)     99.4%
 EFFECTIVE MASS      1.1371
 FORCE CONSTANT      1.9568

 VIBRATION         89   89A           ATOM PAIR      ENERGY CONTRIBUTION    RADIAL
 FREQUENCY          3191.43         C 10 -- H 30         +52.7% ( 74.4%)    100.0%
 TRANSITION DIPOLE   0.4692         C  9 -- H 29         +43.0% ( 67.2%)    100.0%
 TRAVEL (Ang.)       0.2123         C  9 -- C 10          +1.1% ( 10.5%)      0.5%
 REDUCED MASS        0.4688         C  3 -- C 10          +0.9% (  9.7%)     99.8%
 EFFECTIVE MASS      1.4626
 FORCE CONSTANT      2.8133

 VIBRATION         90   90A           ATOM PAIR      ENERGY CONTRIBUTION    RADIAL
 FREQUENCY          3212.06         C  9 -- H 29         +51.0% ( 73.9%)     99.9%
 TRANSITION DIPOLE   0.3879         C 10 -- H 30         +41.6% ( 66.7%)     99.9%
 TRAVEL (Ang.)       0.2102         C  9 -- C 10          +3.0% ( 18.0%)     99.8%
 REDUCED MASS        0.4751         C  2 -- C  9          +1.2% ( 11.3%)     98.2%
 EFFECTIVE MASS      1.7380
 FORCE CONSTANT      2.8879

      SYMMETRY NUMBER FOR POINT-GROUP C1  =  1


          SYSTEM IS A GROUND STATE



 InChI=1S/C12H20/c1-4-7-10(5-2)12-9-8-11(12)6-3/h4,8-12H,1,5-7H2,2-3H3


          MOLECULE IS NOT LINEAR

          THERE ARE 90 GENUINE VIBRATIONS IN THIS SYSTEM
          THIS THERMODYNAMICS CALCULATION IS LIMITED TO
          MOLECULES WHICH HAVE NO INTERNAL ROTATIONS




                    CALCULATED THERMODYNAMIC PROPERTIES
                                          *
   TEMP. (K)   PARTITION FUNCTION   H.O.F.    ENTHALPY  HEAT CAPACITY ENTROPY
                                   KCAL/MOL   CAL/MOLE    CAL/K/MOL  CAL/K/MOL


 298.00  VIB.     0.3640D+05                  6853.0622    45.8506    43.8669
         ROT.     0.1531D+07                   888.2803     2.9808    31.2818
         INT.     0.5573D+11                  7741.3425    48.8314    75.1487
         TRA.     0.2036D+28                  1480.4672     4.9680    41.1956
         TOT.                       24.287    9221.8097    53.7994   116.3443

 200.00  VIB.     0.7880D+03                  3150.9120    30.2766    29.0081
         ROT.     0.8419D+06                   596.1613     2.9808    30.0931
         INT.     0.6634D+09                  3747.0733    33.2574    59.1013
         TRA.     0.1119D+28                   993.6021     4.9680    39.2145
         TOT.                       19.806    4740.6754    38.2254    98.3158

 210.00  VIB.     0.1170D+04                  3460.7302    31.6940    30.5195
         ROT.     0.9059D+06                   625.9693     2.9808    30.2386
         INT.     0.1060D+10                  4086.6996    34.6748    60.7580
         TRA.     0.1204D+28                  1043.2822     4.9680    39.4569
         TOT.                       20.196    5129.9818    39.6428   100.2149

 220.00  VIB.     0.1736D+04                  3784.9343    33.1540    32.0274
         ROT.     0.9713D+06                   655.7774     2.9808    30.3772
         INT.     0.1686D+10                  4440.7117    36.1348    62.4046
         TRA.     0.1291D+28                  1092.9623     4.9680    39.6880
         TOT.                       20.599    5533.6740    41.1028   102.0926

 230.00  VIB.     0.2571D+04                  4123.9558    34.6575    33.5342
         ROT.     0.1038D+07                   685.5855     2.9808    30.5097
         INT.     0.2670D+10                  4809.5412    37.6383    64.0439
         TRA.     0.1380D+28                  1142.6424     4.9680    39.9088
         TOT.                       21.018    5952.1837    42.6063   103.9527

 240.00  VIB.     0.3805D+04                  4478.2262    36.2036    35.0417
         ROT.     0.1107D+07                   715.3935     2.9808    30.6366
         INT.     0.4211D+10                  5193.6198    39.1844    65.6783
         TRA.     0.1471D+28                  1192.3226     4.9680    40.1203
         TOT.                       21.452    6385.9423    44.1524   105.7986

 250.00  VIB.     0.5624D+04                  4848.1625    37.7902    36.5516
         ROT.     0.1177D+07                   745.2016     2.9808    30.7583
         INT.     0.6617D+10                  5593.3641    40.7710    67.3099
         TRA.     0.1564D+28                  1242.0027     4.9680    40.3231
         TOT.                       21.901    6835.3668    45.7390   107.6330

 260.00  VIB.     0.8306D+04                  5234.1548    39.4142    38.0653
         ROT.     0.1248D+07                   775.0097     2.9808    30.8752
         INT.     0.1037D+11                  6009.1644    42.3950    68.9405
         TRA.     0.1659D+28                  1291.6828     4.9680    40.5179
         TOT.                       22.366    7300.8472    47.3630   109.4584

 270.00  VIB.     0.1226D+05                  5636.5572    41.0715    39.5838
         ROT.     0.1321D+07                   804.8177     2.9808    30.9877
         INT.     0.1619D+11                  6441.3750    44.0523    70.5715
         TRA.     0.1756D+28                  1341.3629     4.9680    40.7054
         TOT.                       22.848    7782.7378    49.0203   111.2769

 280.00  VIB.     0.1809D+05                  6055.6819    42.7578    41.1079
         ROT.     0.1395D+07                   834.6258     2.9808    31.0961
         INT.     0.2522D+11                  6890.3077    45.7386    72.2040
         TRA.     0.1854D+28                  1391.0430     4.9680    40.8861
         TOT.                       23.347    8281.3506    50.7066   113.0901

 290.00  VIB.     0.2668D+05                  6491.7941    44.4682    42.6381
         ROT.     0.1470D+07                   864.4339     2.9808    31.2007
         INT.     0.3921D+11                  7356.2280    47.4490    73.8388
         TRA.     0.1954D+28                  1440.7231     4.9680    41.0604
         TOT.                       23.863    8796.9510    52.4171   114.8992

 300.00  VIB.     0.3933D+05                  6945.1106    46.1979    44.1747
         ROT.     0.1547D+07                   894.2419     2.9808    31.3017
         INT.     0.6084D+11                  7839.3525    49.1787    75.4765
         TRA.     0.2056D+28                  1490.4032     4.9680    41.2289
         TOT.                       24.395    9329.7557    54.1467   116.7053

 310.00  VIB.     0.5800D+05                  7415.7987    47.9417    45.7179
         ROT.     0.1625D+07                   924.0500     2.9808    31.3995
         INT.     0.9423D+11                  8339.8487    50.9225    77.1174
         TRA.     0.2160D+28                  1540.0833     4.9680    41.3918
         TOT.                       24.945    9879.9320    55.8906   118.5092

 320.00  VIB.     0.8552D+05                  7903.9769    49.6951    47.2677
         ROT.     0.1704D+07                   953.8580     2.9808    31.4941
         INT.     0.1457D+12                  8857.8350    52.6759    78.7618
         TRA.     0.2265D+28                  1589.7634     4.9680    41.5495
         TOT.                       25.513   10447.5984    57.6439   120.3113

 330.00  VIB.     0.1261D+06                  8409.7168    51.4533    48.8238
         ROT.     0.1784D+07                   983.6661     2.9808    31.5858
         INT.     0.2251D+12                  9393.3829    54.4341    80.4096
         TRA.     0.2372D+28                  1639.4435     4.9680    41.7024
         TOT.                       26.098   11032.8264    59.4021   122.1120

 340.00  VIB.     0.1861D+06                  8933.0453    53.2121    50.3860
         ROT.     0.1866D+07                  1013.4742     2.9808    31.6748
         INT.     0.3472D+12                  9946.5195    56.1929    82.0608
         TRA.     0.2481D+28                  1689.1236     4.9680    41.8507
         TOT.                       26.701   11635.6431    61.1609   123.9115

 350.00  VIB.     0.2745D+06                  9473.9479    54.9675    51.9538
         ROT.     0.1949D+07                  1043.2822     2.9808    31.7612
         INT.     0.5351D+12                 10517.2302    57.9483    83.7150
         TRA.     0.2591D+28                  1738.8037     4.9680    41.9947
         TOT.                       27.322   12256.0339    62.9163   125.7097

 360.00  VIB.     0.4052D+06                 10032.3718    56.7158    53.5268
         ROT.     0.2033D+07                  1073.0903     2.9808    31.8452
         INT.     0.8239D+12                 11105.4621    59.6966    85.3720
         TRA.     0.2703D+28                  1788.4838     4.9680    42.1347
         TOT.                       27.960   12893.9459    64.6646   127.5066

 370.00  VIB.     0.5983D+06                 10608.2295    58.4537    55.1045
         ROT.     0.2119D+07                  1102.8984     2.9808    31.9269
         INT.     0.1268D+13                 11711.1278    61.4346    87.0313
         TRA.     0.2817D+28                  1838.1639     4.9680    42.2708
         TOT.                       28.615   13549.2918    66.4026   129.3021

 380.00  VIB.     0.8839D+06                 11201.4024    60.1784    56.6863
         ROT.     0.2205D+07                  1132.7064     2.9808    32.0064
         INT.     0.1949D+13                 12334.1089    63.1592    88.6926
         TRA.     0.2932D+28                  1887.8440     4.9680    42.4033
         TOT.                       29.288   14221.9529    68.1272   131.0959

 390.00  VIB.     0.1306D+07                 11811.7448    61.8872    58.2716
         ROT.     0.2293D+07                  1162.5145     2.9808    32.0838
         INT.     0.2995D+13                 12974.2592    64.8680    90.3554
         TRA.     0.3048D+28                  1937.5242     4.9680    42.5323
         TOT.                       29.977   14911.7834    69.8360   132.8877

 400.00  VIB.     0.1931D+07                 12439.0865    63.5780    59.8598
         ROT.     0.2381D+07                  1192.3226     2.9808    32.1593
         INT.     0.4599D+13                 13631.4091    66.5588    92.0190
         TRA.     0.3166D+28                  1987.2043     4.9680    42.6581
         TOT.                       30.684   15618.6133    71.5268   134.6771

   *: NOTE: HEATS OF FORMATION ARE RELATIVE TO THE
            ELEMENTS IN THEIR STANDARD STATE AT 298K
              (=  Standard Enthalpy of Formation).

            Hvib:  Zero-point energy is not included.
                   frequencies of less than zero cm-1 are not included.
            Hrot = (3/2)RT
            Htra = (3/2)RT + pV = (5/2)RT

            Heat capacity is Cp, not Cv

          For more information, see: HTTP://OpenMOPAC.net/Manual/thermochemistry.html


           FORCE CONSTANT IN CARTESIAN COORDINATES (Millidynes/A)

    ATOM   CHEMICAL       X               Y               Z
   NUMBER   SYMBOL  FORCE CONSTANT  FORCE CONSTANT  FORCE CONSTANT

      1       C        8.166298        8.151543        8.184161
      2       C        8.810493        6.919298        8.289120
      3       C        7.432578        8.347645        8.391288
      4       C        8.457212        7.850453        8.369112
      5       C        8.333086        8.461267        8.342568
      6       C        8.348617        8.974672        7.738992
      7       C        8.072647        8.495454        8.179741
      8       C        8.323747        8.258139        8.320674
      9       C        7.617777       11.395742        7.546050
     10       C        5.249716       13.587247        7.668705
     11       C       12.920966       10.078941        3.974172
     12       C       12.852011       10.148598        3.463895
     13       H        1.100474        1.704788        3.240406
     14       H        2.467747        3.124445        0.742977
     15       H        1.274256        2.285228        2.603695
     16       H        4.957530        0.734637        0.729866
     17       H        1.254429        1.377039        3.744004
     18       H        2.662370        3.034984        0.692925
     19       H        1.738810        0.712081        3.887373
     20       H        3.723308        1.675875        1.020125
     21       H        2.493785        0.666792        3.110205
     22       H        1.787826        1.016506        3.961858
     23       H        5.046885        0.826817        0.844429
     24       H        0.841566        5.034159        0.911734
     25       H        2.735766        0.767018        3.288156
     26       H        1.785656        0.725355        4.240528
     27       H        2.731432        3.360293        0.681990
     28       H        3.239697        1.920797        1.168004
     29       H        2.482387        1.714587        2.378090
     30       H        0.478245        3.529824        2.570578
     31       H        0.766285        5.201615        0.505541
     32       H        3.461022        1.815693        1.181659

 **********************
 *                    *
 * JOB ENDED NORMALLY *
 *                    *
 **********************



 TOTAL JOB TIME:            10.01 SECONDS

 == MOPAC DONE ==
